<LesHouchesEvents version="3.0">
<header>
<!--
#*********************************************************************
#                                                                    *
#                        MadGraph5_aMC@NLO                           *
#                                                                    *
#                           Going Beyond                             *
#                                                                    *
#                   http://madgraph.hep.uiuc.edu                     *
#                   http://madgraph.phys.ucl.ac.be                   *
#                   http://amcatnlo.cern.ch                          *
#                                                                    *
#                     The MadGraph5_aMC@NLO team                     *
#                                                                    *
#....................................................................*
#                                                                    *
# This file contains all the information necessary to reproduce      *
# the events generated:                                              *
#                                                                    *
# 1. software version                                                *
# 2. proc_card          : code generation info including model       *
# 3. param_card         : model primary parameters in the LH format  *
# 4. run_card           : running parameters (collider and cuts)     *
# 5. pythia_card        : present only if pythia has been run        *
# 6. pgs_card           : present only if pgs has been run           *
# 7. delphes_cards      : present only if delphes has been run       *
#                                                                    *
#                                                                    *
#*********************************************************************
-->
<MGVersion>
#5.2.2.3
</MGVersion>
<MG5ProcCard>
#************************************************************
#*                     MadGraph5_aMC@NLO                    *
#*                                                          *
#*                *                       *                 *
#*                  *        * *        *                   *
#*                    * * * * 5 * * * *                     *
#*                  *        * *        *                   *
#*                *                       *                 *
#*                                                          *
#*                                                          *
#*         VERSION 2.2.3                 2015-02-10         *
#*                                                          *
#*    The MadGraph5_aMC@NLO Development Team - Find us at   *
#*    https://server06.fynu.ucl.ac.be/projects/madgraph     *
#*                                                          *
#************************************************************
#*                                                          *
#*               Command File for MadGraph5_aMC@NLO         *
#*                                                          *
#*     run as ./bin/mg5_aMC  filename                       *
#*                                                          *
#************************************************************
set group_subprocesses Auto
set ignore_six_quark_processes False
set loop_optimized_output True
set gauge unitary
set complex_mass_scheme False
import model sm
define p = g u c d s u~ c~ d~ s~
define j = g u c d s u~ c~ d~ s~
define l+ = e+ mu+
define l- = e- mu-
define vl = ve vm vt
define vl~ = ve~ vm~ vt~
import model Zprime_UFO
generate p p > zph, zph > j j
add process p p > zph, zph > b b~
output Dijet_signal
</MG5ProcCard>
<MGProcCard>
#*********************************************************************
#                        MadGraph/MadEvent                           *
#                   http://madgraph.hep.uiuc.edu                     *
#                                                                    *
#                          proc_card.dat                             *
#*********************************************************************
#                                                                    *
#            This Files is generated by MADGRAPH 5                   *
#                                                                    *
# WARNING: This Files is generated for MADEVENT (compatibility issue)*
#          This files is NOT a valid MG4 proc_card.dat               *
#          Running this in MG4 will NEVER reproduce the result of MG5*
#                                                                    *
#*********************************************************************
#*********************************************************************
# Process(es) requested : mg2 input                                  *
#*********************************************************************
# Begin PROCESS # This is TAG. Do not modify this line
p p > zph , zph > j j           #Process
# Be carefull the coupling are here in MG5 convention
          
end_coup           # End the couplings input

done               # this tells MG there are no more procs
# End PROCESS  # This is TAG. Do not modify this line
#*********************************************************************
# Model information                                                  *
#*********************************************************************
# Begin MODEL  # This is TAG. Do not modify this line
Zprime_UFO
# End   MODEL  # This is TAG. Do not modify this line
#*********************************************************************
# Start multiparticle definitions                                    *
#*********************************************************************
# Begin MULTIPARTICLES # This is TAG. Do not modify this line

# End  MULTIPARTICLES # This is TAG. Do not modify this line
</MGProcCard>
<MGRunCard>
#*********************************************************************
#                       MadGraph5_aMC@NLO                            *
#                                                                    *
#                     run_card.dat MadEvent                          *
#                                                                    *
#  This file is used to set the parameters of the run.               *
#                                                                    *
#  Some notation/conventions:                                        *
#                                                                    *
#   Lines starting with a '# ' are info or comments                  *
#                                                                    *
#   mind the format:   value    = variable     ! comment             *
#*********************************************************************
#
#*******************                                                 
# Running parameters
#*******************                                                 
#                                                                    
#*********************************************************************
# Tag name for the run (one word)                                    *
#*********************************************************************
  tag_1     = run_tag ! name of the run 
#*********************************************************************
# Run to generate the grid pack                                      *
#*********************************************************************
  .false.     = gridpack  !True = setting up the grid pack
#*********************************************************************
# Number of events and rnd seed                                      *
# Warning: Do not generate more than 1M events in a single run       *
# If you want to run Pythia, avoid more than 50k events in a run.    *
#*********************************************************************
  2000 = nevents ! Number of unweighted events requested 
 2910 = iseed   ! rnd seed (0=assigned automatically=default))
#*********************************************************************
# Collider type and energy                                           *
# lpp: 0=No PDF, 1=proton, -1=antiproton, 2=photon from proton,      *
#                                         3=photon from electron     *
#*********************************************************************
        1     = lpp1    ! beam 1 type 
        1     = lpp2    ! beam 2 type
     4000     = ebeam1  ! beam 1 total energy in GeV
     4000     = ebeam2  ! beam 2 total energy in GeV
#*********************************************************************
# Beam polarization from -100 (left-handed) to 100 (right-handed)    *
#*********************************************************************
        0     = polbeam1 ! beam polarization for beam 1
        0     = polbeam2 ! beam polarization for beam 2
#*********************************************************************
# PDF CHOICE: this automatically fixes also alpha_s and its evol.    *
#*********************************************************************
 'nn23lo1'    = pdlabel     ! PDF set                                     
 230000    = lhaid     ! if pdlabel=lhapdf, this is the lhapdf number
#*********************************************************************
# Renormalization and factorization scales                           *
#*********************************************************************
 F        = fixed_ren_scale  ! if .true. use fixed ren scale
 F        = fixed_fac_scale  ! if .true. use fixed fac scale
 91.1880  = scale            ! fixed ren scale
 91.1880  = dsqrt_q2fact1    ! fixed fact scale for pdf1
 91.1880  = dsqrt_q2fact2    ! fixed fact scale for pdf2
 1        = scalefact        ! scale factor for event-by-event scales
#*********************************************************************
# Matching - Warning! ickkw > 1 is still beta
#*********************************************************************
 0        = ickkw            ! 0 no matching, 1 MLM, 2 CKKW matching
 1        = highestmult      ! for ickkw=2, highest mult group
 1        = ktscheme         ! for ickkw=1, 1 Durham kT, 2 Pythia pTE
 1        = alpsfact         ! scale factor for QCD emission vx
 F        = chcluster        ! cluster only according to channel diag
 T        = pdfwgt           ! for ickkw=1, perform pdf reweighting
 5        = asrwgtflavor     ! highest quark flavor for a_s reweight
 T        = clusinfo         ! include clustering tag in output
 3.0      = lhe_version       ! Change the way clustering information pass to shower.        
#*********************************************************************
#**********************************************************
#
#**********************************************************
# Automatic ptj and mjj cuts if xqcut > 0
# (turn off for VBF and single top processes)
#**********************************************************
   T  = auto_ptj_mjj  ! Automatic setting of ptj and mjj
#**********************************************************
#                                                                    
#**********************************
# BW cutoff (M+/-bwcutoff*Gamma)
#**********************************
  15  = bwcutoff      ! (M+/-bwcutoff*Gamma)
#**********************************************************
# Apply pt/E/eta/dr/mij cuts on decay products or not
# (note that etmiss/ptll/ptheavy/ht/sorted cuts always apply)
#**********************************************************
   T  = cut_decays    ! Cut decay products 
#*************************************************************
# Number of helicities to sum per event (0 = all helicities)
# 0 gives more stable result, but longer run time (needed for
# long decay chains e.g.).
# Use >=2 if most helicities contribute, e.g. pure QCD.
#*************************************************************
   0  = nhel          ! Number of helicities used per event
#*******************                                                 
# Standard Cuts
#*******************                                                 
#                                                                    
#*********************************************************************
# Minimum and maximum pt's (for max, -1 means no cut)                *
#*********************************************************************
 20  = ptj       ! minimum pt for the jets 
  0  = ptb       ! minimum pt for the b 
 10  = pta       ! minimum pt for the photons 
 10  = ptl       ! minimum pt for the charged leptons 
  0  = misset    ! minimum missing Et (sum of neutrino's momenta)
  0  = ptheavy   ! minimum pt for one heavy final state
 1.0 = ptonium   ! minimum pt for the quarkonium states
 -1  = ptjmax    ! maximum pt for the jets
 -1  = ptbmax    ! maximum pt for the b
 -1  = ptamax    ! maximum pt for the photons
 -1  = ptlmax    ! maximum pt for the charged leptons
 -1  = missetmax ! maximum missing Et (sum of neutrino's momenta)
#*********************************************************************
# Minimum and maximum E's (in the center of mass frame)              *
#*********************************************************************
  0  = ej     ! minimum E for the jets 
  0  = eb     ! minimum E for the b 
  0  = ea     ! minimum E for the photons 
  0  = el     ! minimum E for the charged leptons 
 -1   = ejmax ! maximum E for the jets
 -1   = ebmax ! maximum E for the b
 -1   = eamax ! maximum E for the photons
 -1   = elmax ! maximum E for the charged leptons
#*********************************************************************
# Maximum and minimum absolute rapidity (for max, -1 means no cut)   *
#*********************************************************************
   5  = etaj    ! max rap for the jets 
  -1  = etab    ! max rap for the b
 2.5  = etaa    ! max rap for the photons 
 2.5  = etal    ! max rap for the charged leptons 
 0.6  = etaonium ! max rap for the quarkonium states
   0  = etajmin ! min rap for the jets
   0  = etabmin ! min rap for the b
   0  = etaamin ! min rap for the photons
   0  = etalmin ! main rap for the charged leptons
#*********************************************************************
# Minimum and maximum DeltaR distance                                *
#*********************************************************************
 0.4 = drjj    ! min distance between jets 
 0   = drbb    ! min distance between b's 
 0.4 = drll    ! min distance between leptons 
 0.4 = draa    ! min distance between gammas 
 0   = drbj    ! min distance between b and jet 
 0.4 = draj    ! min distance between gamma and jet 
 0.4 = drjl    ! min distance between jet and lepton 
 0   = drab    ! min distance between gamma and b 
 0   = drbl    ! min distance between b and lepton 
 0.4 = dral    ! min distance between gamma and lepton 
 -1  = drjjmax ! max distance between jets
 -1  = drbbmax ! max distance between b's
 -1  = drllmax ! max distance between leptons
 -1  = draamax ! max distance between gammas
 -1  = drbjmax ! max distance between b and jet
 -1  = drajmax ! max distance between gamma and jet
 -1  = drjlmax ! max distance between jet and lepton
 -1  = drabmax ! max distance between gamma and b
 -1  = drblmax ! max distance between b and lepton
 -1  = dralmax ! maxdistance between gamma and lepton
#*********************************************************************
# Minimum and maximum invariant mass for pairs                       *
# WARNING: for four lepton final state mmll cut require to have      *
#          different lepton masses for each flavor!                  *           
#*********************************************************************
 0   = mmjj    ! min invariant mass of a jet pair 
 0   = mmbb    ! min invariant mass of a b pair 
 0   = mmaa    ! min invariant mass of gamma gamma pair
 0   = mmll    ! min invariant mass of l+l- (same flavour) lepton pair
 -1  = mmjjmax ! max invariant mass of a jet pair
 -1  = mmbbmax ! max invariant mass of a b pair
 -1  = mmaamax ! max invariant mass of gamma gamma pair
 -1  = mmllmax ! max invariant mass of l+l- (same flavour) lepton pair
#*********************************************************************
# Minimum and maximum invariant mass for all letpons                 *
#*********************************************************************
 0   = mmnl    ! min invariant mass for all letpons (l+- and vl) 
 -1  = mmnlmax ! max invariant mass for all letpons (l+- and vl) 
#*********************************************************************
# Minimum and maximum pt for 4-momenta sum of leptons                *
#*********************************************************************
 0   = ptllmin  ! Minimum pt for 4-momenta sum of leptons(l and vl)
 -1  = ptllmax  ! Maximum pt for 4-momenta sum of leptons(l and vl)
#*********************************************************************
# Inclusive cuts                                                     *
#*********************************************************************
 0  = xptj ! minimum pt for at least one jet  
 0  = xptb ! minimum pt for at least one b 
 0  = xpta ! minimum pt for at least one photon 
 0  = xptl ! minimum pt for at least one charged lepton 
#*********************************************************************
# Control the pt's of the jets sorted by pt                          *
#*********************************************************************
 0   = ptj1min ! minimum pt for the leading jet in pt
 0   = ptj2min ! minimum pt for the second jet in pt
 0   = ptj3min ! minimum pt for the third jet in pt
 0   = ptj4min ! minimum pt for the fourth jet in pt
 -1  = ptj1max ! maximum pt for the leading jet in pt 
 -1  = ptj2max ! maximum pt for the second jet in pt
 -1  = ptj3max ! maximum pt for the third jet in pt
 -1  = ptj4max ! maximum pt for the fourth jet in pt
 0   = cutuse  ! reject event if fails any (0) / all (1) jet pt cuts
#*********************************************************************
# Control the pt's of leptons sorted by pt                           *
#*********************************************************************
 0   = ptl1min ! minimum pt for the leading lepton in pt
 0   = ptl2min ! minimum pt for the second lepton in pt
 0   = ptl3min ! minimum pt for the third lepton in pt
 0   = ptl4min ! minimum pt for the fourth lepton in pt
 -1  = ptl1max ! maximum pt for the leading lepton in pt 
 -1  = ptl2max ! maximum pt for the second lepton in pt
 -1  = ptl3max ! maximum pt for the third lepton in pt
 -1  = ptl4max ! maximum pt for the fourth lepton in pt
#*********************************************************************
# Control the Ht(k)=Sum of k leading jets                            *
#*********************************************************************
 0   = htjmin ! minimum jet HT=Sum(jet pt)
 -1  = htjmax ! maximum jet HT=Sum(jet pt)
 0   = ihtmin  !inclusive Ht for all partons (including b)
 -1  = ihtmax  !inclusive Ht for all partons (including b)
 0   = ht2min ! minimum Ht for the two leading jets
 0   = ht3min ! minimum Ht for the three leading jets
 0   = ht4min ! minimum Ht for the four leading jets
 -1  = ht2max ! maximum Ht for the two leading jets
 -1  = ht3max ! maximum Ht for the three leading jets
 -1  = ht4max ! maximum Ht for the four leading jets
#***********************************************************************
# Photon-isolation cuts, according to hep-ph/9801442                   *
# When ptgmin=0, all the other parameters are ignored                  *
# When ptgmin>0, pta and draj are not going to be used                 *
#***********************************************************************
   0 = ptgmin ! Min photon transverse momentum
 0.4 = R0gamma ! Radius of isolation code
 1.0 = xn ! n parameter of eq.(3.4) in hep-ph/9801442
 1.0 = epsgamma ! epsilon_gamma parameter of eq.(3.4) in hep-ph/9801442
 .true. = isoEM ! isolate photons from EM energy (photons and leptons)
#*********************************************************************
# WBF cuts                                                           *
#*********************************************************************
 0   = xetamin ! minimum rapidity for two jets in the WBF case  
 0   = deltaeta ! minimum rapidity for two jets in the WBF case 
#*********************************************************************
# KT DURHAM CUT                                                      *
#*********************************************************************
 -1    =  ktdurham        
 0.4  =  dparameter 
#*********************************************************************
# maximal pdg code for quark to be considered as a light jet         *
# (otherwise b cuts are applied)                                     *
#*********************************************************************
 4 = maxjetflavor    ! Maximum jet pdg code
#*********************************************************************
# Jet measure cuts                                                   *
#*********************************************************************
 0   = xqcut   ! minimum kt jet measure between partons
#*********************************************************************
#
#*********************************************************************
# Store info for systematics studies                                 *
# WARNING: If use_syst is T, matched Pythia output is                *
#          meaningful ONLY if plotted taking matchscale              *
#          reweighting into account!                                 *
#*********************************************************************
   F  = use_syst      ! Enable systematics studies
#
#**************************************
# Parameter of the systematics study
#  will be used by SysCalc (if installed)
#**************************************                                  
#
0.5 1 2 = sys_scalefact  # factorization/renormalization scale factor
0.5 1 2 = sys_alpsfact  # \alpha_s emission scale factors
30 50 = sys_matchscale # variation of merging scale
# PDF sets and number of members (0 or none for all members).
CT10nlo.LHgrid = sys_pdf # matching scales
# MSTW2008nlo68cl.LHgrid 1  = sys_pdf
</MGRunCard>
<slha>
######################################################################
## PARAM_CARD AUTOMATICALY GENERATED BY MG5 FOLLOWING UFO MODEL   ####
######################################################################
##                                                                  ##
##  Width set on Auto will be computed following the information    ##
##        present in the decay.py files of the model.               ##
##        See  arXiv:1402.1178 for more details.                    ##
##                                                                  ##
######################################################################

###################################
## INFORMATION FOR CKMBLOCK
###################################
Block ckmblock 
    1 2.277360e-01 # cabi 

###################################
## INFORMATION FOR FRBLOCK
###################################
Block frblock 
    1 1.600000e+00 # gz 

###################################
## INFORMATION FOR MASS
###################################
Block mass 
    1 5.040000e-03 # MD 
    2 2.550000e-03 # MU 
    3 1.010000e-01 # MS 
    4 1.270000e+00 # MC 
    5 4.700000e+00 # MB 
    6 1.720000e+02 # MT 
   11 5.110000e-04 # Me 
   13 1.056600e-01 # MM 
   15 1.777000e+00 # MTA 
   23 9.118760e+01 # MZ 
   25 1.200000e+02 # MH 
  10030 2.100000e+03 # MZph 
  10031 3.000000e+02 # MZpl 
## Dependent parameters, given by model restrictions.
## Those values should be edited following the 
## analytical expression. MG5 ignores those values 
## but they are important for interfacing the output of MG5
## to external program such as Pythia.
  12 0.000000 # ve : 0.0 
  14 0.000000 # vm : 0.0 
  16 0.000000 # vt : 0.0 
  21 0.000000 # g : 0.0 
  22 0.000000 # a : 0.0 
  24 79.824360 # w+ : cmath.sqrt(MZ__exp__2/2. + cmath.sqrt(MZ__exp__4/4. - (aEW*cmath.pi*MZ__exp__2)/(Gf*sqrt__2))) 

###################################
## INFORMATION FOR SMINPUTS
###################################
Block sminputs 
    1 1.279000e+02 # aEWM1 
    2 1.166370e-05 # Gf 
    3 1.184000e-01 # aS 

###################################
## INFORMATION FOR YUKAWA
###################################
Block yukawa 
    1 5.040000e-03 # ymdo 
    2 2.550000e-03 # ymup 
    3 1.010000e-01 # yms 
    4 1.270000e+00 # ymc 
    5 4.700000e+00 # ymb 
    6 1.720000e+02 # ymt 
   11 5.110000e-04 # yme 
   13 1.056600e-01 # ymm 
   15 1.777000e+00 # ymtau 

###################################
## INFORMATION FOR DECAY
###################################
DECAY   6 1.508336e+00 # WT 
DECAY  23 2.495200e+00 # WZ 
DECAY  24 2.085000e+00 # WW 
DECAY  25 5.753088e-03 # WH 
## Dependent parameters, given by model restrictions.
## Those values should be edited following the 
## analytical expression. MG5 ignores those values 
## but they are important for interfacing the output of MG5
## to external program such as Pythia.
DECAY  1 0.000000 # d : 0.0 
DECAY  2 0.000000 # u : 0.0 
DECAY  3 0.000000 # s : 0.0 
DECAY  4 0.000000 # c : 0.0 
DECAY  5 0.000000 # b : 0.0 
DECAY  11 0.000000 # e- : 0.0 
DECAY  12 0.000000 # ve : 0.0 
DECAY  13 0.000000 # mu- : 0.0 
DECAY  14 0.000000 # vm : 0.0 
DECAY  15 0.000000 # ta- : 0.0 
DECAY  16 0.000000 # vt : 0.0 
DECAY  21 0.000000 # g : 0.0 
DECAY  22 0.000000 # a : 0.0 
DECAY  10030 0.308725 # zph : (gz__exp__2*MZph*(5 + cmath.sqrt(1 - (4*MT__exp__2)/MZph__exp__2)))/(144.*cmath.pi) 
DECAY  10031 0.132629 # zpl : (5*gz__exp__2*MZpl)/(144.*cmath.pi) 
#===========================================================
# QUANTUM NUMBERS OF NEW STATE(S) (NON SM PDG CODE)
#===========================================================

Block QNUMBERS 10030  # zph 
        1 0  # 3 times electric charge
        2 3  # number of spin states (2S+1)
        3 1  # colour rep (1: singlet, 3: triplet, 8: octet)
        4 0  # Particle/Antiparticle distinction (0=own anti)
Block QNUMBERS 10031  # zpl 
        1 0  # 3 times electric charge
        2 3  # number of spin states (2S+1)
        3 1  # colour rep (1: singlet, 3: triplet, 8: octet)
        4 0  # Particle/Antiparticle distinction (0=own anti)
</slha>
## END BANNER##
<MGGenerationInfo>
#  Number of Events        :         3948
#  Integrated weight (pb)  :  0.69590E-01
#  Max wgt                 :  0.25792E-04
#  Average wgt             :  0.17627E-04
</MGGenerationInfo>
</header>
<init>
     2212     2212  0.40000000000E+04  0.40000000000E+04 0 0  247000  247000 2   1
  0.69588768270E-01  0.19346657562E-03  0.25792410000E-04   0
</init>
<event>
 5   0  0.2430898E-04  0.2105549E+04  0.7818609E-02  0.8558803E-01
       -2   -1    0    0    0  501  0.00000000000E+00  0.00000000000E+00  0.38829463969E+03  0.38829463969E+03  0.25500000920E-02 0.  1.
        2   -1    0    0  501    0  0.00000000000E+00  0.00000000000E+00 -0.28543633502E+04  0.28543633502E+04  0.25500000920E-02 0. -1.
    10030    2    1    2    0    0  0.00000000000E+00  0.00000000000E+00 -0.24660687105E+04  0.32426579899E+04  0.21055488488E+04 0.  0.
        1    1    3    3  502    0  0.13201863256E+03 -0.62189549002E+03 -0.25253504258E+04  0.26041462503E+04  0.50400001928E-02 0. -1.
       -1    1    3    3    0  502 -0.13201863256E+03  0.62189549002E+03  0.59281715250E+02  0.63851173963E+03  0.50400001928E-02 0.  1.
</event>
<event>
 5   0  0.2430898E-04  0.2090919E+04  0.7818609E-02  0.8565254E-01
        2   -1    0    0  501    0  0.00000000000E+00  0.00000000000E+00  0.10959572898E+04  0.10959572898E+04  0.25500000920E-02 0.  1.
       -2   -1    0    0    0  501  0.00000000000E+00  0.00000000000E+00 -0.99728853886E+03  0.99728853887E+03  0.25500000920E-02 0. -1.
    10030    2    1    2    0    0  0.00000000000E+00  0.00000000000E+00  0.98668750983E+02  0.20932458287E+04  0.20909190747E+04 0.  0.
        1    1    3    3  502    0  0.75639043952E+03  0.49694492881E+03 -0.47460724474E+03  0.10219260228E+04  0.50400001928E-02 0. -1.
       -1    1    3    3    0  502 -0.75639043952E+03 -0.49694492881E+03  0.57327599573E+03  0.10713198059E+04  0.50400001928E-02 0.  1.
</event>
<event>
 5   0  0.2512839E-04  0.2091542E+04  0.7818609E-02  0.8564978E-01
       -2   -1    0    0    0  501  0.00000000000E+00  0.00000000000E+00  0.65818474320E+03  0.65818474320E+03  0.25500000920E-02 0. -1.
        2   -1    0    0  501    0  0.00000000000E+00  0.00000000000E+00 -0.16615957306E+04  0.16615957306E+04  0.25500000920E-02 0.  1.
    10030    2    1    2    0    0  0.00000000000E+00  0.00000000000E+00 -0.10034109874E+04  0.23197804738E+04  0.20915419759E+04 0.  0.
        3    1    3    3  502    0  0.36918329526E+03  0.97840365857E+03 -0.51077895062E+03  0.11638149214E+04  0.10100000352E+00 0.  1.
       -3    1    3    3    0  502 -0.36918329526E+03 -0.97840365857E+03 -0.49263203682E+03  0.11559655525E+04  0.10100000352E+00 0. -1.
</event>
<event>
 5   0  0.2430898E-04  0.2101060E+04  0.7818609E-02  0.8560777E-01
        2   -1    0    0  501    0  0.00000000000E+00  0.00000000000E+00  0.15040750056E+04  0.15040750056E+04  0.25500000920E-02 0. -1.
       -2   -1    0    0    0  501  0.00000000000E+00  0.00000000000E+00 -0.73374886387E+03  0.73374886387E+03  0.25500000920E-02 0.  1.
    10030    2    1    2    0    0  0.00000000000E+00  0.00000000000E+00  0.77032614170E+03  0.22378238694E+04  0.21010600434E+04 0.  0.
        1    1    3    3  502    0 -0.50170607897E+03 -0.20232876973E+03 -0.57399268630E+03  0.78874173510E+03  0.50400001928E-02 0.  1.
       -1    1    3    3    0  502  0.50170607897E+03  0.20232876973E+03  0.13443188280E+04  0.14490821343E+04  0.50400001928E-02 0. -1.
</event>
<event>
 5   0  0.2512839E-04  0.2116219E+04  0.7818609E-02  0.8554132E-01
        2   -1    0    0  501    0  0.00000000000E+00  0.00000000000E+00  0.57295030342E+03  0.57295030342E+03  0.25500000920E-02 0.  1.
       -2   -1    0    0    0  501  0.00000000000E+00  0.00000000000E+00 -0.19540891955E+04  0.19540891955E+04  0.25500000920E-02 0. -1.
    10030    2    1    2    0    0  0.00000000000E+00  0.00000000000E+00 -0.13811388921E+04  0.25270394989E+04  0.21162192679E+04 0.  0.
        3    1    3    3  502    0  0.22968112267E+03 -0.34810539075E+03 -0.18518043230E+04  0.18981859872E+04  0.10100000352E+00 0. -1.
       -3    1    3    3    0  502 -0.22968112267E+03  0.34810539075E+03  0.47066543089E+03  0.62885351173E+03  0.10100000352E+00 0.  1.
</event>
<event>
 5   0  0.1122711E-04  0.2123999E+04  0.7818609E-02  0.8550745E-01
        1   -1    0    0  501    0  0.00000000000E+00  0.00000000000E+00  0.16894107329E+04  0.16894107329E+04  0.50400001928E-02 0. -1.
       -1   -1    0    0    0  501  0.00000000000E+00  0.00000000000E+00 -0.66759567458E+03  0.66759567460E+03  0.50400001928E-02 0.  1.
    10030    2    1    2    0    0  0.00000000000E+00  0.00000000000E+00  0.10218150583E+04  0.23570064075E+04  0.21239993389E+04 0.  0.
        1    1    3    3  502    0 -0.11389474856E+03  0.34539753475E+03  0.16181498708E+04  0.16585175534E+04  0.50400001928E-02 0. -1.
       -1    1    3    3    0  502  0.11389474856E+03 -0.34539753475E+03 -0.59633481243E+03  0.69848885410E+03  0.50400001928E-02 0.  1.
</event>
<event>
 5   0  0.1042395E-04  0.1899178E+04  0.7818609E-02  0.8655266E-01
       -1   -1    0    0    0  501  0.00000000000E+00  0.00000000000E+00  0.90321994429E+03  0.90321994431E+03  0.50400001928E-02 0.  1.
        1   -1    0    0  501    0  0.00000000000E+00  0.00000000000E+00 -0.99833864860E+03  0.99833864862E+03  0.50400001928E-02 0. -1.
    10030    2    1    2    0    0  0.00000000000E+00  0.00000000000E+00 -0.95118704312E+02  0.19015585929E+04  0.18991781155E+04 0.  0.
        3    1    3    3  502    0 -0.89982932489E+02  0.53935255464E+03  0.72976499510E+03  0.91189641112E+03  0.10100000352E+00 0.  1.
       -3    1    3    3    0  502  0.89982932489E+02 -0.53935255464E+03 -0.82488369941E+03  0.98966218180E+03  0.10100000352E+00 0. -1.
</event>
<event>
 5   0  0.2430898E-04  0.2032310E+04  0.7818609E-02  0.8591662E-01
        2   -1    0    0  501    0  0.00000000000E+00  0.00000000000E+00  0.11343813180E+04  0.11343813180E+04  0.25500000920E-02 0.  1.
       -2   -1    0    0    0  501  0.00000000000E+00  0.00000000000E+00 -0.91025013770E+03  0.91025013770E+03  0.25500000920E-02 0. -1.
    10030    2    1    2    0    0  0.00000000000E+00  0.00000000000E+00  0.22413118033E+03  0.20446314557E+04  0.20323097706E+04 0.  0.
        1    1    3    3  502    0  0.45011166376E+03 -0.27700905173E+03 -0.76108817743E+03  0.92660117550E+03  0.50400001928E-02 0. -1.
       -1    1    3    3    0  502 -0.45011166376E+03  0.27700905173E+03  0.98521935776E+03  0.11180302802E+04  0.50400001928E-02 0.  1.
</event>
<event>
 5   0  0.1156733E-04  0.2156578E+04  0.7818609E-02  0.8536722E-01
        1   -1    0    0  501    0  0.00000000000E+00  0.00000000000E+00  0.12835169588E+04  0.12835169588E+04  0.50400001928E-02 0.  1.
       -1   -1    0    0    0  501  0.00000000000E+00  0.00000000000E+00 -0.90587560152E+03  0.90587560153E+03  0.50400001928E-02 0. -1.
    10030    2    1    2    0    0  0.00000000000E+00  0.00000000000E+00  0.37764135727E+03  0.21893925603E+04  0.21565775638E+04 0.  0.
        2    1    3    3  502    0  0.25476776324E+03  0.85692062477E+03 -0.42325211060E+03  0.98912179203E+03  0.25500000920E-02 0. -1.
       -2    1    3    3    0  502 -0.25476776324E+03 -0.85692062477E+03  0.80089346787E+03  0.12002707683E+04  0.25500000920E-02 0.  1.
</event>
<event>
 5   0  0.2430898E-04  0.2167602E+04  0.7818609E-02  0.8532035E-01
       -2   -1    0    0    0  501  0.00000000000E+00  0.00000000000E+00  0.15248974137E+04  0.15248974137E+04  0.25500000920E-02 0. -1.
        2   -1    0    0  501    0  0.00000000000E+00  0.00000000000E+00 -0.77029727605E+03  0.77029727605E+03  0.25500000920E-02 0.  1.
    10030    2    1    2    0    0  0.00000000000E+00  0.00000000000E+00  0.75460013766E+03  0.22951946898E+04  0.21676017384E+04 0.  0.
        1    1    3    3  502    0 -0.68623822043E+03 -0.83878847272E+03  0.36498229990E+03  0.11435475838E+04  0.50400001928E-02 0.  1.
       -1    1    3    3    0  502  0.68623822043E+03  0.83878847272E+03  0.38961783776E+03  0.11516471060E+04  0.50400001928E-02 0. -1.
</event>
<event>
 5   0  0.1156733E-04  0.1911956E+04  0.7818609E-02  0.8648928E-01
       -1   -1    0    0    0  501  0.00000000000E+00  0.00000000000E+00  0.68988788112E+03  0.68988788114E+03  0.50400001928E-02 0. -1.
        1   -1    0    0  501    0  0.00000000000E+00  0.00000000000E+00 -0.13246988741E+04  0.13246988741E+04  0.50400001928E-02 0.  1.
    10030    2    1    2    0    0  0.00000000000E+00  0.00000000000E+00 -0.63481099301E+03  0.20145867553E+04  0.19119557520E+04 0.  0.
        2    1    3    3  502    0 -0.13099590909E+03 -0.33190010367E+03 -0.12519037804E+04  0.13017606087E+04  0.25500000920E-02 0.  1.
       -2    1    3    3    0  502  0.13099590909E+03  0.33190010367E+03  0.61709278738E+03  0.71282614658E+03  0.25500000920E-02 0. -1.
</event>
<event>
 5   0  0.2579241E-04  0.2170533E+04  0.7818609E-02  0.8530794E-01
       -2   -1    0    0    0  501  0.00000000000E+00  0.00000000000E+00  0.12958097804E+04  0.12958097804E+04  0.25500000920E-02 0.  1.
        2   -1    0    0  501    0  0.00000000000E+00  0.00000000000E+00 -0.90893252278E+03  0.90893252278E+03  0.25500000920E-02 0. -1.
    10030    2    1    2    0    0  0.00000000000E+00  0.00000000000E+00  0.38687725765E+03  0.22047423032E+04  0.21705332550E+04 0.  0.
        5    1    3    3  502    0 -0.10220436970E+04 -0.30165764801E+03 -0.15252379059E+02  0.10657510873E+04  0.46999998093E+01 0.  1.
       -5    1    3    3    0  502  0.10220436970E+04  0.30165764801E+03  0.40212963670E+03  0.11389912159E+04  0.46999998093E+01 0. -1.
</event>
<event>
 5   0  0.1130848E-04  0.2071109E+04  0.7818609E-02  0.8574078E-01
        1   -1    0    0  501    0  0.00000000000E+00  0.00000000000E+00  0.21261058868E+04  0.21261058868E+04  0.50400001928E-02 0.  1.
       -1   -1    0    0    0  501  0.00000000000E+00  0.00000000000E+00 -0.50438377441E+03  0.50438377443E+03  0.50400001928E-02 0. -1.
    10030    2    1    2    0    0  0.00000000000E+00  0.00000000000E+00  0.16217221124E+04  0.26304896612E+04  0.20711091830E+04 0.  0.
        5    1    3    3  502    0 -0.20131409794E+03 -0.39105341035E+03 -0.37984237616E+03  0.58116474127E+03  0.46999998093E+01 0. -1.
       -5    1    3    3    0  502  0.20131409794E+03  0.39105341035E+03  0.20015644885E+04  0.20493249199E+04  0.46999998093E+01 0.  1.
</event>
<event>
 5   0  0.1122711E-04  0.2102204E+04  0.7818609E-02  0.8560273E-01
       -1   -1    0    0    0  501  0.00000000000E+00  0.00000000000E+00  0.54605600510E+03  0.54605600512E+03  0.50400001928E-02 0. -1.
        1   -1    0    0  501    0  0.00000000000E+00  0.00000000000E+00 -0.20232648686E+04  0.20232648687E+04  0.50400001928E-02 0.  1.
    10030    2    1    2    0    0  0.00000000000E+00  0.00000000000E+00 -0.14772088635E+04  0.25693208738E+04  0.21022044919E+04 0.  0.
        1    1    3    3  502    0 -0.97428009486E+03  0.25782057225E+03 -0.11034740899E+04  0.14944390980E+04  0.50400001928E-02 0.  1.
       -1    1    3    3    0  502  0.97428009486E+03 -0.25782057225E+03 -0.37373477366E+03  0.10748817757E+04  0.50400001928E-02 0. -1.
</event>
<event>
 5   0  0.1042395E-04  0.2061147E+04  0.7818609E-02  0.8578554E-01
        1   -1    0    0  501    0  0.00000000000E+00  0.00000000000E+00  0.89321617889E+03  0.89321617891E+03  0.50400001928E-02 0.  1.
       -1   -1    0    0    0  501  0.00000000000E+00  0.00000000000E+00 -0.11890531623E+04  0.11890531623E+04  0.50400001928E-02 0. -1.
    10030    2    1    2    0    0  0.00000000000E+00  0.00000000000E+00 -0.29583698336E+03  0.20822693412E+04  0.20611467896E+04 0.  0.
        3    1    3    3  502    0  0.79326396802E+02  0.26683348834E+03 -0.11503516215E+04  0.11835546675E+04  0.10100000352E+00 0. -1.
       -3    1    3    3    0  502 -0.79326396802E+02 -0.26683348834E+03  0.85451463811E+03  0.89871467367E+03  0.10100000352E+00 0.  1.
</event>
<event>
 5   0  0.1042395E-04  0.2047922E+04  0.7818609E-02  0.8584538E-01
        1   -1    0    0  501    0  0.00000000000E+00  0.00000000000E+00  0.13488939317E+04  0.13488939317E+04  0.50400001928E-02 0. -1.
       -1   -1    0    0    0  501  0.00000000000E+00  0.00000000000E+00 -0.77730060475E+03  0.77730060477E+03  0.50400001928E-02 0.  1.
    10030    2    1    2    0    0  0.00000000000E+00  0.00000000000E+00  0.57159332693E+03  0.21261945365E+04  0.20479219408E+04 0.  0.
        3    1    3    3  502    0  0.80589219113E+03 -0.14236841179E+02  0.94146488158E+03  0.12393631610E+04  0.10100000352E+00 0. -1.
       -3    1    3    3    0  502 -0.80589219113E+03  0.14236841179E+02 -0.36987155465E+03  0.88683137547E+03  0.10100000352E+00 0.  1.
</event>
<event>
 5   0  0.2430898E-04  0.2119556E+04  0.7818609E-02  0.8552678E-01
       -2   -1    0    0    0  501  0.00000000000E+00  0.00000000000E+00  0.10011054009E+04  0.10011054009E+04  0.25500000920E-02 0.  1.
        2   -1    0    0  501    0  0.00000000000E+00  0.00000000000E+00 -0.11218889440E+04  0.11218889440E+04  0.25500000920E-02 0. -1.
    10030    2    1    2    0    0  0.00000000000E+00  0.00000000000E+00 -0.12078354306E+03  0.21229943449E+04  0.21195556903E+04 0.  0.
        1    1    3    3  502    0  0.18836088153E+03  0.53299944857E+03 -0.95826162350E+03  0.11125796929E+04  0.50400001928E-02 0. -1.
       -1    1    3    3    0  502 -0.18836088153E+03 -0.53299944857E+03  0.83747808044E+03  0.10104146521E+04  0.50400001928E-02 0.  1.
</event>
<event>
 5   0  0.1186038E-04  0.2030681E+04  0.7818609E-02  0.8592409E-01
       -1   -1    0    0    0  501  0.00000000000E+00  0.00000000000E+00  0.81691337556E+03  0.81691337558E+03  0.50400001928E-02 0. -1.
        1   -1    0    0  501    0  0.00000000000E+00  0.00000000000E+00 -0.12619655961E+04  0.12619655961E+04  0.50400001928E-02 0.  1.
    10030    2    1    2    0    0  0.00000000000E+00  0.00000000000E+00 -0.44505222052E+03  0.20788789717E+04  0.20306812403E+04 0.  0.
        4    1    3    3  502    0 -0.99947307594E+02 -0.27069882337E+02 -0.12565452066E+04  0.12608051840E+04  0.12699999809E+01 0.  1.
       -4    1    3    3    0  502  0.99947307594E+02  0.27069882337E+02  0.81149298606E+03  0.81807378771E+03  0.12699999809E+01 0. -1.
</event>
<event>
 5   0  0.1122711E-04  0.1260237E+04  0.7818609E-02  0.9061706E-01
       -1   -1    0    0    0  501  0.00000000000E+00  0.00000000000E+00  0.33327846458E+03  0.33327846462E+03  0.50400001928E-02 0.  1.
        1   -1    0    0  501    0  0.00000000000E+00  0.00000000000E+00 -0.11913442438E+04  0.11913442438E+04  0.50400001928E-02 0. -1.
    10030    2    1    2    0    0  0.00000000000E+00  0.00000000000E+00 -0.85806577921E+03  0.15246227084E+04  0.12602370894E+04 0.  0.
        1    1    3    3  502    0  0.12775643364E+03 -0.35579200830E+03  0.18084993268E+03  0.41906605408E+03  0.50400001928E-02 0.  1.
       -1    1    3    3    0  502 -0.12775643364E+03  0.35579200830E+03 -0.10389157119E+04  0.11055566543E+04  0.50400001928E-02 0. -1.
</event>
<event>
 5   0  0.2448804E-04  0.2055288E+04  0.7818609E-02  0.8581199E-01
       -2   -1    0    0    0  501  0.00000000000E+00  0.00000000000E+00  0.63957230949E+03  0.63957230949E+03  0.25500000920E-02 0. -1.
        2   -1    0    0  501    0  0.00000000000E+00  0.00000000000E+00 -0.16511851609E+04  0.16511851609E+04  0.25500000920E-02 0.  1.
    10030    2    1    2    0    0  0.00000000000E+00  0.00000000000E+00 -0.10116128514E+04  0.22907574704E+04  0.20552881129E+04 0.  0.
        2    1    3    3  502    0 -0.92208956358E+03 -0.43038166099E+03 -0.34593388056E+03  0.10747780176E+04  0.25500000920E-02 0.  1.
       -2    1    3    3    0  502  0.92208956358E+03  0.43038166099E+03 -0.66567897083E+03  0.12159794528E+04  0.25500000920E-02 0. -1.
</event>
<event>
 5   0  0.1042395E-04  0.2144167E+04  0.7818609E-02  0.8542033E-01
       -1   -1    0    0    0  501  0.00000000000E+00  0.00000000000E+00  0.85423033277E+03  0.85423033278E+03  0.50400001928E-02 0. -1.
        1   -1    0    0  501    0  0.00000000000E+00  0.00000000000E+00 -0.13454959127E+04  0.13454959127E+04  0.50400001928E-02 0.  1.
    10030    2    1    2    0    0  0.00000000000E+00  0.00000000000E+00 -0.49126557990E+03  0.21997262455E+04  0.21441673640E+04 0.  0.
        3    1    3    3  502    0 -0.85047258586E+03 -0.55884620888E+03 -0.59164148025E+03  0.11771373564E+04  0.10100000352E+00 0.  1.
       -3    1    3    3    0  502  0.85047258586E+03  0.55884620888E+03  0.10037590034E+03  0.10225888891E+04  0.10100000352E+00 0. -1.
</event>
<event>
 5   0  0.2512839E-04  0.2087801E+04  0.7818609E-02  0.8566636E-01
        2   -1    0    0  501    0  0.00000000000E+00  0.00000000000E+00  0.77515109147E+03  0.77515109147E+03  0.25500000920E-02 0. -1.
       -2   -1    0    0    0  501  0.00000000000E+00  0.00000000000E+00 -0.14058264942E+04  0.14058264942E+04  0.25500000920E-02 0.  1.
    10030    2    1    2    0    0  0.00000000000E+00  0.00000000000E+00 -0.63067540276E+03  0.21809775857E+04  0.20878007007E+04 0.  0.
        3    1    3    3  502    0  0.19005107008E+02  0.72920715538E+03  0.46473083322E+03  0.86491561848E+03  0.10100000352E+00 0. -1.
       -3    1    3    3    0  502 -0.19005107008E+02 -0.72920715538E+03 -0.10954062360E+04  0.13160619672E+04  0.10100000352E+00 0.  1.
</event>
<event>
 5   0  0.1122711E-04  0.2010049E+04  0.7818609E-02  0.8601937E-01
        1   -1    0    0  501    0  0.00000000000E+00  0.00000000000E+00  0.83236098631E+03  0.83236098632E+03  0.50400001928E-02 0. -1.
       -1   -1    0    0    0  501  0.00000000000E+00  0.00000000000E+00 -0.12135045982E+04  0.12135045982E+04  0.50400001928E-02 0.  1.
    10030    2    1    2    0    0  0.00000000000E+00  0.00000000000E+00 -0.38114361186E+03  0.20458655845E+04  0.20100486405E+04 0.  0.
        1    1    3    3  502    0 -0.12097720792E+03  0.22961684008E+03  0.79766408989E+03  0.83882499868E+03  0.50400001928E-02 0. -1.
       -1    1    3    3    0  502  0.12097720792E+03 -0.22961684008E+03 -0.11788077018E+04  0.12070405858E+04  0.50400001928E-02 0.  1.
</event>
<event>
 5   0  0.2448804E-04  0.1569196E+04  0.7818609E-02  0.8839699E-01
       -2   -1    0    0    0  501  0.00000000000E+00  0.00000000000E+00  0.67423724756E+03  0.67423724756E+03  0.25500000920E-02 0. -1.
        2   -1    0    0  501    0  0.00000000000E+00  0.00000000000E+00 -0.91302320036E+03  0.91302320036E+03  0.25500000920E-02 0.  1.
    10030    2    1    2    0    0  0.00000000000E+00  0.00000000000E+00 -0.23878595280E+03  0.15872604479E+04  0.15691962906E+04 0.  0.
        2    1    3    3  502    0 -0.48144659666E+03 -0.55037138243E+03  0.16830124044E+03  0.75034977949E+03  0.25500000920E-02 0. -1.
       -2    1    3    3    0  502  0.48144659666E+03  0.55037138243E+03 -0.40708719324E+03  0.83691066844E+03  0.25500000920E-02 0.  1.
</event>
<event>
 5   0  0.1156733E-04  0.2110370E+04  0.7818609E-02  0.8556689E-01
        1   -1    0    0  501    0  0.00000000000E+00  0.00000000000E+00  0.26166962897E+04  0.26166962897E+04  0.50400001928E-02 0. -1.
       -1   -1    0    0    0  501  0.00000000000E+00  0.00000000000E+00 -0.42550418442E+03  0.42550418445E+03  0.50400001928E-02 0.  1.
    10030    2    1    2    0    0  0.00000000000E+00  0.00000000000E+00  0.21911921053E+04  0.30422004742E+04  0.21103698450E+04 0.  0.
        2    1    3    3  502    0 -0.72470084265E+03  0.70727872890E+03  0.15231815689E+04  0.18290753411E+04  0.25500000920E-02 0. -1.
       -2    1    3    3    0  502  0.72470084265E+03 -0.70727872890E+03  0.66801053643E+03  0.12131251331E+04  0.25500000920E-02 0.  1.
</event>
<event>
 5   0  0.2512839E-04  0.2103183E+04  0.7818609E-02  0.8559842E-01
        2   -1    0    0  501    0  0.00000000000E+00  0.00000000000E+00  0.68796240541E+03  0.68796240541E+03  0.25500000920E-02 0. -1.
       -2   -1    0    0    0  501  0.00000000000E+00  0.00000000000E+00 -0.16074207852E+04  0.16074207852E+04  0.25500000920E-02 0.  1.
    10030    2    1    2    0    0  0.00000000000E+00  0.00000000000E+00 -0.91945837981E+03  0.22953831906E+04  0.21031833680E+04 0.  0.
        3    1    3    3  502    0  0.98855169020E+03 -0.10781867198E+03 -0.83301762836E+03  0.12972192142E+04  0.10100000352E+00 0.  1.
       -3    1    3    3    0  502 -0.98855169020E+03  0.10781867198E+03 -0.86440751450E+02  0.99816397647E+03  0.10100000352E+00 0. -1.
</event>
<event>
 5   0  0.2579241E-04  0.1812768E+04  0.7818609E-02  0.8699539E-01
       -2   -1    0    0    0  501  0.00000000000E+00  0.00000000000E+00  0.62542801284E+03  0.62542801284E+03  0.25500000920E-02 0. -1.
        2   -1    0    0  501    0  0.00000000000E+00  0.00000000000E+00 -0.13135509241E+04  0.13135509241E+04  0.25500000920E-02 0.  1.
    10030    2    1    2    0    0  0.00000000000E+00  0.00000000000E+00 -0.68812291131E+03  0.19389789370E+04  0.18127675463E+04 0.  0.
        5    1    3    3  502    0  0.51060289420E+03  0.71273320586E+03 -0.98267828131E+02  0.88225993581E+03  0.46999998093E+01 0. -1.
       -5    1    3    3    0  502 -0.51060289420E+03 -0.71273320586E+03 -0.58985508318E+03  0.10567190012E+04  0.46999998093E+01 0.  1.
</event>
<event>
 5   0  0.1156733E-04  0.1998674E+04  0.7818609E-02  0.8607241E-01
       -1   -1    0    0    0  501  0.00000000000E+00  0.00000000000E+00  0.74423670570E+03  0.74423670572E+03  0.50400001928E-02 0.  1.
        1   -1    0    0  501    0  0.00000000000E+00  0.00000000000E+00 -0.13418775537E+04  0.13418775537E+04  0.50400001928E-02 0. -1.
    10030    2    1    2    0    0  0.00000000000E+00  0.00000000000E+00 -0.59764084795E+03  0.20861142594E+04  0.19986740905E+04 0.  0.
        2    1    3    3  502    0  0.47720734964E+03  0.14000481370E+03 -0.12035445946E+04  0.13022472091E+04  0.25500000920E-02 0. -1.
       -2    1    3    3    0  502 -0.47720734964E+03 -0.14000481370E+03  0.60590374662E+03  0.78386705032E+03  0.25500000920E-02 0.  1.
</event>
<event>
 5   0  0.2512839E-04  0.1940703E+04  0.7818609E-02  0.8634857E-01
        2   -1    0    0  501    0  0.00000000000E+00  0.00000000000E+00  0.19214798381E+04  0.19214798381E+04  0.25500000920E-02 0.  1.
       -2   -1    0    0    0  501  0.00000000000E+00  0.00000000000E+00 -0.49002971507E+03  0.49002971507E+03  0.25500000920E-02 0. -1.
    10030    2    1    2    0    0  0.00000000000E+00  0.00000000000E+00  0.14314501230E+04  0.24115095532E+04  0.19407031896E+04 0.  0.
        3    1    3    3  502    0 -0.68286512788E+03 -0.11386294301E+03  0.15606103689E+04  0.17072710055E+04  0.10100000352E+00 0.  1.
       -3    1    3    3    0  502  0.68286512788E+03  0.11386294301E+03 -0.12916024585E+03  0.70423854764E+03  0.10100000352E+00 0. -1.
</event>
<event>
 5   0  0.2430898E-04  0.2085244E+04  0.7818609E-02  0.8567771E-01
        2   -1    0    0  501    0  0.00000000000E+00  0.00000000000E+00  0.14501497872E+04  0.14501497872E+04  0.25500000920E-02 0.  1.
       -2   -1    0    0    0  501  0.00000000000E+00  0.00000000000E+00 -0.74961980292E+03  0.74961980292E+03  0.25500000920E-02 0. -1.
    10030    2    1    2    0    0  0.00000000000E+00  0.00000000000E+00  0.70052998424E+03  0.21997695901E+04  0.20852443479E+04 0.  0.
        1    1    3    3  502    0  0.69311935917E+03 -0.74347437922E+02 -0.46763550573E+03  0.83941941473E+03  0.50400001928E-02 0. -1.
       -1    1    3    3    0  502 -0.69311935917E+03  0.74347437922E+02  0.11681654900E+04  0.13603501753E+04  0.50400001928E-02 0.  1.
</event>
<event>
 5   0  0.1130848E-04  0.2140175E+04  0.7818609E-02  0.8543749E-01
       -1   -1    0    0    0  501  0.00000000000E+00  0.00000000000E+00  0.47127528705E+03  0.47127528707E+03  0.50400001928E-02 0. -1.
        1   -1    0    0  501    0  0.00000000000E+00  0.00000000000E+00 -0.24297641254E+04  0.24297641254E+04  0.50400001928E-02 0.  1.
    10030    2    1    2    0    0  0.00000000000E+00  0.00000000000E+00 -0.19584888383E+04  0.29010394125E+04  0.21401754935E+04 0.  0.
        5    1    3    3  502    0  0.82456321584E+03 -0.12042273706E+03 -0.69271353223E+02  0.83619778934E+03  0.46999998093E+01 0. -1.
       -5    1    3    3    0  502 -0.82456321584E+03  0.12042273706E+03 -0.18892174851E+04  0.20648416231E+04  0.46999998093E+01 0.  1.
</event>
<event>
 5   0  0.2512839E-04  0.1820141E+04  0.7818609E-02  0.8695661E-01
       -2   -1    0    0    0  501  0.00000000000E+00  0.00000000000E+00  0.13285837232E+04  0.13285837232E+04  0.25500000920E-02 0. -1.
        2   -1    0    0  501    0  0.00000000000E+00  0.00000000000E+00 -0.62339186765E+03  0.62339186765E+03  0.25500000920E-02 0.  1.
    10030    2    1    2    0    0  0.00000000000E+00  0.00000000000E+00  0.70519185555E+03  0.19519755908E+04  0.18201409710E+04 0.  0.
        3    1    3    3  502    0  0.90723375783E+03 -0.57193382278E+02  0.39914615372E+03  0.99280503452E+03  0.10100000352E+00 0. -1.
       -3    1    3    3    0  502 -0.90723375783E+03  0.57193382278E+02  0.30604570183E+03  0.95917055633E+03  0.10100000352E+00 0.  1.
</event>
<event>
 5   0  0.1186038E-04  0.1704389E+04  0.7818609E-02  0.8758865E-01
        1   -1    0    0  501    0  0.00000000000E+00  0.00000000000E+00  0.75162733726E+03  0.75162733728E+03  0.50400001928E-02 0.  1.
       -1   -1    0    0    0  501  0.00000000000E+00  0.00000000000E+00 -0.96621775050E+03  0.96621775051E+03  0.50400001928E-02 0. -1.
    10030    2    1    2    0    0  0.00000000000E+00  0.00000000000E+00 -0.21459041324E+03  0.17178450878E+04  0.17043892455E+04 0.  0.
        4    1    3    3  502    0  0.22006657144E+03  0.77371177161E+03 -0.39089693043E+03  0.89434960978E+03  0.12699999809E+01 0.  1.
       -4    1    3    3    0  502 -0.22006657144E+03 -0.77371177161E+03  0.17630651719E+03  0.82349547801E+03  0.12699999809E+01 0. -1.
</event>
<event>
 5   0  0.1122711E-04  0.2193097E+04  0.7818609E-02  0.8521307E-01
       -1   -1    0    0    0  501  0.00000000000E+00  0.00000000000E+00  0.11903755795E+04  0.11903755796E+04  0.50400001928E-02 0.  1.
        1   -1    0    0  501    0  0.00000000000E+00  0.00000000000E+00 -0.10101172988E+04  0.10101172988E+04  0.50400001928E-02 0. -1.
    10030    2    1    2    0    0  0.00000000000E+00  0.00000000000E+00  0.18025828074E+03  0.22004928784E+04  0.21930973211E+04 0.  0.
        1    1    3    3  502    0 -0.54552954645E+03  0.41977433506E+03 -0.76633351415E+03  0.10300873911E+04  0.50400001928E-02 0. -1.
       -1    1    3    3    0  502  0.54552954645E+03 -0.41977433506E+03  0.94659179489E+03  0.11704054873E+04  0.50400001928E-02 0.  1.
</event>
<event>
 5   0  0.1042395E-04  0.2117094E+04  0.7818609E-02  0.8553750E-01
        1   -1    0    0  501    0  0.00000000000E+00  0.00000000000E+00  0.98707282774E+03  0.98707282775E+03  0.50400001928E-02 0. -1.
       -1   -1    0    0    0  501  0.00000000000E+00  0.00000000000E+00 -0.11351967650E+04  0.11351967650E+04  0.50400001928E-02 0.  1.
    10030    2    1    2    0    0  0.00000000000E+00  0.00000000000E+00 -0.14812393723E+03  0.21222695927E+04  0.21170941225E+04 0.  0.
        3    1    3    3  502    0 -0.57194441389E+03  0.75667940179E+03 -0.54514453590E+03  0.10940140332E+04  0.10100000352E+00 0.  1.
       -3    1    3    3    0  502  0.57194441389E+03 -0.75667940179E+03  0.39702059867E+03  0.10282555595E+04  0.10100000352E+00 0. -1.
</event>
<event>
 5   0  0.2467483E-04  0.2067664E+04  0.7818609E-02  0.8575623E-01
       -2   -1    0    0    0  501  0.00000000000E+00  0.00000000000E+00  0.99065819059E+03  0.99065819059E+03  0.25500000920E-02 0.  1.
        2   -1    0    0  501    0  0.00000000000E+00  0.00000000000E+00 -0.10788868685E+04  0.10788868685E+04  0.25500000920E-02 0. -1.
    10030    2    1    2    0    0  0.00000000000E+00  0.00000000000E+00 -0.88228677943E+02  0.20695450591E+04  0.20676635249E+04 0.  0.
        4    1    3    3  502    0  0.86082565017E+03 -0.23237243339E+03  0.47961007721E+03  0.10124451525E+04  0.12699999809E+01 0.  1.
       -4    1    3    3    0  502 -0.86082565017E+03  0.23237243339E+03 -0.56783875515E+03  0.10570999066E+04  0.12699999809E+01 0. -1.
</event>
<event>
 5   0  0.2467483E-04  0.2059948E+04  0.7818609E-02  0.8579095E-01
       -2   -1    0    0    0  501  0.00000000000E+00  0.00000000000E+00  0.89706904688E+03  0.89706904688E+03  0.25500000920E-02 0. -1.
        2   -1    0    0  501    0  0.00000000000E+00  0.00000000000E+00 -0.11825697045E+04  0.11825697045E+04  0.25500000920E-02 0.  1.
    10030    2    1    2    0    0  0.00000000000E+00  0.00000000000E+00 -0.28550065761E+03  0.20796387514E+04  0.20599482301E+04 0.  0.
        4    1    3    3  502    0 -0.86243455139E+03  0.51020248591E+03 -0.38323970922E+03  0.10728346656E+04  0.12699999809E+01 0.  1.
       -4    1    3    3    0  502  0.86243455139E+03 -0.51020248591E+03  0.97739051614E+02  0.10068040858E+04  0.12699999809E+01 0. -1.
</event>
<event>
 5   0  0.1156733E-04  0.2155459E+04  0.7818609E-02  0.8537199E-01
        1   -1    0    0  501    0  0.00000000000E+00  0.00000000000E+00  0.20405175630E+04  0.20405175630E+04  0.50400001928E-02 0.  1.
       -1   -1    0    0    0  501  0.00000000000E+00  0.00000000000E+00 -0.56921866679E+03  0.56921866681E+03  0.50400001928E-02 0. -1.
    10030    2    1    2    0    0  0.00000000000E+00  0.00000000000E+00  0.14712988963E+04  0.26097362299E+04  0.21554588252E+04 0.  0.
        2    1    3    3  502    0 -0.83104530912E+03 -0.61763298492E+03  0.37364761479E+03  0.11007812453E+04  0.25500000920E-02 0. -1.
       -2    1    3    3    0  502  0.83104530912E+03  0.61763298492E+03  0.10976512815E+04  0.15089549846E+04  0.25500000920E-02 0.  1.
</event>
<event>
 5   0  0.1042395E-04  0.2064615E+04  0.7818609E-02  0.8576993E-01
       -1   -1    0    0    0  501  0.00000000000E+00  0.00000000000E+00  0.74319214277E+03  0.74319214278E+03  0.50400001928E-02 0. -1.
        1   -1    0    0  501    0  0.00000000000E+00  0.00000000000E+00 -0.14338937341E+04  0.14338937341E+04  0.50400001928E-02 0.  1.
    10030    2    1    2    0    0  0.00000000000E+00  0.00000000000E+00 -0.69070159131E+03  0.21770858769E+04  0.20646147890E+04 0.  0.
        3    1    3    3  502    0  0.79141904617E+03  0.20440469466E+02 -0.10439332091E+04  0.13101749787E+04  0.10100000352E+00 0.  1.
       -3    1    3    3    0  502 -0.79141904617E+03 -0.20440469466E+02  0.35323161779E+03  0.86691089821E+03  0.10100000352E+00 0. -1.
</event>
<event>
 5   0  0.1130848E-04  0.2061374E+04  0.7818609E-02  0.8578452E-01
       -1   -1    0    0    0  501  0.00000000000E+00  0.00000000000E+00  0.97028638754E+03  0.97028638756E+03  0.50400001928E-02 0.  1.
        1   -1    0    0  501    0  0.00000000000E+00  0.00000000000E+00 -0.10948475438E+04  0.10948475438E+04  0.50400001928E-02 0. -1.
    10030    2    1    2    0    0  0.00000000000E+00  0.00000000000E+00 -0.12456115624E+03  0.20651339313E+04  0.20613739769E+04 0.  0.
        5    1    3    3  502    0  0.99555182239E+03 -0.23563033395E+03 -0.18760268608E+03  0.10401259266E+04  0.46999998093E+01 0.  1.
       -5    1    3    3    0  502 -0.99555182239E+03  0.23563033395E+03  0.63041529840E+02  0.10250080048E+04  0.46999998093E+01 0. -1.
</event>
<event>
 5   0  0.2448804E-04  0.2113247E+04  0.7818609E-02  0.8555430E-01
        2   -1    0    0  501    0  0.00000000000E+00  0.00000000000E+00  0.86993103498E+03  0.86993103498E+03  0.25500000920E-02 0.  1.
       -2   -1    0    0    0  501  0.00000000000E+00  0.00000000000E+00 -0.12833814162E+04  0.12833814162E+04  0.25500000920E-02 0. -1.
    10030    2    1    2    0    0  0.00000000000E+00  0.00000000000E+00 -0.41345038125E+03  0.21533124512E+04  0.21132470974E+04 0.  0.
        2    1    3    3  502    0 -0.16945049234E+03 -0.12292637193E+03  0.84858839715E+03  0.87402896408E+03  0.25500000920E-02 0.  1.
       -2    1    3    3    0  502  0.16945049234E+03  0.12292637193E+03 -0.12620387784E+04  0.12792834871E+04  0.25500000920E-02 0. -1.
</event>
<event>
 5   0  0.2512839E-04  0.2187245E+04  0.7818609E-02  0.8523756E-01
       -2   -1    0    0    0  501  0.00000000000E+00  0.00000000000E+00  0.62981374318E+03  0.62981374319E+03  0.25500000920E-02 0.  1.
        2   -1    0    0  501    0  0.00000000000E+00  0.00000000000E+00 -0.18989909921E+04  0.18989909921E+04  0.25500000920E-02 0. -1.
    10030    2    1    2    0    0  0.00000000000E+00  0.00000000000E+00 -0.12691772489E+04  0.25288047353E+04  0.21872454138E+04 0.  0.
        3    1    3    3  502    0  0.84414334387E+03  0.54224748545E+03 -0.11377509391E+04  0.15169335945E+04  0.10100000352E+00 0. -1.
       -3    1    3    3    0  502 -0.84414334387E+03 -0.54224748545E+03 -0.13142630980E+03  0.10118711408E+04  0.10100000352E+00 0.  1.
</event>
<event>
 5   0  0.2430898E-04  0.2158719E+04  0.7818609E-02  0.8535809E-01
       -2   -1    0    0    0  501  0.00000000000E+00  0.00000000000E+00  0.13082313660E+04  0.13082313660E+04  0.25500000920E-02 0.  1.
        2   -1    0    0  501    0  0.00000000000E+00  0.00000000000E+00 -0.89052786458E+03  0.89052786458E+03  0.25500000920E-02 0. -1.
    10030    2    1    2    0    0  0.00000000000E+00  0.00000000000E+00  0.41770350142E+03  0.21987592306E+04  0.21587185873E+04 0.  0.
        1    1    3    3  502    0  0.56405983511E+03 -0.67147029567E+03 -0.43209007838E+03  0.97761837719E+03  0.50400001928E-02 0.  1.
       -1    1    3    3    0  502 -0.56405983511E+03  0.67147029567E+03  0.84979357980E+03  0.12211408534E+04  0.50400001928E-02 0. -1.
</event>
<event>
 5   0  0.2448804E-04  0.2080070E+04  0.7818609E-02  0.8570074E-01
        2   -1    0    0  501    0  0.00000000000E+00  0.00000000000E+00  0.13584369114E+04  0.13584369114E+04  0.25500000920E-02 0. -1.
       -2   -1    0    0    0  501  0.00000000000E+00  0.00000000000E+00 -0.79626253164E+03  0.79626253165E+03  0.25500000920E-02 0.  1.
    10030    2    1    2    0    0  0.00000000000E+00  0.00000000000E+00  0.56217437971E+03  0.21546994430E+04  0.20800696278E+04 0.  0.
        2    1    3    3  502    0  0.33885943481E+03  0.48491021081E+03  0.11671774469E+04  0.13085361370E+04  0.25500000920E-02 0. -1.
       -2    1    3    3    0  502 -0.33885943481E+03 -0.48491021081E+03 -0.60500306723E+03  0.84616330603E+03  0.25500000920E-02 0.  1.
</event>
<event>
 5   0  0.2512839E-04  0.2067831E+04  0.7818609E-02  0.8575548E-01
       -2   -1    0    0    0  501  0.00000000000E+00  0.00000000000E+00  0.78196389348E+03  0.78196389349E+03  0.25500000920E-02 0. -1.
        2   -1    0    0  501    0  0.00000000000E+00  0.00000000000E+00 -0.13670462473E+04  0.13670462473E+04  0.25500000920E-02 0.  1.
    10030    2    1    2    0    0  0.00000000000E+00  0.00000000000E+00 -0.58508235381E+03  0.21490101408E+04  0.20678305599E+04 0.  0.
        3    1    3    3  502    0  0.49834519699E+03 -0.48369597391E+03 -0.10885554411E+04  0.12912252666E+04  0.10100000352E+00 0.  1.
       -3    1    3    3    0  502 -0.49834519699E+03  0.48369597391E+03  0.50347308730E+03  0.85778487418E+03  0.10100000352E+00 0. -1.
</event>
<event>
 5   0  0.1042395E-04  0.2089784E+04  0.7818609E-02  0.8565757E-01
        1   -1    0    0  501    0  0.00000000000E+00  0.00000000000E+00  0.96694287160E+03  0.96694287161E+03  0.50400001928E-02 0.  1.
       -1   -1    0    0    0  501  0.00000000000E+00  0.00000000000E+00 -0.11291243972E+04  0.11291243972E+04  0.50400001928E-02 0. -1.
    10030    2    1    2    0    0  0.00000000000E+00  0.00000000000E+00 -0.16218152558E+03  0.20960672688E+04  0.20897835170E+04 0.  0.
        3    1    3    3  502    0  0.68710612938E+03  0.40976378513E+03 -0.75525584719E+03  0.11001966177E+04  0.10100000352E+00 0. -1.
       -3    1    3    3    0  502 -0.68710612938E+03 -0.40976378513E+03  0.59307432160E+03  0.99587065113E+03  0.10100000352E+00 0.  1.
</event>
<event>
 5   0  0.2579241E-04  0.2111934E+04  0.7818609E-02  0.8556004E-01
        2   -1    0    0  501    0  0.00000000000E+00  0.00000000000E+00  0.16281946913E+04  0.16281946913E+04  0.25500000920E-02 0.  1.
       -2   -1    0    0    0  501  0.00000000000E+00  0.00000000000E+00 -0.68484839536E+03  0.68484839537E+03  0.25500000920E-02 0. -1.
    10030    2    1    2    0    0  0.00000000000E+00  0.00000000000E+00  0.94334629593E+03  0.23130430867E+04  0.21119342051E+04 0.  0.
        5    1    3    3  502    0 -0.53747174329E+03  0.56941243633E+03 -0.30426730025E+03  0.84006373418E+03  0.46999998093E+01 0. -1.
       -5    1    3    3    0  502  0.53747174329E+03 -0.56941243633E+03  0.12476135962E+04  0.14729793525E+04  0.46999998093E+01 0.  1.
</event>
<event>
 5   0  0.1130848E-04  0.1658663E+04  0.7818609E-02  0.8785298E-01
       -1   -1    0    0    0  501  0.00000000000E+00  0.00000000000E+00  0.46571734979E+03  0.46571734982E+03  0.50400001928E-02 0. -1.
        1   -1    0    0  501    0  0.00000000000E+00  0.00000000000E+00 -0.14768407446E+04  0.14768407446E+04  0.50400001928E-02 0.  1.
    10030    2    1    2    0    0  0.00000000000E+00  0.00000000000E+00 -0.10111233948E+04  0.19425580944E+04  0.16586625427E+04 0.  0.
        5    1    3    3  502    0  0.37894739819E+03 -0.13512759965E+03 -0.13548804837E+04  0.14133590534E+04  0.46999998093E+01 0.  1.
       -5    1    3    3    0  502 -0.37894739819E+03  0.13512759965E+03  0.34375708892E+03  0.52919904097E+03  0.46999998093E+01 0. -1.
</event>
<event>
 5   0  0.1042395E-04  0.2111245E+04  0.7818609E-02  0.8556306E-01
       -1   -1    0    0    0  501  0.00000000000E+00  0.00000000000E+00  0.80642591378E+03  0.80642591380E+03  0.50400001928E-02 0.  1.
        1   -1    0    0  501    0  0.00000000000E+00  0.00000000000E+00 -0.13818236528E+04  0.13818236529E+04  0.50400001928E-02 0. -1.
    10030    2    1    2    0    0  0.00000000000E+00  0.00000000000E+00 -0.57539773906E+03  0.21882495666E+04  0.21112445637E+04 0.  0.
        3    1    3    3  502    0 -0.71658331597E+03 -0.77201452822E+02  0.51172190260E+03  0.88391799894E+03  0.10100000352E+00 0.  1.
       -3    1    3    3    0  502  0.71658331597E+03  0.77201452822E+02 -0.10871196417E+04  0.13043315677E+04  0.10100000352E+00 0. -1.
</event>
<event>
 5   0  0.2512839E-04  0.2004925E+04  0.7818609E-02  0.8604321E-01
        2   -1    0    0  501    0  0.00000000000E+00  0.00000000000E+00  0.21542643393E+04  0.21542643393E+04  0.25500000920E-02 0.  1.
       -2   -1    0    0    0  501  0.00000000000E+00  0.00000000000E+00 -0.46648474075E+03  0.46648474075E+03  0.25500000920E-02 0. -1.
    10030    2    1    2    0    0  0.00000000000E+00  0.00000000000E+00  0.16877795986E+04  0.26207490801E+04  0.20049253770E+04 0.  0.
        3    1    3    3  502    0 -0.82666973491E+03  0.56263878509E+03  0.93619180568E+03  0.13698176376E+04  0.10100000352E+00 0.  1.
       -3    1    3    3    0  502  0.82666973491E+03 -0.56263878509E+03  0.75158779291E+03  0.12509314425E+04  0.10100000352E+00 0. -1.
</event>
<event>
 5   0  0.1122711E-04  0.2075365E+04  0.7818609E-02  0.8572173E-01
       -1   -1    0    0    0  501  0.00000000000E+00  0.00000000000E+00  0.83606971953E+03  0.83606971955E+03  0.50400001928E-02 0. -1.
        1   -1    0    0  501    0  0.00000000000E+00  0.00000000000E+00 -0.12879131765E+04  0.12879131766E+04  0.50400001928E-02 0.  1.
    10030    2    1    2    0    0  0.00000000000E+00  0.00000000000E+00 -0.45184345701E+03  0.21239828961E+04  0.20753652289E+04 0.  0.
        1    1    3    3  502    0  0.15644727029E+03  0.28110335812E+03 -0.12355876320E+04  0.12767817522E+04  0.50400001928E-02 0.  1.
       -1    1    3    3    0  502 -0.15644727029E+03 -0.28110335812E+03  0.78374417501E+03  0.84720114390E+03  0.50400001928E-02 0. -1.
</event>
<event>
 5   0  0.1042395E-04  0.2096127E+04  0.7818609E-02  0.8562951E-01
        1   -1    0    0  501    0  0.00000000000E+00  0.00000000000E+00  0.10625681370E+04  0.10625681370E+04  0.50400001928E-02 0. -1.
       -1   -1    0    0    0  501  0.00000000000E+00  0.00000000000E+00 -0.10337570744E+04  0.10337570744E+04  0.50400001928E-02 0.  1.
    10030    2    1    2    0    0  0.00000000000E+00  0.00000000000E+00  0.28811062560E+02  0.20963252114E+04  0.20961272182E+04 0.  0.
        3    1    3    3  502    0 -0.66498669037E+03 -0.82733273381E+01  0.82452005143E+03  0.10592964985E+04  0.10100000352E+00 0. -1.
       -3    1    3    3    0  502  0.66498669037E+03  0.82733273381E+01 -0.79570898887E+03  0.10370287129E+04  0.10100000352E+00 0.  1.
</event>
<event>
 5   0  0.1186038E-04  0.2088567E+04  0.7818609E-02  0.8566297E-01
       -1   -1    0    0    0  501  0.00000000000E+00  0.00000000000E+00  0.98613497807E+03  0.98613497808E+03  0.50400001928E-02 0. -1.
        1   -1    0    0  501    0  0.00000000000E+00  0.00000000000E+00 -0.11058606945E+04  0.11058606945E+04  0.50400001928E-02 0.  1.
    10030    2    1    2    0    0  0.00000000000E+00  0.00000000000E+00 -0.11972571644E+03  0.20919956726E+04  0.20885668883E+04 0.  0.
        4    1    3    3  502    0 -0.54065712266E+03 -0.16341555340E+03 -0.93966214213E+03  0.10963490875E+04  0.12699999809E+01 0.  1.
       -4    1    3    3    0  502  0.54065712266E+03  0.16341555340E+03  0.81993642569E+03  0.99564658511E+03  0.12699999809E+01 0. -1.
</event>
<event>
 5   0  0.1130848E-04  0.1186176E+04  0.7818609E-02  0.9125043E-01
        1   -1    0    0  501    0  0.00000000000E+00  0.00000000000E+00  0.30421843579E+03  0.30421843584E+03  0.50400001928E-02 0.  1.
       -1   -1    0    0    0  501  0.00000000000E+00  0.00000000000E+00 -0.11562534387E+04  0.11562534387E+04  0.50400001928E-02 0. -1.
    10030    2    1    2    0    0  0.00000000000E+00  0.00000000000E+00 -0.85203500291E+03  0.14604718745E+04  0.11861763993E+04 0.  0.
        5    1    3    3  502    0  0.32273868884E+03  0.42053385812E+03 -0.75345079006E+03  0.92125955633E+03  0.46999998093E+01 0. -1.
       -5    1    3    3    0  502 -0.32273868884E+03 -0.42053385812E+03 -0.98584212852E+02  0.53921231822E+03  0.46999998093E+01 0.  1.
</event>
<event>
 5   0  0.2467483E-04  0.2026444E+04  0.7818609E-02  0.8594356E-01
        2   -1    0    0  501    0  0.00000000000E+00  0.00000000000E+00  0.17371845370E+04  0.17371845370E+04  0.25500000920E-02 0.  1.
       -2   -1    0    0    0  501  0.00000000000E+00  0.00000000000E+00 -0.59096706648E+03  0.59096706648E+03  0.25500000920E-02 0. -1.
    10030    2    1    2    0    0  0.00000000000E+00  0.00000000000E+00  0.11462174705E+04  0.23281516035E+04  0.20264440281E+04 0.  0.
        4    1    3    3  502    0  0.87960555579E+03 -0.23774720774E+03  0.10822445413E+04  0.14147383251E+04  0.12699999809E+01 0.  1.
       -4    1    3    3    0  502 -0.87960555579E+03  0.23774720774E+03  0.63972929279E+02  0.91341327839E+03  0.12699999809E+01 0. -1.
</event>
<event>
 5   0  0.2430898E-04  0.2086199E+04  0.7818609E-02  0.8567347E-01
        2   -1    0    0  501    0  0.00000000000E+00  0.00000000000E+00  0.10031181355E+04  0.10031181355E+04  0.25500000920E-02 0.  1.
       -2   -1    0    0    0  501  0.00000000000E+00  0.00000000000E+00 -0.10846743464E+04  0.10846743464E+04  0.25500000920E-02 0. -1.
    10030    2    1    2    0    0  0.00000000000E+00  0.00000000000E+00 -0.81556210903E+02  0.20877924819E+04  0.20861989435E+04 0.  0.
        1    1    3    3  502    0 -0.17122739843E+03 -0.73680233325E+03 -0.75956067739E+03  0.10719743108E+04  0.50400001928E-02 0. -1.
       -1    1    3    3    0  502  0.17122739843E+03  0.73680233325E+03  0.67800446649E+03  0.10158181712E+04  0.50400001928E-02 0.  1.
</event>
<event>
 5   0  0.1186038E-04  0.1074714E+04  0.7818609E-02  0.9230194E-01
       -1   -1    0    0    0  501  0.00000000000E+00  0.00000000000E+00  0.77256052854E+03  0.77256052856E+03  0.50400001928E-02 0. -1.
        1   -1    0    0  501    0  0.00000000000E+00  0.00000000000E+00 -0.37376023682E+03  0.37376023686E+03  0.50400001928E-02 0.  1.
    10030    2    1    2    0    0  0.00000000000E+00  0.00000000000E+00  0.39880029172E+03  0.11463207654E+04  0.10747137407E+04 0.  0.
        4    1    3    3  502    0 -0.24989824484E+03  0.20911449761E+03  0.65515508202E+03  0.73171565535E+03  0.12699999809E+01 0. -1.
       -4    1    3    3    0  502  0.24989824484E+03 -0.20911449761E+03 -0.25635479030E+03  0.41460511007E+03  0.12699999809E+01 0.  1.
</event>
<event>
 5   0  0.2448804E-04  0.2114399E+04  0.7818609E-02  0.8554927E-01
       -2   -1    0    0    0  501  0.00000000000E+00  0.00000000000E+00  0.11735775386E+04  0.11735775386E+04  0.25500000920E-02 0.  1.
        2   -1    0    0  501    0  0.00000000000E+00  0.00000000000E+00 -0.95236244238E+03  0.95236244238E+03  0.25500000920E-02 0. -1.
    10030    2    1    2    0    0  0.00000000000E+00  0.00000000000E+00  0.22121509624E+03  0.21259399810E+04  0.21143993672E+04 0.  0.
        2    1    3    3  502    0 -0.22030465163E+03 -0.99361903365E+03  0.39827796352E+03  0.10929035913E+04  0.25500000920E-02 0.  1.
       -2    1    3    3    0  502  0.22030465163E+03  0.99361903365E+03 -0.17706286728E+03  0.10330363897E+04  0.25500000920E-02 0. -1.
</event>
<event>
 5   0  0.1130848E-04  0.2111381E+04  0.7818609E-02  0.8556246E-01
       -1   -1    0    0    0  501  0.00000000000E+00  0.00000000000E+00  0.10316326732E+04  0.10316326732E+04  0.50400001928E-02 0.  1.
        1   -1    0    0  501    0  0.00000000000E+00  0.00000000000E+00 -0.10803094457E+04  0.10803094457E+04  0.50400001928E-02 0. -1.
    10030    2    1    2    0    0  0.00000000000E+00  0.00000000000E+00 -0.48676772519E+02  0.21119421189E+04  0.21113810848E+04 0.  0.
        5    1    3    3  502    0  0.50588632573E+03  0.85291881502E+03 -0.38646904782E+03  0.10643175722E+04  0.46999998093E+01 0. -1.
       -5    1    3    3    0  502 -0.50588632573E+03 -0.85291881502E+03  0.33779227530E+03  0.10476245467E+04  0.46999998093E+01 0.  1.
</event>
<event>
 5   0  0.2448804E-04  0.2131345E+04  0.7818609E-02  0.8547560E-01
       -2   -1    0    0    0  501  0.00000000000E+00  0.00000000000E+00  0.18712532994E+04  0.18712532994E+04  0.25500000920E-02 0. -1.
        2   -1    0    0  501    0  0.00000000000E+00  0.00000000000E+00 -0.60689667218E+03  0.60689667218E+03  0.25500000920E-02 0.  1.
    10030    2    1    2    0    0  0.00000000000E+00  0.00000000000E+00  0.12643566273E+04  0.24781499716E+04  0.21313445524E+04 0.  0.
        2    1    3    3  502    0  0.44209860031E+03 -0.87015381117E+03  0.13473312765E+03  0.98527754627E+03  0.25500000920E-02 0.  1.
       -2    1    3    3    0  502 -0.44209860031E+03  0.87015381117E+03  0.11296234996E+04  0.14928724254E+04  0.25500000920E-02 0. -1.
</event>
<event>
 5   0  0.1186038E-04  0.2111231E+04  0.7818609E-02  0.8556312E-01
        1   -1    0    0  501    0  0.00000000000E+00  0.00000000000E+00  0.16766125724E+04  0.16766125724E+04  0.50400001928E-02 0.  1.
       -1   -1    0    0    0  501  0.00000000000E+00  0.00000000000E+00 -0.66462852207E+03  0.66462852209E+03  0.50400001928E-02 0. -1.
    10030    2    1    2    0    0  0.00000000000E+00  0.00000000000E+00  0.10119840503E+04  0.23412410944E+04  0.21112314284E+04 0.  0.
        4    1    3    3  502    0 -0.82312355051E+03  0.66085435915E+03  0.49725596978E+03  0.11668444523E+04  0.12699999809E+01 0.  1.
       -4    1    3    3    0  502  0.82312355051E+03 -0.66085435915E+03  0.51472808050E+03  0.11743966422E+04  0.12699999809E+01 0. -1.
</event>
<event>
 5   0  0.1186038E-04  0.2146096E+04  0.7818609E-02  0.8541205E-01
       -1   -1    0    0    0  501  0.00000000000E+00  0.00000000000E+00  0.18226672917E+04  0.18226672918E+04  0.50400001928E-02 0.  1.
        1   -1    0    0  501    0  0.00000000000E+00  0.00000000000E+00 -0.63172918923E+03  0.63172918925E+03  0.50400001928E-02 0. -1.
    10030    2    1    2    0    0  0.00000000000E+00  0.00000000000E+00  0.11909381025E+04  0.24543964810E+04  0.21460961120E+04 0.  0.
        4    1    3    3  502    0  0.41992482153E+03  0.27714604308E+03  0.16794017539E+04  0.17531510628E+04  0.12699999809E+01 0.  1.
       -4    1    3    3    0  502 -0.41992482153E+03 -0.27714604308E+03 -0.48846365141E+03  0.70124541822E+03  0.12699999809E+01 0. -1.
</event>
<event>
 5   0  0.1186038E-04  0.2131110E+04  0.7818609E-02  0.8547662E-01
       -1   -1    0    0    0  501  0.00000000000E+00  0.00000000000E+00  0.82741190231E+03  0.82741190233E+03  0.50400001928E-02 0. -1.
        1   -1    0    0  501    0  0.00000000000E+00  0.00000000000E+00 -0.13722399722E+04  0.13722399722E+04  0.50400001928E-02 0.  1.
    10030    2    1    2    0    0  0.00000000000E+00  0.00000000000E+00 -0.54482806987E+03  0.21996518745E+04  0.21311102138E+04 0.  0.
        4    1    3    3  502    0 -0.91689624987E+03  0.32873794160E+03 -0.71832576768E+03  0.12102730637E+04  0.12699999809E+01 0.  1.
       -4    1    3    3    0  502  0.91689624987E+03 -0.32873794160E+03  0.17349769782E+03  0.98937881083E+03  0.12699999809E+01 0. -1.
</event>
<event>
 5   0  0.2448804E-04  0.2058283E+04  0.7818609E-02  0.8579846E-01
       -2   -1    0    0    0  501  0.00000000000E+00  0.00000000000E+00  0.98322256082E+03  0.98322256083E+03  0.25500000920E-02 0. -1.
        2   -1    0    0  501    0  0.00000000000E+00  0.00000000000E+00 -0.10772050225E+04  0.10772050225E+04  0.25500000920E-02 0.  1.
    10030    2    1    2    0    0  0.00000000000E+00  0.00000000000E+00 -0.93982461673E+02  0.20604275833E+04  0.20582830522E+04 0.  0.
        2    1    3    3  502    0 -0.47363185538E+03 -0.72227939895E+03 -0.60714338194E+03  0.10557640602E+04  0.25500000920E-02 0.  1.
       -2    1    3    3    0  502  0.47363185538E+03  0.72227939895E+03  0.51316092027E+03  0.10046635231E+04  0.25500000920E-02 0. -1.
</event>
<event>
 5   0  0.8698750E-05  0.2069545E+04  0.7818609E-02  0.8574779E-01
       -3   -1    0    0    0  501  0.00000000000E+00  0.00000000000E+00  0.49599215084E+03  0.49599216113E+03  0.10100000352E+00 0. -1.
        3   -1    0    0  501    0  0.00000000000E+00  0.00000000000E+00 -0.21588127092E+04  0.21588127115E+04  0.10100000352E+00 0.  1.
    10030    2    1    2    0    0  0.00000000000E+00  0.00000000000E+00 -0.16628205583E+04  0.26548048726E+04  0.20695450473E+04 0.  0.
        2    1    3    3  502    0  0.59752612199E+03 -0.54950970420E+03 -0.82629342761E+01  0.81182920467E+03  0.25500000920E-02 0. -1.
       -2    1    3    3    0  502 -0.59752612199E+03  0.54950970420E+03 -0.16545576240E+04  0.18429756680E+04  0.25500000920E-02 0.  1.
</event>
<event>
 5   0  0.2579241E-04  0.2137386E+04  0.7818609E-02  0.8544951E-01
        2   -1    0    0  501    0  0.00000000000E+00  0.00000000000E+00  0.28734296864E+04  0.28734296864E+04  0.25500000920E-02 0.  1.
       -2   -1    0    0    0  501  0.00000000000E+00  0.00000000000E+00 -0.39747077929E+03  0.39747077930E+03  0.25500000920E-02 0. -1.
    10030    2    1    2    0    0  0.00000000000E+00  0.00000000000E+00  0.24759589071E+04  0.32709004657E+04  0.21373856336E+04 0.  0.
        5    1    3    3  502    0 -0.10622425605E+04  0.11456081153E+02  0.10595682623E+04  0.15003991108E+04  0.46999998093E+01 0. -1.
       -5    1    3    3    0  502  0.10622425605E+04 -0.11456081153E+02  0.14163906448E+04  0.17705013549E+04  0.46999998093E+01 0.  1.
</event>
<event>
 5   0  0.2579241E-04  0.2013249E+04  0.7818609E-02  0.8600451E-01
        2   -1    0    0  501    0  0.00000000000E+00  0.00000000000E+00  0.88929187276E+03  0.88929187277E+03  0.25500000920E-02 0. -1.
       -2   -1    0    0    0  501  0.00000000000E+00  0.00000000000E+00 -0.11394376457E+04  0.11394376457E+04  0.25500000920E-02 0.  1.
    10030    2    1    2    0    0  0.00000000000E+00  0.00000000000E+00 -0.25014577298E+03  0.20287295185E+04  0.20132487555E+04 0.  0.
        5    1    3    3  502    0  0.32324492107E+03 -0.94146637492E+03 -0.27597192883E+03  0.10329708658E+04  0.46999998093E+01 0. -1.
       -5    1    3    3    0  502 -0.32324492107E+03  0.94146637492E+03  0.25826155849E+02  0.99575865270E+03  0.46999998093E+01 0.  1.
</event>
<event>
 5   0  0.2467483E-04  0.2030439E+04  0.7818609E-02  0.8592520E-01
        2   -1    0    0  501    0  0.00000000000E+00  0.00000000000E+00  0.74628116209E+03  0.74628116210E+03  0.25500000920E-02 0.  1.
       -2   -1    0    0    0  501  0.00000000000E+00  0.00000000000E+00 -0.13810750391E+04  0.13810750391E+04  0.25500000920E-02 0. -1.
    10030    2    1    2    0    0  0.00000000000E+00  0.00000000000E+00 -0.63479387698E+03  0.21273562012E+04  0.20304386571E+04 0.  0.
        4    1    3    3  502    0  0.27142853395E+03 -0.42890418331E+01 -0.13423430948E+04  0.13695175947E+04  0.12699999809E+01 0. -1.
       -4    1    3    3    0  502 -0.27142853395E+03  0.42890418331E+01  0.70754921786E+03  0.75783860651E+03  0.12699999809E+01 0.  1.
</event>
<event>
 5   0  0.1186038E-04  0.2056592E+04  0.7818609E-02  0.8580610E-01
        1   -1    0    0  501    0  0.00000000000E+00  0.00000000000E+00  0.10210338521E+04  0.10210338521E+04  0.50400001928E-02 0.  1.
       -1   -1    0    0    0  501  0.00000000000E+00  0.00000000000E+00 -0.10356098620E+04  0.10356098620E+04  0.50400001928E-02 0. -1.
    10030    2    1    2    0    0  0.00000000000E+00  0.00000000000E+00 -0.14576009934E+02  0.20566437142E+04  0.20565920614E+04 0.  0.
        4    1    3    3  502    0 -0.41731194127E+03 -0.64675238601E+03  0.67460389574E+03  0.10234890982E+04  0.12699999809E+01 0.  1.
       -4    1    3    3    0  502  0.41731194127E+03  0.64675238601E+03 -0.68917990568E+03  0.10331546159E+04  0.12699999809E+01 0. -1.
</event>
<event>
 5   0  0.1156733E-04  0.1992570E+04  0.7818609E-02  0.8610103E-01
        1   -1    0    0  501    0  0.00000000000E+00  0.00000000000E+00  0.11604127887E+04  0.11604127887E+04  0.50400001928E-02 0.  1.
       -1   -1    0    0    0  501  0.00000000000E+00  0.00000000000E+00 -0.85537088999E+03  0.85537089000E+03  0.50400001928E-02 0. -1.
    10030    2    1    2    0    0  0.00000000000E+00  0.00000000000E+00  0.30504189870E+03  0.20157836787E+04  0.19925695168E+04 0.  0.
        2    1    3    3  502    0 -0.58157460805E+01 -0.97064330445E+03  0.37963830932E+03  0.10422607607E+04  0.25500000920E-02 0.  1.
       -2    1    3    3    0  502  0.58157460805E+01  0.97064330445E+03 -0.74596410617E+02  0.97352291800E+03  0.25500000920E-02 0. -1.
</event>
<event>
 5   0  0.2448804E-04  0.2140065E+04  0.7818609E-02  0.8543797E-01
        2   -1    0    0  501    0  0.00000000000E+00  0.00000000000E+00  0.21226134602E+04  0.21226134602E+04  0.25500000920E-02 0.  1.
       -2   -1    0    0    0  501  0.00000000000E+00  0.00000000000E+00 -0.53941488465E+03  0.53941488466E+03  0.25500000920E-02 0. -1.
    10030    2    1    2    0    0  0.00000000000E+00  0.00000000000E+00  0.15831985756E+04  0.26620283449E+04  0.21400647605E+04 0.  0.
        2    1    3    3  502    0  0.35115243778E+03  0.95322471104E+03  0.37341190603E+03  0.10823039480E+04  0.25500000920E-02 0. -1.
       -2    1    3    3    0  502 -0.35115243778E+03 -0.95322471104E+03  0.12097866695E+04  0.15797243969E+04  0.25500000920E-02 0.  1.
</event>
<event>
 5   0  0.1156733E-04  0.2081285E+04  0.7818609E-02  0.8569533E-01
        1   -1    0    0  501    0  0.00000000000E+00  0.00000000000E+00  0.10219595060E+04  0.10219595060E+04  0.50400001928E-02 0.  1.
       -1   -1    0    0    0  501  0.00000000000E+00  0.00000000000E+00 -0.10596667634E+04  0.10596667634E+04  0.50400001928E-02 0. -1.
    10030    2    1    2    0    0  0.00000000000E+00  0.00000000000E+00 -0.37707257440E+02  0.20816262694E+04  0.20812847206E+04 0.  0.
        2    1    3    3  502    0 -0.50012692319E+03 -0.68413487895E+03 -0.62291387464E+03  0.10517552791E+04  0.25500000920E-02 0. -1.
       -2    1    3    3    0  502  0.50012692319E+03  0.68413487895E+03  0.58520661720E+03  0.10298709903E+04  0.25500000920E-02 0.  1.
</event>
<event>
 5   0  0.2512839E-04  0.1690520E+04  0.7818609E-02  0.8766790E-01
        2   -1    0    0  501    0  0.00000000000E+00  0.00000000000E+00  0.19240057609E+04  0.19240057609E+04  0.25500000920E-02 0.  1.
       -2   -1    0    0    0  501  0.00000000000E+00  0.00000000000E+00 -0.37134225746E+03  0.37134225747E+03  0.25500000920E-02 0. -1.
    10030    2    1    2    0    0  0.00000000000E+00  0.00000000000E+00  0.15526635034E+04  0.22953480183E+04  0.16905202071E+04 0.  0.
        3    1    3    3  502    0 -0.71039809932E+03 -0.34467815998E+02  0.15618149661E+03  0.72818003264E+03  0.10100000352E+00 0. -1.
       -3    1    3    3    0  502  0.71039809932E+03  0.34467815998E+02  0.13964820068E+04  0.15671679857E+04  0.10100000352E+00 0.  1.
</event>
<event>
 5   0  0.2579241E-04  0.2065287E+04  0.7818609E-02  0.8576691E-01
        2   -1    0    0  501    0  0.00000000000E+00  0.00000000000E+00  0.13108212275E+04  0.13108212275E+04  0.25500000920E-02 0. -1.
       -2   -1    0    0    0  501  0.00000000000E+00  0.00000000000E+00 -0.81349996454E+03  0.81349996454E+03  0.25500000920E-02 0.  1.
    10030    2    1    2    0    0  0.00000000000E+00  0.00000000000E+00  0.49732126295E+03  0.21243211920E+04  0.20652874106E+04 0.  0.
        5    1    3    3  502    0  0.76543443709E+03  0.24896609972E+03  0.91403347123E+03  0.12179299129E+04  0.46999998093E+01 0. -1.
       -5    1    3    3    0  502 -0.76543443709E+03 -0.24896609972E+03 -0.41671220828E+03  0.90639127909E+03  0.46999998093E+01 0.  1.
</event>
<event>
 5   0  0.1130848E-04  0.1962004E+04  0.7818609E-02  0.8624594E-01
        1   -1    0    0  501    0  0.00000000000E+00  0.00000000000E+00  0.50640250204E+03  0.50640250207E+03  0.50400001928E-02 0.  1.
       -1   -1    0    0    0  501  0.00000000000E+00  0.00000000000E+00 -0.19003957698E+04  0.19003957698E+04  0.50400001928E-02 0. -1.
    10030    2    1    2    0    0  0.00000000000E+00  0.00000000000E+00 -0.13939932678E+04  0.24067982719E+04  0.19620042535E+04 0.  0.
        5    1    3    3  502    0  0.21125292362E+03 -0.12937197706E+03  0.46738911725E+03  0.52899866078E+03  0.46999998093E+01 0.  1.
       -5    1    3    3    0  502 -0.21125292362E+03  0.12937197706E+03 -0.18613823850E+04  0.18777996111E+04  0.46999998093E+01 0. -1.
</event>
<event>
 5   0  0.1042395E-04  0.2113486E+04  0.7818609E-02  0.8555326E-01
       -1   -1    0    0    0  501  0.00000000000E+00  0.00000000000E+00  0.16643058223E+04  0.16643058223E+04  0.50400001928E-02 0.  1.
        1   -1    0    0  501    0  0.00000000000E+00  0.00000000000E+00 -0.67097367734E+03  0.67097367736E+03  0.50400001928E-02 0. -1.
    10030    2    1    2    0    0  0.00000000000E+00  0.00000000000E+00  0.99333214494E+03  0.23352794997E+04  0.21134856497E+04 0.  0.
        3    1    3    3  502    0  0.57656577077E+03 -0.33329882545E+03  0.14032502416E+04  0.15532634824E+04  0.10100000352E+00 0.  1.
       -3    1    3    3    0  502 -0.57656577077E+03  0.33329882545E+03 -0.40991809665E+03  0.78201601724E+03  0.10100000352E+00 0. -1.
</event>
<event>
 5   0  0.2512839E-04  0.2103474E+04  0.7818609E-02  0.8559714E-01
        2   -1    0    0  501    0  0.00000000000E+00  0.00000000000E+00  0.69832701236E+03  0.69832701237E+03  0.25500000920E-02 0.  1.
       -2   -1    0    0    0  501  0.00000000000E+00  0.00000000000E+00 -0.15840015864E+04  0.15840015864E+04  0.25500000920E-02 0. -1.
    10030    2    1    2    0    0  0.00000000000E+00  0.00000000000E+00 -0.88567457406E+03  0.22823285988E+04  0.21034743597E+04 0.  0.
        3    1    3    3  502    0  0.80262661127E+03 -0.41789907189E+03 -0.10244183469E+04  0.13668511517E+04  0.10100000352E+00 0. -1.
       -3    1    3    3    0  502 -0.80262661127E+03  0.41789907189E+03  0.13874377279E+03  0.91547744707E+03  0.10100000352E+00 0.  1.
</event>
<event>
 5   0  0.2430898E-04  0.2077608E+04  0.7818609E-02  0.8571172E-01
       -2   -1    0    0    0  501  0.00000000000E+00  0.00000000000E+00  0.46860818782E+03  0.46860818783E+03  0.25500000920E-02 0. -1.
        2   -1    0    0  501    0  0.00000000000E+00  0.00000000000E+00 -0.23028052348E+04  0.23028052348E+04  0.25500000920E-02 0.  1.
    10030    2    1    2    0    0  0.00000000000E+00  0.00000000000E+00 -0.18341970469E+04  0.27714134226E+04  0.20776076511E+04 0.  0.
        1    1    3    3  502    0 -0.34002283534E+03  0.95456273628E+03 -0.12221837524E+04  0.15876204429E+04  0.50400001928E-02 0. -1.
       -1    1    3    3    0  502  0.34002283534E+03 -0.95456273628E+03 -0.61201329452E+03  0.11837929797E+04  0.50400001928E-02 0.  1.
</event>
<event>
 5   0  0.2430898E-04  0.2131888E+04  0.7818609E-02  0.8547325E-01
        2   -1    0    0  501    0  0.00000000000E+00  0.00000000000E+00  0.92920667441E+03  0.92920667441E+03  0.25500000920E-02 0.  1.
       -2   -1    0    0    0  501  0.00000000000E+00  0.00000000000E+00 -0.12228025815E+04  0.12228025815E+04  0.25500000920E-02 0. -1.
    10030    2    1    2    0    0  0.00000000000E+00  0.00000000000E+00 -0.29359590709E+03  0.21520092559E+04  0.21318877271E+04 0.  0.
        1    1    3    3  502    0 -0.46200791108E+03 -0.82849360902E+03 -0.63757952532E+03  0.11429613385E+04  0.50400001928E-02 0. -1.
       -1    1    3    3    0  502  0.46200791108E+03  0.82849360902E+03  0.34398361823E+03  0.10090479175E+04  0.50400001928E-02 0.  1.
</event>
<event>
 5   0  0.2448804E-04  0.2078493E+04  0.7818609E-02  0.8570777E-01
        2   -1    0    0  501    0  0.00000000000E+00  0.00000000000E+00  0.24156698582E+04  0.24156698582E+04  0.25500000920E-02 0. -1.
       -2   -1    0    0    0  501  0.00000000000E+00  0.00000000000E+00 -0.44709475359E+03  0.44709475360E+03  0.25500000920E-02 0.  1.
    10030    2    1    2    0    0  0.00000000000E+00  0.00000000000E+00  0.19685751046E+04  0.28627646118E+04  0.20784930311E+04 0.  0.
        2    1    3    3  502    0 -0.19901882056E+02 -0.10378852033E+04  0.10522044394E+04  0.14780852351E+04  0.25500000920E-02 0. -1.
       -2    1    3    3    0  502  0.19901882056E+02  0.10378852033E+04  0.91637066529E+03  0.13846793767E+04  0.25500000920E-02 0.  1.
</event>
<event>
 5   0  0.1122711E-04  0.1956464E+04  0.7818609E-02  0.8627250E-01
        1   -1    0    0  501    0  0.00000000000E+00  0.00000000000E+00  0.98317727724E+03  0.98317727725E+03  0.50400001928E-02 0.  1.
       -1   -1    0    0    0  501  0.00000000000E+00  0.00000000000E+00 -0.97331112883E+03  0.97331112885E+03  0.50400001928E-02 0. -1.
    10030    2    1    2    0    0  0.00000000000E+00  0.00000000000E+00  0.98661484030E+01  0.19564884061E+04  0.19564635295E+04 0.  0.
        1    1    3    3  502    0  0.65863029749E+03 -0.42081313915E+03 -0.58334289770E+03  0.97527765440E+03  0.50400001928E-02 0. -1.
       -1    1    3    3    0  502 -0.65863029749E+03  0.42081313915E+03  0.59320904610E+03  0.98121075170E+03  0.50400001928E-02 0.  1.
</event>
<event>
 5   0  0.2430898E-04  0.2105920E+04  0.7818609E-02  0.8558640E-01
        2   -1    0    0  501    0  0.00000000000E+00  0.00000000000E+00  0.13635073408E+04  0.13635073408E+04  0.25500000920E-02 0.  1.
       -2   -1    0    0    0  501  0.00000000000E+00  0.00000000000E+00 -0.81314190638E+03  0.81314190638E+03  0.25500000920E-02 0. -1.
    10030    2    1    2    0    0  0.00000000000E+00  0.00000000000E+00  0.55036543440E+03  0.21766492472E+04  0.21059201870E+04 0.  0.
        1    1    3    3  502    0 -0.44468748895E+03 -0.92426984644E+03  0.52130475708E+03  0.11505565443E+04  0.50400001928E-02 0.  1.
       -1    1    3    3    0  502  0.44468748895E+03  0.92426984644E+03  0.29060677323E+02  0.10260927029E+04  0.50400001928E-02 0. -1.
</event>
<event>
 5   0  0.2467483E-04  0.1553565E+04  0.7818609E-02  0.8849594E-01
       -2   -1    0    0    0  501  0.00000000000E+00  0.00000000000E+00  0.35267689691E+03  0.35267689692E+03  0.25500000920E-02 0.  1.
        2   -1    0    0  501    0  0.00000000000E+00  0.00000000000E+00 -0.17108895957E+04  0.17108895957E+04  0.25500000920E-02 0. -1.
    10030    2    1    2    0    0  0.00000000000E+00  0.00000000000E+00 -0.13582126988E+04  0.20635664926E+04  0.15535652334E+04 0.  0.
        4    1    3    3  502    0 -0.31029053878E+02  0.76104549928E+03 -0.88158300166E+03  0.11650507525E+04  0.12699999809E+01 0. -1.
       -4    1    3    3    0  502  0.31029053878E+02 -0.76104549928E+03 -0.47662969712E+03  0.89851574011E+03  0.12699999809E+01 0.  1.
</event>
<event>
 5   0  0.2512839E-04  0.1775396E+04  0.7818609E-02  0.8719494E-01
        2   -1    0    0  501    0  0.00000000000E+00  0.00000000000E+00  0.12907899566E+04  0.12907899566E+04  0.25500000920E-02 0. -1.
       -2   -1    0    0    0  501  0.00000000000E+00  0.00000000000E+00 -0.61048509442E+03  0.61048509443E+03  0.25500000920E-02 0.  1.
    10030    2    1    2    0    0  0.00000000000E+00  0.00000000000E+00  0.68030486217E+03  0.19012750510E+04  0.17753963259E+04 0.  0.
        3    1    3    3  502    0 -0.70968220608E+03 -0.44901518147E+02 -0.22888151397E+03  0.74702860561E+03  0.10100000352E+00 0.  1.
       -3    1    3    3    0  502  0.70968220608E+03  0.44901518147E+02  0.90918637614E+03  0.11542464454E+04  0.10100000352E+00 0. -1.
</event>
<event>
 5   0  0.1130848E-04  0.2109174E+04  0.7818609E-02  0.8557213E-01
        1   -1    0    0  501    0  0.00000000000E+00  0.00000000000E+00  0.15045695605E+04  0.15045695605E+04  0.50400001928E-02 0. -1.
       -1   -1    0    0    0  501  0.00000000000E+00  0.00000000000E+00 -0.73918408061E+03  0.73918408063E+03  0.50400001928E-02 0.  1.
    10030    2    1    2    0    0  0.00000000000E+00  0.00000000000E+00  0.76538547989E+03  0.22437536411E+04  0.21091741202E+04 0.  0.
        5    1    3    3  502    0  0.24758569499E+02 -0.53732508647E+02  0.15027916255E+04  0.15039630743E+04  0.46999998093E+01 0. -1.
       -5    1    3    3    0  502 -0.24758569499E+02  0.53732508647E+02 -0.73740614558E+03  0.73979056684E+03  0.46999998093E+01 0.  1.
</event>
<event>
 5   0  0.1156733E-04  0.2131527E+04  0.7818609E-02  0.8547481E-01
        1   -1    0    0  501    0  0.00000000000E+00  0.00000000000E+00  0.14623835003E+04  0.14623835003E+04  0.50400001928E-02 0. -1.
       -1   -1    0    0    0  501  0.00000000000E+00  0.00000000000E+00 -0.77671249503E+03  0.77671249505E+03  0.50400001928E-02 0.  1.
    10030    2    1    2    0    0  0.00000000000E+00  0.00000000000E+00  0.68567100529E+03  0.22390959954E+04  0.21315267179E+04 0.  0.
        2    1    3    3  502    0 -0.71805230768E+03 -0.15733809134E+03  0.11534638272E+04  0.13677840445E+04  0.25500000920E-02 0. -1.
       -2    1    3    3    0  502  0.71805230768E+03  0.15733809134E+03 -0.46779282193E+03  0.87131195092E+03  0.25500000920E-02 0.  1.
</event>
<event>
 5   0  0.2430898E-04  0.2083503E+04  0.7818609E-02  0.8568546E-01
       -2   -1    0    0    0  501  0.00000000000E+00  0.00000000000E+00  0.12337139500E+04  0.12337139500E+04  0.25500000920E-02 0.  1.
        2   -1    0    0  501    0  0.00000000000E+00  0.00000000000E+00 -0.87965773238E+03  0.87965773238E+03  0.25500000920E-02 0. -1.
    10030    2    1    2    0    0  0.00000000000E+00  0.00000000000E+00  0.35405621757E+03  0.21133716823E+04  0.20835028348E+04 0.  0.
        1    1    3    3  502    0 -0.10176455908E+03  0.76711367586E+02 -0.87172129953E+03  0.88098733447E+03  0.50400001928E-02 0. -1.
       -1    1    3    3    0  502  0.10176455908E+03 -0.76711367586E+02  0.12257775171E+04  0.12323843479E+04  0.50400001928E-02 0.  1.
</event>
<event>
 5   0  0.2467483E-04  0.1872979E+04  0.7818609E-02  0.8668425E-01
       -2   -1    0    0    0  501  0.00000000000E+00  0.00000000000E+00  0.82498344122E+03  0.82498344123E+03  0.25500000920E-02 0. -1.
        2   -1    0    0  501    0  0.00000000000E+00  0.00000000000E+00 -0.10630670587E+04  0.10630670587E+04  0.25500000920E-02 0.  1.
    10030    2    1    2    0    0  0.00000000000E+00  0.00000000000E+00 -0.23808361745E+03  0.18880504999E+04  0.18729791460E+04 0.  0.
        4    1    3    3  502    0  0.36697273007E+03 -0.30012675203E+03 -0.93317048702E+03  0.10466870701E+04  0.12699999809E+01 0.  1.
       -4    1    3    3    0  502 -0.36697273007E+03  0.30012675203E+03  0.69508686958E+03  0.84136342983E+03  0.12699999809E+01 0. -1.
</event>
<event>
 5   0  0.2512839E-04  0.2185367E+04  0.7818609E-02  0.8524544E-01
        2   -1    0    0  501    0  0.00000000000E+00  0.00000000000E+00  0.15829308460E+04  0.15829308460E+04  0.25500000920E-02 0. -1.
       -2   -1    0    0    0  501  0.00000000000E+00  0.00000000000E+00 -0.75426968310E+03  0.75426968310E+03  0.25500000920E-02 0.  1.
    10030    2    1    2    0    0  0.00000000000E+00  0.00000000000E+00  0.82866116289E+03  0.23372005291E+04  0.21853665574E+04 0.  0.
        3    1    3    3  502    0 -0.11728400615E+03 -0.26697929248E+03  0.15405484900E+04  0.15679040599E+04  0.10100000352E+00 0. -1.
       -3    1    3    3    0  502  0.11728400615E+03  0.26697929248E+03 -0.71188732716E+03  0.76929646917E+03  0.10100000352E+00 0.  1.
</event>
<event>
 5   0  0.1122711E-04  0.2125932E+04  0.7818609E-02  0.8549905E-01
        1   -1    0    0  501    0  0.00000000000E+00  0.00000000000E+00  0.13943313450E+04  0.13943313450E+04  0.50400001928E-02 0. -1.
       -1   -1    0    0    0  501  0.00000000000E+00  0.00000000000E+00 -0.81035048069E+03  0.81035048071E+03  0.50400001928E-02 0.  1.
    10030    2    1    2    0    0  0.00000000000E+00  0.00000000000E+00  0.58398086434E+03  0.22046818258E+04  0.21259323373E+04 0.  0.
        1    1    3    3  502    0  0.11835819743E+03  0.37964296391E+03 -0.73030380167E+03  0.83155341723E+03  0.50400001928E-02 0.  1.
       -1    1    3    3    0  502 -0.11835819743E+03 -0.37964296391E+03  0.13142846660E+04  0.13731284085E+04  0.50400001928E-02 0. -1.
</event>
<event>
 5   0  0.2448804E-04  0.1995359E+04  0.7818609E-02  0.8608794E-01
        2   -1    0    0  501    0  0.00000000000E+00  0.00000000000E+00  0.18383790260E+04  0.18383790260E+04  0.25500000920E-02 0. -1.
       -2   -1    0    0    0  501  0.00000000000E+00  0.00000000000E+00 -0.54143578726E+03  0.54143578726E+03  0.25500000920E-02 0.  1.
    10030    2    1    2    0    0  0.00000000000E+00  0.00000000000E+00  0.12969432388E+04  0.23798148133E+04  0.19953588101E+04 0.  0.
        2    1    3    3  502    0  0.21854087961E+03  0.29148872878E+03 -0.45926510506E+03  0.58621688120E+03  0.25500000920E-02 0.  1.
       -2    1    3    3    0  502 -0.21854087961E+03 -0.29148872878E+03  0.17562083438E+04  0.17935979321E+04  0.25500000920E-02 0. -1.
</event>
<event>
 5   0  0.1122711E-04  0.2089233E+04  0.7818609E-02  0.8566001E-01
       -1   -1    0    0    0  501  0.00000000000E+00  0.00000000000E+00  0.24907903240E+04  0.24907903240E+04  0.50400001928E-02 0. -1.
        1   -1    0    0  501    0  0.00000000000E+00  0.00000000000E+00 -0.43810324244E+03  0.43810324247E+03  0.50400001928E-02 0.  1.
    10030    2    1    2    0    0  0.00000000000E+00  0.00000000000E+00  0.20526870816E+04  0.29288935665E+04  0.20892326986E+04 0.  0.
        1    1    3    3  502    0  0.10245613429E+04  0.12905909239E+03  0.12472978034E+04  0.16193004678E+04  0.50400001928E-02 0. -1.
       -1    1    3    3    0  502 -0.10245613429E+04 -0.12905909239E+03  0.80538927816E+03  0.13095930987E+04  0.50400001928E-02 0.  1.
</event>
<event>
 5   0  0.1156733E-04  0.2138765E+04  0.7818609E-02  0.8544357E-01
       -1   -1    0    0    0  501  0.00000000000E+00  0.00000000000E+00  0.60807215168E+03  0.60807215170E+03  0.50400001928E-02 0. -1.
        1   -1    0    0  501    0  0.00000000000E+00  0.00000000000E+00 -0.18806627005E+04  0.18806627005E+04  0.50400001928E-02 0.  1.
    10030    2    1    2    0    0  0.00000000000E+00  0.00000000000E+00 -0.12725905488E+04  0.24887348522E+04  0.21387647041E+04 0.  0.
        2    1    3    3  502    0  0.33583512099E+03 -0.96178392537E+03 -0.10147263102E+04  0.14378744841E+04  0.25500000920E-02 0.  1.
       -2    1    3    3    0  502 -0.33583512099E+03  0.96178392537E+03 -0.25786423863E+03  0.10508603681E+04  0.25500000920E-02 0. -1.
</event>
<event>
 5   0  0.2579241E-04  0.2104471E+04  0.7818609E-02  0.8559276E-01
       -2   -1    0    0    0  501  0.00000000000E+00  0.00000000000E+00  0.10963529103E+04  0.10963529103E+04  0.25500000920E-02 0.  1.
        2   -1    0    0  501    0  0.00000000000E+00  0.00000000000E+00 -0.10098937467E+04  0.10098937467E+04  0.25500000920E-02 0. -1.
    10030    2    1    2    0    0  0.00000000000E+00  0.00000000000E+00  0.86459163589E+02  0.21062466570E+04  0.21044713809E+04 0.  0.
        5    1    3    3  502    0 -0.59758145948E+03  0.85832500644E+03  0.15887982132E+03  0.10578706466E+04  0.46999998093E+01 0.  1.
       -5    1    3    3    0  502  0.59758145948E+03 -0.85832500644E+03 -0.72420657729E+02  0.10483760103E+04  0.46999998093E+01 0. -1.
</event>
<event>
 5   0  0.1122711E-04  0.2171806E+04  0.7818609E-02  0.8530255E-01
       -1   -1    0    0    0  501  0.00000000000E+00  0.00000000000E+00  0.87201199492E+03  0.87201199494E+03  0.50400001928E-02 0. -1.
        1   -1    0    0  501    0  0.00000000000E+00  0.00000000000E+00 -0.13522584396E+04  0.13522584396E+04  0.50400001928E-02 0.  1.
    10030    2    1    2    0    0  0.00000000000E+00  0.00000000000E+00 -0.48024644471E+03  0.22242704346E+04  0.21718062341E+04 0.  0.
        1    1    3    3  502    0  0.52729266410E+03 -0.93775375190E+03 -0.89026481863E+02  0.10795116337E+04  0.50400001928E-02 0. -1.
       -1    1    3    3    0  502 -0.52729266410E+03  0.93775375190E+03 -0.39121996284E+03  0.11447588009E+04  0.50400001928E-02 0.  1.
</event>
<event>
 5   0  0.2467483E-04  0.2135788E+04  0.7818609E-02  0.8545640E-01
        2   -1    0    0  501    0  0.00000000000E+00  0.00000000000E+00  0.13434143501E+04  0.13434143501E+04  0.25500000920E-02 0. -1.
       -2   -1    0    0    0  501  0.00000000000E+00  0.00000000000E+00 -0.84888012571E+03  0.84888012572E+03  0.25500000920E-02 0.  1.
    10030    2    1    2    0    0  0.00000000000E+00  0.00000000000E+00  0.49453422437E+03  0.21922944758E+04  0.21357881378E+04 0.  0.
        4    1    3    3  502    0 -0.63632411954E+03 -0.47310395942E+03  0.98149625315E+03  0.12617734541E+04  0.12699999809E+01 0. -1.
       -4    1    3    3    0  502  0.63632411954E+03  0.47310395942E+03 -0.48696202878E+03  0.93052102174E+03  0.12699999809E+01 0.  1.
</event>
<event>
 5   0  0.8698750E-05  0.2114220E+04  0.7818609E-02  0.8555005E-01
       -3   -1    0    0    0  501  0.00000000000E+00  0.00000000000E+00  0.57104663256E+03  0.57104664149E+03  0.10100000352E+00 0. -1.
        3   -1    0    0  501    0  0.00000000000E+00  0.00000000000E+00 -0.19569004730E+04  0.19569004756E+04  0.10100000352E+00 0.  1.
    10030    2    1    2    0    0  0.00000000000E+00  0.00000000000E+00 -0.13858538404E+04  0.25279471171E+04  0.21142198939E+04 0.  0.
        2    1    3    3  502    0 -0.62458960106E+03  0.85280990714E+03 -0.70392025682E+03  0.12700002502E+04  0.25500000920E-02 0. -1.
       -2    1    3    3    0  502  0.62458960106E+03 -0.85280990714E+03 -0.68193358357E+03  0.12579468669E+04  0.25500000920E-02 0.  1.
</event>
<event>
 5   0  0.2512839E-04  0.2082087E+04  0.7818609E-02  0.8569176E-01
        2   -1    0    0  501    0  0.00000000000E+00  0.00000000000E+00  0.11063704592E+04  0.11063704592E+04  0.25500000920E-02 0.  1.
       -2   -1    0    0    0  501  0.00000000000E+00  0.00000000000E+00 -0.97957376060E+03  0.97957376061E+03  0.25500000920E-02 0. -1.
    10030    2    1    2    0    0  0.00000000000E+00  0.00000000000E+00  0.12679669857E+03  0.20859442198E+04  0.20820869063E+04 0.  0.
        3    1    3    3  502    0 -0.64943277613E+02  0.10339601948E+04 -0.39163898877E+02  0.10367377368E+04  0.10100000352E+00 0.  1.
       -3    1    3    3    0  502  0.64943277613E+02 -0.10339601948E+04  0.16596059744E+03  0.10492064830E+04  0.10100000352E+00 0. -1.
</event>
<event>
 5   0  0.2512839E-04  0.2110678E+04  0.7818609E-02  0.8556554E-01
        2   -1    0    0  501    0  0.00000000000E+00  0.00000000000E+00  0.97157916451E+03  0.97157916452E+03  0.25500000920E-02 0.  1.
       -2   -1    0    0    0  501  0.00000000000E+00  0.00000000000E+00 -0.11463193742E+04  0.11463193742E+04  0.25500000920E-02 0. -1.
    10030    2    1    2    0    0  0.00000000000E+00  0.00000000000E+00 -0.17474020970E+03  0.21178985387E+04  0.21106776351E+04 0.  0.
        3    1    3    3  502    0  0.75670929052E+03 -0.73534563874E+03 -0.67355666486E+02  0.10572979499E+04  0.10100000352E+00 0. -1.
       -3    1    3    3    0  502 -0.75670929052E+03  0.73534563874E+03 -0.10738454321E+03  0.10606005889E+04  0.10100000352E+00 0.  1.
</event>
<event>
 5   0  0.1042395E-04  0.2045123E+04  0.7818609E-02  0.8585810E-01
        1   -1    0    0  501    0  0.00000000000E+00  0.00000000000E+00  0.11552467854E+04  0.11552467854E+04  0.50400001928E-02 0.  1.
       -1   -1    0    0    0  501  0.00000000000E+00  0.00000000000E+00 -0.90511553178E+03  0.90511553179E+03  0.50400001928E-02 0. -1.
    10030    2    1    2    0    0  0.00000000000E+00  0.00000000000E+00  0.25013125364E+03  0.20603623172E+04  0.20451227920E+04 0.  0.
        3    1    3    3  502    0  0.34239783563E+03  0.11174419147E+03  0.10892283020E+04  0.11472320368E+04  0.10100000352E+00 0.  1.
       -3    1    3    3    0  502 -0.34239783563E+03 -0.11174419147E+03 -0.83909704839E+03  0.91313028040E+03  0.10100000352E+00 0. -1.
</event>
<event>
 5   0  0.2448804E-04  0.2117244E+04  0.7818609E-02  0.8553685E-01
       -2   -1    0    0    0  501  0.00000000000E+00  0.00000000000E+00  0.65591744011E+03  0.65591744012E+03  0.25500000920E-02 0.  1.
        2   -1    0    0  501    0  0.00000000000E+00  0.00000000000E+00 -0.17085688677E+04  0.17085688677E+04  0.25500000920E-02 0. -1.
    10030    2    1    2    0    0  0.00000000000E+00  0.00000000000E+00 -0.10526514276E+04  0.23644863078E+04  0.21172436024E+04 0.  0.
        2    1    3    3  502    0 -0.93322699258E+03 -0.42289495804E+03 -0.22890387822E+03  0.10498332014E+04  0.25500000920E-02 0.  1.
       -2    1    3    3    0  502  0.93322699258E+03  0.42289495804E+03 -0.82374754936E+03  0.13146531065E+04  0.25500000920E-02 0. -1.
</event>
<event>
 5   0  0.2467483E-04  0.2088531E+04  0.7818609E-02  0.8566313E-01
        2   -1    0    0  501    0  0.00000000000E+00  0.00000000000E+00  0.71753320485E+03  0.71753320486E+03  0.25500000920E-02 0.  1.
       -2   -1    0    0    0  501  0.00000000000E+00  0.00000000000E+00 -0.15197765109E+04  0.15197765109E+04  0.25500000920E-02 0. -1.
    10030    2    1    2    0    0  0.00000000000E+00  0.00000000000E+00 -0.80224330605E+03  0.22373097158E+04  0.20885306898E+04 0.  0.
        4    1    3    3  502    0 -0.60595688825E+01  0.22550416455E+03 -0.14933622379E+04  0.15103050133E+04  0.12699999809E+01 0. -1.
       -4    1    3    3    0  502  0.60595688825E+01 -0.22550416455E+03  0.69111893185E+03  0.72700470250E+03  0.12699999809E+01 0.  1.
</event>
<event>
 5   0  0.2467483E-04  0.2148489E+04  0.7818609E-02  0.8540179E-01
       -2   -1    0    0    0  501  0.00000000000E+00  0.00000000000E+00  0.11005403725E+04  0.11005403725E+04  0.25500000920E-02 0. -1.
        2   -1    0    0  501    0  0.00000000000E+00  0.00000000000E+00 -0.10485765895E+04  0.10485765895E+04  0.25500000920E-02 0.  1.
    10030    2    1    2    0    0  0.00000000000E+00  0.00000000000E+00  0.51963782983E+02  0.21491169620E+04  0.21484886506E+04 0.  0.
        4    1    3    3  502    0  0.30629599222E+03  0.10379239254E+03 -0.99872442613E+03  0.10497819716E+04  0.12699999809E+01 0.  1.
       -4    1    3    3    0  502 -0.30629599222E+03 -0.10379239254E+03  0.10506882091E+04  0.10993349905E+04  0.12699999809E+01 0. -1.
</event>
<event>
 5   0  0.1186038E-04  0.2215167E+04  0.7818609E-02  0.8512142E-01
       -1   -1    0    0    0  501  0.00000000000E+00  0.00000000000E+00  0.14123748445E+04  0.14123748445E+04  0.50400001928E-02 0. -1.
        1   -1    0    0  501    0  0.00000000000E+00  0.00000000000E+00 -0.86856596850E+03  0.86856596852E+03  0.50400001928E-02 0.  1.
    10030    2    1    2    0    0  0.00000000000E+00  0.00000000000E+00  0.54380887604E+03  0.22809408131E+04  0.22151665624E+04 0.  0.
        4    1    3    3  502    0 -0.28903782962E+03 -0.10258569478E+04 -0.38396776869E+02  0.10664901638E+04  0.12699999809E+01 0. -1.
       -4    1    3    3    0  502  0.28903782962E+03  0.10258569478E+04  0.58220565291E+03  0.12144506492E+04  0.12699999809E+01 0.  1.
</event>
<event>
 5   0  0.1042395E-04  0.2098684E+04  0.7818609E-02  0.8561823E-01
       -1   -1    0    0    0  501  0.00000000000E+00  0.00000000000E+00  0.96637851310E+03  0.96637851312E+03  0.50400001928E-02 0.  1.
        1   -1    0    0  501    0  0.00000000000E+00  0.00000000000E+00 -0.11394283277E+04  0.11394283277E+04  0.50400001928E-02 0. -1.
    10030    2    1    2    0    0  0.00000000000E+00  0.00000000000E+00 -0.17304981460E+03  0.21058068408E+04  0.20986844004E+04 0.  0.
        3    1    3    3  502    0 -0.91654753742E+03  0.29505197762E+03  0.33202860932E+03  0.10185077641E+04  0.10100000352E+00 0. -1.
       -3    1    3    3    0  502  0.91654753742E+03 -0.29505197762E+03 -0.50507842392E+03  0.10872990768E+04  0.10100000352E+00 0.  1.
</event>
<event>
 5   0  0.1122711E-04  0.2043550E+04  0.7818609E-02  0.8586526E-01
        1   -1    0    0  501    0  0.00000000000E+00  0.00000000000E+00  0.74902882962E+03  0.74902882964E+03  0.50400001928E-02 0. -1.
       -1   -1    0    0    0  501  0.00000000000E+00  0.00000000000E+00 -0.13938376885E+04  0.13938376885E+04  0.50400001928E-02 0.  1.
    10030    2    1    2    0    0  0.00000000000E+00  0.00000000000E+00 -0.64480885887E+03  0.21428665181E+04  0.20435504520E+04 0.  0.
        1    1    3    3  502    0 -0.43117349801E+03 -0.37754474018E+03  0.56462295968E+03  0.80451830486E+03  0.50400001928E-02 0. -1.
       -1    1    3    3    0  502  0.43117349801E+03  0.37754474018E+03 -0.12094318186E+04  0.13383482133E+04  0.50400001928E-02 0.  1.
</event>
<event>
 5   0  0.1186038E-04  0.1788360E+04  0.7818609E-02  0.8712514E-01
        1   -1    0    0  501    0  0.00000000000E+00  0.00000000000E+00  0.11828441993E+04  0.11828441993E+04  0.50400001928E-02 0.  1.
       -1   -1    0    0    0  501  0.00000000000E+00  0.00000000000E+00 -0.67596185436E+03  0.67596185438E+03  0.50400001928E-02 0. -1.
    10030    2    1    2    0    0  0.00000000000E+00  0.00000000000E+00  0.50688234493E+03  0.18588060537E+04  0.17883596488E+04 0.  0.
        4    1    3    3  502    0 -0.31544842181E+03 -0.17036636709E+03  0.11048694970E+04  0.11615810880E+04  0.12699999809E+01 0.  1.
       -4    1    3    3    0  502  0.31544842181E+03  0.17036636709E+03 -0.59798715202E+03  0.69722496566E+03  0.12699999809E+01 0. -1.
</event>
<event>
 5   0  0.1122711E-04  0.1746956E+04  0.7818609E-02  0.8735028E-01
        1   -1    0    0  501    0  0.00000000000E+00  0.00000000000E+00  0.64691564581E+03  0.64691564583E+03  0.50400001928E-02 0.  1.
       -1   -1    0    0    0  501  0.00000000000E+00  0.00000000000E+00 -0.11793866961E+04  0.11793866961E+04  0.50400001928E-02 0. -1.
    10030    2    1    2    0    0  0.00000000000E+00  0.00000000000E+00 -0.53247105026E+03  0.18263023419E+04  0.17469558737E+04 0.  0.
        1    1    3    3  502    0  0.30583864274E+03  0.71714425729E+03 -0.67799101649E+03  0.10332013258E+04  0.50400001928E-02 0.  1.
       -1    1    3    3    0  502 -0.30583864274E+03 -0.71714425729E+03  0.14551996623E+03  0.79310101611E+03  0.50400001928E-02 0. -1.
</event>
<event>
 5   0  0.2448804E-04  0.2091129E+04  0.7818609E-02  0.8565161E-01
       -2   -1    0    0    0  501  0.00000000000E+00  0.00000000000E+00  0.76826309775E+03  0.76826309775E+03  0.25500000920E-02 0. -1.
        2   -1    0    0  501    0  0.00000000000E+00  0.00000000000E+00 -0.14229561733E+04  0.14229561733E+04  0.25500000920E-02 0.  1.
    10030    2    1    2    0    0  0.00000000000E+00  0.00000000000E+00 -0.65469307560E+03  0.21912192711E+04  0.20911286117E+04 0.  0.
        2    1    3    3  502    0  0.58212714830E+03 -0.86016084203E+03 -0.20135842636E+03  0.10579668742E+04  0.25500000920E-02 0. -1.
       -2    1    3    3    0  502 -0.58212714830E+03  0.86016084203E+03 -0.45333464924E+03  0.11332523969E+04  0.25500000920E-02 0.  1.
</event>
<event>
 5   0  0.1186038E-04  0.1763750E+04  0.7818609E-02  0.8725818E-01
       -1   -1    0    0    0  501  0.00000000000E+00  0.00000000000E+00  0.92912332682E+03  0.92912332683E+03  0.50400001928E-02 0.  1.
        1   -1    0    0  501    0  0.00000000000E+00  0.00000000000E+00 -0.83702934977E+03  0.83702934978E+03  0.50400001928E-02 0. -1.
    10030    2    1    2    0    0  0.00000000000E+00  0.00000000000E+00  0.92093977051E+02  0.17661526766E+04  0.17637499756E+04 0.  0.
        4    1    3    3  502    0 -0.77217621430E+03  0.12021983064E+02 -0.38032790007E+03  0.86084351567E+03  0.12699999809E+01 0.  1.
       -4    1    3    3    0  502  0.77217621430E+03 -0.12021983064E+02  0.47242187712E+03  0.90530916094E+03  0.12699999809E+01 0. -1.
</event>
<event>
 5   0  0.2448804E-04  0.2127142E+04  0.7818609E-02  0.8549380E-01
       -2   -1    0    0    0  501  0.00000000000E+00  0.00000000000E+00  0.75143161786E+03  0.75143161786E+03  0.25500000920E-02 0.  1.
        2   -1    0    0  501    0  0.00000000000E+00  0.00000000000E+00 -0.15053715514E+04  0.15053715514E+04  0.25500000920E-02 0. -1.
    10030    2    1    2    0    0  0.00000000000E+00  0.00000000000E+00 -0.75393993350E+03  0.22568031692E+04  0.21271424779E+04 0.  0.
        2    1    3    3  502    0  0.84543662070E+03 -0.62058817543E+03 -0.18929474252E+03  0.10657041159E+04  0.25500000920E-02 0.  1.
       -2    1    3    3    0  502 -0.84543662070E+03  0.62058817543E+03 -0.56464519098E+03  0.11910990533E+04  0.25500000920E-02 0. -1.
</event>
<event>
 5   0  0.1122711E-04  0.2074473E+04  0.7818609E-02  0.8572572E-01
       -1   -1    0    0    0  501  0.00000000000E+00  0.00000000000E+00  0.14761534772E+04  0.14761534772E+04  0.50400001928E-02 0. -1.
        1   -1    0    0  501    0  0.00000000000E+00  0.00000000000E+00 -0.72882623109E+03  0.72882623110E+03  0.50400001928E-02 0.  1.
    10030    2    1    2    0    0  0.00000000000E+00  0.00000000000E+00  0.74732724607E+03  0.22049797083E+04  0.20744728249E+04 0.  0.
        1    1    3    3  502    0  0.70760521628E+03  0.73414290508E+03  0.17146336447E+03  0.10339587190E+04  0.50400001928E-02 0.  1.
       -1    1    3    3    0  502 -0.70760521628E+03 -0.73414290508E+03  0.57586388161E+03  0.11710209893E+04  0.50400001928E-02 0. -1.
</event>
<event>
 5   0  0.1042395E-04  0.1933418E+04  0.7818609E-02  0.8638399E-01
       -1   -1    0    0    0  501  0.00000000000E+00  0.00000000000E+00  0.78605457122E+03  0.78605457124E+03  0.50400001928E-02 0.  1.
        1   -1    0    0  501    0  0.00000000000E+00  0.00000000000E+00 -0.11888819043E+04  0.11888819043E+04  0.50400001928E-02 0. -1.
    10030    2    1    2    0    0  0.00000000000E+00  0.00000000000E+00 -0.40282733309E+03  0.19749364756E+04  0.19334177568E+04 0.  0.
        3    1    3    3  502    0 -0.65332632414E+03 -0.57448594379E+03 -0.63195829422E+03  0.10752863252E+04  0.10100000352E+00 0.  1.
       -3    1    3    3    0  502  0.65332632414E+03  0.57448594379E+03  0.22913096113E+03  0.89965015032E+03  0.10100000352E+00 0. -1.
</event>
<event>
 5   0  0.2448804E-04  0.2123288E+04  0.7818609E-02  0.8551054E-01
       -2   -1    0    0    0  501  0.00000000000E+00  0.00000000000E+00  0.84599682063E+03  0.84599682064E+03  0.25500000920E-02 0. -1.
        2   -1    0    0  501    0  0.00000000000E+00  0.00000000000E+00 -0.13322602051E+04  0.13322602052E+04  0.25500000920E-02 0.  1.
    10030    2    1    2    0    0  0.00000000000E+00  0.00000000000E+00 -0.48626338451E+03  0.21782570258E+04  0.21232879200E+04 0.  0.
        2    1    3    3  502    0  0.59878003956E+03  0.12633376440E+03 -0.11331101555E+04  0.12878029276E+04  0.25500000920E-02 0.  1.
       -2    1    3    3    0  502 -0.59878003956E+03 -0.12633376440E+03  0.64684677100E+03  0.89045409818E+03  0.25500000920E-02 0. -1.
</event>
<event>
 5   0  0.2512839E-04  0.2114825E+04  0.7818609E-02  0.8554741E-01
       -2   -1    0    0    0  501  0.00000000000E+00  0.00000000000E+00  0.81786047491E+03  0.81786047492E+03  0.25500000920E-02 0.  1.
        2   -1    0    0  501    0  0.00000000000E+00  0.00000000000E+00 -0.13671293294E+04  0.13671293294E+04  0.25500000920E-02 0. -1.
    10030    2    1    2    0    0  0.00000000000E+00  0.00000000000E+00 -0.54926885452E+03  0.21849898043E+04  0.21148248558E+04 0.  0.
        3    1    3    3  502    0  0.46410280002E+03 -0.77004826157E+03  0.30038746640E+03  0.94794428861E+03  0.10100000352E+00 0.  1.
       -3    1    3    3    0  502 -0.46410280002E+03  0.77004826157E+03 -0.84965632092E+03  0.12370455157E+04  0.10100000352E+00 0. -1.
</event>
<event>
 5   0  0.2579241E-04  0.2099590E+04  0.7818609E-02  0.8561424E-01
       -2   -1    0    0    0  501  0.00000000000E+00  0.00000000000E+00  0.88366237585E+03  0.88366237585E+03  0.25500000920E-02 0.  1.
        2   -1    0    0  501    0  0.00000000000E+00  0.00000000000E+00 -0.12471618143E+04  0.12471618143E+04  0.25500000920E-02 0. -1.
    10030    2    1    2    0    0  0.00000000000E+00  0.00000000000E+00 -0.36349943845E+03  0.21308241901E+04  0.20995904095E+04 0.  0.
        5    1    3    3  502    0  0.17172794921E+03 -0.69580545598E+03  0.59674175022E+03  0.93260845351E+03  0.46999998093E+01 0.  1.
       -5    1    3    3    0  502 -0.17172794921E+03  0.69580545598E+03 -0.96024118867E+03  0.11982157366E+04  0.46999998093E+01 0. -1.
</event>
<event>
 5   0  0.1186038E-04  0.1990342E+04  0.7818609E-02  0.8611149E-01
       -1   -1    0    0    0  501  0.00000000000E+00  0.00000000000E+00  0.96480297929E+03  0.96480297930E+03  0.50400001928E-02 0.  1.
        1   -1    0    0  501    0  0.00000000000E+00  0.00000000000E+00 -0.10264949387E+04  0.10264949387E+04  0.50400001928E-02 0. -1.
    10030    2    1    2    0    0  0.00000000000E+00  0.00000000000E+00 -0.61691959401E+02  0.19912979180E+04  0.19903420561E+04 0.  0.
        4    1    3    3  502    0  0.18702899619E+03 -0.23619994503E+03  0.91807855359E+03  0.96625053838E+03  0.12699999809E+01 0.  1.
       -4    1    3    3    0  502 -0.18702899619E+03  0.23619994503E+03 -0.97977051299E+03  0.10250473796E+04  0.12699999809E+01 0. -1.
</event>
<event>
 5   0  0.1122711E-04  0.2102911E+04  0.7818609E-02  0.8559962E-01
        1   -1    0    0  501    0  0.00000000000E+00  0.00000000000E+00  0.10452468976E+04  0.10452468976E+04  0.50400001928E-02 0. -1.
       -1   -1    0    0    0  501  0.00000000000E+00  0.00000000000E+00 -0.10577011335E+04  0.10577011335E+04  0.50400001928E-02 0.  1.
    10030    2    1    2    0    0  0.00000000000E+00  0.00000000000E+00 -0.12454235885E+02  0.21029480311E+04  0.21029111521E+04 0.  0.
        1    1    3    3  502    0 -0.88481053031E+03  0.56665922896E+03  0.33352257668E+02  0.10512396156E+04  0.50400001928E-02 0.  1.
       -1    1    3    3    0  502  0.88481053031E+03 -0.56665922896E+03 -0.45806493553E+02  0.10517084155E+04  0.50400001928E-02 0. -1.
</event>
<event>
 5   0  0.1042395E-04  0.1275142E+04  0.7818609E-02  0.9049514E-01
        1   -1    0    0  501    0  0.00000000000E+00  0.00000000000E+00  0.58079705721E+03  0.58079705723E+03  0.50400001928E-02 0.  1.
       -1   -1    0    0    0  501  0.00000000000E+00  0.00000000000E+00 -0.69989436719E+03  0.69989436720E+03  0.50400001928E-02 0. -1.
    10030    2    1    2    0    0  0.00000000000E+00  0.00000000000E+00 -0.11909730997E+03  0.12806914244E+04  0.12751417001E+04 0.  0.
        3    1    3    3  502    0  0.18831951716E+03  0.59898397751E+03  0.51615185289E+02  0.63000808202E+03  0.10100000352E+00 0. -1.
       -3    1    3    3    0  502 -0.18831951716E+03 -0.59898397751E+03 -0.17071249526E+03  0.65068334242E+03  0.10100000352E+00 0.  1.
</event>
<event>
 5   0  0.2512839E-04  0.1523454E+04  0.7818609E-02  0.8869004E-01
       -2   -1    0    0    0  501  0.00000000000E+00  0.00000000000E+00  0.36627346618E+03  0.36627346618E+03  0.25500000920E-02 0. -1.
        2   -1    0    0  501    0  0.00000000000E+00  0.00000000000E+00 -0.15841397736E+04  0.15841397736E+04  0.25500000920E-02 0.  1.
    10030    2    1    2    0    0  0.00000000000E+00  0.00000000000E+00 -0.12178663074E+04  0.19504132397E+04  0.15234544506E+04 0.  0.
        3    1    3    3  502    0 -0.32267387565E+03 -0.24071252560E+03 -0.14368224194E+04  0.14921526816E+04  0.10100000352E+00 0.  1.
       -3    1    3    3    0  502  0.32267387565E+03  0.24071252560E+03  0.21895611201E+03  0.45826055819E+03  0.10100000352E+00 0. -1.
</event>
<event>
 5   0  0.2448804E-04  0.1206874E+04  0.7818609E-02  0.9106861E-01
       -2   -1    0    0    0  501  0.00000000000E+00  0.00000000000E+00  0.23915316597E+03  0.23915316598E+03  0.25500000920E-02 0.  1.
        2   -1    0    0  501    0  0.00000000000E+00  0.00000000000E+00 -0.15226065285E+04  0.15226065285E+04  0.25500000920E-02 0. -1.
    10030    2    1    2    0    0  0.00000000000E+00  0.00000000000E+00 -0.12834533625E+04  0.17617596945E+04  0.12068739318E+04 0.  0.
        2    1    3    3  502    0 -0.32620289281E+03  0.49101569637E+03 -0.45347036104E+03  0.74373389710E+03  0.25500000920E-02 0.  1.
       -2    1    3    3    0  502  0.32620289281E+03 -0.49101569637E+03 -0.82998300151E+03  0.10180257974E+04  0.25500000920E-02 0. -1.
</event>
<event>
 5   0  0.1156733E-04  0.1422831E+04  0.7818609E-02  0.8937456E-01
       -1   -1    0    0    0  501  0.00000000000E+00  0.00000000000E+00  0.39650559352E+03  0.39650559355E+03  0.50400001928E-02 0. -1.
        1   -1    0    0  501    0  0.00000000000E+00  0.00000000000E+00 -0.12764316831E+04  0.12764316831E+04  0.50400001928E-02 0.  1.
    10030    2    1    2    0    0  0.00000000000E+00  0.00000000000E+00 -0.87992608954E+03  0.16729372766E+04  0.14228314055E+04 0.  0.
        2    1    3    3  502    0  0.56387029446E+03  0.29475150175E+03 -0.65768932742E+02  0.63965124035E+03  0.25500000920E-02 0. -1.
       -2    1    3    3    0  502 -0.56387029446E+03 -0.29475150175E+03 -0.81415715680E+03  0.10332860363E+04  0.25500000920E-02 0.  1.
</event>
<event>
 5   0  0.1156733E-04  0.2060026E+04  0.7818609E-02  0.8579060E-01
       -1   -1    0    0    0  501  0.00000000000E+00  0.00000000000E+00  0.11239095755E+04  0.11239095755E+04  0.50400001928E-02 0. -1.
        1   -1    0    0  501    0  0.00000000000E+00  0.00000000000E+00 -0.94396054528E+03  0.94396054529E+03  0.50400001928E-02 0.  1.
    10030    2    1    2    0    0  0.00000000000E+00  0.00000000000E+00  0.17994903019E+03  0.20678701208E+04  0.20600255297E+04 0.  0.
        2    1    3    3  502    0 -0.51845096361E+03  0.87724473457E+03 -0.60852672675E+02  0.10208098617E+04  0.25500000920E-02 0.  1.
       -2    1    3    3    0  502  0.51845096361E+03 -0.87724473457E+03  0.24080170286E+03  0.10470602591E+04  0.25500000920E-02 0. -1.
</event>
<event>
 5   0  0.2430898E-04  0.2151858E+04  0.7818609E-02  0.8538737E-01
       -2   -1    0    0    0  501  0.00000000000E+00  0.00000000000E+00  0.11636962766E+04  0.11636962766E+04  0.25500000920E-02 0. -1.
        2   -1    0    0  501    0  0.00000000000E+00  0.00000000000E+00 -0.99478159671E+03  0.99478159671E+03  0.25500000920E-02 0.  1.
    10030    2    1    2    0    0  0.00000000000E+00  0.00000000000E+00  0.16891467984E+03  0.21584778733E+04  0.21518583969E+04 0.  0.
        1    1    3    3  502    0  0.42349367534E+03  0.77477529282E+03  0.70116565995E+03  0.11275003016E+04  0.50400001928E-02 0. -1.
       -1    1    3    3    0  502 -0.42349367534E+03 -0.77477529282E+03 -0.53225098011E+03  0.10309775717E+04  0.50400001928E-02 0.  1.
</event>
<event>
 5   0  0.1042395E-04  0.2133691E+04  0.7818609E-02  0.8546546E-01
        1   -1    0    0  501    0  0.00000000000E+00  0.00000000000E+00  0.78695956975E+03  0.78695956977E+03  0.50400001928E-02 0. -1.
       -1   -1    0    0    0  501  0.00000000000E+00  0.00000000000E+00 -0.14462744871E+04  0.14462744871E+04  0.50400001928E-02 0.  1.
    10030    2    1    2    0    0  0.00000000000E+00  0.00000000000E+00 -0.65931491736E+03  0.22332340569E+04  0.21336912130E+04 0.  0.
        3    1    3    3  502    0  0.47866413674E+03  0.64585520529E+03 -0.10637419429E+04  0.13333398791E+04  0.10100000352E+00 0.  1.
       -3    1    3    3    0  502 -0.47866413674E+03 -0.64585520529E+03  0.40442702553E+03  0.89989417776E+03  0.10100000352E+00 0. -1.
</event>
<event>
 5   0  0.2430898E-04  0.1762086E+04  0.7818609E-02  0.8726726E-01
       -2   -1    0    0    0  501  0.00000000000E+00  0.00000000000E+00  0.52878230913E+03  0.52878230913E+03  0.25500000920E-02 0. -1.
        2   -1    0    0  501    0  0.00000000000E+00  0.00000000000E+00 -0.14679705074E+04  0.14679705074E+04  0.25500000920E-02 0.  1.
    10030    2    1    2    0    0  0.00000000000E+00  0.00000000000E+00 -0.93918819827E+03  0.19967528165E+04  0.17620860758E+04 0.  0.
        1    1    3    3  502    0  0.24892225395E+03  0.83443290138E+02 -0.14226154422E+04  0.14466374001E+04  0.50400001928E-02 0.  1.
       -1    1    3    3    0  502 -0.24892225395E+03 -0.83443290138E+02  0.48342724390E+03  0.55011541639E+03  0.50400001928E-02 0. -1.
</event>
<event>
 5   0  0.1156733E-04  0.1907844E+04  0.7818609E-02  0.8650962E-01
        1   -1    0    0  501    0  0.00000000000E+00  0.00000000000E+00  0.69128068994E+03  0.69128068995E+03  0.50400001928E-02 0. -1.
       -1   -1    0    0    0  501  0.00000000000E+00  0.00000000000E+00 -0.13163494648E+04  0.13163494649E+04  0.50400001928E-02 0.  1.
    10030    2    1    2    0    0  0.00000000000E+00  0.00000000000E+00 -0.62506877491E+03  0.20076301548E+04  0.19078437738E+04 0.  0.
        2    1    3    3  502    0 -0.27969924931E+03 -0.99194332318E+02  0.64146759372E+03  0.70678982691E+03  0.25500000920E-02 0. -1.
       -2    1    3    3    0  502  0.27969924931E+03  0.99194332318E+02 -0.12665363686E+04  0.13008403279E+04  0.25500000920E-02 0.  1.
</event>
<event>
 5   0  0.1186038E-04  0.1401058E+04  0.7818609E-02  0.8953053E-01
        1   -1    0    0  501    0  0.00000000000E+00  0.00000000000E+00  0.94295066468E+03  0.94295066469E+03  0.50400001928E-02 0. -1.
       -1   -1    0    0    0  501  0.00000000000E+00  0.00000000000E+00 -0.52043135248E+03  0.52043135250E+03  0.50400001928E-02 0.  1.
    10030    2    1    2    0    0  0.00000000000E+00  0.00000000000E+00  0.42251931220E+03  0.14633820172E+04  0.14010582997E+04 0.  0.
        4    1    3    3  502    0 -0.35217429154E+03 -0.35994869978E+03 -0.29738299843E+03  0.58483164992E+03  0.12699999809E+01 0.  1.
       -4    1    3    3    0  502  0.35217429154E+03  0.35994869978E+03  0.71990231063E+03  0.87855036728E+03  0.12699999809E+01 0. -1.
</event>
<event>
 5   0  0.2467483E-04  0.1982705E+04  0.7818609E-02  0.8614750E-01
       -2   -1    0    0    0  501  0.00000000000E+00  0.00000000000E+00  0.46468070061E+03  0.46468070062E+03  0.25500000920E-02 0.  1.
        2   -1    0    0  501    0  0.00000000000E+00  0.00000000000E+00 -0.21149563199E+04  0.21149563199E+04  0.25500000920E-02 0. -1.
    10030    2    1    2    0    0  0.00000000000E+00  0.00000000000E+00 -0.16502756193E+04  0.25796370205E+04  0.19827046018E+04 0.  0.
        4    1    3    3  502    0 -0.35795363280E+03  0.72245791176E+03 -0.74677051032E+02  0.80972496092E+03  0.12699999809E+01 0.  1.
       -4    1    3    3    0  502  0.35795363280E+03 -0.72245791176E+03 -0.15755985682E+04  0.17699120596E+04  0.12699999809E+01 0. -1.
</event>
<event>
 5   0  0.2448804E-04  0.2130230E+04  0.7818609E-02  0.8548043E-01
        2   -1    0    0  501    0  0.00000000000E+00  0.00000000000E+00  0.17895713824E+04  0.17895713824E+04  0.25500000920E-02 0.  1.
       -2   -1    0    0    0  501  0.00000000000E+00  0.00000000000E+00 -0.63393367191E+03  0.63393367192E+03  0.25500000920E-02 0. -1.
    10030    2    1    2    0    0  0.00000000000E+00  0.00000000000E+00  0.11556377105E+04  0.24235050543E+04  0.21302296192E+04 0.  0.
        2    1    3    3  502    0 -0.22618798581E+03  0.24069306062E+03  0.17298360426E+04  0.17610868487E+04  0.25500000920E-02 0.  1.
       -2    1    3    3    0  502  0.22618798581E+03 -0.24069306062E+03 -0.57419833219E+03  0.66241820555E+03  0.25500000920E-02 0. -1.
</event>
<event>
 5   0  0.1130848E-04  0.1798806E+04  0.7818609E-02  0.8706934E-01
       -1   -1    0    0    0  501  0.00000000000E+00  0.00000000000E+00  0.48832903987E+03  0.48832903990E+03  0.50400001928E-02 0.  1.
        1   -1    0    0  501    0  0.00000000000E+00  0.00000000000E+00 -0.16565186058E+04  0.16565186058E+04  0.50400001928E-02 0. -1.
    10030    2    1    2    0    0  0.00000000000E+00  0.00000000000E+00 -0.11681895659E+04  0.21448476457E+04  0.17988064268E+04 0.  0.
        5    1    3    3  502    0  0.59374618822E+03 -0.65520488196E+03 -0.78029744147E+03  0.11792854449E+04  0.46999998093E+01 0.  1.
       -5    1    3    3    0  502 -0.59374618822E+03  0.65520488196E+03 -0.38789212440E+03  0.96556220076E+03  0.46999998093E+01 0. -1.
</event>
<event>
 5   0  0.2579241E-04  0.2099754E+04  0.7818609E-02  0.8561352E-01
       -2   -1    0    0    0  501  0.00000000000E+00  0.00000000000E+00  0.12616221559E+04  0.12616221559E+04  0.25500000920E-02 0.  1.
        2   -1    0    0  501    0  0.00000000000E+00  0.00000000000E+00 -0.87366982102E+03  0.87366982102E+03  0.25500000920E-02 0. -1.
    10030    2    1    2    0    0  0.00000000000E+00  0.00000000000E+00  0.38795233488E+03  0.21352919769E+04  0.20997535123E+04 0.  0.
        5    1    3    3  502    0 -0.86952103442E+02 -0.86203382418E+03 -0.40898076097E+03  0.95809724724E+03  0.46999998093E+01 0. -1.
       -5    1    3    3    0  502  0.86952103442E+02  0.86203382418E+03  0.79693309585E+03  0.11771947297E+04  0.46999998093E+01 0.  1.
</event>
<event>
 5   0  0.2448804E-04  0.2109919E+04  0.7818609E-02  0.8556886E-01
        2   -1    0    0  501    0  0.00000000000E+00  0.00000000000E+00  0.12234168183E+04  0.12234168183E+04  0.25500000920E-02 0. -1.
       -2   -1    0    0    0  501  0.00000000000E+00  0.00000000000E+00 -0.90969810538E+03  0.90969810538E+03  0.25500000920E-02 0.  1.
    10030    2    1    2    0    0  0.00000000000E+00  0.00000000000E+00  0.31371871292E+03  0.21331149237E+04  0.21099193934E+04 0.  0.
        2    1    3    3  502    0  0.62825131991E+02  0.81794859119E+03  0.82744085156E+03  0.11651803542E+04  0.25500000920E-02 0. -1.
       -2    1    3    3    0  502 -0.62825131991E+02 -0.81794859119E+03 -0.51372213864E+03  0.96793456946E+03  0.25500000920E-02 0.  1.
</event>
<event>
 5   0  0.8698750E-05  0.1238233E+04  0.7818609E-02  0.9080034E-01
        4   -1    0    0  501    0  0.00000000000E+00  0.00000000000E+00  0.17201542729E+04  0.17201547417E+04  0.12699999809E+01 0. -1.
       -4   -1    0    0    0  501  0.00000000000E+00  0.00000000000E+00 -0.22282969371E+03  0.22283331281E+03  0.12699999809E+01 0.  1.
    10030    2    1    2    0    0  0.00000000000E+00  0.00000000000E+00  0.14973245792E+04  0.19429880545E+04  0.12382332917E+04 0.  0.
        5    1    3    3  502    0 -0.10195402659E+03 -0.45111506188E+03  0.13944707484E+04  0.14691732984E+04  0.46999998093E+01 0. -1.
       -5    1    3    3    0  502  0.10195402659E+03  0.45111506188E+03  0.10285383074E+03  0.47381475609E+03  0.46999998093E+01 0.  1.
</event>
<event>
 5   0  0.1042395E-04  0.2005397E+04  0.7818609E-02  0.8604101E-01
        1   -1    0    0  501    0  0.00000000000E+00  0.00000000000E+00  0.84898740753E+03  0.84898740754E+03  0.50400001928E-02 0.  1.
       -1   -1    0    0    0  501  0.00000000000E+00  0.00000000000E+00 -0.11842398185E+04  0.11842398185E+04  0.50400001928E-02 0. -1.
    10030    2    1    2    0    0  0.00000000000E+00  0.00000000000E+00 -0.33525241101E+03  0.20332272261E+04  0.20053974104E+04 0.  0.
        3    1    3    3  502    0 -0.28317061371E+03  0.49898545510E+03  0.66611932587E+03  0.87913994755E+03  0.10100000352E+00 0.  1.
       -3    1    3    3    0  502  0.28317061371E+03 -0.49898545510E+03 -0.10013717369E+04  0.11540872785E+04  0.10100000352E+00 0. -1.
</event>
<event>
 5   0  0.2430898E-04  0.2122639E+04  0.7818609E-02  0.8551336E-01
        2   -1    0    0  501    0  0.00000000000E+00  0.00000000000E+00  0.28539859564E+04  0.28539859564E+04  0.25500000920E-02 0. -1.
       -2   -1    0    0    0  501  0.00000000000E+00  0.00000000000E+00 -0.39467585063E+03  0.39467585064E+03  0.25500000920E-02 0.  1.
    10030    2    1    2    0    0  0.00000000000E+00  0.00000000000E+00  0.24593101058E+04  0.32486618070E+04  0.21226392393E+04 0.  0.
        1    1    3    3  502    0  0.71218965945E+03 -0.36137969966E+03  0.22994500760E+04  0.24341898140E+04  0.50400001928E-02 0. -1.
       -1    1    3    3    0  502 -0.71218965945E+03  0.36137969966E+03  0.15986002977E+03  0.81447199308E+03  0.50400001928E-02 0.  1.
</event>
<event>
 5   0  0.1042395E-04  0.2055405E+04  0.7818609E-02  0.8581146E-01
        1   -1    0    0  501    0  0.00000000000E+00  0.00000000000E+00  0.88204231490E+03  0.88204231491E+03  0.50400001928E-02 0. -1.
       -1   -1    0    0    0  501  0.00000000000E+00  0.00000000000E+00 -0.11974165398E+04  0.11974165398E+04  0.50400001928E-02 0.  1.
    10030    2    1    2    0    0  0.00000000000E+00  0.00000000000E+00 -0.31537422486E+03  0.20794588547E+04  0.20554046382E+04 0.  0.
        3    1    3    3  502    0 -0.71446714458E+03  0.23664078654E+03 -0.86566946782E+03  0.11471032213E+04  0.10100000352E+00 0.  1.
       -3    1    3    3    0  502  0.71446714458E+03 -0.23664078654E+03  0.55029524296E+03  0.93235563341E+03  0.10100000352E+00 0. -1.
</event>
<event>
 5   0  0.2448804E-04  0.2068461E+04  0.7818609E-02  0.8575265E-01
       -2   -1    0    0    0  501  0.00000000000E+00  0.00000000000E+00  0.99503307966E+03  0.99503307967E+03  0.25500000920E-02 0.  1.
        2   -1    0    0  501    0  0.00000000000E+00  0.00000000000E+00 -0.10749719773E+04  0.10749719773E+04  0.25500000920E-02 0. -1.
    10030    2    1    2    0    0  0.00000000000E+00  0.00000000000E+00 -0.79938897597E+02  0.20700050569E+04  0.20684609516E+04 0.  0.
        2    1    3    3  502    0 -0.60693585097E+03 -0.82220832009E+03  0.11900450571E+03  0.10288633151E+04  0.25500000920E-02 0. -1.
       -2    1    3    3    0  502  0.60693585097E+03  0.82220832009E+03 -0.19894340330E+03  0.10411417418E+04  0.25500000920E-02 0.  1.
</event>
<event>
 5   0  0.2512839E-04  0.2086914E+04  0.7818609E-02  0.8567030E-01
       -2   -1    0    0    0  501  0.00000000000E+00  0.00000000000E+00  0.52869118742E+03  0.52869118742E+03  0.25500000920E-02 0.  1.
        2   -1    0    0  501    0  0.00000000000E+00  0.00000000000E+00 -0.20594293876E+04  0.20594293876E+04  0.25500000920E-02 0. -1.
    10030    2    1    2    0    0  0.00000000000E+00  0.00000000000E+00 -0.15307382002E+04  0.25881205750E+04  0.20869136718E+04 0.  0.
        3    1    3    3  502    0 -0.28769612252E+02  0.17538402659E+03  0.50978203249E+03  0.53987496536E+03  0.10100000352E+00 0.  1.
       -3    1    3    3    0  502  0.28769612252E+02 -0.17538402659E+03 -0.20405202327E+04  0.20482456097E+04  0.10100000352E+00 0. -1.
</event>
<event>
 5   0  0.2430898E-04  0.1886071E+04  0.7818609E-02  0.8661821E-01
       -2   -1    0    0    0  501  0.00000000000E+00  0.00000000000E+00  0.94408215514E+03  0.94408215515E+03  0.25500000920E-02 0.  1.
        2   -1    0    0  501    0  0.00000000000E+00  0.00000000000E+00 -0.94198995553E+03  0.94198995553E+03  0.25500000920E-02 0. -1.
    10030    2    1    2    0    0  0.00000000000E+00  0.00000000000E+00  0.20921996141E+01  0.18860721107E+04  0.18860709502E+04 0.  0.
        1    1    3    3  502    0  0.32021511214E+03 -0.88663101599E+03 -0.24714947818E+02  0.94300747888E+03  0.50400001928E-02 0. -1.
       -1    1    3    3    0  502 -0.32021511214E+03  0.88663101599E+03  0.26807147433E+02  0.94306463179E+03  0.50400001928E-02 0.  1.
</event>
<event>
 5   0  0.2579241E-04  0.1305911E+04  0.7818609E-02  0.9024891E-01
        2   -1    0    0  501    0  0.00000000000E+00  0.00000000000E+00  0.10490857618E+04  0.10490857618E+04  0.25500000920E-02 0.  1.
       -2   -1    0    0    0  501  0.00000000000E+00  0.00000000000E+00 -0.40640230055E+03  0.40640230056E+03  0.25500000920E-02 0. -1.
    10030    2    1    2    0    0  0.00000000000E+00  0.00000000000E+00  0.64268346129E+03  0.14554880624E+04  0.13059109726E+04 0.  0.
        5    1    3    3  502    0  0.58724004147E+03  0.27552312070E+03  0.40448451581E+03  0.76445645388E+03  0.46999998093E+01 0.  1.
       -5    1    3    3    0  502 -0.58724004147E+03 -0.27552312070E+03  0.23819894548E+03  0.69103160852E+03  0.46999998093E+01 0. -1.
</event>
<event>
 5   0  0.1186038E-04  0.2098280E+04  0.7818609E-02  0.8562001E-01
        1   -1    0    0  501    0  0.00000000000E+00  0.00000000000E+00  0.11835254583E+04  0.11835254583E+04  0.50400001928E-02 0.  1.
       -1   -1    0    0    0  501  0.00000000000E+00  0.00000000000E+00 -0.93001367776E+03  0.93001367777E+03  0.50400001928E-02 0. -1.
    10030    2    1    2    0    0  0.00000000000E+00  0.00000000000E+00  0.25351178056E+03  0.21135391361E+04  0.20982801188E+04 0.  0.
        4    1    3    3  502    0  0.59144357024E+03 -0.10596411610E+03  0.99304470547E+03  0.11606779444E+04  0.12699999809E+01 0.  1.
       -4    1    3    3    0  502 -0.59144357024E+03  0.10596411610E+03 -0.73953292492E+03  0.95286119168E+03  0.12699999809E+01 0. -1.
</event>
<event>
 5   0  0.1130848E-04  0.2096219E+04  0.7818609E-02  0.8562911E-01
        1   -1    0    0  501    0  0.00000000000E+00  0.00000000000E+00  0.20225226567E+04  0.20225226567E+04  0.50400001928E-02 0.  1.
       -1   -1    0    0    0  501  0.00000000000E+00  0.00000000000E+00 -0.54314992827E+03  0.54314992829E+03  0.50400001928E-02 0. -1.
    10030    2    1    2    0    0  0.00000000000E+00  0.00000000000E+00  0.14793727284E+04  0.25656725850E+04  0.20962185343E+04 0.  0.
        5    1    3    3  502    0 -0.52434213606E+03 -0.25922286452E+03 -0.32478658967E+03  0.66905873283E+03  0.46999998093E+01 0. -1.
       -5    1    3    3    0  502  0.52434213606E+03  0.25922286452E+03  0.18041593181E+04  0.18966138521E+04  0.46999998093E+01 0.  1.
</event>
<event>
 5   0  0.2467483E-04  0.2094051E+04  0.7818609E-02  0.8563868E-01
       -2   -1    0    0    0  501  0.00000000000E+00  0.00000000000E+00  0.24454957238E+04  0.24454957238E+04  0.25500000920E-02 0. -1.
        2   -1    0    0  501    0  0.00000000000E+00  0.00000000000E+00 -0.44827825917E+03  0.44827825917E+03  0.25500000920E-02 0.  1.
    10030    2    1    2    0    0  0.00000000000E+00  0.00000000000E+00  0.19972174646E+04  0.28937739830E+04  0.20940511607E+04 0.  0.
        4    1    3    3  502    0  0.90772944630E+03  0.36994836052E+02  0.17178879670E+04  0.19433172787E+04  0.12699999809E+01 0. -1.
       -4    1    3    3    0  502 -0.90772944630E+03 -0.36994836052E+02  0.27932949763E+03  0.95045670429E+03  0.12699999809E+01 0.  1.
</event>
<event>
 5   0  0.1186038E-04  0.1419308E+04  0.7818609E-02  0.8939960E-01
        1   -1    0    0  501    0  0.00000000000E+00  0.00000000000E+00  0.16673693789E+04  0.16673693789E+04  0.50400001928E-02 0.  1.
       -1   -1    0    0    0  501  0.00000000000E+00  0.00000000000E+00 -0.30203782322E+03  0.30203782326E+03  0.50400001928E-02 0. -1.
    10030    2    1    2    0    0  0.00000000000E+00  0.00000000000E+00  0.13653315556E+04  0.19694072021E+04  0.14193077436E+04 0.  0.
        4    1    3    3  502    0 -0.11596318602E+03  0.64762066179E+03  0.31359213309E+03  0.72883579833E+03  0.12699999809E+01 0.  1.
       -4    1    3    3    0  502  0.11596318602E+03 -0.64762066179E+03  0.10517394225E+04  0.12405714038E+04  0.12699999809E+01 0. -1.
</event>
<event>
 5   0  0.1042395E-04  0.1251870E+04  0.7818609E-02  0.9068629E-01
       -1   -1    0    0    0  501  0.00000000000E+00  0.00000000000E+00  0.21037134986E+03  0.21037134992E+03  0.50400001928E-02 0.  1.
        1   -1    0    0  501    0  0.00000000000E+00  0.00000000000E+00 -0.18623940182E+04  0.18623940182E+04  0.50400001928E-02 0. -1.
    10030    2    1    2    0    0  0.00000000000E+00  0.00000000000E+00 -0.16520226684E+04  0.20727653681E+04  0.12518695517E+04 0.  0.
        3    1    3    3  502    0 -0.20675946486E+03 -0.55756285366E+03 -0.50253408954E+03  0.77856684584E+03  0.10100000352E+00 0.  1.
       -3    1    3    3    0  502  0.20675946486E+03  0.55756285366E+03 -0.11494885788E+04  0.12941985223E+04  0.10100000352E+00 0. -1.
</event>
<event>
 5   0  0.2430898E-04  0.2088173E+04  0.7818609E-02  0.8566471E-01
       -2   -1    0    0    0  501  0.00000000000E+00  0.00000000000E+00  0.86318258533E+03  0.86318258533E+03  0.25500000920E-02 0.  1.
        2   -1    0    0  501    0  0.00000000000E+00  0.00000000000E+00 -0.12629041208E+04  0.12629041208E+04  0.25500000920E-02 0. -1.
    10030    2    1    2    0    0  0.00000000000E+00  0.00000000000E+00 -0.39972153547E+03  0.21260867061E+04  0.20881732150E+04 0.  0.
        1    1    3    3  502    0  0.57933655618E+02  0.99893569677E+02 -0.12563821879E+04  0.12616779445E+04  0.50400001928E-02 0. -1.
       -1    1    3    3    0  502 -0.57933655618E+02 -0.99893569677E+02  0.85666065240E+03  0.86440876159E+03  0.50400001928E-02 0.  1.
</event>
<event>
 5   0  0.1130848E-04  0.2267342E+04  0.7818609E-02  0.8490910E-01
        1   -1    0    0  501    0  0.00000000000E+00  0.00000000000E+00  0.13906243872E+04  0.13906243872E+04  0.50400001928E-02 0. -1.
       -1   -1    0    0    0  501  0.00000000000E+00  0.00000000000E+00 -0.92419614793E+03  0.92419614795E+03  0.50400001928E-02 0.  1.
    10030    2    1    2    0    0  0.00000000000E+00  0.00000000000E+00  0.46642823929E+03  0.23148205352E+04  0.22673417933E+04 0.  0.
        5    1    3    3  502    0 -0.76384157120E+02  0.62764736358E+03  0.11938814028E+04  0.13509813642E+04  0.46999998093E+01 0. -1.
       -5    1    3    3    0  502  0.76384157120E+02 -0.62764736358E+03 -0.72745316350E+03  0.96383917099E+03  0.46999998093E+01 0.  1.
</event>
<event>
 5   0  0.2467483E-04  0.2102571E+04  0.7818609E-02  0.8560111E-01
       -2   -1    0    0    0  501  0.00000000000E+00  0.00000000000E+00  0.89037458615E+03  0.89037458615E+03  0.25500000920E-02 0.  1.
        2   -1    0    0  501    0  0.00000000000E+00  0.00000000000E+00 -0.12412771770E+04  0.12412771770E+04  0.25500000920E-02 0. -1.
    10030    2    1    2    0    0  0.00000000000E+00  0.00000000000E+00 -0.35090259085E+03  0.21316517632E+04  0.21025714283E+04 0.  0.
        4    1    3    3  502    0 -0.19158921318E+03 -0.99599322151E+03 -0.45584676853E+03  0.11119832792E+04  0.12699999809E+01 0. -1.
       -4    1    3    3    0  502  0.19158921318E+03  0.99599322151E+03  0.10494417767E+03  0.10196684840E+04  0.12699999809E+01 0.  1.
</event>
<event>
 5   0  0.2430898E-04  0.2073581E+04  0.7818609E-02  0.8572971E-01
       -2   -1    0    0    0  501  0.00000000000E+00  0.00000000000E+00  0.11731752351E+04  0.11731752351E+04  0.25500000920E-02 0. -1.
        2   -1    0    0  501    0  0.00000000000E+00  0.00000000000E+00 -0.91626108234E+03  0.91626108234E+03  0.25500000920E-02 0.  1.
    10030    2    1    2    0    0  0.00000000000E+00  0.00000000000E+00  0.25691415277E+03  0.20894363175E+04  0.20735812602E+04 0.  0.
        1    1    3    3  502    0 -0.62206530705E+03  0.61105283451E+03 -0.43670940038E+03  0.97522608312E+03  0.50400001928E-02 0.  1.
       -1    1    3    3    0  502  0.62206530705E+03 -0.61105283451E+03  0.69362355315E+03  0.11142102343E+04  0.50400001928E-02 0. -1.
</event>
<event>
 5   0  0.2512839E-04  0.2058325E+04  0.7818609E-02  0.8579827E-01
       -2   -1    0    0    0  501  0.00000000000E+00  0.00000000000E+00  0.11108834181E+04  0.11108834181E+04  0.25500000920E-02 0. -1.
        2   -1    0    0  501    0  0.00000000000E+00  0.00000000000E+00 -0.95345364936E+03  0.95345364936E+03  0.25500000920E-02 0.  1.
    10030    2    1    2    0    0  0.00000000000E+00  0.00000000000E+00  0.15742976873E+03  0.20643370674E+04  0.20583253863E+04 0.  0.
        3    1    3    3  502    0  0.19954853415E+03 -0.10023792907E+04 -0.42435187513E+02  0.10229294283E+04  0.10100000352E+00 0.  1.
       -3    1    3    3    0  502 -0.19954853415E+03  0.10023792907E+04  0.19986495624E+03  0.10414076391E+04  0.10100000352E+00 0. -1.
</event>
<event>
 5   0  0.2448804E-04  0.2050154E+04  0.7818609E-02  0.8583525E-01
       -2   -1    0    0    0  501  0.00000000000E+00  0.00000000000E+00  0.81353936516E+03  0.81353936517E+03  0.25500000920E-02 0. -1.
        2   -1    0    0  501    0  0.00000000000E+00  0.00000000000E+00 -0.12916185986E+04  0.12916185986E+04  0.25500000920E-02 0.  1.
    10030    2    1    2    0    0  0.00000000000E+00  0.00000000000E+00 -0.47807923343E+03  0.21051579638E+04  0.20501537257E+04 0.  0.
        2    1    3    3  502    0  0.70966753264E+03 -0.55214192316E+03 -0.74447945665E+03  0.11673638557E+04  0.25500000920E-02 0.  1.
       -2    1    3    3    0  502 -0.70966753264E+03  0.55214192316E+03  0.26640022322E+03  0.93779410807E+03  0.25500000920E-02 0. -1.
</event>
<event>
 5   0  0.2430898E-04  0.2124921E+04  0.7818609E-02  0.8550344E-01
        2   -1    0    0  501    0  0.00000000000E+00  0.00000000000E+00  0.13845654451E+04  0.13845654451E+04  0.25500000920E-02 0.  1.
       -2   -1    0    0    0  501  0.00000000000E+00  0.00000000000E+00 -0.81528959600E+03  0.81528959601E+03  0.25500000920E-02 0. -1.
    10030    2    1    2    0    0  0.00000000000E+00  0.00000000000E+00  0.56927584905E+03  0.21998550411E+04  0.21249205184E+04 0.  0.
        1    1    3    3  502    0  0.86361266988E+03  0.61647677873E+03  0.22839589327E+03  0.10853732751E+04  0.50400001928E-02 0. -1.
       -1    1    3    3    0  502 -0.86361266988E+03 -0.61647677873E+03  0.34087995577E+03  0.11144817659E+04  0.50400001928E-02 0.  1.
</event>
<event>
 5   0  0.2579241E-04  0.2119123E+04  0.7818609E-02  0.8552866E-01
       -2   -1    0    0    0  501  0.00000000000E+00  0.00000000000E+00  0.10458387911E+04  0.10458387911E+04  0.25500000920E-02 0. -1.
        2   -1    0    0  501    0  0.00000000000E+00  0.00000000000E+00 -0.10734642523E+04  0.10734642523E+04  0.25500000920E-02 0.  1.
    10030    2    1    2    0    0  0.00000000000E+00  0.00000000000E+00 -0.27625461181E+02  0.21193030434E+04  0.21191229845E+04 0.  0.
        5    1    3    3  502    0 -0.92979978355E+03  0.45944160540E+03 -0.23070494534E+03  0.10624787471E+04  0.46999998093E+01 0.  1.
       -5    1    3    3    0  502  0.92979978355E+03 -0.45944160540E+03  0.20307948416E+03  0.10568242963E+04  0.46999998093E+01 0. -1.
</event>
<event>
 5   0  0.2448804E-04  0.2109679E+04  0.7818609E-02  0.8556992E-01
        2   -1    0    0  501    0  0.00000000000E+00  0.00000000000E+00  0.13245190730E+04  0.13245190730E+04  0.25500000920E-02 0.  1.
       -2   -1    0    0    0  501  0.00000000000E+00  0.00000000000E+00 -0.84006839864E+03  0.84006839864E+03  0.25500000920E-02 0. -1.
    10030    2    1    2    0    0  0.00000000000E+00  0.00000000000E+00  0.48445067433E+03  0.21645874716E+04  0.21096792331E+04 0.  0.
        2    1    3    3  502    0 -0.46974675792E+03  0.49175161258E+03 -0.58511433303E+03  0.89712900286E+03  0.25500000920E-02 0. -1.
       -2    1    3    3    0  502  0.46974675792E+03 -0.49175161258E+03  0.10695650074E+04  0.12674584688E+04  0.25500000920E-02 0.  1.
</event>
<event>
 5   0  0.1042395E-04  0.2304096E+04  0.7818609E-02  0.8476308E-01
        1   -1    0    0  501    0  0.00000000000E+00  0.00000000000E+00  0.15887066865E+04  0.15887066865E+04  0.50400001928E-02 0. -1.
       -1   -1    0    0    0  501  0.00000000000E+00  0.00000000000E+00 -0.83540568293E+03  0.83540568295E+03  0.50400001928E-02 0.  1.
    10030    2    1    2    0    0  0.00000000000E+00  0.00000000000E+00  0.75330100355E+03  0.24241123694E+04  0.23040960001E+04 0.  0.
        3    1    3    3  502    0  0.88711337786E+02  0.63504316944E+03 -0.63031672503E+03  0.89913776061E+03  0.10100000352E+00 0.  1.
       -3    1    3    3    0  502 -0.88711337786E+02 -0.63504316944E+03  0.13836177286E+04  0.15249746088E+04  0.10100000352E+00 0. -1.
</event>
<event>
 5   0  0.1122711E-04  0.2100783E+04  0.7818609E-02  0.8560899E-01
        1   -1    0    0  501    0  0.00000000000E+00  0.00000000000E+00  0.87579189158E+03  0.87579189159E+03  0.50400001928E-02 0.  1.
       -1   -1    0    0    0  501  0.00000000000E+00  0.00000000000E+00 -0.12597992683E+04  0.12597992683E+04  0.50400001928E-02 0. -1.
    10030    2    1    2    0    0  0.00000000000E+00  0.00000000000E+00 -0.38400737668E+03  0.21355911599E+04  0.21007826962E+04 0.  0.
        1    1    3    3  502    0 -0.84795419429E+03 -0.50143691670E+03  0.17853084705E+03  0.10011685974E+04  0.50400001928E-02 0.  1.
       -1    1    3    3    0  502  0.84795419429E+03  0.50143691670E+03 -0.56253822374E+03  0.11344225625E+04  0.50400001928E-02 0. -1.
</event>
<event>
 5   0  0.2448804E-04  0.1971807E+04  0.7818609E-02  0.8619916E-01
       -2   -1    0    0    0  501  0.00000000000E+00  0.00000000000E+00  0.56869195304E+03  0.56869195304E+03  0.25500000920E-02 0. -1.
        2   -1    0    0  501    0  0.00000000000E+00  0.00000000000E+00 -0.17091953764E+04  0.17091953764E+04  0.25500000920E-02 0.  1.
    10030    2    1    2    0    0  0.00000000000E+00  0.00000000000E+00 -0.11405034234E+04  0.22778873294E+04  0.19718069446E+04 0.  0.
        2    1    3    3  502    0 -0.44400565632E+03  0.66586012381E+03 -0.12353813368E+04  0.14719639176E+04  0.25500000920E-02 0.  1.
       -2    1    3    3    0  502  0.44400565632E+03 -0.66586012381E+03  0.94877913437E+02  0.80592341187E+03  0.25500000920E-02 0. -1.
</event>
<event>
 5   0  0.2579241E-04  0.2096604E+04  0.7818609E-02  0.8562741E-01
       -2   -1    0    0    0  501  0.00000000000E+00  0.00000000000E+00  0.61832177654E+03  0.61832177655E+03  0.25500000920E-02 0. -1.
        2   -1    0    0  501    0  0.00000000000E+00  0.00000000000E+00 -0.17772900015E+04  0.17772900015E+04  0.25500000920E-02 0.  1.
    10030    2    1    2    0    0  0.00000000000E+00  0.00000000000E+00 -0.11589682249E+04  0.23956117780E+04  0.20966040267E+04 0.  0.
        5    1    3    3  502    0 -0.40263761387E+03  0.15621967589E+03  0.51193382778E+03  0.66979098924E+03  0.46999998093E+01 0. -1.
       -5    1    3    3    0  502  0.40263761387E+03 -0.15621967589E+03 -0.16709020527E+04  0.17258207888E+04  0.46999998093E+01 0.  1.
</event>
<event>
 5   0  0.2579241E-04  0.2055946E+04  0.7818609E-02  0.8580902E-01
        2   -1    0    0  501    0  0.00000000000E+00  0.00000000000E+00  0.58514221800E+03  0.58514221800E+03  0.25500000920E-02 0. -1.
       -2   -1    0    0    0  501  0.00000000000E+00  0.00000000000E+00 -0.18059339193E+04  0.18059339193E+04  0.25500000920E-02 0.  1.
    10030    2    1    2    0    0  0.00000000000E+00  0.00000000000E+00 -0.12207917013E+04  0.23910761373E+04  0.20559456988E+04 0.  0.
        5    1    3    3  502    0 -0.81050978014E+03 -0.62364819905E+03 -0.73149878767E+03  0.12573685801E+04  0.46999998093E+01 0. -1.
       -5    1    3    3    0  502  0.81050978014E+03  0.62364819905E+03 -0.48929291361E+03  0.11337075572E+04  0.46999998093E+01 0.  1.
</event>
<event>
 5   0  0.1186038E-04  0.2091170E+04  0.7818609E-02  0.8565143E-01
       -1   -1    0    0    0  501  0.00000000000E+00  0.00000000000E+00  0.10243339430E+04  0.10243339431E+04  0.50400001928E-02 0. -1.
        1   -1    0    0  501    0  0.00000000000E+00  0.00000000000E+00 -0.10672772807E+04  0.10672772807E+04  0.50400001928E-02 0.  1.
    10030    2    1    2    0    0  0.00000000000E+00  0.00000000000E+00 -0.42943337684E+02  0.20916112238E+04  0.20911703377E+04 0.  0.
        4    1    3    3  502    0 -0.74016401431E+03  0.50899604078E+03 -0.55667979795E+03  0.10567940897E+04  0.12699999809E+01 0.  1.
       -4    1    3    3    0  502  0.74016401431E+03 -0.50899604078E+03  0.51373646026E+03  0.10348171341E+04  0.12699999809E+01 0. -1.
</event>
<event>
 5   0  0.1130848E-04  0.2168215E+04  0.7818609E-02  0.8531775E-01
       -1   -1    0    0    0  501  0.00000000000E+00  0.00000000000E+00  0.11534662698E+04  0.11534662698E+04  0.50400001928E-02 0.  1.
        1   -1    0    0  501    0  0.00000000000E+00  0.00000000000E+00 -0.10189196298E+04  0.10189196298E+04  0.50400001928E-02 0. -1.
    10030    2    1    2    0    0  0.00000000000E+00  0.00000000000E+00  0.13454664001E+03  0.21723858995E+04  0.21682153256E+04 0.  0.
        5    1    3    3  502    0  0.31672816365E+03 -0.94076985157E+03  0.50388980117E+03  0.11132347753E+04  0.46999998093E+01 0.  1.
       -5    1    3    3    0  502 -0.31672816365E+03  0.94076985157E+03 -0.36934316116E+03  0.10591511242E+04  0.46999998093E+01 0. -1.
</event>
<event>
 5   0  0.2430898E-04  0.1979898E+04  0.7818609E-02  0.8616077E-01
       -2   -1    0    0    0  501  0.00000000000E+00  0.00000000000E+00  0.10308024390E+04  0.10308024390E+04  0.25500000920E-02 0. -1.
        2   -1    0    0  501    0  0.00000000000E+00  0.00000000000E+00 -0.95071496071E+03  0.95071496071E+03  0.25500000920E-02 0.  1.
    10030    2    1    2    0    0  0.00000000000E+00  0.00000000000E+00  0.80087478324E+02  0.19815173997E+04  0.19798982805E+04 0.  0.
        1    1    3    3  502    0 -0.25680798533E+03 -0.10129596567E+03  0.99149888184E+03  0.10292138975E+04  0.50400001928E-02 0. -1.
       -1    1    3    3    0  502  0.25680798533E+03  0.10129596567E+03 -0.91141140352E+03  0.95230350229E+03  0.50400001928E-02 0.  1.
</event>
<event>
 5   0  0.2467483E-04  0.2048616E+04  0.7818609E-02  0.8584222E-01
        2   -1    0    0  501    0  0.00000000000E+00  0.00000000000E+00  0.15694490080E+04  0.15694490080E+04  0.25500000920E-02 0.  1.
       -2   -1    0    0    0  501  0.00000000000E+00  0.00000000000E+00 -0.66851936473E+03  0.66851936473E+03  0.25500000920E-02 0. -1.
    10030    2    1    2    0    0  0.00000000000E+00  0.00000000000E+00  0.90092964324E+03  0.22379683727E+04  0.20486161708E+04 0.  0.
        4    1    3    3  502    0 -0.68429615113E+03 -0.23582545630E+03 -0.34132458366E+03  0.80023681033E+03  0.12699999809E+01 0.  1.
       -4    1    3    3    0  502  0.68429615113E+03  0.23582545630E+03  0.12422542269E+04  0.14377315624E+04  0.12699999809E+01 0. -1.
</event>
<event>
 5   0  0.2448804E-04  0.1784711E+04  0.7818609E-02  0.8714472E-01
       -2   -1    0    0    0  501  0.00000000000E+00  0.00000000000E+00  0.44588502273E+03  0.44588502274E+03  0.25500000920E-02 0.  1.
        2   -1    0    0  501    0  0.00000000000E+00  0.00000000000E+00 -0.17858836613E+04  0.17858836613E+04  0.25500000920E-02 0. -1.
    10030    2    1    2    0    0  0.00000000000E+00  0.00000000000E+00 -0.13399986386E+04  0.22317686840E+04  0.17847114914E+04 0.  0.
        2    1    3    3  502    0  0.81633147033E+03  0.11529929015E+03 -0.24298255528E+03  0.85949492025E+03  0.25500000920E-02 0.  1.
       -2    1    3    3    0  502 -0.81633147033E+03 -0.11529929015E+03 -0.10970160833E+04  0.13722737638E+04  0.25500000920E-02 0. -1.
</event>
<event>
 5   0  0.2448804E-04  0.2104097E+04  0.7818609E-02  0.8559441E-01
       -2   -1    0    0    0  501  0.00000000000E+00  0.00000000000E+00  0.87827733366E+03  0.87827733366E+03  0.25500000920E-02 0. -1.
        2   -1    0    0  501    0  0.00000000000E+00  0.00000000000E+00 -0.12602015441E+04  0.12602015441E+04  0.25500000920E-02 0.  1.
    10030    2    1    2    0    0  0.00000000000E+00  0.00000000000E+00 -0.38192421045E+03  0.21384788778E+04  0.21040973856E+04 0.  0.
        2    1    3    3  502    0 -0.10264047255E+04  0.11366540455E+03 -0.39519331501E+03  0.11057143577E+04  0.25500000920E-02 0.  1.
       -2    1    3    3    0  502  0.10264047255E+04 -0.11366540455E+03  0.13269104558E+02  0.10327645200E+04  0.25500000920E-02 0. -1.
</event>
<event>
 5   0  0.1156733E-04  0.2129690E+04  0.7818609E-02  0.8548276E-01
       -1   -1    0    0    0  501  0.00000000000E+00  0.00000000000E+00  0.62745167844E+03  0.62745167846E+03  0.50400001928E-02 0.  1.
        1   -1    0    0  501    0  0.00000000000E+00  0.00000000000E+00 -0.18071437541E+04  0.18071437541E+04  0.50400001928E-02 0. -1.
    10030    2    1    2    0    0  0.00000000000E+00  0.00000000000E+00 -0.11796920756E+04  0.24345954325E+04  0.21296904768E+04 0.  0.
        2    1    3    3  502    0 -0.68664791116E+03 -0.35216029704E+03  0.24895716118E+03  0.81085257403E+03  0.25500000920E-02 0.  1.
       -2    1    3    3    0  502  0.68664791116E+03  0.35216029704E+03 -0.14286492368E+04  0.16237428585E+04  0.25500000920E-02 0. -1.
</event>
<event>
 5   0  0.1042395E-04  0.2099189E+04  0.7818609E-02  0.8561601E-01
        1   -1    0    0  501    0  0.00000000000E+00  0.00000000000E+00  0.16164216621E+04  0.16164216621E+04  0.50400001928E-02 0. -1.
       -1   -1    0    0    0  501  0.00000000000E+00  0.00000000000E+00 -0.68153529720E+03  0.68153529722E+03  0.50400001928E-02 0.  1.
    10030    2    1    2    0    0  0.00000000000E+00  0.00000000000E+00  0.93488636490E+03  0.22979569593E+04  0.20991888128E+04 0.  0.
        3    1    3    3  502    0 -0.49576268138E+03 -0.40309864011E+03  0.13789833477E+04  0.15198237508E+04  0.10100000352E+00 0. -1.
       -3    1    3    3    0  502  0.49576268138E+03  0.40309864011E+03 -0.44409698282E+03  0.77813320856E+03  0.10100000352E+00 0.  1.
</event>
<event>
 5   0  0.2579241E-04  0.1234026E+04  0.7818609E-02  0.9083584E-01
       -2   -1    0    0    0  501  0.00000000000E+00  0.00000000000E+00  0.76008796014E+03  0.76008796015E+03  0.25500000920E-02 0. -1.
        2   -1    0    0  501    0  0.00000000000E+00  0.00000000000E+00 -0.50086973042E+03  0.50086973043E+03  0.25500000920E-02 0.  1.
    10030    2    1    2    0    0  0.00000000000E+00  0.00000000000E+00  0.25921822972E+03  0.12609576906E+04  0.12340260154E+04 0.  0.
        5    1    3    3  502    0  0.20478131364E+03  0.49889617335E+03  0.43590113589E+03  0.69344406296E+03  0.46999998093E+01 0. -1.
       -5    1    3    3    0  502 -0.20478131364E+03 -0.49889617335E+03 -0.17668290616E+03  0.56751362761E+03  0.46999998093E+01 0.  1.
</event>
<event>
 5   0  0.2430898E-04  0.2059094E+04  0.7818609E-02  0.8579480E-01
       -2   -1    0    0    0  501  0.00000000000E+00  0.00000000000E+00  0.95007189696E+03  0.95007189696E+03  0.25500000920E-02 0. -1.
        2   -1    0    0  501    0  0.00000000000E+00  0.00000000000E+00 -0.11156698390E+04  0.11156698390E+04  0.25500000920E-02 0.  1.
    10030    2    1    2    0    0  0.00000000000E+00  0.00000000000E+00 -0.16559794207E+03  0.20657417360E+04  0.20590935485E+04 0.  0.
        1    1    3    3  502    0  0.91642597463E+03 -0.43859210807E+03  0.84373238645E+02  0.10194696894E+04  0.50400001928E-02 0. -1.
       -1    1    3    3    0  502 -0.91642597463E+03  0.43859210807E+03 -0.24997118072E+03  0.10462720466E+04  0.50400001928E-02 0.  1.
</event>
<event>
 5   0  0.1186038E-04  0.2075600E+04  0.7818609E-02  0.8572068E-01
        1   -1    0    0  501    0  0.00000000000E+00  0.00000000000E+00  0.20724746969E+04  0.20724746969E+04  0.50400001928E-02 0.  1.
       -1   -1    0    0    0  501  0.00000000000E+00  0.00000000000E+00 -0.51968275257E+03  0.51968275260E+03  0.50400001928E-02 0. -1.
    10030    2    1    2    0    0  0.00000000000E+00  0.00000000000E+00  0.15527919443E+04  0.25921574495E+04  0.20756004964E+04 0.  0.
        4    1    3    3  502    0 -0.49038132823E+03 -0.91462980419E+03  0.77950976107E+03  0.12979439920E+04  0.12699999809E+01 0. -1.
       -4    1    3    3    0  502  0.49038132823E+03  0.91462980419E+03  0.77328218322E+03  0.12942134575E+04  0.12699999809E+01 0.  1.
</event>
<event>
 5   0  0.1042395E-04  0.2079222E+04  0.7818609E-02  0.8570452E-01
        1   -1    0    0  501    0  0.00000000000E+00  0.00000000000E+00  0.16576296500E+04  0.16576296500E+04  0.50400001928E-02 0.  1.
       -1   -1    0    0    0  501  0.00000000000E+00  0.00000000000E+00 -0.65200994630E+03  0.65200994632E+03  0.50400001928E-02 0. -1.
    10030    2    1    2    0    0  0.00000000000E+00  0.00000000000E+00  0.10056197037E+04  0.23096395963E+04  0.20792219882E+04 0.  0.
        3    1    3    3  502    0  0.10084463241E+03 -0.10117263814E+04  0.74370936210E+03  0.12597077186E+04  0.10100000352E+00 0.  1.
       -3    1    3    3    0  502 -0.10084463241E+03  0.10117263814E+04  0.26191034160E+03  0.10499318778E+04  0.10100000352E+00 0. -1.
</event>
<event>
 5   0  0.2579241E-04  0.2079705E+04  0.7818609E-02  0.8570236E-01
       -2   -1    0    0    0  501  0.00000000000E+00  0.00000000000E+00  0.68920116444E+03  0.68920116444E+03  0.25500000920E-02 0. -1.
        2   -1    0    0  501    0  0.00000000000E+00  0.00000000000E+00 -0.15689087251E+04  0.15689087251E+04  0.25500000920E-02 0.  1.
    10030    2    1    2    0    0  0.00000000000E+00  0.00000000000E+00 -0.87970756067E+03  0.22581098896E+04  0.20797054794E+04 0.  0.
        5    1    3    3  502    0 -0.81591355643E+03 -0.11281154822E+03  0.24928117028E+03  0.86058385346E+03  0.46999998093E+01 0. -1.
       -5    1    3    3    0  502  0.81591355643E+03  0.11281154822E+03 -0.11289887310E+04  0.13975260361E+04  0.46999998093E+01 0.  1.
</event>
<event>
 5   0  0.8698750E-05  0.2013771E+04  0.7818609E-02  0.8600209E-01
        4   -1    0    0  501    0  0.00000000000E+00  0.00000000000E+00  0.12322296498E+04  0.12322303043E+04  0.12699999809E+01 0.  1.
       -4   -1    0    0    0  501  0.00000000000E+00  0.00000000000E+00 -0.82274963026E+03  0.82275061045E+03  0.12699999809E+01 0. -1.
    10030    2    1    2    0    0  0.00000000000E+00  0.00000000000E+00  0.40948001956E+03  0.20549809147E+04  0.20137707599E+04 0.  0.
        1    1    3    3  502    0 -0.30693957998E+03 -0.21253619482E+03 -0.74950838070E+03  0.83734482302E+03  0.50400001928E-02 0. -1.
       -1    1    3    3    0  502  0.30693957998E+03  0.21253619482E+03  0.11589884003E+04  0.12176360917E+04  0.50400001928E-02 0.  1.
</event>
<event>
 5   0  0.2448804E-04  0.2064679E+04  0.7818609E-02  0.8576964E-01
       -2   -1    0    0    0  501  0.00000000000E+00  0.00000000000E+00  0.64775648337E+03  0.64775648337E+03  0.25500000920E-02 0. -1.
        2   -1    0    0  501    0  0.00000000000E+00  0.00000000000E+00 -0.16452547323E+04  0.16452547323E+04  0.25500000920E-02 0.  1.
    10030    2    1    2    0    0  0.00000000000E+00  0.00000000000E+00 -0.99749824897E+03  0.22930112157E+04  0.20646785897E+04 0.  0.
        2    1    3    3  502    0  0.44553133695E+03  0.78280690895E+03 -0.10589529483E+04  0.13902036454E+04  0.25500000920E-02 0.  1.
       -2    1    3    3    0  502 -0.44553133695E+03 -0.78280690895E+03  0.61454699380E+02  0.90280757030E+03  0.25500000920E-02 0. -1.
</event>
<event>
 5   0  0.2467483E-04  0.2072580E+04  0.7818609E-02  0.8573419E-01
        2   -1    0    0  501    0  0.00000000000E+00  0.00000000000E+00  0.13892962237E+04  0.13892962237E+04  0.25500000920E-02 0. -1.
       -2   -1    0    0    0  501  0.00000000000E+00  0.00000000000E+00 -0.77297889515E+03  0.77297889516E+03  0.25500000920E-02 0.  1.
    10030    2    1    2    0    0  0.00000000000E+00  0.00000000000E+00  0.61631732854E+03  0.21622751189E+04  0.20725797066E+04 0.  0.
        4    1    3    3  502    0  0.67408983876E+02  0.10027980370E+04  0.44749928196E+02  0.10060576738E+04  0.12699999809E+01 0. -1.
       -4    1    3    3    0  502 -0.67408983876E+02 -0.10027980370E+04  0.57156740034E+03  0.11562174450E+04  0.12699999809E+01 0.  1.
</event>
<event>
 5   0  0.1122711E-04  0.1675757E+04  0.7818609E-02  0.8775313E-01
        1   -1    0    0  501    0  0.00000000000E+00  0.00000000000E+00  0.74907182077E+03  0.74907182078E+03  0.50400001928E-02 0. -1.
       -1   -1    0    0    0  501  0.00000000000E+00  0.00000000000E+00 -0.93721318556E+03  0.93721318558E+03  0.50400001928E-02 0.  1.
    10030    2    1    2    0    0  0.00000000000E+00  0.00000000000E+00 -0.18814136480E+03  0.16862850064E+04  0.16757565305E+04 0.  0.
        1    1    3    3  502    0  0.62269560195E+03  0.30532452047E+03 -0.56720246929E+03  0.89593053117E+03  0.50400001928E-02 0.  1.
       -1    1    3    3    0  502 -0.62269560195E+03 -0.30532452047E+03  0.37906110449E+03  0.79035447519E+03  0.50400001928E-02 0. -1.
</event>
<event>
 5   0  0.1122711E-04  0.2098428E+04  0.7818609E-02  0.8561936E-01
       -1   -1    0    0    0  501  0.00000000000E+00  0.00000000000E+00  0.71641912700E+03  0.71641912701E+03  0.50400001928E-02 0. -1.
        1   -1    0    0  501    0  0.00000000000E+00  0.00000000000E+00 -0.15365998204E+04  0.15365998204E+04  0.50400001928E-02 0.  1.
    10030    2    1    2    0    0  0.00000000000E+00  0.00000000000E+00 -0.82018069336E+03  0.22530189474E+04  0.20984275083E+04 0.  0.
        1    1    3    3  502    0  0.31421288716E+03 -0.19960024327E+03  0.64313545940E+03  0.74309704261E+03  0.50400001928E-02 0. -1.
       -1    1    3    3    0  502 -0.31421288716E+03  0.19960024327E+03 -0.14633161528E+04  0.15099219048E+04  0.50400001928E-02 0.  1.
</event>
<event>
 5   0  0.1042395E-04  0.2096550E+04  0.7818609E-02  0.8562765E-01
        1   -1    0    0  501    0  0.00000000000E+00  0.00000000000E+00  0.10867316314E+04  0.10867316314E+04  0.50400001928E-02 0. -1.
       -1   -1    0    0    0  501  0.00000000000E+00  0.00000000000E+00 -0.10111794933E+04  0.10111794933E+04  0.50400001928E-02 0.  1.
    10030    2    1    2    0    0  0.00000000000E+00  0.00000000000E+00  0.75552138106E+02  0.20979111247E+04  0.20965502526E+04 0.  0.
        3    1    3    3  502    0 -0.24991883181E+03 -0.71290940816E+03  0.76500876353E+03  0.10751454158E+04  0.10100000352E+00 0. -1.
       -3    1    3    3    0  502  0.24991883181E+03  0.71290940816E+03 -0.68945662542E+03  0.10227657089E+04  0.10100000352E+00 0.  1.
</event>
<event>
 5   0  0.2430898E-04  0.2071234E+04  0.7818609E-02  0.8574022E-01
        2   -1    0    0  501    0  0.00000000000E+00  0.00000000000E+00  0.10957549181E+04  0.10957549181E+04  0.25500000920E-02 0. -1.
       -2   -1    0    0    0  501  0.00000000000E+00  0.00000000000E+00 -0.97877960310E+03  0.97877960310E+03  0.25500000920E-02 0.  1.
    10030    2    1    2    0    0  0.00000000000E+00  0.00000000000E+00  0.11697531500E+03  0.20745345212E+04  0.20712339934E+04 0.  0.
        1    1    3    3  502    0  0.46100625333E+03  0.51339132067E+03  0.83199099763E+03  0.10808822479E+04  0.50400001928E-02 0. -1.
       -1    1    3    3    0  502 -0.46100625333E+03 -0.51339132067E+03 -0.71501568262E+03  0.99365227327E+03  0.50400001928E-02 0.  1.
</event>
<event>
 5   0  0.8698750E-05  0.2124816E+04  0.7818609E-02  0.8550390E-01
        3   -1    0    0  501    0  0.00000000000E+00  0.00000000000E+00  0.46085476958E+03  0.46085478065E+03  0.10100000352E+00 0. -1.
       -3   -1    0    0    0  501  0.00000000000E+00  0.00000000000E+00 -0.24491689502E+04  0.24491689523E+04  0.10100000352E+00 0.  1.
    10030    2    1    2    0    0  0.00000000000E+00  0.00000000000E+00 -0.19883141806E+04  0.29100237329E+04  0.21248164263E+04 0.  0.
        5    1    3    3  502    0 -0.25959129656E+03 -0.43655521018E+03  0.28379517572E+03  0.58183321024E+03  0.46999998093E+01 0. -1.
       -5    1    3    3    0  502  0.25959129656E+03  0.43655521018E+03 -0.22721093563E+04  0.23281905227E+04  0.46999998093E+01 0.  1.
</event>
<event>
 5   0  0.2467483E-04  0.2117879E+04  0.7818609E-02  0.8553408E-01
        2   -1    0    0  501    0  0.00000000000E+00  0.00000000000E+00  0.19537259475E+04  0.19537259475E+04  0.25500000920E-02 0. -1.
       -2   -1    0    0    0  501  0.00000000000E+00  0.00000000000E+00 -0.57395624081E+03  0.57395624081E+03  0.25500000920E-02 0.  1.
    10030    2    1    2    0    0  0.00000000000E+00  0.00000000000E+00  0.13797697067E+04  0.25276821883E+04  0.21178793171E+04 0.  0.
        4    1    3    3  502    0  0.77525601211E+03 -0.72065473343E+03  0.65239958303E+03  0.12433792494E+04  0.12699999809E+01 0. -1.
       -4    1    3    3    0  502 -0.77525601211E+03  0.72065473343E+03  0.72737012369E+03  0.12843029389E+04  0.12699999809E+01 0.  1.
</event>
<event>
 5   0  0.1186038E-04  0.1302839E+04  0.7818609E-02  0.9027316E-01
       -1   -1    0    0    0  501  0.00000000000E+00  0.00000000000E+00  0.79060353811E+03  0.79060353813E+03  0.50400001928E-02 0. -1.
        1   -1    0    0  501    0  0.00000000000E+00  0.00000000000E+00 -0.53673889406E+03  0.53673889409E+03  0.50400001928E-02 0.  1.
    10030    2    1    2    0    0  0.00000000000E+00  0.00000000000E+00  0.25386464405E+03  0.13273424322E+04  0.13028394663E+04 0.  0.
        4    1    3    3  502    0 -0.15336479206E+03 -0.36195495469E+03 -0.40227304204E+03  0.56245654225E+03  0.12699999809E+01 0.  1.
       -4    1    3    3    0  502  0.15336479206E+03  0.36195495469E+03  0.65613768609E+03  0.76488588997E+03  0.12699999809E+01 0. -1.
</event>
<event>
 5   0  0.1130848E-04  0.2074873E+04  0.7818609E-02  0.8572393E-01
       -1   -1    0    0    0  501  0.00000000000E+00  0.00000000000E+00  0.10057758514E+04  0.10057758514E+04  0.50400001928E-02 0. -1.
        1   -1    0    0  501    0  0.00000000000E+00  0.00000000000E+00 -0.10700942136E+04  0.10700942136E+04  0.50400001928E-02 0.  1.
    10030    2    1    2    0    0  0.00000000000E+00  0.00000000000E+00 -0.64318362184E+02  0.20758700650E+04  0.20748734118E+04 0.  0.
        5    1    3    3  502    0  0.27188164144E+03 -0.40252498339E+03 -0.94928202254E+03  0.10663509917E+04  0.46999998093E+01 0.  1.
       -5    1    3    3    0  502 -0.27188164144E+03  0.40252498339E+03  0.88496366036E+03  0.10095190733E+04  0.46999998093E+01 0. -1.
</event>
<event>
 5   0  0.2430898E-04  0.2094937E+04  0.7818609E-02  0.8563477E-01
        2   -1    0    0  501    0  0.00000000000E+00  0.00000000000E+00  0.12780332954E+04  0.12780332954E+04  0.25500000920E-02 0.  1.
       -2   -1    0    0    0  501  0.00000000000E+00  0.00000000000E+00 -0.85849911602E+03  0.85849911603E+03  0.25500000920E-02 0. -1.
    10030    2    1    2    0    0  0.00000000000E+00  0.00000000000E+00  0.41953417942E+03  0.21365324115E+04  0.20949371870E+04 0.  0.
        1    1    3    3  502    0 -0.30444343028E+03  0.63988209454E+03 -0.57694755975E+03  0.91378519570E+03  0.50400001928E-02 0. -1.
       -1    1    3    3    0  502  0.30444343028E+03 -0.63988209454E+03  0.99648173917E+03  0.12227472158E+04  0.50400001928E-02 0.  1.
</event>
<event>
 5   0  0.1042395E-04  0.2093442E+04  0.7818609E-02  0.8564138E-01
       -1   -1    0    0    0  501  0.00000000000E+00  0.00000000000E+00  0.12754528626E+04  0.12754528626E+04  0.50400001928E-02 0.  1.
        1   -1    0    0  501    0  0.00000000000E+00  0.00000000000E+00 -0.85900813667E+03  0.85900813668E+03  0.50400001928E-02 0. -1.
    10030    2    1    2    0    0  0.00000000000E+00  0.00000000000E+00  0.41644472592E+03  0.21344609993E+04  0.20934415558E+04 0.  0.
        3    1    3    3  502    0  0.24383389703E+03 -0.25858975320E+03 -0.79559951474E+03  0.87137949704E+03  0.10100000352E+00 0. -1.
       -3    1    3    3    0  502 -0.24383389703E+03  0.25858975320E+03  0.12120442407E+04  0.12630815022E+04  0.10100000352E+00 0.  1.
</event>
<event>
 5   0  0.2448804E-04  0.2117398E+04  0.7818609E-02  0.8553618E-01
        2   -1    0    0  501    0  0.00000000000E+00  0.00000000000E+00  0.15947276368E+04  0.15947276368E+04  0.25500000920E-02 0.  1.
       -2   -1    0    0    0  501  0.00000000000E+00  0.00000000000E+00 -0.70284355988E+03  0.70284355989E+03  0.25500000920E-02 0. -1.
    10030    2    1    2    0    0  0.00000000000E+00  0.00000000000E+00  0.89188407689E+03  0.22975711967E+04  0.21173984502E+04 0.  0.
        2    1    3    3  502    0 -0.67499346396E+02 -0.91065189131E+03  0.10272524582E+04  0.13744419383E+04  0.25500000920E-02 0.  1.
       -2    1    3    3    0  502  0.67499346396E+02  0.91065189131E+03 -0.13536838134E+03  0.92312925833E+03  0.25500000920E-02 0. -1.
</event>
<event>
 5   0  0.2448804E-04  0.1064757E+04  0.7818609E-02  0.9240239E-01
       -2   -1    0    0    0  501  0.00000000000E+00  0.00000000000E+00  0.13220840827E+03  0.13220840829E+03  0.25500000920E-02 0.  1.
        2   -1    0    0  501    0  0.00000000000E+00  0.00000000000E+00 -0.21437890708E+04  0.21437890708E+04  0.25500000920E-02 0. -1.
    10030    2    1    2    0    0  0.00000000000E+00  0.00000000000E+00 -0.20115806625E+04  0.22759974791E+04  0.10647571380E+04 0.  0.
        2    1    3    3  502    0 -0.16524597952E+03 -0.39193181899E+03 -0.32139874119E+03  0.53311718724E+03  0.25500000920E-02 0.  1.
       -2    1    3    3    0  502  0.16524597952E+03  0.39193181899E+03 -0.16901819214E+04  0.17428802919E+04  0.25500000920E-02 0. -1.
</event>
<event>
 5   0  0.2467483E-04  0.2066744E+04  0.7818609E-02  0.8576036E-01
       -2   -1    0    0    0  501  0.00000000000E+00  0.00000000000E+00  0.86977055964E+03  0.86977055964E+03  0.25500000920E-02 0.  1.
        2   -1    0    0  501    0  0.00000000000E+00  0.00000000000E+00 -0.12277466973E+04  0.12277466973E+04  0.25500000920E-02 0. -1.
    10030    2    1    2    0    0  0.00000000000E+00  0.00000000000E+00 -0.35797613762E+03  0.20975172569E+04  0.20667442338E+04 0.  0.
        4    1    3    3  502    0 -0.26796292728E+02 -0.10230239711E+04 -0.32451146332E+03  0.10735946113E+04  0.12699999809E+01 0. -1.
       -4    1    3    3    0  502  0.26796292728E+02  0.10230239711E+04 -0.33464674304E+02  0.10239226456E+04  0.12699999809E+01 0.  1.
</event>
<event>
 5   0  0.2579241E-04  0.1779119E+04  0.7818609E-02  0.8717483E-01
        2   -1    0    0  501    0  0.00000000000E+00  0.00000000000E+00  0.97290138762E+03  0.97290138762E+03  0.25500000920E-02 0. -1.
       -2   -1    0    0    0  501  0.00000000000E+00  0.00000000000E+00 -0.81335726944E+03  0.81335726945E+03  0.25500000920E-02 0.  1.
    10030    2    1    2    0    0  0.00000000000E+00  0.00000000000E+00  0.15954411818E+03  0.17862586571E+04  0.17791193508E+04 0.  0.
        5    1    3    3  502    0 -0.28172906320E+03 -0.25637475827E+03 -0.72731628406E+03  0.82104223326E+03  0.46999998093E+01 0.  1.
       -5    1    3    3    0  502  0.28172906320E+03  0.25637475827E+03  0.88686040224E+03  0.96521642381E+03  0.46999998093E+01 0. -1.
</event>
<event>
 5   0  0.2430898E-04  0.2123937E+04  0.7818609E-02  0.8550771E-01
        2   -1    0    0  501    0  0.00000000000E+00  0.00000000000E+00  0.21089981251E+04  0.21089981251E+04  0.25500000920E-02 0. -1.
       -2   -1    0    0    0  501  0.00000000000E+00  0.00000000000E+00 -0.53474561686E+03  0.53474561687E+03  0.25500000920E-02 0.  1.
    10030    2    1    2    0    0  0.00000000000E+00  0.00000000000E+00  0.15742525082E+04  0.26437437419E+04  0.21239373845E+04 0.  0.
        1    1    3    3  502    0  0.58617619985E+03 -0.21556529261E+03 -0.28197656150E+03  0.68526032565E+03  0.50400001928E-02 0.  1.
       -1    1    3    3    0  502 -0.58617619985E+03  0.21556529261E+03  0.18562290697E+04  0.19584834163E+04  0.50400001928E-02 0. -1.
</event>
<event>
 5   0  0.2579241E-04  0.2076031E+04  0.7818609E-02  0.8571876E-01
        2   -1    0    0  501    0  0.00000000000E+00  0.00000000000E+00  0.10964160967E+04  0.10964160967E+04  0.25500000920E-02 0. -1.
       -2   -1    0    0    0  501  0.00000000000E+00  0.00000000000E+00 -0.98272531012E+03  0.98272531013E+03  0.25500000920E-02 0.  1.
    10030    2    1    2    0    0  0.00000000000E+00  0.00000000000E+00  0.11369078653E+03  0.20791414068E+04  0.20760306824E+04 0.  0.
        5    1    3    3  502    0 -0.34138718754E+03 -0.37420187639E+03  0.96422809268E+03  0.10891878446E+04  0.46999998093E+01 0. -1.
       -5    1    3    3    0  502  0.34138718754E+03  0.37420187639E+03 -0.85053730616E+03  0.98995356218E+03  0.46999998093E+01 0.  1.
</event>
<event>
 5   0  0.1186038E-04  0.2053087E+04  0.7818609E-02  0.8582195E-01
       -1   -1    0    0    0  501  0.00000000000E+00  0.00000000000E+00  0.12251593446E+04  0.12251593446E+04  0.50400001928E-02 0. -1.
        1   -1    0    0  501    0  0.00000000000E+00  0.00000000000E+00 -0.86012599577E+03  0.86012599578E+03  0.50400001928E-02 0.  1.
    10030    2    1    2    0    0  0.00000000000E+00  0.00000000000E+00  0.36503334885E+03  0.20852853404E+04  0.20530868479E+04 0.  0.
        4    1    3    3  502    0  0.20530854527E+03  0.33474717106E+03  0.11458546336E+04  0.12112768971E+04  0.12699999809E+01 0. -1.
       -4    1    3    3    0  502 -0.20530854527E+03 -0.33474717106E+03 -0.78082128475E+03  0.87400844327E+03  0.12699999809E+01 0.  1.
</event>
<event>
 5   0  0.1130848E-04  0.2131191E+04  0.7818609E-02  0.8547627E-01
        1   -1    0    0  501    0  0.00000000000E+00  0.00000000000E+00  0.11526316083E+04  0.11526316083E+04  0.50400001928E-02 0.  1.
       -1   -1    0    0    0  501  0.00000000000E+00  0.00000000000E+00 -0.98513175783E+03  0.98513175784E+03  0.50400001928E-02 0. -1.
    10030    2    1    2    0    0  0.00000000000E+00  0.00000000000E+00  0.16749985047E+03  0.21377633661E+04  0.21311912185E+04 0.  0.
        5    1    3    3  502    0 -0.98535156321E+03  0.40465997787E+03  0.11220130777E+03  0.10711109300E+04  0.46999998093E+01 0. -1.
       -5    1    3    3    0  502  0.98535156321E+03 -0.40465997787E+03  0.55298542705E+02  0.10666524362E+04  0.46999998093E+01 0.  1.
</event>
<event>
 5   0  0.2467483E-04  0.2089780E+04  0.7818609E-02  0.8565759E-01
        2   -1    0    0  501    0  0.00000000000E+00  0.00000000000E+00  0.15716440082E+04  0.15716440082E+04  0.25500000920E-02 0. -1.
       -2   -1    0    0    0  501  0.00000000000E+00  0.00000000000E+00 -0.69468379811E+03  0.69468379811E+03  0.25500000920E-02 0.  1.
    10030    2    1    2    0    0  0.00000000000E+00  0.00000000000E+00  0.87696021004E+03  0.22663278063E+04  0.20897804946E+04 0.  0.
        4    1    3    3  502    0  0.46009407903E+03  0.59076989933E+02  0.14538565643E+04  0.15260659143E+04  0.12699999809E+01 0. -1.
       -4    1    3    3    0  502 -0.46009407903E+03 -0.59076989933E+02 -0.57689635424E+03  0.74026189199E+03  0.12699999809E+01 0.  1.
</event>
<event>
 5   0  0.2448804E-04  0.2055273E+04  0.7818609E-02  0.8581206E-01
        2   -1    0    0  501    0  0.00000000000E+00  0.00000000000E+00  0.59151969738E+03  0.59151969738E+03  0.25500000920E-02 0. -1.
       -2   -1    0    0    0  501  0.00000000000E+00  0.00000000000E+00 -0.17852949066E+04  0.17852949066E+04  0.25500000920E-02 0.  1.
    10030    2    1    2    0    0  0.00000000000E+00  0.00000000000E+00 -0.11937752092E+04  0.23768146040E+04  0.20552733180E+04 0.  0.
        2    1    3    3  502    0  0.39228929234E+03  0.21713818062E+03 -0.16662085547E+04  0.17254827806E+04  0.25500000920E-02 0.  1.
       -2    1    3    3    0  502 -0.39228929234E+03 -0.21713818062E+03  0.47243334542E+03  0.65133182345E+03  0.25500000920E-02 0. -1.
</event>
<event>
 5   0  0.1130848E-04  0.1141219E+04  0.7818609E-02  0.9165922E-01
        1   -1    0    0  501    0  0.00000000000E+00  0.00000000000E+00  0.67624426095E+03  0.67624426097E+03  0.50400001928E-02 0.  1.
       -1   -1    0    0    0  501  0.00000000000E+00  0.00000000000E+00 -0.48147611520E+03  0.48147611523E+03  0.50400001928E-02 0. -1.
    10030    2    1    2    0    0  0.00000000000E+00  0.00000000000E+00  0.19476814575E+03  0.11577203762E+04  0.11412194525E+04 0.  0.
        5    1    3    3  502    0  0.22926886333E+03  0.11398285131E+03  0.61467568857E+03  0.66588632228E+03  0.46999998093E+01 0.  1.
       -5    1    3    3    0  502 -0.22926886333E+03 -0.11398285131E+03 -0.41990754281E+03  0.49183405392E+03  0.46999998093E+01 0. -1.
</event>
<event>
 5   0  0.1186038E-04  0.2119871E+04  0.7818609E-02  0.8552540E-01
        1   -1    0    0  501    0  0.00000000000E+00  0.00000000000E+00  0.74961401117E+03  0.74961401119E+03  0.50400001928E-02 0. -1.
       -1   -1    0    0    0  501  0.00000000000E+00  0.00000000000E+00 -0.14987222931E+04  0.14987222931E+04  0.50400001928E-02 0.  1.
    10030    2    1    2    0    0  0.00000000000E+00  0.00000000000E+00 -0.74910828195E+03  0.22483363043E+04  0.21198709676E+04 0.  0.
        4    1    3    3  502    0 -0.57103810330E+03  0.26842345236E+03 -0.12778259462E+04  0.14251233024E+04  0.12699999809E+01 0.  1.
       -4    1    3    3    0  502  0.57103810330E+03 -0.26842345236E+03  0.52871766426E+03  0.82321300196E+03  0.12699999809E+01 0. -1.
</event>
<event>
 5   0  0.2579241E-04  0.2111332E+04  0.7818609E-02  0.8556268E-01
       -2   -1    0    0    0  501  0.00000000000E+00  0.00000000000E+00  0.48242923433E+03  0.48242923434E+03  0.25500000920E-02 0.  1.
        2   -1    0    0  501    0  0.00000000000E+00  0.00000000000E+00 -0.23100394531E+04  0.23100394531E+04  0.25500000920E-02 0. -1.
    10030    2    1    2    0    0  0.00000000000E+00  0.00000000000E+00 -0.18276102187E+04  0.27924686874E+04  0.21113318684E+04 0.  0.
        5    1    3    3  502    0 -0.66305728293E+03  0.70689839421E+03 -0.36042568585E+03  0.10340595076E+04  0.46999998093E+01 0.  1.
       -5    1    3    3    0  502  0.66305728293E+03 -0.70689839421E+03 -0.14671845329E+04  0.17584091798E+04  0.46999998093E+01 0. -1.
</event>
<event>
 5   0  0.1156733E-04  0.1298872E+04  0.7818609E-02  0.9030460E-01
       -1   -1    0    0    0  501  0.00000000000E+00  0.00000000000E+00  0.25203500113E+03  0.25203500118E+03  0.50400001928E-02 0.  1.
        1   -1    0    0  501    0  0.00000000000E+00  0.00000000000E+00 -0.16734455936E+04  0.16734455936E+04  0.50400001928E-02 0. -1.
    10030    2    1    2    0    0  0.00000000000E+00  0.00000000000E+00 -0.14214105925E+04  0.19254805948E+04  0.12988716059E+04 0.  0.
        2    1    3    3  502    0  0.57923496031E+03 -0.74717047197E+02 -0.28965703889E+03  0.65191792165E+03  0.25500000920E-02 0.  1.
       -2    1    3    3    0  502 -0.57923496031E+03  0.74717047197E+02 -0.11317535536E+04  0.12735626732E+04  0.25500000920E-02 0. -1.
</event>
<event>
 5   0  0.1042395E-04  0.1260498E+04  0.7818609E-02  0.9061491E-01
        1   -1    0    0  501    0  0.00000000000E+00  0.00000000000E+00  0.95214514368E+03  0.95214514369E+03  0.50400001928E-02 0.  1.
       -1   -1    0    0    0  501  0.00000000000E+00  0.00000000000E+00 -0.41717747111E+03  0.41717747114E+03  0.50400001928E-02 0. -1.
    10030    2    1    2    0    0  0.00000000000E+00  0.00000000000E+00  0.53496767257E+03  0.13693226148E+04  0.12604975259E+04 0.  0.
        3    1    3    3  502    0 -0.56313677294E+03 -0.23591808309E+03  0.43728994146E+03  0.75100124505E+03  0.10100000352E+00 0.  1.
       -3    1    3    3    0  502  0.56313677294E+03  0.23591808309E+03  0.97677731114E+02  0.61832136978E+03  0.10100000352E+00 0. -1.
</event>
<event>
 5   0  0.1122711E-04  0.2138770E+04  0.7818609E-02  0.8544355E-01
        1   -1    0    0  501    0  0.00000000000E+00  0.00000000000E+00  0.20261456122E+04  0.20261456122E+04  0.50400001928E-02 0.  1.
       -1   -1    0    0    0  501  0.00000000000E+00  0.00000000000E+00 -0.56441368426E+03  0.56441368428E+03  0.50400001928E-02 0. -1.
    10030    2    1    2    0    0  0.00000000000E+00  0.00000000000E+00  0.14617319280E+04  0.25905592965E+04  0.21387700296E+04 0.  0.
        1    1    3    3  502    0 -0.66174770010E+03 -0.80612806555E+03  0.10170664663E+04  0.14567692589E+04  0.50400001928E-02 0. -1.
       -1    1    3    3    0  502  0.66174770010E+03  0.80612806555E+03  0.44466546167E+03  0.11337900377E+04  0.50400001928E-02 0.  1.
</event>
<event>
 5   0  0.2430898E-04  0.1945112E+04  0.7818609E-02  0.8632721E-01
       -2   -1    0    0    0  501  0.00000000000E+00  0.00000000000E+00  0.13946016239E+04  0.13946016239E+04  0.25500000920E-02 0.  1.
        2   -1    0    0  501    0  0.00000000000E+00  0.00000000000E+00 -0.67823336047E+03  0.67823336048E+03  0.25500000920E-02 0. -1.
    10030    2    1    2    0    0  0.00000000000E+00  0.00000000000E+00  0.71636826338E+03  0.20728349843E+04  0.19451121776E+04 0.  0.
        1    1    3    3  502    0 -0.72186216986E+03  0.61845029710E+03  0.13901059126E+03  0.96067148743E+03  0.50400001928E-02 0. -1.
       -1    1    3    3    0  502  0.72186216986E+03 -0.61845029710E+03  0.57735767212E+03  0.11121634969E+04  0.50400001928E-02 0.  1.
</event>
<event>
 5   0  0.2512839E-04  0.2107889E+04  0.7818609E-02  0.8557776E-01
        2   -1    0    0  501    0  0.00000000000E+00  0.00000000000E+00  0.18091781635E+04  0.18091781635E+04  0.25500000920E-02 0.  1.
       -2   -1    0    0    0  501  0.00000000000E+00  0.00000000000E+00 -0.61397966676E+03  0.61397966676E+03  0.25500000920E-02 0. -1.
    10030    2    1    2    0    0  0.00000000000E+00  0.00000000000E+00  0.11951984967E+04  0.24231578303E+04  0.21078886175E+04 0.  0.
        3    1    3    3  502    0  0.24997318367E+03 -0.58436972418E+03 -0.36887368592E+03  0.73487575376E+03  0.10100000352E+00 0. -1.
       -3    1    3    3    0  502 -0.24997318367E+03  0.58436972418E+03  0.15640721826E+04  0.16882820765E+04  0.10100000352E+00 0.  1.
</event>
<event>
 5   0  0.2579241E-04  0.2053501E+04  0.7818609E-02  0.8582008E-01
        2   -1    0    0  501    0  0.00000000000E+00  0.00000000000E+00  0.60890860328E+03  0.60890860329E+03  0.25500000920E-02 0. -1.
       -2   -1    0    0    0  501  0.00000000000E+00  0.00000000000E+00 -0.17313223633E+04  0.17313223633E+04  0.25500000920E-02 0.  1.
    10030    2    1    2    0    0  0.00000000000E+00  0.00000000000E+00 -0.11224137600E+04  0.23402309666E+04  0.20535014800E+04 0.  0.
        5    1    3    3  502    0  0.41130804148E+02 -0.25493480214E+03  0.57128417795E+03  0.62695390450E+03  0.46999998093E+01 0. -1.
       -5    1    3    3    0  502 -0.41130804148E+02  0.25493480214E+03 -0.16936979380E+04  0.17132770621E+04  0.46999998093E+01 0.  1.
</event>
<event>
 5   0  0.2467483E-04  0.1884530E+04  0.7818609E-02  0.8662595E-01
        2   -1    0    0  501    0  0.00000000000E+00  0.00000000000E+00  0.23726548866E+04  0.23726548866E+04  0.25500000920E-02 0.  1.
       -2   -1    0    0    0  501  0.00000000000E+00  0.00000000000E+00 -0.37420655634E+03  0.37420655635E+03  0.25500000920E-02 0. -1.
    10030    2    1    2    0    0  0.00000000000E+00  0.00000000000E+00  0.19984483302E+04  0.27468614429E+04  0.18845296649E+04 0.  0.
        4    1    3    3  502    0  0.46457697067E+03 -0.31786067827E+02 -0.19476744832E+03  0.50475547309E+03  0.12699999809E+01 0. -1.
       -4    1    3    3    0  502 -0.46457697067E+03  0.31786067827E+02  0.21932157785E+04  0.22421059698E+04  0.12699999809E+01 0.  1.
</event>
<event>
 5   0  0.2430898E-04  0.2056896E+04  0.7818609E-02  0.8580472E-01
       -2   -1    0    0    0  501  0.00000000000E+00  0.00000000000E+00  0.62836986678E+03  0.62836986678E+03  0.25500000920E-02 0.  1.
        2   -1    0    0  501    0  0.00000000000E+00  0.00000000000E+00 -0.16832532240E+04  0.16832532240E+04  0.25500000920E-02 0. -1.
    10030    2    1    2    0    0  0.00000000000E+00  0.00000000000E+00 -0.10548833572E+04  0.23116230908E+04  0.20568963067E+04 0.  0.
        1    1    3    3  502    0  0.41181114920E+03 -0.41486072058E+03  0.42352104031E+03  0.72185033885E+03  0.50400001928E-02 0.  1.
       -1    1    3    3    0  502 -0.41181114920E+03  0.41486072058E+03 -0.14784043975E+04  0.15897727519E+04  0.50400001928E-02 0. -1.
</event>
<event>
 5   0  0.1156733E-04  0.2021699E+04  0.7818609E-02  0.8596542E-01
        1   -1    0    0  501    0  0.00000000000E+00  0.00000000000E+00  0.11480992060E+04  0.11480992060E+04  0.50400001928E-02 0. -1.
       -1   -1    0    0    0  501  0.00000000000E+00  0.00000000000E+00 -0.89000756375E+03  0.89000756377E+03  0.50400001928E-02 0.  1.
    10030    2    1    2    0    0  0.00000000000E+00  0.00000000000E+00  0.25809164225E+03  0.20381067698E+04  0.20216992628E+04 0.  0.
        2    1    3    3  502    0 -0.71918571538E+02  0.46352744484E+03 -0.77364678492E+03  0.90474268214E+03  0.25500000920E-02 0.  1.
       -2    1    3    3    0  502  0.71918571538E+02 -0.46352744484E+03  0.10317384272E+04  0.11333640876E+04  0.25500000920E-02 0. -1.
</event>
<event>
 5   0  0.1042395E-04  0.2047018E+04  0.7818609E-02  0.8584948E-01
       -1   -1    0    0    0  501  0.00000000000E+00  0.00000000000E+00  0.13869479996E+04  0.13869479996E+04  0.50400001928E-02 0.  1.
        1   -1    0    0  501    0  0.00000000000E+00  0.00000000000E+00 -0.75530614697E+03  0.75530614699E+03  0.50400001928E-02 0. -1.
    10030    2    1    2    0    0  0.00000000000E+00  0.00000000000E+00  0.63164185263E+03  0.21422541466E+04  0.20470176840E+04 0.  0.
        3    1    3    3  502    0  0.73729950580E+03  0.44262499256E+03 -0.26501703866E+03  0.89986748262E+03  0.10100000352E+00 0. -1.
       -3    1    3    3    0  502 -0.73729950580E+03 -0.44262499256E+03  0.89665889130E+03  0.12423866640E+04  0.10100000352E+00 0.  1.
</event>
<event>
 5   0  0.2512839E-04  0.2076096E+04  0.7818609E-02  0.8571847E-01
        2   -1    0    0  501    0  0.00000000000E+00  0.00000000000E+00  0.92155069091E+03  0.92155069091E+03  0.25500000920E-02 0.  1.
       -2   -1    0    0    0  501  0.00000000000E+00  0.00000000000E+00 -0.11692723463E+04  0.11692723463E+04  0.25500000920E-02 0. -1.
    10030    2    1    2    0    0  0.00000000000E+00  0.00000000000E+00 -0.24772165535E+03  0.20908230372E+04  0.20760960850E+04 0.  0.
        3    1    3    3  502    0  0.41562965700E+03  0.62142516230E+03  0.60140492851E+03  0.95948170506E+03  0.10100000352E+00 0.  1.
       -3    1    3    3    0  502 -0.41562965700E+03 -0.62142516230E+03 -0.84912658385E+03  0.11313413321E+04  0.10100000352E+00 0. -1.
</event>
<event>
 5   0  0.2512839E-04  0.2117406E+04  0.7818609E-02  0.8553614E-01
        2   -1    0    0  501    0  0.00000000000E+00  0.00000000000E+00  0.99211998402E+03  0.99211998403E+03  0.25500000920E-02 0.  1.
       -2   -1    0    0    0  501  0.00000000000E+00  0.00000000000E+00 -0.11297547012E+04  0.11297547012E+04  0.25500000920E-02 0. -1.
    10030    2    1    2    0    0  0.00000000000E+00  0.00000000000E+00 -0.13763471722E+03  0.21218746853E+04  0.21174061643E+04 0.  0.
        3    1    3    3  502    0  0.83366653564E+03  0.31249017255E+03 -0.64291571822E+03  0.10981760476E+04  0.10100000352E+00 0. -1.
       -3    1    3    3    0  502 -0.83366653564E+03 -0.31249017255E+03  0.50528100101E+03  0.10236986377E+04  0.10100000352E+00 0.  1.
</event>
<event>
 5   0  0.1186038E-04  0.2100283E+04  0.7818609E-02  0.8561119E-01
       -1   -1    0    0    0  501  0.00000000000E+00  0.00000000000E+00  0.56490148214E+03  0.56490148216E+03  0.50400001928E-02 0.  1.
        1   -1    0    0  501    0  0.00000000000E+00  0.00000000000E+00 -0.19521945521E+04  0.19521945521E+04  0.50400001928E-02 0. -1.
    10030    2    1    2    0    0  0.00000000000E+00  0.00000000000E+00 -0.13872930699E+04  0.25170960342E+04  0.21002834056E+04 0.  0.
        4    1    3    3  502    0 -0.82880716106E+02  0.57400742006E+03  0.35556148944E+03  0.68027885243E+03  0.12699999809E+01 0.  1.
       -4    1    3    3    0  502  0.82880716106E+02 -0.57400742006E+03 -0.17428545594E+04  0.18368171818E+04  0.12699999809E+01 0. -1.
</event>
<event>
 5   0  0.1122711E-04  0.2083537E+04  0.7818609E-02  0.8568530E-01
       -1   -1    0    0    0  501  0.00000000000E+00  0.00000000000E+00  0.73756095927E+03  0.73756095929E+03  0.50400001928E-02 0.  1.
        1   -1    0    0  501    0  0.00000000000E+00  0.00000000000E+00 -0.14714469683E+04  0.14714469683E+04  0.50400001928E-02 0. -1.
    10030    2    1    2    0    0  0.00000000000E+00  0.00000000000E+00 -0.73388600901E+03  0.22090079276E+04  0.20835372207E+04 0.  0.
        1    1    3    3  502    0 -0.48390745974E+03 -0.46719029695E+03  0.47648095663E+03  0.82429806819E+03  0.50400001928E-02 0.  1.
       -1    1    3    3    0  502  0.48390745974E+03  0.46719029695E+03 -0.12103669656E+04  0.13847098594E+04  0.50400001928E-02 0. -1.
</event>
<event>
 5   0  0.2579241E-04  0.2027087E+04  0.7818609E-02  0.8594060E-01
        2   -1    0    0  501    0  0.00000000000E+00  0.00000000000E+00  0.79563439339E+03  0.79563439339E+03  0.25500000920E-02 0.  1.
       -2   -1    0    0    0  501  0.00000000000E+00  0.00000000000E+00 -0.12911336433E+04  0.12911336433E+04  0.25500000920E-02 0. -1.
    10030    2    1    2    0    0  0.00000000000E+00  0.00000000000E+00 -0.49549924996E+03  0.20867680367E+04  0.20270869080E+04 0.  0.
        5    1    3    3  502    0 -0.51696833377E+03  0.14839683357E+02 -0.11450614341E+04  0.12564490647E+04  0.46999998093E+01 0. -1.
       -5    1    3    3    0  502  0.51696833377E+03 -0.14839683357E+02  0.64956218412E+03  0.83031897206E+03  0.46999998093E+01 0.  1.
</event>
<event>
 5   0  0.1122711E-04  0.2032612E+04  0.7818609E-02  0.8591523E-01
       -1   -1    0    0    0  501  0.00000000000E+00  0.00000000000E+00  0.67410947506E+03  0.67410947508E+03  0.50400001928E-02 0. -1.
        1   -1    0    0  501    0  0.00000000000E+00  0.00000000000E+00 -0.15322116113E+04  0.15322116113E+04  0.50400001928E-02 0.  1.
    10030    2    1    2    0    0  0.00000000000E+00  0.00000000000E+00 -0.85810213626E+03  0.22063210864E+04  0.20326124717E+04 0.  0.
        1    1    3    3  502    0 -0.84103275494E+03 -0.29669164693E+03  0.99955266926E+02  0.89741466651E+03  0.50400001928E-02 0. -1.
       -1    1    3    3    0  502  0.84103275494E+03  0.29669164693E+03 -0.95805740319E+03  0.13089064199E+04  0.50400001928E-02 0.  1.
</event>
<event>
 5   0  0.1122711E-04  0.2065930E+04  0.7818609E-02  0.8576402E-01
       -1   -1    0    0    0  501  0.00000000000E+00  0.00000000000E+00  0.91560215736E+03  0.91560215738E+03  0.50400001928E-02 0.  1.
        1   -1    0    0  501    0  0.00000000000E+00  0.00000000000E+00 -0.11653709948E+04  0.11653709948E+04  0.50400001928E-02 0. -1.
    10030    2    1    2    0    0  0.00000000000E+00  0.00000000000E+00 -0.24976883744E+03  0.20809731522E+04  0.20659295215E+04 0.  0.
        1    1    3    3  502    0  0.96289195524E+03  0.48495344946E+02 -0.49839922489E+03  0.10853176970E+04  0.50400001928E-02 0. -1.
       -1    1    3    3    0  502 -0.96289195524E+03 -0.48495344946E+02  0.24863038745E+03  0.99565545523E+03  0.50400001928E-02 0.  1.
</event>
<event>
 5   0  0.2467483E-04  0.2116257E+04  0.7818609E-02  0.8554116E-01
        2   -1    0    0  501    0  0.00000000000E+00  0.00000000000E+00  0.14129433623E+04  0.14129433623E+04  0.25500000920E-02 0.  1.
       -2   -1    0    0    0  501  0.00000000000E+00  0.00000000000E+00 -0.79241379517E+03  0.79241379517E+03  0.25500000920E-02 0. -1.
    10030    2    1    2    0    0  0.00000000000E+00  0.00000000000E+00  0.62052956711E+03  0.22053571574E+04  0.21162568956E+04 0.  0.
        4    1    3    3  502    0 -0.68316778242E+03  0.39724965299E+03 -0.42299999251E+03  0.89635713436E+03  0.12699999809E+01 0. -1.
       -4    1    3    3    0  502  0.68316778242E+03 -0.39724965299E+03  0.10435295596E+04  0.13090000231E+04  0.12699999809E+01 0.  1.
</event>
<event>
 5   0  0.1042395E-04  0.1056303E+04  0.7818609E-02  0.9248861E-01
       -1   -1    0    0    0  501  0.00000000000E+00  0.00000000000E+00  0.16114128741E+03  0.16114128749E+03  0.50400001928E-02 0.  1.
        1   -1    0    0  501    0  0.00000000000E+00  0.00000000000E+00 -0.17310511954E+04  0.17310511955E+04  0.50400001928E-02 0. -1.
    10030    2    1    2    0    0  0.00000000000E+00  0.00000000000E+00 -0.15699099080E+04  0.18921924829E+04  0.10563026428E+04 0.  0.
        3    1    3    3  502    0 -0.66568743424E+02 -0.52178534592E+03 -0.69993794813E+03  0.87555952753E+03  0.10100000352E+00 0.  1.
       -3    1    3    3    0  502  0.66568743424E+02  0.52178534592E+03 -0.86997195991E+03  0.10166329554E+04  0.10100000352E+00 0. -1.
</event>
<event>
 5   0  0.1042395E-04  0.2086768E+04  0.7818609E-02  0.8567095E-01
        1   -1    0    0  501    0  0.00000000000E+00  0.00000000000E+00  0.11978350567E+04  0.11978350567E+04  0.50400001928E-02 0.  1.
       -1   -1    0    0    0  501  0.00000000000E+00  0.00000000000E+00 -0.90884814695E+03  0.90884814697E+03  0.50400001928E-02 0. -1.
    10030    2    1    2    0    0  0.00000000000E+00  0.00000000000E+00  0.28898690970E+03  0.21066832036E+04  0.20867680002E+04 0.  0.
        3    1    3    3  502    0 -0.46186242745E+03 -0.87943522787E+03  0.46680032022E+03  0.10975544502E+04  0.10100000352E+00 0. -1.
       -3    1    3    3    0  502  0.46186242745E+03  0.87943522787E+03 -0.17781341052E+03  0.10091287535E+04  0.10100000352E+00 0.  1.
</event>
<event>
 5   0  0.1122711E-04  0.2082310E+04  0.7818609E-02  0.8569076E-01
        1   -1    0    0  501    0  0.00000000000E+00  0.00000000000E+00  0.63514025444E+03  0.63514025446E+03  0.50400001928E-02 0.  1.
       -1   -1    0    0    0  501  0.00000000000E+00  0.00000000000E+00 -0.17067161540E+04  0.17067161540E+04  0.50400001928E-02 0. -1.
    10030    2    1    2    0    0  0.00000000000E+00  0.00000000000E+00 -0.10715758995E+04  0.23418564085E+04  0.20823103826E+04 0.  0.
        1    1    3    3  502    0 -0.25571279061E+03 -0.85944126772E+03  0.59291635600E+02  0.89863442068E+03  0.50400001928E-02 0.  1.
       -1    1    3    3    0  502  0.25571279061E+03  0.85944126772E+03 -0.11308675351E+04  0.14432219878E+04  0.50400001928E-02 0. -1.
</event>
<event>
 5   0  0.1130848E-04  0.2107115E+04  0.7818609E-02  0.8558116E-01
        1   -1    0    0  501    0  0.00000000000E+00  0.00000000000E+00  0.47593755735E+03  0.47593755738E+03  0.50400001928E-02 0.  1.
       -1   -1    0    0    0  501  0.00000000000E+00  0.00000000000E+00 -0.23322033525E+04  0.23322033525E+04  0.50400001928E-02 0. -1.
    10030    2    1    2    0    0  0.00000000000E+00  0.00000000000E+00 -0.18562657952E+04  0.28081409099E+04  0.21071147732E+04 0.  0.
        5    1    3    3  502    0 -0.11296822844E+03 -0.37683678714E+03 -0.22306287123E+04  0.22650594533E+04  0.46999998093E+01 0. -1.
       -5    1    3    3    0  502  0.11296822844E+03  0.37683678714E+03  0.37436291714E+03  0.54308145661E+03  0.46999998093E+01 0.  1.
</event>
<event>
 5   0  0.1130848E-04  0.2076767E+04  0.7818609E-02  0.8571547E-01
       -1   -1    0    0    0  501  0.00000000000E+00  0.00000000000E+00  0.56629693562E+03  0.56629693564E+03  0.50400001928E-02 0. -1.
        1   -1    0    0  501    0  0.00000000000E+00  0.00000000000E+00 -0.19040199596E+04  0.19040199596E+04  0.50400001928E-02 0.  1.
    10030    2    1    2    0    0  0.00000000000E+00  0.00000000000E+00 -0.13377230240E+04  0.24703168953E+04  0.20767673616E+04 0.  0.
        5    1    3    3  502    0  0.69939930164E+03 -0.61802307369E+03 -0.12753179636E+03  0.94201823328E+03  0.46999998093E+01 0. -1.
       -5    1    3    3    0  502 -0.69939930164E+03  0.61802307369E+03 -0.12101912276E+04  0.15282986620E+04  0.46999998093E+01 0.  1.
</event>
<event>
 5   0  0.1156733E-04  0.1224459E+04  0.7818609E-02  0.9091713E-01
       -1   -1    0    0    0  501  0.00000000000E+00  0.00000000000E+00  0.36519287858E+03  0.36519287861E+03  0.50400001928E-02 0.  1.
        1   -1    0    0  501    0  0.00000000000E+00  0.00000000000E+00 -0.10263753644E+04  0.10263753644E+04  0.50400001928E-02 0. -1.
    10030    2    1    2    0    0  0.00000000000E+00  0.00000000000E+00 -0.66118248586E+03  0.13915682431E+04  0.12244590216E+04 0.  0.
        2    1    3    3  502    0  0.52964463842E+03 -0.29424547820E+03 -0.43045333721E+03  0.74323207679E+03  0.25500000920E-02 0.  1.
       -2    1    3    3    0  502 -0.52964463842E+03  0.29424547820E+03 -0.23072914865E+03  0.64833616627E+03  0.25500000920E-02 0. -1.
</event>
<event>
 5   0  0.1156733E-04  0.2075624E+04  0.7818609E-02  0.8572058E-01
       -1   -1    0    0    0  501  0.00000000000E+00  0.00000000000E+00  0.13193461627E+04  0.13193461628E+04  0.50400001928E-02 0.  1.
        1   -1    0    0  501    0  0.00000000000E+00  0.00000000000E+00 -0.81635437416E+03  0.81635437417E+03  0.50400001928E-02 0. -1.
    10030    2    1    2    0    0  0.00000000000E+00  0.00000000000E+00  0.50299178859E+03  0.21357005369E+04  0.20756242541E+04 0.  0.
        2    1    3    3  502    0  0.27206671526E+02  0.63682647812E+03  0.10942038426E+04  0.12663215292E+04  0.25500000920E-02 0.  1.
       -2    1    3    3    0  502 -0.27206671526E+02 -0.63682647812E+03 -0.59121205402E+03  0.86937900770E+03  0.25500000920E-02 0. -1.
</event>
<event>
 5   0  0.1156733E-04  0.2074886E+04  0.7818609E-02  0.8572388E-01
       -1   -1    0    0    0  501  0.00000000000E+00  0.00000000000E+00  0.11390285130E+04  0.11390285130E+04  0.50400001928E-02 0.  1.
        1   -1    0    0  501    0  0.00000000000E+00  0.00000000000E+00 -0.94491739692E+03  0.94491739693E+03  0.50400001928E-02 0. -1.
    10030    2    1    2    0    0  0.00000000000E+00  0.00000000000E+00  0.19411111606E+03  0.20839459099E+04  0.20748858836E+04 0.  0.
        2    1    3    3  502    0  0.44081143483E+03  0.19367521853E+03 -0.82590374393E+03  0.95600303639E+03  0.25500000920E-02 0. -1.
       -2    1    3    3    0  502 -0.44081143483E+03 -0.19367521853E+03  0.10200148600E+04  0.11279428735E+04  0.25500000920E-02 0.  1.
</event>
<event>
 5   0  0.2579241E-04  0.1975147E+04  0.7818609E-02  0.8618329E-01
       -2   -1    0    0    0  501  0.00000000000E+00  0.00000000000E+00  0.66667584960E+03  0.66667584960E+03  0.25500000920E-02 0.  1.
        2   -1    0    0  501    0  0.00000000000E+00  0.00000000000E+00 -0.14629319601E+04  0.14629319601E+04  0.25500000920E-02 0. -1.
    10030    2    1    2    0    0  0.00000000000E+00  0.00000000000E+00 -0.79625611052E+03  0.21296078097E+04  0.19751469894E+04 0.  0.
        5    1    3    3  502    0 -0.94461402721E+03  0.10102632622E+02 -0.87722663266E+02  0.94874394819E+03  0.46999998093E+01 0.  1.
       -5    1    3    3    0  502  0.94461402721E+03 -0.10102632622E+02 -0.70853344725E+03  0.11808638615E+04  0.46999998093E+01 0. -1.
</event>
<event>
 5   0  0.1122711E-04  0.2021562E+04  0.7818609E-02  0.8596606E-01
       -1   -1    0    0    0  501  0.00000000000E+00  0.00000000000E+00  0.64074338609E+03  0.64074338611E+03  0.50400001928E-02 0. -1.
        1   -1    0    0  501    0  0.00000000000E+00  0.00000000000E+00 -0.15945198684E+04  0.15945198684E+04  0.50400001928E-02 0.  1.
    10030    2    1    2    0    0  0.00000000000E+00  0.00000000000E+00 -0.95377648229E+03  0.22352632545E+04  0.20215618315E+04 0.  0.
        1    1    3    3  502    0  0.98532942928E+03 -0.21874300994E+03 -0.53699938682E+03  0.11432807748E+04  0.50400001928E-02 0.  1.
       -1    1    3    3    0  502 -0.98532942928E+03  0.21874300994E+03 -0.41677709546E+03  0.10919824797E+04  0.50400001928E-02 0. -1.
</event>
<event>
 5   0  0.8698750E-05  0.2056648E+04  0.7818609E-02  0.8580584E-01
       -3   -1    0    0    0  501  0.00000000000E+00  0.00000000000E+00  0.79940612111E+03  0.79940612749E+03  0.10100000352E+00 0.  1.
        3   -1    0    0  501    0  0.00000000000E+00  0.00000000000E+00 -0.13227948619E+04  0.13227948658E+04  0.10100000352E+00 0. -1.
    10030    2    1    2    0    0  0.00000000000E+00  0.00000000000E+00 -0.52338874080E+03  0.21222009933E+04  0.20566480695E+04 0.  0.
        4    1    3    3  502    0 -0.75199560031E+03  0.25007624689E+03 -0.93787733328E+03  0.12278644132E+04  0.12699999809E+01 0. -1.
       -4    1    3    3    0  502  0.75199560031E+03 -0.25007624689E+03  0.41448859248E+03  0.89433658001E+03  0.12699999809E+01 0.  1.
</event>
<event>
 5   0  0.2512839E-04  0.2100721E+04  0.7818609E-02  0.8560926E-01
        2   -1    0    0  501    0  0.00000000000E+00  0.00000000000E+00  0.16698772171E+04  0.16698772171E+04  0.25500000920E-02 0. -1.
       -2   -1    0    0    0  501  0.00000000000E+00  0.00000000000E+00 -0.66068171189E+03  0.66068171190E+03  0.25500000920E-02 0.  1.
    10030    2    1    2    0    0  0.00000000000E+00  0.00000000000E+00  0.10091955052E+04  0.23305589290E+04  0.21007211509E+04 0.  0.
        3    1    3    3  502    0 -0.19642227197E+03 -0.61678203681E+03  0.14222979840E+04  0.15626686646E+04  0.10100000352E+00 0. -1.
       -3    1    3    3    0  502  0.19642227197E+03  0.61678203681E+03 -0.41310247884E+03  0.76789026435E+03  0.10100000352E+00 0.  1.
</event>
<event>
 5   0  0.1186038E-04  0.2119740E+04  0.7818609E-02  0.8552597E-01
        1   -1    0    0  501    0  0.00000000000E+00  0.00000000000E+00  0.18614924691E+04  0.18614924691E+04  0.50400001928E-02 0. -1.
       -1   -1    0    0    0  501  0.00000000000E+00  0.00000000000E+00 -0.60345345135E+03  0.60345345137E+03  0.50400001928E-02 0.  1.
    10030    2    1    2    0    0  0.00000000000E+00  0.00000000000E+00  0.12580390178E+04  0.24649459205E+04  0.21197396587E+04 0.  0.
        4    1    3    3  502    0 -0.76494891877E+03 -0.25232006281E+03  0.14300473985E+04  0.16412950488E+04  0.12699999809E+01 0. -1.
       -4    1    3    3    0  502  0.76494891877E+03  0.25232006281E+03 -0.17200838075E+03  0.82365087165E+03  0.12699999809E+01 0.  1.
</event>
<event>
 5   0  0.2467483E-04  0.2114931E+04  0.7818609E-02  0.8554694E-01
       -2   -1    0    0    0  501  0.00000000000E+00  0.00000000000E+00  0.96263320315E+03  0.96263320315E+03  0.25500000920E-02 0. -1.
        2   -1    0    0  501    0  0.00000000000E+00  0.00000000000E+00 -0.11616405330E+04  0.11616405330E+04  0.25500000920E-02 0.  1.
    10030    2    1    2    0    0  0.00000000000E+00  0.00000000000E+00 -0.19900732981E+03  0.21242737361E+04  0.21149314383E+04 0.  0.
        4    1    3    3  502    0  0.68244243463E+03 -0.37865250685E+03  0.61717939445E+03  0.99499618862E+03  0.12699999809E+01 0.  1.
       -4    1    3    3    0  502 -0.68244243463E+03  0.37865250685E+03 -0.81618672426E+03  0.11292775475E+04  0.12699999809E+01 0. -1.
</event>
<event>
 5   0  0.2430898E-04  0.1384247E+04  0.7818609E-02  0.8965301E-01
       -2   -1    0    0    0  501  0.00000000000E+00  0.00000000000E+00  0.28849164283E+03  0.28849164284E+03  0.25500000920E-02 0.  1.
        2   -1    0    0  501    0  0.00000000000E+00  0.00000000000E+00 -0.16604818218E+04  0.16604818218E+04  0.25500000920E-02 0. -1.
    10030    2    1    2    0    0  0.00000000000E+00  0.00000000000E+00 -0.13719901790E+04  0.19489734646E+04  0.13842472737E+04 0.  0.
        1    1    3    3  502    0  0.81019459364E+02 -0.33038082173E+03  0.16267050600E+03  0.37706409761E+03  0.50400001928E-02 0.  1.
       -1    1    3    3    0  502 -0.81019459364E+02  0.33038082173E+03 -0.15346606850E+04  0.15719093670E+04  0.50400001928E-02 0. -1.
</event>
<event>
 5   0  0.1042395E-04  0.2068161E+04  0.7818609E-02  0.8575400E-01
        1   -1    0    0  501    0  0.00000000000E+00  0.00000000000E+00  0.86108211072E+03  0.86108211073E+03  0.50400001928E-02 0.  1.
       -1   -1    0    0    0  501  0.00000000000E+00  0.00000000000E+00 -0.12418356802E+04  0.12418356802E+04  0.50400001928E-02 0. -1.
    10030    2    1    2    0    0  0.00000000000E+00  0.00000000000E+00 -0.38075356947E+03  0.21029177909E+04  0.20681610079E+04 0.  0.
        3    1    3    3  502    0 -0.44620524154E+03 -0.56553646751E+03  0.56397505241E+03  0.91487621217E+03  0.10100000352E+00 0.  1.
       -3    1    3    3    0  502  0.44620524154E+03  0.56553646751E+03 -0.94472862187E+03  0.11880415788E+04  0.10100000352E+00 0. -1.
</event>
<event>
 5   0  0.2512839E-04  0.1730589E+04  0.7818609E-02  0.8744108E-01
        2   -1    0    0  501    0  0.00000000000E+00  0.00000000000E+00  0.47527045959E+03  0.47527045960E+03  0.25500000920E-02 0. -1.
       -2   -1    0    0    0  501  0.00000000000E+00  0.00000000000E+00 -0.15753858822E+04  0.15753858822E+04  0.25500000920E-02 0.  1.
    10030    2    1    2    0    0  0.00000000000E+00  0.00000000000E+00 -0.11001154226E+04  0.20506563418E+04  0.17305887695E+04 0.  0.
        3    1    3    3  502    0  0.37680886305E+03  0.40818332346E+03 -0.13361840736E+04  0.14470613096E+04  0.10100000352E+00 0.  1.
       -3    1    3    3    0  502 -0.37680886305E+03 -0.40818332346E+03  0.23606865098E+03  0.60359503228E+03  0.10100000352E+00 0. -1.
</event>
<event>
 5   0  0.1186038E-04  0.2054836E+04  0.7818609E-02  0.8581404E-01
        1   -1    0    0  501    0  0.00000000000E+00  0.00000000000E+00  0.10910983630E+04  0.10910983630E+04  0.50400001928E-02 0. -1.
       -1   -1    0    0    0  501  0.00000000000E+00  0.00000000000E+00 -0.96745396648E+03  0.96745396649E+03  0.50400001928E-02 0.  1.
    10030    2    1    2    0    0  0.00000000000E+00  0.00000000000E+00  0.12364439655E+03  0.20585523295E+04  0.20548357006E+04 0.  0.
        4    1    3    3  502    0 -0.56815776463E+03 -0.48752883175E+03 -0.64308263919E+03  0.98693692860E+03  0.12699999809E+01 0.  1.
       -4    1    3    3    0  502  0.56815776463E+03  0.48752883175E+03  0.76672703574E+03  0.10716154009E+04  0.12699999809E+01 0. -1.
</event>
<event>
 5   0  0.2448804E-04  0.2034762E+04  0.7818609E-02  0.8590538E-01
        2   -1    0    0  501    0  0.00000000000E+00  0.00000000000E+00  0.10838335873E+04  0.10838335873E+04  0.25500000920E-02 0.  1.
       -2   -1    0    0    0  501  0.00000000000E+00  0.00000000000E+00 -0.95500320061E+03  0.95500320062E+03  0.25500000920E-02 0. -1.
    10030    2    1    2    0    0  0.00000000000E+00  0.00000000000E+00  0.12883038672E+03  0.20388367880E+04  0.20347624381E+04 0.  0.
        2    1    3    3  502    0 -0.77567861207E+03  0.39502817332E+03  0.59210048319E+03  0.10527618673E+04  0.25500000920E-02 0.  1.
       -2    1    3    3    0  502  0.77567861207E+03 -0.39502817332E+03 -0.46327009647E+03  0.98607492070E+03  0.25500000920E-02 0. -1.
</event>
<event>
 5   0  0.1186038E-04  0.2054582E+04  0.7818609E-02  0.8581519E-01
       -1   -1    0    0    0  501  0.00000000000E+00  0.00000000000E+00  0.75867822559E+03  0.75867822560E+03  0.50400001928E-02 0. -1.
        1   -1    0    0  501    0  0.00000000000E+00  0.00000000000E+00 -0.13910066900E+04  0.13910066900E+04  0.50400001928E-02 0.  1.
    10030    2    1    2    0    0  0.00000000000E+00  0.00000000000E+00 -0.63232846439E+03  0.21496849156E+04  0.20545816970E+04 0.  0.
        4    1    3    3  502    0  0.20574968678E+03  0.52560375115E+03 -0.12142262914E+04  0.13390068471E+04  0.12699999809E+01 0.  1.
       -4    1    3    3    0  502 -0.20574968678E+03 -0.52560375115E+03  0.58189782701E+03  0.81067806854E+03  0.12699999809E+01 0. -1.
</event>
<event>
 5   0  0.1122711E-04  0.1977120E+04  0.7818609E-02  0.8617393E-01
       -1   -1    0    0    0  501  0.00000000000E+00  0.00000000000E+00  0.68108427058E+03  0.68108427060E+03  0.50400001928E-02 0.  1.
        1   -1    0    0  501    0  0.00000000000E+00  0.00000000000E+00 -0.14348461011E+04  0.14348461011E+04  0.50400001928E-02 0. -1.
    10030    2    1    2    0    0  0.00000000000E+00  0.00000000000E+00 -0.75376183055E+03  0.21159303717E+04  0.19771202394E+04 0.  0.
        1    1    3    3  502    0 -0.30950709398E+03  0.85294327525E+03 -0.79678491347E+03  0.12075483719E+04  0.50400001928E-02 0. -1.
       -1    1    3    3    0  502  0.30950709398E+03 -0.85294327525E+03  0.43023082916E+02  0.90838199988E+03  0.50400001928E-02 0.  1.
</event>
<event>
 5   0  0.1156733E-04  0.2124670E+04  0.7818609E-02  0.8550453E-01
       -1   -1    0    0    0  501  0.00000000000E+00  0.00000000000E+00  0.15145949756E+04  0.15145949756E+04  0.50400001928E-02 0. -1.
        1   -1    0    0  501    0  0.00000000000E+00  0.00000000000E+00 -0.74512010301E+03  0.74512010302E+03  0.50400001928E-02 0.  1.
    10030    2    1    2    0    0  0.00000000000E+00  0.00000000000E+00  0.76947487256E+03  0.22597150786E+04  0.21246695406E+04 0.  0.
        2    1    3    3  502    0 -0.35708933644E+03 -0.55947588959E+03 -0.49745980401E+03  0.82945302571E+03  0.25500000920E-02 0.  1.
       -2    1    3    3    0  502  0.35708933644E+03  0.55947588959E+03  0.12669346766E+04  0.14302620529E+04  0.25500000920E-02 0. -1.
</event>
<event>
 5   0  0.2448804E-04  0.2292763E+04  0.7818609E-02  0.8480780E-01
        2   -1    0    0  501    0  0.00000000000E+00  0.00000000000E+00  0.28390109131E+04  0.28390109131E+04  0.25500000920E-02 0. -1.
       -2   -1    0    0    0  501  0.00000000000E+00  0.00000000000E+00 -0.46290449245E+03  0.46290449246E+03  0.25500000920E-02 0.  1.
    10030    2    1    2    0    0  0.00000000000E+00  0.00000000000E+00  0.23761064206E+04  0.33019154056E+04  0.22927633160E+04 0.  0.
        2    1    3    3  502    0 -0.65279720623E+01 -0.46567223560E+02 -0.46151504304E+03  0.46390436050E+03  0.25500000920E-02 0.  1.
       -2    1    3    3    0  502  0.65279720623E+01  0.46567223560E+02  0.28376214637E+04  0.28380110451E+04  0.25500000920E-02 0. -1.
</event>
<event>
 5   0  0.2430898E-04  0.2230798E+04  0.7818609E-02  0.8505717E-01
        2   -1    0    0  501    0  0.00000000000E+00  0.00000000000E+00  0.18691573434E+04  0.18691573434E+04  0.25500000920E-02 0. -1.
       -2   -1    0    0    0  501  0.00000000000E+00  0.00000000000E+00 -0.66560224959E+03  0.66560224960E+03  0.25500000920E-02 0.  1.
    10030    2    1    2    0    0  0.00000000000E+00  0.00000000000E+00  0.12035550938E+04  0.25347595930E+04  0.22307983617E+04 0.  0.
        1    1    3    3  502    0  0.48548152024E+03 -0.65302562523E+03 -0.26504599375E+03  0.85579445694E+03  0.50400001928E-02 0.  1.
       -1    1    3    3    0  502 -0.48548152024E+03  0.65302562523E+03  0.14686010876E+04  0.16789651361E+04  0.50400001928E-02 0. -1.
</event>
<event>
 5   0  0.8698750E-05  0.2036232E+04  0.7818609E-02  0.8589866E-01
        4   -1    0    0  501    0  0.00000000000E+00  0.00000000000E+00  0.90308667604E+03  0.90308756904E+03  0.12699999809E+01 0.  1.
       -4   -1    0    0    0  501  0.00000000000E+00  0.00000000000E+00 -0.11477949985E+04  0.11477957011E+04  0.12699999809E+01 0. -1.
    10030    2    1    2    0    0  0.00000000000E+00  0.00000000000E+00 -0.24470832241E+03  0.20508832701E+04  0.20362318199E+04 0.  0.
        5    1    3    3  502    0  0.14705039207E+03  0.93807673864E+03  0.24761178906E+03  0.98129785156E+03  0.46999998093E+01 0.  1.
       -5    1    3    3    0  502 -0.14705039207E+03 -0.93807673864E+03 -0.49232011147E+03  0.10695854185E+04  0.46999998093E+01 0. -1.
</event>
<event>
 5   0  0.2430898E-04  0.2096746E+04  0.7818609E-02  0.8562678E-01
        2   -1    0    0  501    0  0.00000000000E+00  0.00000000000E+00  0.18407463032E+04  0.18407463032E+04  0.25500000920E-02 0.  1.
       -2   -1    0    0    0  501  0.00000000000E+00  0.00000000000E+00 -0.59708737203E+03  0.59708737203E+03  0.25500000920E-02 0. -1.
    10030    2    1    2    0    0  0.00000000000E+00  0.00000000000E+00  0.12436589312E+04  0.24378336752E+04  0.20967464060E+04 0.  0.
        1    1    3    3  502    0  0.73340900458E+03 -0.68027637981E+03  0.98658634317E+03  0.14049972717E+04  0.50400001928E-02 0.  1.
       -1    1    3    3    0  502 -0.73340900458E+03  0.68027637981E+03  0.25707258800E+03  0.10328364035E+04  0.50400001928E-02 0. -1.
</event>
<event>
 5   0  0.1122711E-04  0.2102028E+04  0.7818609E-02  0.8560350E-01
        1   -1    0    0  501    0  0.00000000000E+00  0.00000000000E+00  0.22004720019E+04  0.22004720019E+04  0.50400001928E-02 0. -1.
       -1   -1    0    0    0  501  0.00000000000E+00  0.00000000000E+00 -0.50199723851E+03  0.50199723854E+03  0.50400001928E-02 0.  1.
    10030    2    1    2    0    0  0.00000000000E+00  0.00000000000E+00  0.16984747634E+04  0.27024692405E+04  0.21020284189E+04 0.  0.
        1    1    3    3  502    0 -0.14121556480E+03  0.61490564283E+01 -0.48972147140E+03  0.50971243482E+03  0.50400001928E-02 0.  1.
       -1    1    3    3    0  502  0.14121556480E+03 -0.61490564283E+01  0.21881962348E+04  0.21927568056E+04  0.50400001928E-02 0. -1.
</event>
<event>
 5   0  0.2579241E-04  0.2184840E+04  0.7818609E-02  0.8524765E-01
        2   -1    0    0  501    0  0.00000000000E+00  0.00000000000E+00  0.18528769734E+04  0.18528769734E+04  0.25500000920E-02 0.  1.
       -2   -1    0    0    0  501  0.00000000000E+00  0.00000000000E+00 -0.64406929717E+03  0.64406929718E+03  0.25500000920E-02 0. -1.
    10030    2    1    2    0    0  0.00000000000E+00  0.00000000000E+00  0.12088076762E+04  0.24969462706E+04  0.21848397379E+04 0.  0.
        5    1    3    3  502    0 -0.20098467504E+03 -0.10495355853E+04  0.34520257237E+03  0.11229900669E+04  0.46999998093E+01 0. -1.
       -5    1    3    3    0  502  0.20098467504E+03  0.10495355853E+04  0.86360510388E+03  0.13739562037E+04  0.46999998093E+01 0.  1.
</event>
<event>
 5   0  0.8698750E-05  0.1622194E+04  0.7818609E-02  0.8807029E-01
       -3   -1    0    0    0  501  0.00000000000E+00  0.00000000000E+00  0.65679096096E+03  0.65679096873E+03  0.10100000352E+00 0. -1.
        3   -1    0    0  501    0  0.00000000000E+00  0.00000000000E+00 -0.10016549926E+04  0.10016549977E+04  0.10100000352E+00 0.  1.
    10030    2    1    2    0    0  0.00000000000E+00  0.00000000000E+00 -0.34486403160E+03  0.16584459664E+04  0.16221935221E+04 0.  0.
        5    1    3    3  502    0  0.77660457467E+03 -0.21315105954E+03 -0.73798890103E+02  0.80871280796E+03  0.46999998093E+01 0. -1.
       -5    1    3    3    0  502 -0.77660457467E+03  0.21315105954E+03 -0.27106514150E+03  0.84973315842E+03  0.46999998093E+01 0.  1.
</event>
<event>
 5   0  0.2467483E-04  0.1976782E+04  0.7818609E-02  0.8617554E-01
        2   -1    0    0  501    0  0.00000000000E+00  0.00000000000E+00  0.12431612690E+04  0.12431612690E+04  0.25500000920E-02 0. -1.
       -2   -1    0    0    0  501  0.00000000000E+00  0.00000000000E+00 -0.78583235740E+03  0.78583235741E+03  0.25500000920E-02 0.  1.
    10030    2    1    2    0    0  0.00000000000E+00  0.00000000000E+00  0.45732891164E+03  0.20289936265E+04  0.19767815769E+04 0.  0.
        4    1    3    3  502    0 -0.83255178503E+03 -0.24233014927E+02 -0.31754239010E+03  0.89138347314E+03  0.12699999809E+01 0.  1.
       -4    1    3    3    0  502  0.83255178503E+03  0.24233014927E+02  0.77487130174E+03  0.11376101533E+04  0.12699999809E+01 0. -1.
</event>
<event>
 5   0  0.2467483E-04  0.2088379E+04  0.7818609E-02  0.8566380E-01
       -2   -1    0    0    0  501  0.00000000000E+00  0.00000000000E+00  0.91545937148E+03  0.91545937148E+03  0.25500000920E-02 0.  1.
        2   -1    0    0  501    0  0.00000000000E+00  0.00000000000E+00 -0.11910212132E+04  0.11910212132E+04  0.25500000920E-02 0. -1.
    10030    2    1    2    0    0  0.00000000000E+00  0.00000000000E+00 -0.27556184170E+03  0.21064805847E+04  0.20883788270E+04 0.  0.
        4    1    3    3  502    0 -0.69410663652E+03 -0.39522443357E+03  0.54061367029E+03  0.96449527171E+03  0.12699999809E+01 0.  1.
       -4    1    3    3    0  502  0.69410663652E+03  0.39522443357E+03 -0.81617551199E+03  0.11419853130E+04  0.12699999809E+01 0. -1.
</event>
<event>
 5   0  0.1156733E-04  0.2069066E+04  0.7818609E-02  0.8574994E-01
        1   -1    0    0  501    0  0.00000000000E+00  0.00000000000E+00  0.13726469995E+04  0.13726469995E+04  0.50400001928E-02 0. -1.
       -1   -1    0    0    0  501  0.00000000000E+00  0.00000000000E+00 -0.77970405146E+03  0.77970405147E+03  0.50400001928E-02 0.  1.
    10030    2    1    2    0    0  0.00000000000E+00  0.00000000000E+00  0.59294294802E+03  0.21523510510E+04  0.20690659020E+04 0.  0.
        2    1    3    3  502    0 -0.41833820393E+03 -0.68095089295E+03  0.97984491296E+03  0.12644354570E+04  0.25500000920E-02 0. -1.
       -2    1    3    3    0  502  0.41833820393E+03  0.68095089295E+03 -0.38690196495E+03  0.88791559394E+03  0.25500000920E-02 0.  1.
</event>
<event>
 5   0  0.1042395E-04  0.1911684E+04  0.7818609E-02  0.8649062E-01
        1   -1    0    0  501    0  0.00000000000E+00  0.00000000000E+00  0.61645987114E+03  0.61645987117E+03  0.50400001928E-02 0.  1.
       -1   -1    0    0    0  501  0.00000000000E+00  0.00000000000E+00 -0.14820661993E+04  0.14820661993E+04  0.50400001928E-02 0. -1.
    10030    2    1    2    0    0  0.00000000000E+00  0.00000000000E+00 -0.86560632819E+03  0.20985260705E+04  0.19116844282E+04 0.  0.
        3    1    3    3  502    0 -0.13428795039E+03  0.92923418588E+03 -0.23605120117E+03  0.96810619542E+03  0.10100000352E+00 0. -1.
       -3    1    3    3    0  502  0.13428795039E+03 -0.92923418588E+03 -0.62955512702E+03  0.11304198751E+04  0.10100000352E+00 0.  1.
</event>
<event>
 5   0  0.1130848E-04  0.1958422E+04  0.7818609E-02  0.8626310E-01
       -1   -1    0    0    0  501  0.00000000000E+00  0.00000000000E+00  0.84316868698E+03  0.84316868699E+03  0.50400001928E-02 0.  1.
        1   -1    0    0  501    0  0.00000000000E+00  0.00000000000E+00 -0.11372036863E+04  0.11372036863E+04  0.50400001928E-02 0. -1.
    10030    2    1    2    0    0  0.00000000000E+00  0.00000000000E+00 -0.29403499933E+03  0.19803723733E+04  0.19584223641E+04 0.  0.
        5    1    3    3  502    0 -0.81786245321E+02  0.30638964202E+03 -0.10838289140E+04  0.11292788883E+04  0.46999998093E+01 0. -1.
       -5    1    3    3    0  502  0.81786245321E+02 -0.30638964202E+03  0.78979391466E+03  0.85109348505E+03  0.46999998093E+01 0.  1.
</event>
<event>
 5   0  0.2467483E-04  0.2033740E+04  0.7818609E-02  0.8591007E-01
        2   -1    0    0  501    0  0.00000000000E+00  0.00000000000E+00  0.94161134115E+03  0.94161134115E+03  0.25500000920E-02 0. -1.
       -2   -1    0    0    0  501  0.00000000000E+00  0.00000000000E+00 -0.10981437142E+04  0.10981437142E+04  0.25500000920E-02 0.  1.
    10030    2    1    2    0    0  0.00000000000E+00  0.00000000000E+00 -0.15653237303E+03  0.20397550553E+04  0.20337399789E+04 0.  0.
        4    1    3    3  502    0 -0.73278452552E+03  0.62150048081E+03 -0.41209737095E+03  0.10454959897E+04  0.12699999809E+01 0.  1.
       -4    1    3    3    0  502  0.73278452552E+03 -0.62150048081E+03  0.25556499793E+03  0.99425906561E+03  0.12699999809E+01 0. -1.
</event>
<event>
 5   0  0.2579241E-04  0.2079501E+04  0.7818609E-02  0.8570327E-01
        2   -1    0    0  501    0  0.00000000000E+00  0.00000000000E+00  0.17638826956E+04  0.17638826956E+04  0.25500000920E-02 0. -1.
       -2   -1    0    0    0  501  0.00000000000E+00  0.00000000000E+00 -0.61289867963E+03  0.61289867963E+03  0.25500000920E-02 0.  1.
    10030    2    1    2    0    0  0.00000000000E+00  0.00000000000E+00  0.11509840159E+04  0.23767813752E+04  0.20795012625E+04 0.  0.
        5    1    3    3  502    0  0.73654026784E+02  0.64243000266E+03  0.15060854185E+04  0.16390413667E+04  0.46999998093E+01 0.  1.
       -5    1    3    3    0  502 -0.73654026784E+02 -0.64243000266E+03 -0.35510140258E+03  0.73774000847E+03  0.46999998093E+01 0. -1.
</event>
<event>
 5   0  0.2430898E-04  0.2093607E+04  0.7818609E-02  0.8564065E-01
        2   -1    0    0  501    0  0.00000000000E+00  0.00000000000E+00  0.10746921760E+04  0.10746921760E+04  0.25500000920E-02 0.  1.
       -2   -1    0    0    0  501  0.00000000000E+00  0.00000000000E+00 -0.10196388653E+04  0.10196388653E+04  0.25500000920E-02 0. -1.
    10030    2    1    2    0    0  0.00000000000E+00  0.00000000000E+00  0.55053310729E+02  0.20943310413E+04  0.20936073279E+04 0.  0.
        1    1    3    3  502    0  0.21865155539E+03 -0.15665052025E+03 -0.98448011967E+03  0.10205630770E+04  0.50400001928E-02 0. -1.
       -1    1    3    3    0  502 -0.21865155539E+03  0.15665052025E+03  0.10395334304E+04  0.10737679643E+04  0.50400001928E-02 0.  1.
</event>
<event>
 5   0  0.2430898E-04  0.2094248E+04  0.7818609E-02  0.8563781E-01
       -2   -1    0    0    0  501  0.00000000000E+00  0.00000000000E+00  0.82029213251E+03  0.82029213252E+03  0.25500000920E-02 0. -1.
        2   -1    0    0  501    0  0.00000000000E+00  0.00000000000E+00 -0.13366805950E+04  0.13366805950E+04  0.25500000920E-02 0.  1.
    10030    2    1    2    0    0  0.00000000000E+00  0.00000000000E+00 -0.51638846247E+03  0.21569727275E+04  0.20942479087E+04 0.  0.
        1    1    3    3  502    0  0.50666529360E+03 -0.87542900201E+03 -0.53720055920E+03  0.11452816676E+04  0.50400001928E-02 0.  1.
       -1    1    3    3    0  502 -0.50666529360E+03  0.87542900201E+03  0.20812096735E+02  0.10116910599E+04  0.50400001928E-02 0. -1.
</event>
<event>
 5   0  0.1130848E-04  0.2134193E+04  0.7818609E-02  0.8546329E-01
       -1   -1    0    0    0  501  0.00000000000E+00  0.00000000000E+00  0.11878004841E+04  0.11878004842E+04  0.50400001928E-02 0. -1.
        1   -1    0    0  501    0  0.00000000000E+00  0.00000000000E+00 -0.95865820416E+03  0.95865820417E+03  0.50400001928E-02 0.  1.
    10030    2    1    2    0    0  0.00000000000E+00  0.00000000000E+00  0.22914227999E+03  0.21464586883E+04  0.21341927552E+04 0.  0.
        5    1    3    3  502    0  0.19729822097E+03 -0.10274866101E+04 -0.96437593170E+02  0.10507033936E+04  0.46999998093E+01 0.  1.
       -5    1    3    3    0  502 -0.19729822097E+03  0.10274866101E+04  0.32557987316E+03  0.10957552947E+04  0.46999998093E+01 0. -1.
</event>
<event>
 5   0  0.8698750E-05  0.1101634E+04  0.7818609E-02  0.9203601E-01
       -3   -1    0    0    0  501  0.00000000000E+00  0.00000000000E+00  0.16045566501E+03  0.16045569680E+03  0.10100000352E+00 0.  1.
        3   -1    0    0  501    0  0.00000000000E+00  0.00000000000E+00 -0.18908594746E+04  0.18908594773E+04  0.10100000352E+00 0. -1.
    10030    2    1    2    0    0  0.00000000000E+00  0.00000000000E+00 -0.17304038096E+04  0.20513151741E+04  0.11016336048E+04 0.  0.
        2    1    3    3  502    0 -0.47308617791E+03 -0.20630751158E+03 -0.12235025674E+04  0.13279050619E+04  0.25500000920E-02 0. -1.
       -2    1    3    3    0  502  0.47308617791E+03  0.20630751158E+03 -0.50690124223E+03  0.72341011221E+03  0.25500000920E-02 0.  1.
</event>
<event>
 5   0  0.2467483E-04  0.1950082E+04  0.7818609E-02  0.8630321E-01
       -2   -1    0    0    0  501  0.00000000000E+00  0.00000000000E+00  0.51431772073E+03  0.51431772073E+03  0.25500000920E-02 0.  1.
        2   -1    0    0  501    0  0.00000000000E+00  0.00000000000E+00 -0.18484780838E+04  0.18484780838E+04  0.25500000920E-02 0. -1.
    10030    2    1    2    0    0  0.00000000000E+00  0.00000000000E+00 -0.13341603631E+04  0.23627958045E+04  0.19500820853E+04 0.  0.
        4    1    3    3  502    0 -0.55835048583E+02  0.62736899489E+03  0.23475221894E+03  0.67217529380E+03  0.12699999809E+01 0.  1.
       -4    1    3    3    0  502  0.55835048583E+02 -0.62736899489E+03 -0.15689125820E+04  0.16906205107E+04  0.12699999809E+01 0. -1.
</event>
<event>
 5   0  0.1186038E-04  0.2272179E+04  0.7818609E-02  0.8488972E-01
        1   -1    0    0  501    0  0.00000000000E+00  0.00000000000E+00  0.11576383902E+04  0.11576383902E+04  0.50400001928E-02 0.  1.
       -1   -1    0    0    0  501  0.00000000000E+00  0.00000000000E+00 -0.11149418982E+04  0.11149418982E+04  0.50400001928E-02 0. -1.
    10030    2    1    2    0    0  0.00000000000E+00  0.00000000000E+00  0.42696491982E+02  0.22725802884E+04  0.22721791692E+04 0.  0.
        4    1    3    3  502    0 -0.57928728057E+03  0.83920826752E+03 -0.47959310624E+03  0.11268786226E+04  0.12699999809E+01 0. -1.
       -4    1    3    3    0  502  0.57928728057E+03 -0.83920826752E+03  0.52228959822E+03  0.11457016658E+04  0.12699999809E+01 0.  1.
</event>
<event>
 5   0  0.2467483E-04  0.2039491E+04  0.7818609E-02  0.8588377E-01
       -2   -1    0    0    0  501  0.00000000000E+00  0.00000000000E+00  0.72366852928E+03  0.72366852928E+03  0.25500000920E-02 0.  1.
        2   -1    0    0  501    0  0.00000000000E+00  0.00000000000E+00 -0.14369568640E+04  0.14369568640E+04  0.25500000920E-02 0. -1.
    10030    2    1    2    0    0  0.00000000000E+00  0.00000000000E+00 -0.71328833470E+03  0.21606253933E+04  0.20394905839E+04 0.  0.
        4    1    3    3  502    0  0.64349311518E+03  0.62610561905E+03  0.15558953253E+03  0.91120873076E+03  0.12699999809E+01 0.  1.
       -4    1    3    3    0  502 -0.64349311518E+03 -0.62610561905E+03 -0.86887786723E+03  0.12494166625E+04  0.12699999809E+01 0. -1.
</event>
<event>
 5   0  0.1042395E-04  0.2181818E+04  0.7818609E-02  0.8526034E-01
       -1   -1    0    0    0  501  0.00000000000E+00  0.00000000000E+00  0.13695471903E+04  0.13695471903E+04  0.50400001928E-02 0.  1.
        1   -1    0    0  501    0  0.00000000000E+00  0.00000000000E+00 -0.86896086473E+03  0.86896086474E+03  0.50400001928E-02 0. -1.
    10030    2    1    2    0    0  0.00000000000E+00  0.00000000000E+00  0.50058632561E+03  0.22385080551E+04  0.21818184258E+04 0.  0.
        3    1    3    3  502    0 -0.45531918051E+03 -0.88285831302E+03  0.71292895718E+03  0.12227109492E+04  0.10100000352E+00 0. -1.
       -3    1    3    3    0  502  0.45531918051E+03  0.88285831302E+03 -0.21234263157E+03  0.10157971059E+04  0.10100000352E+00 0.  1.
</event>
<event>
 5   0  0.1186038E-04  0.2119668E+04  0.7818609E-02  0.8552629E-01
       -1   -1    0    0    0  501  0.00000000000E+00  0.00000000000E+00  0.68394405890E+03  0.68394405892E+03  0.50400001928E-02 0. -1.
        1   -1    0    0  501    0  0.00000000000E+00  0.00000000000E+00 -0.16423099360E+04  0.16423099360E+04  0.50400001928E-02 0.  1.
    10030    2    1    2    0    0  0.00000000000E+00  0.00000000000E+00 -0.95836587710E+03  0.23262539949E+04  0.21196680152E+04 0.  0.
        4    1    3    3  502    0 -0.58733763445E+03  0.65903458652E+03 -0.11228180648E+04  0.14282906226E+04  0.12699999809E+01 0.  1.
       -4    1    3    3    0  502  0.58733763445E+03 -0.65903458652E+03  0.16445218772E+03  0.89796337231E+03  0.12699999809E+01 0. -1.
</event>
<event>
 5   0  0.1156733E-04  0.2248276E+04  0.7818609E-02  0.8498599E-01
        1   -1    0    0  501    0  0.00000000000E+00  0.00000000000E+00  0.16715638654E+04  0.16715638654E+04  0.50400001928E-02 0.  1.
       -1   -1    0    0    0  501  0.00000000000E+00  0.00000000000E+00 -0.75599051465E+03  0.75599051467E+03  0.50400001928E-02 0. -1.
    10030    2    1    2    0    0  0.00000000000E+00  0.00000000000E+00  0.91557335071E+03  0.24275543800E+04  0.22482761635E+04 0.  0.
        2    1    3    3  502    0 -0.67466634611E+03  0.12943199104E+03  0.14185487368E+04  0.15761369983E+04  0.25500000920E-02 0.  1.
       -2    1    3    3    0  502  0.67466634611E+03 -0.12943199104E+03 -0.50297538607E+03  0.85141738171E+03  0.25500000920E-02 0. -1.
</event>
<event>
 5   0  0.2430898E-04  0.1274792E+04  0.7818609E-02  0.9049798E-01
        2   -1    0    0  501    0  0.00000000000E+00  0.00000000000E+00  0.10633116318E+04  0.10633116318E+04  0.25500000920E-02 0. -1.
       -2   -1    0    0    0  501  0.00000000000E+00  0.00000000000E+00 -0.38208336000E+03  0.38208336000E+03  0.25500000920E-02 0.  1.
    10030    2    1    2    0    0  0.00000000000E+00  0.00000000000E+00  0.68122827185E+03  0.14453949919E+04  0.12747920317E+04 0.  0.
        1    1    3    3  502    0 -0.45063222299E+03  0.44638154331E+03  0.26937400835E+03  0.68912135289E+03  0.50400001928E-02 0.  1.
       -1    1    3    3    0  502  0.45063222299E+03 -0.44638154331E+03  0.41185426350E+03  0.75627363896E+03  0.50400001928E-02 0. -1.
</event>
<event>
 5   0  0.1042395E-04  0.2076213E+04  0.7818609E-02  0.8571795E-01
       -1   -1    0    0    0  501  0.00000000000E+00  0.00000000000E+00  0.11014224045E+04  0.11014224045E+04  0.50400001928E-02 0.  1.
        1   -1    0    0  501    0  0.00000000000E+00  0.00000000000E+00 -0.97843009651E+03  0.97843009653E+03  0.50400001928E-02 0. -1.
    10030    2    1    2    0    0  0.00000000000E+00  0.00000000000E+00  0.12299230795E+03  0.20798525010E+04  0.20762127343E+04 0.  0.
        3    1    3    3  502    0 -0.62194434846E+03 -0.10646715709E+03 -0.76427582843E+03  0.99109413288E+03  0.10100000352E+00 0. -1.
       -3    1    3    3    0  502  0.62194434846E+03  0.10646715709E+03  0.88726813638E+03  0.10887583681E+04  0.10100000352E+00 0.  1.
</event>
<event>
 5   0  0.2430898E-04  0.2069238E+04  0.7818609E-02  0.8574917E-01
        2   -1    0    0  501    0  0.00000000000E+00  0.00000000000E+00  0.15462783435E+04  0.15462783435E+04  0.25500000920E-02 0. -1.
       -2   -1    0    0    0  501  0.00000000000E+00  0.00000000000E+00 -0.69226616911E+03  0.69226616911E+03  0.25500000920E-02 0.  1.
    10030    2    1    2    0    0  0.00000000000E+00  0.00000000000E+00  0.85401217436E+03  0.22385445126E+04  0.20692377198E+04 0.  0.
        1    1    3    3  502    0 -0.54099175313E+03  0.56852263512E+03  0.11563700918E+04  0.13975270491E+04  0.50400001928E-02 0. -1.
       -1    1    3    3    0  502  0.54099175313E+03 -0.56852263512E+03 -0.30235791749E+03  0.84101746349E+03  0.50400001928E-02 0.  1.
</event>
<event>
 5   0  0.2448804E-04  0.2086196E+04  0.7818609E-02  0.8567349E-01
        2   -1    0    0  501    0  0.00000000000E+00  0.00000000000E+00  0.10463955891E+04  0.10463955891E+04  0.25500000920E-02 0.  1.
       -2   -1    0    0    0  501  0.00000000000E+00  0.00000000000E+00 -0.10398104329E+04  0.10398104329E+04  0.25500000920E-02 0. -1.
    10030    2    1    2    0    0  0.00000000000E+00  0.00000000000E+00  0.65851561633E+01  0.20862060220E+04  0.20861956289E+04 0.  0.
        2    1    3    3  502    0  0.48608429844E+03 -0.91950594639E+03 -0.75978996175E+02  0.10428527885E+04  0.25500000920E-02 0.  1.
       -2    1    3    3    0  502 -0.48608429844E+03  0.91950594639E+03  0.82564152338E+02  0.10433532335E+04  0.25500000920E-02 0. -1.
</event>
<event>
 5   0  0.2467483E-04  0.2177221E+04  0.7818609E-02  0.8527970E-01
       -2   -1    0    0    0  501  0.00000000000E+00  0.00000000000E+00  0.86617047130E+03  0.86617047130E+03  0.25500000920E-02 0.  1.
        2   -1    0    0  501    0  0.00000000000E+00  0.00000000000E+00 -0.13681745558E+04  0.13681745558E+04  0.25500000920E-02 0. -1.
    10030    2    1    2    0    0  0.00000000000E+00  0.00000000000E+00 -0.50200408447E+03  0.22343450271E+04  0.21772206133E+04 0.  0.
        4    1    3    3  502    0 -0.79126867628E+03  0.31104111586E+03  0.44670205108E+03  0.96041502964E+03  0.12699999809E+01 0.  1.
       -4    1    3    3    0  502  0.79126867628E+03 -0.31104111586E+03 -0.94870613555E+03  0.12739299974E+04  0.12699999809E+01 0. -1.
</event>
<event>
 5   0  0.1186038E-04  0.2102319E+04  0.7818609E-02  0.8560222E-01
       -1   -1    0    0    0  501  0.00000000000E+00  0.00000000000E+00  0.58770042971E+03  0.58770042973E+03  0.50400001928E-02 0.  1.
        1   -1    0    0  501    0  0.00000000000E+00  0.00000000000E+00 -0.18801016788E+04  0.18801016788E+04  0.50400001928E-02 0. -1.
    10030    2    1    2    0    0  0.00000000000E+00  0.00000000000E+00 -0.12924012491E+04  0.24678021085E+04  0.21023192570E+04 0.  0.
        4    1    3    3  502    0  0.10374942172E+03 -0.73605882837E+03  0.22623610604E+03  0.77700124190E+03  0.12699999809E+01 0.  1.
       -4    1    3    3    0  502 -0.10374942172E+03  0.73605882837E+03 -0.15186373551E+04  0.16908008666E+04  0.12699999809E+01 0. -1.
</event>
<event>
 5   0  0.1122711E-04  0.2139590E+04  0.7818609E-02  0.8544001E-01
        1   -1    0    0  501    0  0.00000000000E+00  0.00000000000E+00  0.19908952416E+04  0.19908952416E+04  0.50400001928E-02 0.  1.
       -1   -1    0    0    0  501  0.00000000000E+00  0.00000000000E+00 -0.57484770509E+03  0.57484770512E+03  0.50400001928E-02 0. -1.
    10030    2    1    2    0    0  0.00000000000E+00  0.00000000000E+00  0.14160475365E+04  0.25657429467E+04  0.21395902045E+04 0.  0.
        1    1    3    3  502    0  0.71954952987E+03 -0.63674108927E+03  0.14393868485E+03  0.97154983697E+03  0.50400001928E-02 0. -1.
       -1    1    3    3    0  502 -0.71954952987E+03  0.63674108927E+03  0.12721088517E+04  0.15941931098E+04  0.50400001928E-02 0.  1.
</event>
<event>
 5   0  0.2467483E-04  0.2104887E+04  0.7818609E-02  0.8559094E-01
       -2   -1    0    0    0  501  0.00000000000E+00  0.00000000000E+00  0.71077225392E+03  0.71077225393E+03  0.25500000920E-02 0. -1.
        2   -1    0    0  501    0  0.00000000000E+00  0.00000000000E+00 -0.15583573792E+04  0.15583573792E+04  0.25500000920E-02 0.  1.
    10030    2    1    2    0    0  0.00000000000E+00  0.00000000000E+00 -0.84758512528E+03  0.22691296331E+04  0.21048868728E+04 0.  0.
        4    1    3    3  502    0 -0.10397403153E+04 -0.13720717751E+03 -0.51869490889E+03  0.11700135701E+04  0.12699999809E+01 0.  1.
       -4    1    3    3    0  502  0.10397403153E+04  0.13720717751E+03 -0.32889021639E+03  0.10991160631E+04  0.12699999809E+01 0. -1.
</event>
<event>
 5   0  0.2579241E-04  0.1967370E+04  0.7818609E-02  0.8622030E-01
        2   -1    0    0  501    0  0.00000000000E+00  0.00000000000E+00  0.89157489949E+03  0.89157489949E+03  0.25500000920E-02 0. -1.
       -2   -1    0    0    0  501  0.00000000000E+00  0.00000000000E+00 -0.10853110121E+04  0.10853110121E+04  0.25500000920E-02 0.  1.
    10030    2    1    2    0    0  0.00000000000E+00  0.00000000000E+00 -0.19373611259E+03  0.19768859116E+04  0.19673698753E+04 0.  0.
        5    1    3    3  502    0  0.44932259841E+02  0.95330933862E+03  0.14260455729E+03  0.96497448300E+03  0.46999998093E+01 0. -1.
       -5    1    3    3    0  502 -0.44932259841E+02 -0.95330933862E+03 -0.33634066988E+03  0.10119114286E+04  0.46999998093E+01 0.  1.
</event>
<event>
 5   0  0.1156733E-04  0.2002039E+04  0.7818609E-02  0.8605668E-01
        1   -1    0    0  501    0  0.00000000000E+00  0.00000000000E+00  0.13587541647E+04  0.13587541647E+04  0.50400001928E-02 0.  1.
       -1   -1    0    0    0  501  0.00000000000E+00  0.00000000000E+00 -0.73746935787E+03  0.73746935789E+03  0.50400001928E-02 0. -1.
    10030    2    1    2    0    0  0.00000000000E+00  0.00000000000E+00  0.62128480686E+03  0.20962235226E+04  0.20020385225E+04 0.  0.
        2    1    3    3  502    0  0.98373074269E+03 -0.15913085936E+03  0.21136205625E+03  0.10186867641E+04  0.25500000920E-02 0. -1.
       -2    1    3    3    0  502 -0.98373074269E+03  0.15913085936E+03  0.40992275062E+03  0.10775367585E+04  0.25500000920E-02 0.  1.
</event>
<event>
 5   0  0.1042395E-04  0.2090722E+04  0.7818609E-02  0.8565342E-01
        1   -1    0    0  501    0  0.00000000000E+00  0.00000000000E+00  0.21404285403E+04  0.21404285403E+04  0.50400001928E-02 0.  1.
       -1   -1    0    0    0  501  0.00000000000E+00  0.00000000000E+00 -0.51054227292E+03  0.51054227294E+03  0.50400001928E-02 0. -1.
    10030    2    1    2    0    0  0.00000000000E+00  0.00000000000E+00  0.16298862674E+04  0.26509708132E+04  0.20907216477E+04 0.  0.
        3    1    3    3  502    0  0.32748094198E+03 -0.82570162027E+03  0.15137682798E+04  0.17551414041E+04  0.10100000352E+00 0.  1.
       -3    1    3    3    0  502 -0.32748094198E+03  0.82570162027E+03  0.11611798755E+03  0.89582940916E+03  0.10100000352E+00 0. -1.
</event>
<event>
 5   0  0.2448804E-04  0.2019698E+04  0.7818609E-02  0.8597466E-01
        2   -1    0    0  501    0  0.00000000000E+00  0.00000000000E+00  0.17404336156E+04  0.17404336156E+04  0.25500000920E-02 0.  1.
       -2   -1    0    0    0  501  0.00000000000E+00  0.00000000000E+00 -0.58594286147E+03  0.58594286148E+03  0.25500000920E-02 0. -1.
    10030    2    1    2    0    0  0.00000000000E+00  0.00000000000E+00  0.11544907541E+04  0.23263764770E+04  0.20196976535E+04 0.  0.
        2    1    3    3  502    0 -0.69521791298E+03  0.58980667800E+02 -0.26367010308E+03  0.74587437881E+03  0.25500000920E-02 0. -1.
       -2    1    3    3    0  502  0.69521791298E+03 -0.58980667800E+02  0.14181608572E+04  0.15805020982E+04  0.25500000920E-02 0.  1.
</event>
<event>
 5   0  0.2467483E-04  0.1235029E+04  0.7818609E-02  0.9082737E-01
        2   -1    0    0  501    0  0.00000000000E+00  0.00000000000E+00  0.14979667183E+04  0.14979667183E+04  0.25500000920E-02 0.  1.
       -2   -1    0    0    0  501  0.00000000000E+00  0.00000000000E+00 -0.25456105701E+03  0.25456105702E+03  0.25500000920E-02 0. -1.
    10030    2    1    2    0    0  0.00000000000E+00  0.00000000000E+00  0.12434056613E+04  0.17525277753E+04  0.12350287303E+04 0.  0.
        4    1    3    3  502    0 -0.58177913318E+03 -0.11860030749E+03  0.86247375883E+03  0.10470891033E+04  0.12699999809E+01 0.  1.
       -4    1    3    3    0  502  0.58177913318E+03  0.11860030749E+03  0.38093190247E+03  0.70543867200E+03  0.12699999809E+01 0. -1.
</event>
<event>
 5   0  0.1122711E-04  0.1220280E+04  0.7818609E-02  0.9095288E-01
       -1   -1    0    0    0  501  0.00000000000E+00  0.00000000000E+00  0.60440839225E+03  0.60440839227E+03  0.50400001928E-02 0. -1.
        1   -1    0    0  501    0  0.00000000000E+00  0.00000000000E+00 -0.61592642950E+03  0.61592642952E+03  0.50400001928E-02 0.  1.
    10030    2    1    2    0    0  0.00000000000E+00  0.00000000000E+00 -0.11518037256E+02  0.12203348218E+04  0.12202804645E+04 0.  0.
        1    1    3    3  502    0  0.16092297385E+03 -0.23426533349E+03 -0.54568551621E+03  0.61526346601E+03  0.50400001928E-02 0.  1.
       -1    1    3    3    0  502 -0.16092297385E+03  0.23426533349E+03  0.53416747896E+03  0.60507135578E+03  0.50400001928E-02 0. -1.
</event>
<event>
 5   0  0.1122711E-04  0.2084870E+04  0.7818609E-02  0.8567938E-01
       -1   -1    0    0    0  501  0.00000000000E+00  0.00000000000E+00  0.10846755035E+04  0.10846755036E+04  0.50400001928E-02 0.  1.
        1   -1    0    0  501    0  0.00000000000E+00  0.00000000000E+00 -0.10018392256E+04  0.10018392256E+04  0.50400001928E-02 0. -1.
    10030    2    1    2    0    0  0.00000000000E+00  0.00000000000E+00  0.82836277931E+02  0.20865147292E+04  0.20848697480E+04 0.  0.
        1    1    3    3  502    0  0.96672047967E+03  0.38715229908E+03  0.88732052511E+02  0.10451357642E+04  0.50400001928E-02 0.  1.
       -1    1    3    3    0  502 -0.96672047967E+03 -0.38715229908E+03 -0.58957745800E+01  0.10413789650E+04  0.50400001928E-02 0. -1.
</event>
<event>
 5   0  0.2512839E-04  0.2082077E+04  0.7818609E-02  0.8569180E-01
        2   -1    0    0  501    0  0.00000000000E+00  0.00000000000E+00  0.23259223395E+04  0.23259223395E+04  0.25500000920E-02 0. -1.
       -2   -1    0    0    0  501  0.00000000000E+00  0.00000000000E+00 -0.46594912818E+03  0.46594912819E+03  0.25500000920E-02 0.  1.
    10030    2    1    2    0    0  0.00000000000E+00  0.00000000000E+00  0.18599732113E+04  0.27918714677E+04  0.20820773149E+04 0.  0.
        3    1    3    3  502    0  0.34186925257E+03 -0.65829582302E+03  0.19094301647E+04  0.20484510100E+04  0.10100000352E+00 0. -1.
       -3    1    3    3    0  502 -0.34186925257E+03  0.65829582302E+03 -0.49456953346E+02  0.74342045768E+03  0.10100000352E+00 0.  1.
</event>
<event>
 5   0  0.1186038E-04  0.2110575E+04  0.7818609E-02  0.8556599E-01
       -1   -1    0    0    0  501  0.00000000000E+00  0.00000000000E+00  0.65084739505E+03  0.65084739507E+03  0.50400001928E-02 0. -1.
        1   -1    0    0  501    0  0.00000000000E+00  0.00000000000E+00 -0.17110495010E+04  0.17110495010E+04  0.50400001928E-02 0.  1.
    10030    2    1    2    0    0  0.00000000000E+00  0.00000000000E+00 -0.10602021059E+04  0.23618968960E+04  0.21105753818E+04 0.  0.
        4    1    3    3  502    0  0.33563185754E+03  0.90322551885E+03 -0.10116495202E+04  0.13971046655E+04  0.12699999809E+01 0.  1.
       -4    1    3    3    0  502 -0.33563185754E+03 -0.90322551885E+03 -0.48552585742E+02  0.96479223058E+03  0.12699999809E+01 0. -1.
</event>
<event>
 5   0  0.1042395E-04  0.2066284E+04  0.7818609E-02  0.8576243E-01
       -1   -1    0    0    0  501  0.00000000000E+00  0.00000000000E+00  0.82340499149E+03  0.82340499150E+03  0.50400001928E-02 0.  1.
        1   -1    0    0  501    0  0.00000000000E+00  0.00000000000E+00 -0.12963034233E+04  0.12963034233E+04  0.50400001928E-02 0. -1.
    10030    2    1    2    0    0  0.00000000000E+00  0.00000000000E+00 -0.47289843178E+03  0.21197084148E+04  0.20662843069E+04 0.  0.
        3    1    3    3  502    0 -0.17699403984E+03 -0.45429897839E+03  0.69796251304E+03  0.85139070450E+03  0.10100000352E+00 0.  1.
       -3    1    3    3    0  502  0.17699403984E+03  0.45429897839E+03 -0.11708609448E+04  0.12683177103E+04  0.10100000352E+00 0. -1.
</event>
<event>
 5   0  0.1122711E-04  0.2121028E+04  0.7818609E-02  0.8552036E-01
        1   -1    0    0  501    0  0.00000000000E+00  0.00000000000E+00  0.46337330277E+03  0.46337330280E+03  0.50400001928E-02 0. -1.
       -1   -1    0    0    0  501  0.00000000000E+00  0.00000000000E+00 -0.24271792686E+04  0.24271792686E+04  0.50400001928E-02 0.  1.
    10030    2    1    2    0    0  0.00000000000E+00  0.00000000000E+00 -0.19638059659E+04  0.28905525714E+04  0.21210281226E+04 0.  0.
        1    1    3    3  502    0  0.99416977946E+03 -0.12359136786E+03 -0.14560379097E+04  0.17673977400E+04  0.50400001928E-02 0.  1.
       -1    1    3    3    0  502 -0.99416977946E+03  0.12359136786E+03 -0.50776805612E+03  0.11231548315E+04  0.50400001928E-02 0. -1.
</event>
<event>
 5   0  0.1042395E-04  0.2137541E+04  0.7818609E-02  0.8544884E-01
       -1   -1    0    0    0  501  0.00000000000E+00  0.00000000000E+00  0.89750902896E+03  0.89750902897E+03  0.50400001928E-02 0. -1.
        1   -1    0    0  501    0  0.00000000000E+00  0.00000000000E+00 -0.12727120936E+04  0.12727120936E+04  0.50400001928E-02 0.  1.
    10030    2    1    2    0    0  0.00000000000E+00  0.00000000000E+00 -0.37520306462E+03  0.21702211226E+04  0.21375411999E+04 0.  0.
        3    1    3    3  502    0  0.56212296441E+03 -0.61359147134E+02  0.73319489662E+03  0.92591680981E+03  0.10100000352E+00 0. -1.
       -3    1    3    3    0  502 -0.56212296441E+03  0.61359147134E+02 -0.11083979612E+04  0.12443043128E+04  0.10100000352E+00 0.  1.
</event>
<event>
 5   0  0.8698750E-05  0.1154031E+04  0.7818609E-02  0.9154073E-01
        4   -1    0    0  501    0  0.00000000000E+00  0.00000000000E+00  0.93904105148E+03  0.93904191028E+03  0.12699999809E+01 0.  1.
       -4   -1    0    0    0  501  0.00000000000E+00  0.00000000000E+00 -0.35455845647E+03  0.35456073099E+03  0.12699999809E+01 0. -1.
    10030    2    1    2    0    0  0.00000000000E+00  0.00000000000E+00  0.58448259501E+03  0.12936026413E+04  0.11540311476E+04 0.  0.
        4    1    3    3  502    0  0.71499098645E+02  0.20949952903E+02 -0.34914391832E+03  0.35700715712E+03  0.12699999809E+01 0. -1.
       -4    1    3    3    0  502 -0.71499098645E+02 -0.20949952903E+02  0.93362651333E+03  0.93659548415E+03  0.12699999809E+01 0.  1.
</event>
<event>
 5   0  0.1186038E-04  0.2091575E+04  0.7818609E-02  0.8564964E-01
       -1   -1    0    0    0  501  0.00000000000E+00  0.00000000000E+00  0.59306441333E+03  0.59306441335E+03  0.50400001928E-02 0. -1.
        1   -1    0    0  501    0  0.00000000000E+00  0.00000000000E+00 -0.18441015604E+04  0.18441015604E+04  0.50400001928E-02 0.  1.
    10030    2    1    2    0    0  0.00000000000E+00  0.00000000000E+00 -0.12510371470E+04  0.24371659737E+04  0.20915745361E+04 0.  0.
        4    1    3    3  502    0 -0.47772846317E+03  0.80213922738E+03 -0.76476741264E+02  0.93675083640E+03  0.12699999809E+01 0. -1.
       -4    1    3    3    0  502  0.47772846317E+03 -0.80213922738E+03 -0.11745604058E+04  0.15004151373E+04  0.12699999809E+01 0.  1.
</event>
<event>
 5   0  0.1122711E-04  0.2414019E+04  0.7818609E-02  0.8434274E-01
        1   -1    0    0  501    0  0.00000000000E+00  0.00000000000E+00  0.10648054350E+04  0.10648054350E+04  0.50400001928E-02 0. -1.
       -1   -1    0    0    0  501  0.00000000000E+00  0.00000000000E+00 -0.13682048645E+04  0.13682048645E+04  0.50400001928E-02 0.  1.
    10030    2    1    2    0    0  0.00000000000E+00  0.00000000000E+00 -0.30339942949E+03  0.24330102995E+04  0.24140190355E+04 0.  0.
        1    1    3    3  502    0 -0.32100213585E+03  0.48677573799E+02  0.10199691003E+04  0.10703965821E+04  0.50400001928E-02 0. -1.
       -1    1    3    3    0  502  0.32100213585E+03 -0.48677573799E+02 -0.13233685298E+04  0.13626137175E+04  0.50400001928E-02 0.  1.
</event>
<event>
 5   0  0.1042395E-04  0.2102996E+04  0.7818609E-02  0.8559925E-01
        1   -1    0    0  501    0  0.00000000000E+00  0.00000000000E+00  0.10065318059E+04  0.10065318059E+04  0.50400001928E-02 0. -1.
       -1   -1    0    0    0  501  0.00000000000E+00  0.00000000000E+00 -0.10984733780E+04  0.10984733780E+04  0.50400001928E-02 0.  1.
    10030    2    1    2    0    0  0.00000000000E+00  0.00000000000E+00 -0.91941572034E+02  0.21050051839E+04  0.21029963318E+04 0.  0.
        3    1    3    3  502    0  0.56718925322E+03 -0.77239318847E+03  0.38728618124E+03  0.10335789679E+04  0.10100000352E+00 0. -1.
       -3    1    3    3    0  502 -0.56718925322E+03  0.77239318847E+03 -0.47922775327E+03  0.10714262160E+04  0.10100000352E+00 0.  1.
</event>
<event>
 5   0  0.2579241E-04  0.2060891E+04  0.7818609E-02  0.8578670E-01
       -2   -1    0    0    0  501  0.00000000000E+00  0.00000000000E+00  0.15496885022E+04  0.15496885022E+04  0.25500000920E-02 0. -1.
        2   -1    0    0  501    0  0.00000000000E+00  0.00000000000E+00 -0.68518150750E+03  0.68518150750E+03  0.25500000920E-02 0.  1.
    10030    2    1    2    0    0  0.00000000000E+00  0.00000000000E+00  0.86450699470E+03  0.22348700097E+04  0.20608909764E+04 0.  0.
        5    1    3    3  502    0  0.35895528034E+03  0.60775796637E+03 -0.38183936663E+03  0.80252229307E+03  0.46999998093E+01 0.  1.
       -5    1    3    3    0  502 -0.35895528034E+03 -0.60775796637E+03  0.12463463613E+04  0.14323477166E+04  0.46999998093E+01 0. -1.
</event>
<event>
 5   0  0.2467483E-04  0.2126835E+04  0.7818609E-02  0.8549514E-01
       -2   -1    0    0    0  501  0.00000000000E+00  0.00000000000E+00  0.12060289699E+04  0.12060289699E+04  0.25500000920E-02 0. -1.
        2   -1    0    0  501    0  0.00000000000E+00  0.00000000000E+00 -0.93766925036E+03  0.93766925036E+03  0.25500000920E-02 0.  1.
    10030    2    1    2    0    0  0.00000000000E+00  0.00000000000E+00  0.26835971949E+03  0.21436982202E+04  0.21268345305E+04 0.  0.
        4    1    3    3  502    0  0.17519709021E+03 -0.21457706319E+03  0.11690227528E+04  0.12013963318E+04  0.12699999809E+01 0. -1.
       -4    1    3    3    0  502 -0.17519709021E+03  0.21457706319E+03 -0.90066303333E+03  0.94230188845E+03  0.12699999809E+01 0.  1.
</event>
<event>
 5   0  0.1130848E-04  0.1980102E+04  0.7818609E-02  0.8615981E-01
        1   -1    0    0  501    0  0.00000000000E+00  0.00000000000E+00  0.93882861356E+03  0.93882861357E+03  0.50400001928E-02 0. -1.
       -1   -1    0    0    0  501  0.00000000000E+00  0.00000000000E+00 -0.10440677572E+04  0.10440677572E+04  0.50400001928E-02 0.  1.
    10030    2    1    2    0    0  0.00000000000E+00  0.00000000000E+00 -0.10523914366E+03  0.19828963708E+04  0.19801016994E+04 0.  0.
        5    1    3    3  502    0 -0.70398848280E+03  0.43157086451E+03  0.49434303557E+03  0.96241899494E+03  0.46999998093E+01 0. -1.
       -5    1    3    3    0  502  0.70398848280E+03 -0.43157086451E+03 -0.59958217923E+03  0.10204773759E+04  0.46999998093E+01 0.  1.
</event>
<event>
 5   0  0.2467483E-04  0.2104648E+04  0.7818609E-02  0.8559199E-01
       -2   -1    0    0    0  501  0.00000000000E+00  0.00000000000E+00  0.11837189953E+04  0.11837189953E+04  0.25500000920E-02 0.  1.
        2   -1    0    0  501    0  0.00000000000E+00  0.00000000000E+00 -0.93551388435E+03  0.93551388435E+03  0.25500000920E-02 0. -1.
    10030    2    1    2    0    0  0.00000000000E+00  0.00000000000E+00  0.24820511091E+03  0.21192328796E+04  0.21046477665E+04 0.  0.
        4    1    3    3  502    0 -0.17495060030E+03 -0.72998868571E+03 -0.61849906892E+03  0.97264274272E+03  0.12699999809E+01 0. -1.
       -4    1    3    3    0  502  0.17495060030E+03  0.72998868571E+03  0.86670417983E+03  0.11465901369E+04  0.12699999809E+01 0.  1.
</event>
<event>
 5   0  0.1042395E-04  0.2099449E+04  0.7818609E-02  0.8561486E-01
        1   -1    0    0  501    0  0.00000000000E+00  0.00000000000E+00  0.88159167242E+03  0.88159167243E+03  0.50400001928E-02 0.  1.
       -1   -1    0    0    0  501  0.00000000000E+00  0.00000000000E+00 -0.12499224300E+04  0.12499224300E+04  0.50400001928E-02 0. -1.
    10030    2    1    2    0    0  0.00000000000E+00  0.00000000000E+00 -0.36833075757E+03  0.21315141024E+04  0.20994486947E+04 0.  0.
        3    1    3    3  502    0  0.55188415990E+03  0.50419126545E+03 -0.93239919807E+03  0.11950536527E+04  0.10100000352E+00 0. -1.
       -3    1    3    3    0  502 -0.55188415990E+03 -0.50419126545E+03  0.56406844050E+03  0.93646044971E+03  0.10100000352E+00 0.  1.
</event>
<event>
 5   0  0.2448804E-04  0.2105967E+04  0.7818609E-02  0.8558619E-01
       -2   -1    0    0    0  501  0.00000000000E+00  0.00000000000E+00  0.64770213947E+03  0.64770213948E+03  0.25500000920E-02 0.  1.
        2   -1    0    0  501    0  0.00000000000E+00  0.00000000000E+00 -0.17118584989E+04  0.17118584989E+04  0.25500000920E-02 0. -1.
    10030    2    1    2    0    0  0.00000000000E+00  0.00000000000E+00 -0.10641563594E+04  0.23595606384E+04  0.21059671528E+04 0.  0.
        2    1    3    3  502    0  0.10323328581E+04  0.15641961648E+03 -0.68486696876E+03  0.12486877076E+04  0.25500000920E-02 0. -1.
       -2    1    3    3    0  502 -0.10323328581E+04 -0.15641961648E+03 -0.37928939066E+03  0.11108729307E+04  0.25500000920E-02 0.  1.
</event>
<event>
 5   0  0.2430898E-04  0.2156707E+04  0.7818609E-02  0.8536667E-01
        2   -1    0    0  501    0  0.00000000000E+00  0.00000000000E+00  0.17051654485E+04  0.17051654485E+04  0.25500000920E-02 0.  1.
       -2   -1    0    0    0  501  0.00000000000E+00  0.00000000000E+00 -0.68195528386E+03  0.68195528386E+03  0.25500000920E-02 0. -1.
    10030    2    1    2    0    0  0.00000000000E+00  0.00000000000E+00  0.10232101647E+04  0.23871207324E+04  0.21567072935E+04 0.  0.
        1    1    3    3  502    0  0.77457232033E+03 -0.30093824450E+03 -0.24907416259E+03  0.86750449274E+03  0.50400001928E-02 0. -1.
       -1    1    3    3    0  502 -0.77457232033E+03  0.30093824450E+03  0.12722843273E+04  0.15196162397E+04  0.50400001928E-02 0.  1.
</event>
<event>
 5   0  0.1186038E-04  0.2109953E+04  0.7818609E-02  0.8556872E-01
        1   -1    0    0  501    0  0.00000000000E+00  0.00000000000E+00  0.26152836715E+04  0.26152836715E+04  0.50400001928E-02 0.  1.
       -1   -1    0    0    0  501  0.00000000000E+00  0.00000000000E+00 -0.42556592272E+03  0.42556592275E+03  0.50400001928E-02 0. -1.
    10030    2    1    2    0    0  0.00000000000E+00  0.00000000000E+00  0.21897177488E+04  0.30408495942E+04  0.21099531833E+04 0.  0.
        4    1    3    3  502    0  0.44572996185E+03  0.36256637427E+03 -0.18028694444E+03  0.60219147277E+03  0.12699999809E+01 0. -1.
       -4    1    3    3    0  502 -0.44572996185E+03 -0.36256637427E+03  0.23700046932E+04  0.24386581215E+04  0.12699999809E+01 0.  1.
</event>
<event>
 5   0  0.2430898E-04  0.2025911E+04  0.7818609E-02  0.8594601E-01
       -2   -1    0    0    0  501  0.00000000000E+00  0.00000000000E+00  0.15056776163E+04  0.15056776163E+04  0.25500000920E-02 0. -1.
        2   -1    0    0  501    0  0.00000000000E+00  0.00000000000E+00 -0.68147327131E+03  0.68147327132E+03  0.25500000920E-02 0.  1.
    10030    2    1    2    0    0  0.00000000000E+00  0.00000000000E+00  0.82420434501E+03  0.21871508876E+04  0.20259112031E+04 0.  0.
        1    1    3    3  502    0 -0.88399803112E+03  0.10773745099E+03 -0.10903753855E+03  0.89718953527E+03  0.50400001928E-02 0.  1.
       -1    1    3    3    0  502  0.88399803112E+03 -0.10773745099E+03  0.93324188356E+03  0.12899613524E+04  0.50400001928E-02 0. -1.
</event>
<event>
 5   0  0.1156733E-04  0.2095508E+04  0.7818609E-02  0.8563225E-01
        1   -1    0    0  501    0  0.00000000000E+00  0.00000000000E+00  0.24375950766E+04  0.24375950766E+04  0.50400001928E-02 0.  1.
       -1   -1    0    0    0  501  0.00000000000E+00  0.00000000000E+00 -0.45035713019E+03  0.45035713022E+03  0.50400001928E-02 0. -1.
    10030    2    1    2    0    0  0.00000000000E+00  0.00000000000E+00  0.19872379464E+04  0.28879522068E+04  0.20955078843E+04 0.  0.
        2    1    3    3  502    0  0.93487882761E+03  0.11245788720E+03  0.16268893523E+04  0.18797377911E+04  0.25500000920E-02 0.  1.
       -2    1    3    3    0  502 -0.93487882761E+03 -0.11245788720E+03  0.36034859406E+03  0.10082144157E+04  0.25500000920E-02 0. -1.
</event>
<event>
 5   0  0.2467483E-04  0.1736582E+04  0.7818609E-02  0.8740771E-01
        2   -1    0    0  501    0  0.00000000000E+00  0.00000000000E+00  0.54809862214E+03  0.54809862215E+03  0.25500000920E-02 0.  1.
       -2   -1    0    0    0  501  0.00000000000E+00  0.00000000000E+00 -0.13755350346E+04  0.13755350346E+04  0.25500000920E-02 0. -1.
    10030    2    1    2    0    0  0.00000000000E+00  0.00000000000E+00 -0.82743641250E+03  0.19236336568E+04  0.17365815353E+04 0.  0.
        4    1    3    3  502    0 -0.47279876240E+03  0.38634709495E+03 -0.10975678423E+04  0.12559695573E+04  0.12699999809E+01 0. -1.
       -4    1    3    3    0  502  0.47279876240E+03 -0.38634709495E+03  0.27013142979E+03  0.66766409950E+03  0.12699999809E+01 0.  1.
</event>
<event>
 5   0  0.2512839E-04  0.1945811E+04  0.7818609E-02  0.8632383E-01
        2   -1    0    0  501    0  0.00000000000E+00  0.00000000000E+00  0.89751590676E+03  0.89751590676E+03  0.25500000920E-02 0.  1.
       -2   -1    0    0    0  501  0.00000000000E+00  0.00000000000E+00 -0.10546275943E+04  0.10546275943E+04  0.25500000920E-02 0. -1.
    10030    2    1    2    0    0  0.00000000000E+00  0.00000000000E+00 -0.15711168756E+03  0.19521435011E+04  0.19458109277E+04 0.  0.
        3    1    3    3  502    0 -0.48239873898E+02  0.40173976566E+03 -0.96620821865E+03  0.10475114590E+04  0.10100000352E+00 0. -1.
       -3    1    3    3    0  502  0.48239873898E+02 -0.40173976566E+03  0.80909653109E+03  0.90463204208E+03  0.10100000352E+00 0.  1.
</event>
<event>
 5   0  0.1156733E-04  0.2075666E+04  0.7818609E-02  0.8572039E-01
       -1   -1    0    0    0  501  0.00000000000E+00  0.00000000000E+00  0.12008538655E+04  0.12008538655E+04  0.50400001928E-02 0. -1.
        1   -1    0    0  501    0  0.00000000000E+00  0.00000000000E+00 -0.89694320327E+03  0.89694320329E+03  0.50400001928E-02 0.  1.
    10030    2    1    2    0    0  0.00000000000E+00  0.00000000000E+00  0.30391066221E+03  0.20977970688E+04  0.20756663632E+04 0.  0.
        2    1    3    3  502    0 -0.28890247928E+03  0.95810116555E+03  0.42997965444E+03  0.10891762893E+04  0.25500000920E-02 0. -1.
       -2    1    3    3    0  502  0.28890247928E+03 -0.95810116555E+03 -0.12606899223E+03  0.10086207795E+04  0.25500000920E-02 0.  1.
</event>
<event>
 5   0  0.1186038E-04  0.2115738E+04  0.7818609E-02  0.8554342E-01
       -1   -1    0    0    0  501  0.00000000000E+00  0.00000000000E+00  0.78784858556E+03  0.78784858558E+03  0.50400001928E-02 0. -1.
        1   -1    0    0  501    0  0.00000000000E+00  0.00000000000E+00 -0.14204335557E+04  0.14204335557E+04  0.50400001928E-02 0.  1.
    10030    2    1    2    0    0  0.00000000000E+00  0.00000000000E+00 -0.63258497013E+03  0.22082821413E+04  0.21157377605E+04 0.  0.
        4    1    3    3  502    0  0.95821304514E+03 -0.32591987908E+03  0.48829843255E+01  0.10121370776E+04  0.12699999809E+01 0. -1.
       -4    1    3    3    0  502 -0.95821304514E+03  0.32591987908E+03 -0.63746795445E+03  0.11961450637E+04  0.12699999809E+01 0.  1.
</event>
<event>
 5   0  0.1042395E-04  0.1892132E+04  0.7818609E-02  0.8658783E-01
       -1   -1    0    0    0  501  0.00000000000E+00  0.00000000000E+00  0.10183632983E+04  0.10183632983E+04  0.50400001928E-02 0.  1.
        1   -1    0    0  501    0  0.00000000000E+00  0.00000000000E+00 -0.87890155429E+03  0.87890155430E+03  0.50400001928E-02 0. -1.
    10030    2    1    2    0    0  0.00000000000E+00  0.00000000000E+00  0.13946174400E+03  0.18972648526E+04  0.18921322213E+04 0.  0.
        3    1    3    3  502    0  0.40199375391E+03 -0.87615080171E+02  0.92396063333E+03  0.10114240667E+04  0.10100000352E+00 0.  1.
       -3    1    3    3    0  502 -0.40199375391E+03  0.87615080171E+02 -0.78449888934E+03  0.88584078594E+03  0.10100000352E+00 0. -1.
</event>
<event>
 5   0  0.1042395E-04  0.2061355E+04  0.7818609E-02  0.8578461E-01
       -1   -1    0    0    0  501  0.00000000000E+00  0.00000000000E+00  0.42031855249E+03  0.42031855252E+03  0.50400001928E-02 0.  1.
        1   -1    0    0  501    0  0.00000000000E+00  0.00000000000E+00 -0.25273584866E+04  0.25273584867E+04  0.50400001928E-02 0. -1.
    10030    2    1    2    0    0  0.00000000000E+00  0.00000000000E+00 -0.21070399342E+04  0.29476770392E+04  0.20613545651E+04 0.  0.
        3    1    3    3  502    0  0.20249383355E+03  0.27698369421E+03 -0.24432956774E+04  0.24672692389E+04  0.10100000352E+00 0. -1.
       -3    1    3    3    0  502 -0.20249383355E+03 -0.27698369421E+03  0.33625574329E+03  0.48040780029E+03  0.10100000352E+00 0.  1.
</event>
<event>
 5   0  0.2430898E-04  0.2001544E+04  0.7818609E-02  0.8605899E-01
       -2   -1    0    0    0  501  0.00000000000E+00  0.00000000000E+00  0.54194243471E+03  0.54194243471E+03  0.25500000920E-02 0.  1.
        2   -1    0    0  501    0  0.00000000000E+00  0.00000000000E+00 -0.18480648981E+04  0.18480648981E+04  0.25500000920E-02 0. -1.
    10030    2    1    2    0    0  0.00000000000E+00  0.00000000000E+00 -0.13061224634E+04  0.23900073328E+04  0.20015441942E+04 0.  0.
        1    1    3    3  502    0 -0.25744079754E+03 -0.17947502716E+03  0.48166686756E+03  0.57488261492E+03  0.50400001928E-02 0.  1.
       -1    1    3    3    0  502  0.25744079754E+03  0.17947502716E+03 -0.17877893309E+04  0.18151247179E+04  0.50400001928E-02 0. -1.
</event>
<event>
 5   0  0.2579241E-04  0.2065726E+04  0.7818609E-02  0.8576493E-01
        2   -1    0    0  501    0  0.00000000000E+00  0.00000000000E+00  0.11046814871E+04  0.11046814871E+04  0.25500000920E-02 0. -1.
       -2   -1    0    0    0  501  0.00000000000E+00  0.00000000000E+00 -0.96571403868E+03  0.96571403868E+03  0.25500000920E-02 0.  1.
    10030    2    1    2    0    0  0.00000000000E+00  0.00000000000E+00  0.13896744847E+03  0.20703955258E+04  0.20657264295E+04 0.  0.
        5    1    3    3  502    0 -0.57005823512E+01  0.22502840417E+03  0.10797869576E+04  0.11030105363E+04  0.46999998093E+01 0. -1.
       -5    1    3    3    0  502  0.57005823512E+01 -0.22502840417E+03 -0.94081950912E+03  0.96738498957E+03  0.46999998093E+01 0.  1.
</event>
<event>
 5   0  0.2448804E-04  0.2104595E+04  0.7818609E-02  0.8559222E-01
        2   -1    0    0  501    0  0.00000000000E+00  0.00000000000E+00  0.20960932954E+04  0.20960932954E+04  0.25500000920E-02 0.  1.
       -2   -1    0    0    0  501  0.00000000000E+00  0.00000000000E+00 -0.52828266738E+03  0.52828266738E+03  0.25500000920E-02 0. -1.
    10030    2    1    2    0    0  0.00000000000E+00  0.00000000000E+00  0.15678106280E+04  0.26243759628E+04  0.21045947422E+04 0.  0.
        2    1    3    3  502    0 -0.71121686463E+03  0.47424015666E+03  0.18668651282E+02  0.85503314162E+03  0.25500000920E-02 0. -1.
       -2    1    3    3    0  502  0.71121686463E+03 -0.47424015666E+03  0.15491419768E+04  0.17693428212E+04  0.25500000920E-02 0.  1.
</event>
<event>
 5   0  0.1042395E-04  0.2122389E+04  0.7818609E-02  0.8551444E-01
       -1   -1    0    0    0  501  0.00000000000E+00  0.00000000000E+00  0.80871327340E+03  0.80871327341E+03  0.50400001928E-02 0.  1.
        1   -1    0    0  501    0  0.00000000000E+00  0.00000000000E+00 -0.13925011658E+04  0.13925011658E+04  0.50400001928E-02 0. -1.
    10030    2    1    2    0    0  0.00000000000E+00  0.00000000000E+00 -0.58378789239E+03  0.22012144392E+04  0.21223893856E+04 0.  0.
        3    1    3    3  502    0  0.18211154473E+03  0.78522101302E+03 -0.10077439477E+04  0.12904590379E+04  0.10100000352E+00 0. -1.
       -3    1    3    3    0  502 -0.18211154473E+03 -0.78522101302E+03  0.42395605535E+03  0.91075540135E+03  0.10100000352E+00 0.  1.
</event>
<event>
 5   0  0.2448804E-04  0.2110996E+04  0.7818609E-02  0.8556415E-01
        2   -1    0    0  501    0  0.00000000000E+00  0.00000000000E+00  0.13973171954E+04  0.13973171954E+04  0.25500000920E-02 0. -1.
       -2   -1    0    0    0  501  0.00000000000E+00  0.00000000000E+00 -0.79729646011E+03  0.79729646011E+03  0.25500000920E-02 0.  1.
    10030    2    1    2    0    0  0.00000000000E+00  0.00000000000E+00  0.60002073532E+03  0.21946136555E+04  0.21109960242E+04 0.  0.
        2    1    3    3  502    0 -0.65375827892E+02 -0.90262318618E+02 -0.79116215464E+03  0.79897361657E+03  0.25500000920E-02 0.  1.
       -2    1    3    3    0  502  0.65375827892E+02  0.90262318618E+02  0.13911828900E+04  0.13956400390E+04  0.25500000920E-02 0. -1.
</event>
<event>
 5   0  0.1122711E-04  0.2075794E+04  0.7818609E-02  0.8571982E-01
       -1   -1    0    0    0  501  0.00000000000E+00  0.00000000000E+00  0.82416934928E+03  0.82416934929E+03  0.50400001928E-02 0.  1.
        1   -1    0    0  501    0  0.00000000000E+00  0.00000000000E+00 -0.13070493420E+04  0.13070493420E+04  0.50400001928E-02 0. -1.
    10030    2    1    2    0    0  0.00000000000E+00  0.00000000000E+00 -0.48287999270E+03  0.21312186913E+04  0.20757938295E+04 0.  0.
        1    1    3    3  502    0  0.32107795027E+03  0.98674320295E+03 -0.21902105607E+03  0.10605297835E+04  0.50400001928E-02 0. -1.
       -1    1    3    3    0  502 -0.32107795027E+03 -0.98674320295E+03 -0.26385893663E+03  0.10706889078E+04  0.50400001928E-02 0.  1.
</event>
<event>
 5   0  0.1130848E-04  0.2045034E+04  0.7818609E-02  0.8585850E-01
       -1   -1    0    0    0  501  0.00000000000E+00  0.00000000000E+00  0.10264052111E+04  0.10264052111E+04  0.50400001928E-02 0. -1.
        1   -1    0    0  501    0  0.00000000000E+00  0.00000000000E+00 -0.10186436300E+04  0.10186436301E+04  0.50400001928E-02 0.  1.
    10030    2    1    2    0    0  0.00000000000E+00  0.00000000000E+00  0.77615810361E+01  0.20450488411E+04  0.20450341123E+04 0.  0.
        5    1    3    3  502    0 -0.31615554955E+03  0.54026543366E+03  0.81239015084E+03  0.10255929590E+04  0.46999998093E+01 0. -1.
       -5    1    3    3    0  502  0.31615554955E+03 -0.54026543366E+03 -0.80462856981E+03  0.10194558822E+04  0.46999998093E+01 0.  1.
</event>
<event>
 5   0  0.2467483E-04  0.2064580E+04  0.7818609E-02  0.8577009E-01
       -2   -1    0    0    0  501  0.00000000000E+00  0.00000000000E+00  0.28912141352E+04  0.28912141352E+04  0.25500000920E-02 0. -1.
        2   -1    0    0  501    0  0.00000000000E+00  0.00000000000E+00 -0.36857274425E+03  0.36857274426E+03  0.25500000920E-02 0.  1.
    10030    2    1    2    0    0  0.00000000000E+00  0.00000000000E+00  0.25226413910E+04  0.32597868795E+04  0.20645800813E+04 0.  0.
        4    1    3    3  502    0  0.10050070732E+04 -0.11376569868E+03  0.15873542682E+04  0.18822000524E+04  0.12699999809E+01 0. -1.
       -4    1    3    3    0  502 -0.10050070732E+04  0.11376569868E+03  0.93528712273E+03  0.13775868271E+04  0.12699999809E+01 0.  1.
</event>
<event>
 5   0  0.1042395E-04  0.2107300E+04  0.7818609E-02  0.8558034E-01
       -1   -1    0    0    0  501  0.00000000000E+00  0.00000000000E+00  0.13067168796E+04  0.13067168796E+04  0.50400001928E-02 0. -1.
        1   -1    0    0  501    0  0.00000000000E+00  0.00000000000E+00 -0.84959375784E+03  0.84959375786E+03  0.50400001928E-02 0.  1.
    10030    2    1    2    0    0  0.00000000000E+00  0.00000000000E+00  0.45712312172E+03  0.21563106374E+04  0.21073001724E+04 0.  0.
        3    1    3    3  502    0  0.45653786184E+03 -0.36434146034E+03  0.11258871693E+04  0.12683822166E+04  0.10100000352E+00 0. -1.
       -3    1    3    3    0  502 -0.45653786184E+03  0.36434146034E+03 -0.66876404761E+03  0.88792842087E+03  0.10100000352E+00 0.  1.
</event>
<event>
 5   0  0.8698750E-05  0.2162834E+04  0.7818609E-02  0.8534058E-01
        3   -1    0    0  501    0  0.00000000000E+00  0.00000000000E+00  0.91208358232E+03  0.91208358791E+03  0.10100000352E+00 0. -1.
       -3   -1    0    0    0  501  0.00000000000E+00  0.00000000000E+00 -0.12821886651E+04  0.12821886690E+04  0.10100000352E+00 0.  1.
    10030    2    1    2    0    0  0.00000000000E+00  0.00000000000E+00 -0.37010508274E+03  0.21942722569E+04  0.21628344748E+04 0.  0.
        1    1    3    3  502    0 -0.51219491946E+02 -0.29498536441E+03  0.86919744475E+03  0.91931713764E+03  0.50400001928E-02 0. -1.
       -1    1    3    3    0  502  0.51219491946E+02  0.29498536441E+03 -0.12393025275E+04  0.12749551193E+04  0.50400001928E-02 0.  1.
</event>
<event>
 5   0  0.1122711E-04  0.2101898E+04  0.7818609E-02  0.8560408E-01
        1   -1    0    0  501    0  0.00000000000E+00  0.00000000000E+00  0.96264622678E+03  0.96264622679E+03  0.50400001928E-02 0.  1.
       -1   -1    0    0    0  501  0.00000000000E+00  0.00000000000E+00 -0.11473520558E+04  0.11473520559E+04  0.50400001928E-02 0. -1.
    10030    2    1    2    0    0  0.00000000000E+00  0.00000000000E+00 -0.18470582907E+03  0.21099982826E+04  0.21018983109E+04 0.  0.
        1    1    3    3  502    0 -0.36315208055E+03 -0.56131544063E+03 -0.90636598860E+03  0.11262565262E+04  0.50400001928E-02 0. -1.
       -1    1    3    3    0  502  0.36315208055E+03  0.56131544063E+03  0.72166015953E+03  0.98374175645E+03  0.50400001928E-02 0.  1.
</event>
<event>
 5   0  0.1156733E-04  0.2024132E+04  0.7818609E-02  0.8595421E-01
        1   -1    0    0  501    0  0.00000000000E+00  0.00000000000E+00  0.11857242991E+04  0.11857242991E+04  0.50400001928E-02 0. -1.
       -1   -1    0    0    0  501  0.00000000000E+00  0.00000000000E+00 -0.86384131447E+03  0.86384131449E+03  0.50400001928E-02 0.  1.
    10030    2    1    2    0    0  0.00000000000E+00  0.00000000000E+00  0.32188298466E+03  0.20495656136E+04  0.20241320483E+04 0.  0.
        2    1    3    3  502    0 -0.80102164587E+03 -0.33166240754E+03 -0.36777075459E+03  0.94174888249E+03  0.25500000920E-02 0.  1.
       -2    1    3    3    0  502  0.80102164587E+03  0.33166240754E+03  0.68965373926E+03  0.11078167311E+04  0.25500000920E-02 0. -1.
</event>
<event>
 5   0  0.1186038E-04  0.2134462E+04  0.7818609E-02  0.8546213E-01
        1   -1    0    0  501    0  0.00000000000E+00  0.00000000000E+00  0.11828623193E+04  0.11828623193E+04  0.50400001928E-02 0. -1.
       -1   -1    0    0    0  501  0.00000000000E+00  0.00000000000E+00 -0.96290331915E+03  0.96290331916E+03  0.50400001928E-02 0.  1.
    10030    2    1    2    0    0  0.00000000000E+00  0.00000000000E+00  0.21995900016E+03  0.21457656385E+04  0.21344620431E+04 0.  0.
        4    1    3    3  502    0  0.21145040304E+03  0.35876148641E+02 -0.94101481972E+03  0.96514707419E+03  0.12699999809E+01 0.  1.
       -4    1    3    3    0  502 -0.21145040304E+03 -0.35876148641E+02  0.11609738199E+04  0.11806185643E+04  0.12699999809E+01 0. -1.
</event>
<event>
 5   0  0.1130848E-04  0.1973737E+04  0.7818609E-02  0.8618999E-01
        1   -1    0    0  501    0  0.00000000000E+00  0.00000000000E+00  0.93294378397E+03  0.93294378398E+03  0.50400001928E-02 0.  1.
       -1   -1    0    0    0  501  0.00000000000E+00  0.00000000000E+00 -0.10439097169E+04  0.10439097169E+04  0.50400001928E-02 0. -1.
    10030    2    1    2    0    0  0.00000000000E+00  0.00000000000E+00 -0.11096593295E+03  0.19768535009E+04  0.19737366404E+04 0.  0.
        5    1    3    3  502    0  0.35639704419E+03  0.42995497288E+03  0.75943994385E+03  0.94268300617E+03  0.46999998093E+01 0.  1.
       -5    1    3    3    0  502 -0.35639704419E+03 -0.42995497288E+03 -0.87040587681E+03  0.10341704947E+04  0.46999998093E+01 0. -1.
</event>
<event>
 5   0  0.2430898E-04  0.2022292E+04  0.7818609E-02  0.8596269E-01
       -2   -1    0    0    0  501  0.00000000000E+00  0.00000000000E+00  0.75134741833E+03  0.75134741834E+03  0.25500000920E-02 0. -1.
        2   -1    0    0  501    0  0.00000000000E+00  0.00000000000E+00 -0.13607773431E+04  0.13607773431E+04  0.25500000920E-02 0.  1.
    10030    2    1    2    0    0  0.00000000000E+00  0.00000000000E+00 -0.60942992476E+03  0.21121247614E+04  0.20222923069E+04 0.  0.
        1    1    3    3  502    0  0.39497695828E+03  0.91424311743E+03 -0.48732227289E+03  0.11087516733E+04  0.50400001928E-02 0.  1.
       -1    1    3    3    0  502 -0.39497695828E+03 -0.91424311743E+03 -0.12210765187E+03  0.10033730881E+04  0.50400001928E-02 0. -1.
</event>
<event>
 5   0  0.1156733E-04  0.2086755E+04  0.7818609E-02  0.8567100E-01
        1   -1    0    0  501    0  0.00000000000E+00  0.00000000000E+00  0.46404471743E+03  0.46404471745E+03  0.50400001928E-02 0.  1.
       -1   -1    0    0    0  501  0.00000000000E+00  0.00000000000E+00 -0.23459735069E+04  0.23459735069E+04  0.50400001928E-02 0. -1.
    10030    2    1    2    0    0  0.00000000000E+00  0.00000000000E+00 -0.18819287895E+04  0.28100182244E+04  0.20867550054E+04 0.  0.
        2    1    3    3  502    0  0.19732259401E+03  0.19927178324E+03 -0.22942718044E+04  0.23113477804E+04  0.25500000920E-02 0. -1.
       -2    1    3    3    0  502 -0.19732259401E+03 -0.19927178324E+03  0.41234301491E+03  0.49867044393E+03  0.25500000920E-02 0.  1.
</event>
<event>
 5   0  0.2512839E-04  0.2371368E+04  0.7818609E-02  0.8450301E-01
       -2   -1    0    0    0  501  0.00000000000E+00  0.00000000000E+00  0.82747104200E+03  0.82747104201E+03  0.25500000920E-02 0. -1.
        2   -1    0    0  501    0  0.00000000000E+00  0.00000000000E+00 -0.16989678507E+04  0.16989678507E+04  0.25500000920E-02 0.  1.
    10030    2    1    2    0    0  0.00000000000E+00  0.00000000000E+00 -0.87149680865E+03  0.25264388927E+04  0.23713681264E+04 0.  0.
        3    1    3    3  502    0  0.78228186552E+03  0.81344139440E+03 -0.82311049704E+03  0.13968402628E+04  0.10100000352E+00 0.  1.
       -3    1    3    3    0  502 -0.78228186552E+03 -0.81344139440E+03 -0.48386311606E+02  0.11295986299E+04  0.10100000352E+00 0. -1.
</event>
<event>
 5   0  0.1186038E-04  0.2082097E+04  0.7818609E-02  0.8569171E-01
        1   -1    0    0  501    0  0.00000000000E+00  0.00000000000E+00  0.22130625638E+04  0.22130625638E+04  0.50400001928E-02 0. -1.
       -1   -1    0    0    0  501  0.00000000000E+00  0.00000000000E+00 -0.48972035627E+03  0.48972035629E+03  0.50400001928E-02 0.  1.
    10030    2    1    2    0    0  0.00000000000E+00  0.00000000000E+00  0.17233422075E+04  0.27027829201E+04  0.20820968154E+04 0.  0.
        4    1    3    3  502    0 -0.82605337499E+03 -0.27052168295E+02  0.39974784302E+02  0.82746334930E+03  0.12699999809E+01 0.  1.
       -4    1    3    3    0  502  0.82605337499E+03  0.27052168295E+02  0.16833674232E+04  0.18753195708E+04  0.12699999809E+01 0. -1.
</event>
<event>
 5   0  0.2430898E-04  0.2097265E+04  0.7818609E-02  0.8562449E-01
       -2   -1    0    0    0  501  0.00000000000E+00  0.00000000000E+00  0.69167425047E+03  0.69167425047E+03  0.25500000920E-02 0. -1.
        2   -1    0    0  501    0  0.00000000000E+00  0.00000000000E+00 -0.15898086385E+04  0.15898086385E+04  0.25500000920E-02 0.  1.
    10030    2    1    2    0    0  0.00000000000E+00  0.00000000000E+00 -0.89813438806E+03  0.22814828890E+04  0.20972645979E+04 0.  0.
        1    1    3    3  502    0 -0.74738283102E+03  0.94279987325E+02  0.34450246955E+03  0.82834278150E+03  0.50400001928E-02 0. -1.
       -1    1    3    3    0  502  0.74738283102E+03 -0.94279987325E+02 -0.12426368576E+04  0.14531401075E+04  0.50400001928E-02 0.  1.
</event>
<event>
 5   0  0.1042395E-04  0.1876142E+04  0.7818609E-02  0.8666824E-01
       -1   -1    0    0    0  501  0.00000000000E+00  0.00000000000E+00  0.14212631486E+04  0.14212631486E+04  0.50400001928E-02 0.  1.
        1   -1    0    0  501    0  0.00000000000E+00  0.00000000000E+00 -0.61915144685E+03  0.61915144687E+03  0.50400001928E-02 0. -1.
    10030    2    1    2    0    0  0.00000000000E+00  0.00000000000E+00  0.80211170175E+03  0.20404145955E+04  0.18761419294E+04 0.  0.
        3    1    3    3  502    0  0.57141654931E+03 -0.48957745457E+03 -0.20814615573E+03  0.78072260708E+03  0.10100000352E+00 0. -1.
       -3    1    3    3    0  502 -0.57141654931E+03  0.48957745457E+03  0.10102578575E+04  0.12596919884E+04  0.10100000352E+00 0.  1.
</event>
<event>
 5   0  0.2467483E-04  0.2064683E+04  0.7818609E-02  0.8576962E-01
       -2   -1    0    0    0  501  0.00000000000E+00  0.00000000000E+00  0.58908111244E+03  0.58908111245E+03  0.25500000920E-02 0.  1.
        2   -1    0    0  501    0  0.00000000000E+00  0.00000000000E+00 -0.18091380080E+04  0.18091380080E+04  0.25500000920E-02 0. -1.
    10030    2    1    2    0    0  0.00000000000E+00  0.00000000000E+00 -0.12200568956E+04  0.23982191205E+04  0.20646830559E+04 0.  0.
        4    1    3    3  502    0  0.45299535080E+03 -0.75147451880E+03 -0.12417721514E+04  0.15204994013E+04  0.12699999809E+01 0. -1.
       -4    1    3    3    0  502 -0.45299535080E+03  0.75147451880E+03  0.21715255867E+02  0.87771971921E+03  0.12699999809E+01 0.  1.
</event>
<event>
 5   0  0.2467483E-04  0.2205154E+04  0.7818609E-02  0.8516286E-01
        2   -1    0    0  501    0  0.00000000000E+00  0.00000000000E+00  0.12473323661E+04  0.12473323661E+04  0.25500000920E-02 0. -1.
       -2   -1    0    0    0  501  0.00000000000E+00  0.00000000000E+00 -0.97462085085E+03  0.97462085086E+03  0.25500000920E-02 0.  1.
    10030    2    1    2    0    0  0.00000000000E+00  0.00000000000E+00  0.27271151521E+03  0.22219532169E+04  0.22051540825E+04 0.  0.
        4    1    3    3  502    0 -0.37086215632E+03 -0.81468279596E+01  0.11825668768E+04  0.12393833712E+04  0.12699999809E+01 0. -1.
       -4    1    3    3    0  502  0.37086215632E+03  0.81468279596E+01 -0.90985536160E+03  0.98256984572E+03  0.12699999809E+01 0.  1.
</event>
<event>
 5   0  0.2579241E-04  0.1936779E+04  0.7818609E-02  0.8636763E-01
       -2   -1    0    0    0  501  0.00000000000E+00  0.00000000000E+00  0.13327916099E+04  0.13327916099E+04  0.25500000920E-02 0. -1.
        2   -1    0    0  501    0  0.00000000000E+00  0.00000000000E+00 -0.70361970429E+03  0.70361970429E+03  0.25500000920E-02 0.  1.
    10030    2    1    2    0    0  0.00000000000E+00  0.00000000000E+00  0.62917190559E+03  0.20364113142E+04  0.19367792217E+04 0.  0.
        5    1    3    3  502    0 -0.40098042024E+03 -0.20011203844E+03  0.12171902348E+04  0.12970752804E+04  0.46999998093E+01 0. -1.
       -5    1    3    3    0  502  0.40098042024E+03  0.20011203844E+03 -0.58801832921E+03  0.73933603377E+03  0.46999998093E+01 0.  1.
</event>
<event>
 5   0  0.2448804E-04  0.2417141E+04  0.7818609E-02  0.8433114E-01
       -2   -1    0    0    0  501  0.00000000000E+00  0.00000000000E+00  0.11572910950E+04  0.11572910950E+04  0.25500000920E-02 0. -1.
        2   -1    0    0  501    0  0.00000000000E+00  0.00000000000E+00 -0.12621217167E+04  0.12621217167E+04  0.25500000920E-02 0.  1.
    10030    2    1    2    0    0  0.00000000000E+00  0.00000000000E+00 -0.10483062173E+03  0.24194128117E+04  0.24171406443E+04 0.  0.
        2    1    3    3  502    0 -0.10392172869E+04 -0.51186871951E+03 -0.39720982831E+03  0.12246459910E+04  0.25500000920E-02 0. -1.
       -2    1    3    3    0  502  0.10392172869E+04  0.51186871951E+03  0.29237920658E+03  0.11947668207E+04  0.25500000920E-02 0.  1.
</event>
<event>
 5   0  0.2512839E-04  0.2110160E+04  0.7818609E-02  0.8556781E-01
       -2   -1    0    0    0  501  0.00000000000E+00  0.00000000000E+00  0.11847078256E+04  0.11847078256E+04  0.25500000920E-02 0. -1.
        2   -1    0    0  501    0  0.00000000000E+00  0.00000000000E+00 -0.93963561972E+03  0.93963561972E+03  0.25500000920E-02 0.  1.
    10030    2    1    2    0    0  0.00000000000E+00  0.00000000000E+00  0.24507220586E+03  0.21243434453E+04  0.21101598725E+04 0.  0.
        3    1    3    3  502    0 -0.37076313013E+03  0.51155305947E+03  0.97322584945E+03  0.11603104738E+04  0.10100000352E+00 0. -1.
       -3    1    3    3    0  502  0.37076313013E+03 -0.51155305947E+03 -0.72815364359E+03  0.96403297152E+03  0.10100000352E+00 0.  1.
</event>
<event>
 5   0  0.2512839E-04  0.2071864E+04  0.7818609E-02  0.8573740E-01
       -2   -1    0    0    0  501  0.00000000000E+00  0.00000000000E+00  0.71791935166E+03  0.71791935167E+03  0.25500000920E-02 0. -1.
        2   -1    0    0  501    0  0.00000000000E+00  0.00000000000E+00 -0.14948124267E+04  0.14948124267E+04  0.25500000920E-02 0.  1.
    10030    2    1    2    0    0  0.00000000000E+00  0.00000000000E+00 -0.77689307500E+03  0.22127317783E+04  0.20718636714E+04 0.  0.
        3    1    3    3  502    0  0.10318002427E+03 -0.33893592162E+03 -0.14280967485E+04  0.14713884632E+04  0.10100000352E+00 0.  1.
       -3    1    3    3    0  502 -0.10318002427E+03  0.33893592162E+03  0.65120367347E+03  0.74134331515E+03  0.10100000352E+00 0. -1.
</event>
<event>
 5   0  0.2448804E-04  0.2023551E+04  0.7818609E-02  0.8595688E-01
        2   -1    0    0  501    0  0.00000000000E+00  0.00000000000E+00  0.20665773578E+04  0.20665773578E+04  0.25500000920E-02 0.  1.
       -2   -1    0    0    0  501  0.00000000000E+00  0.00000000000E+00 -0.49535500469E+03  0.49535500470E+03  0.25500000920E-02 0. -1.
    10030    2    1    2    0    0  0.00000000000E+00  0.00000000000E+00  0.15712223531E+04  0.25619323625E+04  0.20235507770E+04 0.  0.
        2    1    3    3  502    0  0.16560304798E+03 -0.19369936454E+03 -0.45405642274E+03  0.52068325147E+03  0.25500000920E-02 0. -1.
       -2    1    3    3    0  502 -0.16560304798E+03  0.19369936454E+03  0.20252787759E+04  0.20412491111E+04  0.25500000920E-02 0.  1.
</event>
<event>
 5   0  0.8698750E-05  0.2147694E+04  0.7818609E-02  0.8540520E-01
       -3   -1    0    0    0  501  0.00000000000E+00  0.00000000000E+00  0.62821426258E+03  0.62821427070E+03  0.10100000352E+00 0.  1.
        3   -1    0    0  501    0  0.00000000000E+00  0.00000000000E+00 -0.18355960282E+04  0.18355960310E+04  0.10100000352E+00 0. -1.
    10030    2    1    2    0    0  0.00000000000E+00  0.00000000000E+00 -0.12073817656E+04  0.24638103017E+04  0.21476942228E+04 0.  0.
        3    1    3    3  502    0  0.90848908381E+02  0.25599670082E+03  0.58814904887E+03  0.64784809089E+03  0.10100000352E+00 0.  1.
       -3    1    3    3    0  502 -0.90848908381E+02 -0.25599670082E+03 -0.17955308145E+04  0.18159622108E+04  0.10100000352E+00 0. -1.
</event>
<event>
 5   0  0.8698750E-05  0.2232482E+04  0.7818609E-02  0.8505029E-01
        4   -1    0    0  501    0  0.00000000000E+00  0.00000000000E+00  0.14298799986E+04  0.14298805626E+04  0.12699999809E+01 0.  1.
       -4   -1    0    0    0  501  0.00000000000E+00  0.00000000000E+00 -0.87139620228E+03  0.87139712775E+03  0.12699999809E+01 0. -1.
    10030    2    1    2    0    0  0.00000000000E+00  0.00000000000E+00  0.55848379636E+03  0.23012776904E+04  0.22324817709E+04 0.  0.
        5    1    3    3  502    0  0.42182467004E+03  0.98156383175E+03 -0.54092813060E+02  0.10697437686E+04  0.46999998093E+01 0. -1.
       -5    1    3    3    0  502 -0.42182467004E+03 -0.98156383175E+03  0.61257660942E+03  0.12315339218E+04  0.46999998093E+01 0.  1.
</event>
<event>
 5   0  0.2512839E-04  0.2097163E+04  0.7818609E-02  0.8562494E-01
       -2   -1    0    0    0  501  0.00000000000E+00  0.00000000000E+00  0.91530709605E+03  0.91530709605E+03  0.25500000920E-02 0. -1.
        2   -1    0    0  501    0  0.00000000000E+00  0.00000000000E+00 -0.12012609562E+04  0.12012609562E+04  0.25500000920E-02 0.  1.
    10030    2    1    2    0    0  0.00000000000E+00  0.00000000000E+00 -0.28595386014E+03  0.21165680522E+04  0.20971625377E+04 0.  0.
        3    1    3    3  502    0  0.49189930769E+03 -0.79697183637E+03  0.33297305499E+03  0.99398194270E+03  0.10100000352E+00 0. -1.
       -3    1    3    3    0  502 -0.49189930769E+03  0.79697183637E+03 -0.61892691513E+03  0.11225861095E+04  0.10100000352E+00 0.  1.
</event>
<event>
 5   0  0.1122711E-04  0.2067859E+04  0.7818609E-02  0.8575535E-01
        1   -1    0    0  501    0  0.00000000000E+00  0.00000000000E+00  0.26507524190E+04  0.26507524190E+04  0.50400001928E-02 0.  1.
       -1   -1    0    0    0  501  0.00000000000E+00  0.00000000000E+00 -0.40328554042E+03  0.40328554045E+03  0.50400001928E-02 0. -1.
    10030    2    1    2    0    0  0.00000000000E+00  0.00000000000E+00  0.22474668786E+04  0.30540379595E+04  0.20678589138E+04 0.  0.
        1    1    3    3  502    0  0.77988343714E+03 -0.52206861386E+03  0.17645079466E+04  0.19985650119E+04  0.50400001928E-02 0.  1.
       -1    1    3    3    0  502 -0.77988343714E+03  0.52206861386E+03  0.48295893205E+03  0.10554729476E+04  0.50400001928E-02 0. -1.
</event>
<event>
 5   0  0.2430898E-04  0.1492813E+04  0.7818609E-02  0.8889246E-01
       -2   -1    0    0    0  501  0.00000000000E+00  0.00000000000E+00  0.49821934914E+03  0.49821934915E+03  0.25500000920E-02 0.  1.
        2   -1    0    0  501    0  0.00000000000E+00  0.00000000000E+00 -0.11182279013E+04  0.11182279013E+04  0.25500000920E-02 0. -1.
    10030    2    1    2    0    0  0.00000000000E+00  0.00000000000E+00 -0.62000855221E+03  0.16164472505E+04  0.14928131527E+04 0.  0.
        1    1    3    3  502    0  0.15974439119E+03 -0.31371523390E+03 -0.10226832091E+04  0.10815805401E+04  0.50400001928E-02 0. -1.
       -1    1    3    3    0  502 -0.15974439119E+03  0.31371523390E+03  0.40267465693E+03  0.53486671037E+03  0.50400001928E-02 0.  1.
</event>
<event>
 5   0  0.2448804E-04  0.1978381E+04  0.7818609E-02  0.8616795E-01
       -2   -1    0    0    0  501  0.00000000000E+00  0.00000000000E+00  0.16394684575E+04  0.16394684575E+04  0.25500000920E-02 0. -1.
        2   -1    0    0  501    0  0.00000000000E+00  0.00000000000E+00 -0.59683856627E+03  0.59683856628E+03  0.25500000920E-02 0.  1.
    10030    2    1    2    0    0  0.00000000000E+00  0.00000000000E+00  0.10426298912E+04  0.22363070237E+04  0.19783811600E+04 0.  0.
        2    1    3    3  502    0 -0.19675055414E+02  0.66371865662E+03  0.13501086073E+04  0.15045606716E+04  0.25500000920E-02 0. -1.
       -2    1    3    3    0  502  0.19675055414E+02 -0.66371865662E+03 -0.30747871615E+03  0.73174635212E+03  0.25500000920E-02 0.  1.
</event>
<event>
 5   0  0.1156733E-04  0.2013494E+04  0.7818609E-02  0.8600338E-01
       -1   -1    0    0    0  501  0.00000000000E+00  0.00000000000E+00  0.66513694242E+03  0.66513694244E+03  0.50400001928E-02 0.  1.
        1   -1    0    0  501    0  0.00000000000E+00  0.00000000000E+00 -0.15238052628E+04  0.15238052628E+04  0.50400001928E-02 0. -1.
    10030    2    1    2    0    0  0.00000000000E+00  0.00000000000E+00 -0.85866832041E+03  0.21889422053E+04  0.20134936537E+04 0.  0.
        2    1    3    3  502    0  0.94998551331E+02 -0.86093649578E+03 -0.98717687757E+03  0.13132991137E+04  0.25500000920E-02 0. -1.
       -2    1    3    3    0  502 -0.94998551331E+02  0.86093649578E+03  0.12850855716E+03  0.87564309155E+03  0.25500000920E-02 0.  1.
</event>
<event>
 5   0  0.2579241E-04  0.2115142E+04  0.7818609E-02  0.8554602E-01
       -2   -1    0    0    0  501  0.00000000000E+00  0.00000000000E+00  0.86463114900E+03  0.86463114900E+03  0.25500000920E-02 0. -1.
        2   -1    0    0  501    0  0.00000000000E+00  0.00000000000E+00 -0.12935649328E+04  0.12935649328E+04  0.25500000920E-02 0.  1.
    10030    2    1    2    0    0  0.00000000000E+00  0.00000000000E+00 -0.42893378381E+03  0.21581960818E+04  0.21151421079E+04 0.  0.
        5    1    3    3  502    0  0.46818398510E+03 -0.70912319591E+03  0.42793761788E+03  0.95142243282E+03  0.46999998093E+01 0. -1.
       -5    1    3    3    0  502 -0.46818398510E+03  0.70912319591E+03 -0.85687140169E+03  0.12067736490E+04  0.46999998093E+01 0.  1.
</event>
<event>
 5   0  0.1042395E-04  0.1914041E+04  0.7818609E-02  0.8647899E-01
        1   -1    0    0  501    0  0.00000000000E+00  0.00000000000E+00  0.14385924616E+04  0.14385924616E+04  0.50400001928E-02 0. -1.
       -1   -1    0    0    0  501  0.00000000000E+00  0.00000000000E+00 -0.63665567791E+03  0.63665567793E+03  0.50400001928E-02 0.  1.
    10030    2    1    2    0    0  0.00000000000E+00  0.00000000000E+00  0.80193678366E+03  0.20752481395E+04  0.19140408135E+04 0.  0.
        3    1    3    3  502    0 -0.50811332962E+03 -0.23438544378E+02  0.12798983012E+04  0.13772683808E+04  0.10100000352E+00 0. -1.
       -3    1    3    3    0  502  0.50811332962E+03  0.23438544378E+02 -0.47796151756E+03  0.69797975871E+03  0.10100000352E+00 0.  1.
</event>
<event>
 5   0  0.1042395E-04  0.2033115E+04  0.7818609E-02  0.8591293E-01
       -1   -1    0    0    0  501  0.00000000000E+00  0.00000000000E+00  0.37357571763E+03  0.37357571766E+03  0.50400001928E-02 0.  1.
        1   -1    0    0  501    0  0.00000000000E+00  0.00000000000E+00 -0.27662093501E+04  0.27662093501E+04  0.50400001928E-02 0. -1.
    10030    2    1    2    0    0  0.00000000000E+00  0.00000000000E+00 -0.23926336325E+04  0.31397850678E+04  0.20331145006E+04 0.  0.
        3    1    3    3  502    0 -0.63823854876E+03 -0.55993213045E+03 -0.33299175662E+03  0.91200655481E+03  0.10100000352E+00 0.  1.
       -3    1    3    3    0  502  0.63823854876E+03  0.55993213045E+03 -0.20596418758E+04  0.22277785130E+04  0.10100000352E+00 0. -1.
</event>
<event>
 5   0  0.1186038E-04  0.2100561E+04  0.7818609E-02  0.8560996E-01
       -1   -1    0    0    0  501  0.00000000000E+00  0.00000000000E+00  0.72143909909E+03  0.72143909911E+03  0.50400001928E-02 0. -1.
        1   -1    0    0  501    0  0.00000000000E+00  0.00000000000E+00 -0.15290120141E+04  0.15290120141E+04  0.50400001928E-02 0.  1.
    10030    2    1    2    0    0  0.00000000000E+00  0.00000000000E+00 -0.80757291503E+03  0.22504511132E+04  0.21005609251E+04 0.  0.
        4    1    3    3  502    0 -0.32246150365E+03 -0.92095602892E+03  0.12454792871E+02  0.97585765525E+03  0.12699999809E+01 0. -1.
       -4    1    3    3    0  502  0.32246150365E+03  0.92095602892E+03 -0.82002770790E+03  0.12745934580E+04  0.12699999809E+01 0.  1.
</event>
<event>
 5   0  0.2467483E-04  0.1957332E+04  0.7818609E-02  0.8626833E-01
        2   -1    0    0  501    0  0.00000000000E+00  0.00000000000E+00  0.35438937724E+03  0.35438937725E+03  0.25500000920E-02 0. -1.
       -2   -1    0    0    0  501  0.00000000000E+00  0.00000000000E+00 -0.27026414849E+04  0.27026414849E+04  0.25500000920E-02 0.  1.
    10030    2    1    2    0    0  0.00000000000E+00  0.00000000000E+00 -0.23482521077E+04  0.30570308622E+04  0.19573322996E+04 0.  0.
        4    1    3    3  502    0 -0.40571566158E+03 -0.83460186690E+03 -0.16596040532E+04  0.19014343798E+04  0.12699999809E+01 0.  1.
       -4    1    3    3    0  502  0.40571566158E+03  0.83460186690E+03 -0.68864805445E+03  0.11555964824E+04  0.12699999809E+01 0. -1.
</event>
<event>
 5   0  0.2448804E-04  0.2085879E+04  0.7818609E-02  0.8567490E-01
        2   -1    0    0  501    0  0.00000000000E+00  0.00000000000E+00  0.21781553969E+04  0.21781553969E+04  0.25500000920E-02 0. -1.
       -2   -1    0    0    0  501  0.00000000000E+00  0.00000000000E+00 -0.49937782419E+03  0.49937782420E+03  0.25500000920E-02 0.  1.
    10030    2    1    2    0    0  0.00000000000E+00  0.00000000000E+00  0.16787775727E+04  0.26775332211E+04  0.20858787145E+04 0.  0.
        2    1    3    3  502    0  0.45614451517E+03  0.93776707965E+03  0.81919066252E+03  0.13261026566E+04  0.25500000920E-02 0. -1.
       -2    1    3    3    0  502 -0.45614451517E+03 -0.93776707965E+03  0.85958691022E+03  0.13514305645E+04  0.25500000920E-02 0.  1.
</event>
<event>
 5   0  0.2467483E-04  0.1604511E+04  0.7818609E-02  0.8817782E-01
        2   -1    0    0  501    0  0.00000000000E+00  0.00000000000E+00  0.89968402775E+03  0.89968402776E+03  0.25500000920E-02 0.  1.
       -2   -1    0    0    0  501  0.00000000000E+00  0.00000000000E+00 -0.71537738893E+03  0.71537738893E+03  0.25500000920E-02 0. -1.
    10030    2    1    2    0    0  0.00000000000E+00  0.00000000000E+00  0.18430663883E+03  0.16150614167E+04  0.16045106552E+04 0.  0.
        4    1    3    3  502    0  0.75298104081E+03 -0.28229917028E+02  0.36934500473E+03  0.83916310777E+03  0.12699999809E+01 0.  1.
       -4    1    3    3    0  502 -0.75298104081E+03  0.28229917028E+02 -0.18503836590E+03  0.77589830892E+03  0.12699999809E+01 0. -1.
</event>
<event>
 5   0  0.2430898E-04  0.2114907E+04  0.7818609E-02  0.8554705E-01
        2   -1    0    0  501    0  0.00000000000E+00  0.00000000000E+00  0.81314516749E+03  0.81314516749E+03  0.25500000920E-02 0. -1.
       -2   -1    0    0    0  501  0.00000000000E+00  0.00000000000E+00 -0.13751638851E+04  0.13751638851E+04  0.25500000920E-02 0.  1.
    10030    2    1    2    0    0  0.00000000000E+00  0.00000000000E+00 -0.56201871763E+03  0.21883090526E+04  0.21149069650E+04 0.  0.
        1    1    3    3  502    0  0.52117865570E+03 -0.79704728714E+03 -0.75663289129E+03  0.12163078974E+04  0.50400001928E-02 0.  1.
       -1    1    3    3    0  502 -0.52117865570E+03  0.79704728714E+03  0.19461417366E+03  0.97200115520E+03  0.50400001928E-02 0. -1.
</event>
<event>
 5   0  0.2512839E-04  0.2027339E+04  0.7818609E-02  0.8593944E-01
        2   -1    0    0  501    0  0.00000000000E+00  0.00000000000E+00  0.79707305533E+03  0.79707305534E+03  0.25500000920E-02 0.  1.
       -2   -1    0    0    0  501  0.00000000000E+00  0.00000000000E+00 -0.12891244010E+04  0.12891244010E+04  0.25500000920E-02 0. -1.
    10030    2    1    2    0    0  0.00000000000E+00  0.00000000000E+00 -0.49205134570E+03  0.20861974564E+04  0.20273394635E+04 0.  0.
        3    1    3    3  502    0 -0.63809198207E+03 -0.34693356867E+03  0.48161140944E+03  0.87147796217E+03  0.10100000352E+00 0.  1.
       -3    1    3    3    0  502  0.63809198207E+03  0.34693356867E+03 -0.97366275513E+03  0.12147194942E+04  0.10100000352E+00 0. -1.
</event>
<event>
 5   0  0.1122711E-04  0.2122082E+04  0.7818609E-02  0.8551578E-01
        1   -1    0    0  501    0  0.00000000000E+00  0.00000000000E+00  0.89638525961E+03  0.89638525963E+03  0.50400001928E-02 0. -1.
       -1   -1    0    0    0  501  0.00000000000E+00  0.00000000000E+00 -0.12559422246E+04  0.12559422246E+04  0.50400001928E-02 0.  1.
    10030    2    1    2    0    0  0.00000000000E+00  0.00000000000E+00 -0.35955696497E+03  0.21523274842E+04  0.21220820880E+04 0.  0.
        1    1    3    3  502    0 -0.44143063547E+03  0.15789332973E+03  0.78563707751E+03  0.91488629189E+03  0.50400001928E-02 0. -1.
       -1    1    3    3    0  502  0.44143063547E+03 -0.15789332973E+03 -0.11451940425E+04  0.12374411923E+04  0.50400001928E-02 0.  1.
</event>
<event>
 5   0  0.2448804E-04  0.2135162E+04  0.7818609E-02  0.8545911E-01
       -2   -1    0    0    0  501  0.00000000000E+00  0.00000000000E+00  0.23913549280E+04  0.23913549280E+04  0.25500000920E-02 0.  1.
        2   -1    0    0  501    0  0.00000000000E+00  0.00000000000E+00 -0.47660384675E+03  0.47660384675E+03  0.25500000920E-02 0. -1.
    10030    2    1    2    0    0  0.00000000000E+00  0.00000000000E+00  0.19147510812E+04  0.28679587747E+04  0.21351617809E+04 0.  0.
        2    1    3    3  502    0  0.93593673585E+03  0.18639249968E+02  0.16467469523E+04  0.18942282123E+04  0.25500000920E-02 0.  1.
       -2    1    3    3    0  502 -0.93593673585E+03 -0.18639249968E+02  0.26800412891E+03  0.97373056246E+03  0.25500000920E-02 0. -1.
</event>
<event>
 5   0  0.1186038E-04  0.1901302E+04  0.7818609E-02  0.8654208E-01
       -1   -1    0    0    0  501  0.00000000000E+00  0.00000000000E+00  0.51252575187E+03  0.51252575189E+03  0.50400001928E-02 0. -1.
        1   -1    0    0  501    0  0.00000000000E+00  0.00000000000E+00 -0.17633018163E+04  0.17633018163E+04  0.50400001928E-02 0.  1.
    10030    2    1    2    0    0  0.00000000000E+00  0.00000000000E+00 -0.12507760644E+04  0.22758275682E+04  0.19013022792E+04 0.  0.
        4    1    3    3  502    0 -0.12976721139E+03 -0.38189092428E+03  0.40503043000E+03  0.57160429435E+03  0.12699999809E+01 0. -1.
       -4    1    3    3    0  502  0.12976721139E+03  0.38189092428E+03 -0.16558064944E+04  0.17042232738E+04  0.12699999809E+01 0.  1.
</event>
<event>
 5   0  0.2448804E-04  0.2160344E+04  0.7818609E-02  0.8535117E-01
        2   -1    0    0  501    0  0.00000000000E+00  0.00000000000E+00  0.25063348166E+04  0.25063348167E+04  0.25500000920E-02 0.  1.
       -2   -1    0    0    0  501  0.00000000000E+00  0.00000000000E+00 -0.46552911192E+03  0.46552911193E+03  0.25500000920E-02 0. -1.
    10030    2    1    2    0    0  0.00000000000E+00  0.00000000000E+00  0.20408057047E+04  0.29718639286E+04  0.21603442516E+04 0.  0.
        2    1    3    3  502    0 -0.26146234887E+03  0.10330221100E+04  0.77712548112E+03  0.13188712041E+04  0.25500000920E-02 0. -1.
       -2    1    3    3    0  502  0.26146234887E+03 -0.10330221100E+04  0.12636802236E+04  0.16529927245E+04  0.25500000920E-02 0.  1.
</event>
<event>
 5   0  0.2467483E-04  0.2039616E+04  0.7818609E-02  0.8588320E-01
        2   -1    0    0  501    0  0.00000000000E+00  0.00000000000E+00  0.13019610055E+04  0.13019610055E+04  0.25500000920E-02 0. -1.
       -2   -1    0    0    0  501  0.00000000000E+00  0.00000000000E+00 -0.79880120149E+03  0.79880120150E+03  0.25500000920E-02 0.  1.
    10030    2    1    2    0    0  0.00000000000E+00  0.00000000000E+00  0.50315980400E+03  0.21007622070E+04  0.20396156653E+04 0.  0.
        4    1    3    3  502    0 -0.67472403329E+03 -0.74710477204E+03  0.83632156765E+02  0.10101554395E+04  0.12699999809E+01 0.  1.
       -4    1    3    3    0  502  0.67472403329E+03  0.74710477204E+03  0.41952764723E+03  0.10906067674E+04  0.12699999809E+01 0. -1.
</event>
<event>
 5   0  0.1122711E-04  0.1843141E+04  0.7818609E-02  0.8683688E-01
       -1   -1    0    0    0  501  0.00000000000E+00  0.00000000000E+00  0.99381469879E+03  0.99381469880E+03  0.50400001928E-02 0. -1.
        1   -1    0    0  501    0  0.00000000000E+00  0.00000000000E+00 -0.85457833482E+03  0.85457833484E+03  0.50400001928E-02 0.  1.
    10030    2    1    2    0    0  0.00000000000E+00  0.00000000000E+00  0.13923636397E+03  0.18483930336E+04  0.18431413515E+04 0.  0.
        1    1    3    3  502    0 -0.39318434380E+02 -0.28617415503E+03  0.94724078651E+03  0.99030636368E+03  0.50400001928E-02 0. -1.
       -1    1    3    3    0  502  0.39318434380E+02  0.28617415503E+03 -0.80800442254E+03  0.85808666996E+03  0.50400001928E-02 0.  1.
</event>
<event>
 5   0  0.1042395E-04  0.1427211E+04  0.7818609E-02  0.8934354E-01
       -1   -1    0    0    0  501  0.00000000000E+00  0.00000000000E+00  0.37490786325E+03  0.37490786329E+03  0.50400001928E-02 0. -1.
        1   -1    0    0  501    0  0.00000000000E+00  0.00000000000E+00 -0.13582875487E+04  0.13582875487E+04  0.50400001928E-02 0.  1.
    10030    2    1    2    0    0  0.00000000000E+00  0.00000000000E+00 -0.98337968544E+03  0.17331954120E+04  0.14272108220E+04 0.  0.
        3    1    3    3  502    0 -0.31521502930E+03  0.39252219986E+03  0.12250813280E+03  0.51811431642E+03  0.10100000352E+00 0. -1.
       -3    1    3    3    0  502  0.31521502930E+03 -0.39252219986E+03 -0.11058878182E+04  0.12150810956E+04  0.10100000352E+00 0.  1.
</event>
<event>
 5   0  0.2512839E-04  0.2142253E+04  0.7818609E-02  0.8542856E-01
       -2   -1    0    0    0  501  0.00000000000E+00  0.00000000000E+00  0.10881582043E+04  0.10881582043E+04  0.25500000920E-02 0.  1.
        2   -1    0    0  501    0  0.00000000000E+00  0.00000000000E+00 -0.10543610068E+04  0.10543610068E+04  0.25500000920E-02 0. -1.
    10030    2    1    2    0    0  0.00000000000E+00  0.00000000000E+00  0.33797197477E+02  0.21425192112E+04  0.21422526274E+04 0.  0.
        3    1    3    3  502    0 -0.41404086053E+02  0.84734414098E+03  0.67089524081E+03  0.10815760842E+04  0.10100000352E+00 0.  1.
       -3    1    3    3    0  502  0.41404086053E+02 -0.84734414098E+03 -0.63709804333E+03  0.10609431269E+04  0.10100000352E+00 0. -1.
</event>
<event>
 5   0  0.1130848E-04  0.2052488E+04  0.7818609E-02  0.8582467E-01
       -1   -1    0    0    0  501  0.00000000000E+00  0.00000000000E+00  0.74731051927E+03  0.74731051929E+03  0.50400001928E-02 0.  1.
        1   -1    0    0  501    0  0.00000000000E+00  0.00000000000E+00 -0.14092891952E+04  0.14092891952E+04  0.50400001928E-02 0. -1.
    10030    2    1    2    0    0  0.00000000000E+00  0.00000000000E+00 -0.66197867592E+03  0.21565997145E+04  0.20524878955E+04 0.  0.
        5    1    3    3  502    0  0.64586878113E+03  0.59151290568E+03  0.23104579545E+03  0.90578046436E+03  0.46999998093E+01 0.  1.
       -5    1    3    3    0  502 -0.64586878113E+03 -0.59151290568E+03 -0.89302447137E+03  0.12508192501E+04  0.46999998093E+01 0. -1.
</event>
<event>
 5   0  0.1186038E-04  0.2076908E+04  0.7818609E-02  0.8571485E-01
       -1   -1    0    0    0  501  0.00000000000E+00  0.00000000000E+00  0.77593719017E+03  0.77593719019E+03  0.50400001928E-02 0.  1.
        1   -1    0    0  501    0  0.00000000000E+00  0.00000000000E+00 -0.13897855072E+04  0.13897855072E+04  0.50400001928E-02 0. -1.
    10030    2    1    2    0    0  0.00000000000E+00  0.00000000000E+00 -0.61384831702E+03  0.21657226974E+04  0.20769075679E+04 0.  0.
        4    1    3    3  502    0  0.71692416416E+03  0.73951288297E+03 -0.44496759878E+03  0.11219881185E+04  0.12699999809E+01 0. -1.
       -4    1    3    3    0  502 -0.71692416416E+03 -0.73951288297E+03 -0.16888071823E+03  0.10437345789E+04  0.12699999809E+01 0.  1.
</event>
<event>
 5   0  0.2467483E-04  0.2144022E+04  0.7818609E-02  0.8542095E-01
        2   -1    0    0  501    0  0.00000000000E+00  0.00000000000E+00  0.17266718245E+04  0.17266718245E+04  0.25500000920E-02 0.  1.
       -2   -1    0    0    0  501  0.00000000000E+00  0.00000000000E+00 -0.66556235224E+03  0.66556235224E+03  0.25500000920E-02 0. -1.
    10030    2    1    2    0    0  0.00000000000E+00  0.00000000000E+00  0.10611094722E+04  0.23922341767E+04  0.21440221650E+04 0.  0.
        4    1    3    3  502    0  0.74413953615E+03  0.67619702933E+03  0.11573445238E+03  0.10121176553E+04  0.12699999809E+01 0. -1.
       -4    1    3    3    0  502 -0.74413953615E+03 -0.67619702933E+03  0.94537501985E+03  0.13801165215E+04  0.12699999809E+01 0.  1.
</event>
<event>
 5   0  0.2430898E-04  0.2106495E+04  0.7818609E-02  0.8558388E-01
        2   -1    0    0  501    0  0.00000000000E+00  0.00000000000E+00  0.11434225698E+04  0.11434225698E+04  0.25500000920E-02 0.  1.
       -2   -1    0    0    0  501  0.00000000000E+00  0.00000000000E+00 -0.97018418249E+03  0.97018418250E+03  0.25500000920E-02 0. -1.
    10030    2    1    2    0    0  0.00000000000E+00  0.00000000000E+00  0.17323838735E+03  0.21136067523E+04  0.21064951851E+04 0.  0.
        1    1    3    3  502    0  0.17691046116E+03 -0.15984135044E+03  0.11159890636E+04  0.11411740265E+04  0.50400001928E-02 0.  1.
       -1    1    3    3    0  502 -0.17691046116E+03  0.15984135044E+03 -0.94275067630E+03  0.97243272583E+03  0.50400001928E-02 0. -1.
</event>
<event>
 5   0  0.1156733E-04  0.1969526E+04  0.7818609E-02  0.8621002E-01
       -1   -1    0    0    0  501  0.00000000000E+00  0.00000000000E+00  0.45778348467E+03  0.45778348470E+03  0.50400001928E-02 0. -1.
        1   -1    0    0  501    0  0.00000000000E+00  0.00000000000E+00 -0.21183772165E+04  0.21183772166E+04  0.50400001928E-02 0.  1.
    10030    2    1    2    0    0  0.00000000000E+00  0.00000000000E+00 -0.16605937319E+04  0.25761607013E+04  0.19695259370E+04 0.  0.
        2    1    3    3  502    0 -0.42376132622E+03  0.68682988551E+03 -0.15684242098E+04  0.17638773923E+04  0.25500000920E-02 0.  1.
       -2    1    3    3    0  502  0.42376132622E+03 -0.68682988551E+03 -0.92169522115E+02  0.81228330897E+03  0.25500000920E-02 0. -1.
</event>
<event>
 5   0  0.2448804E-04  0.2135462E+04  0.7818609E-02  0.8545781E-01
        2   -1    0    0  501    0  0.00000000000E+00  0.00000000000E+00  0.19967379441E+04  0.19967379441E+04  0.25500000920E-02 0. -1.
       -2   -1    0    0    0  501  0.00000000000E+00  0.00000000000E+00 -0.57095587172E+03  0.57095587173E+03  0.25500000920E-02 0.  1.
    10030    2    1    2    0    0  0.00000000000E+00  0.00000000000E+00  0.14257820724E+04  0.25676938158E+04  0.21354617800E+04 0.  0.
        2    1    3    3  502    0 -0.74275993916E+03  0.35741704770E+03  0.15289435446E+04  0.17369823361E+04  0.25500000920E-02 0. -1.
       -2    1    3    3    0  502  0.74275993916E+03 -0.35741704770E+03 -0.10316147226E+03  0.83071147974E+03  0.25500000920E-02 0.  1.
</event>
<event>
 5   0  0.2430898E-04  0.1700969E+04  0.7818609E-02  0.8760812E-01
        2   -1    0    0  501    0  0.00000000000E+00  0.00000000000E+00  0.28407870296E+04  0.28407870296E+04  0.25500000920E-02 0. -1.
       -2   -1    0    0    0  501  0.00000000000E+00  0.00000000000E+00 -0.25462087801E+03  0.25462087803E+03  0.25500000920E-02 0.  1.
    10030    2    1    2    0    0  0.00000000000E+00  0.00000000000E+00  0.25861661516E+04  0.30954079077E+04  0.17009687684E+04 0.  0.
        1    1    3    3  502    0  0.69184808544E+02  0.78874888983E+03  0.72803180338E+03  0.10756122237E+04  0.50400001928E-02 0.  1.
       -1    1    3    3    0  502 -0.69184808544E+02 -0.78874888983E+03  0.18581343482E+04  0.20197956840E+04  0.50400001928E-02 0. -1.
</event>
<event>
 5   0  0.2512839E-04  0.2551579E+04  0.7818609E-02  0.8384837E-01
       -2   -1    0    0    0  501  0.00000000000E+00  0.00000000000E+00  0.79575561342E+03  0.79575561342E+03  0.25500000920E-02 0. -1.
        2   -1    0    0  501    0  0.00000000000E+00  0.00000000000E+00 -0.20454010638E+04  0.20454010638E+04  0.25500000920E-02 0.  1.
    10030    2    1    2    0    0  0.00000000000E+00  0.00000000000E+00 -0.12496454504E+04  0.28411566772E+04  0.25515794154E+04 0.  0.
        3    1    3    3  502    0 -0.90274639191E+02 -0.89250598825E+03 -0.16349257526E+04  0.18648588891E+04  0.10100000352E+00 0. -1.
       -3    1    3    3    0  502  0.90274639191E+02  0.89250598825E+03  0.38528030224E+03  0.97629778810E+03  0.10100000352E+00 0.  1.
</event>
<event>
 5   0  0.2448804E-04  0.2100460E+04  0.7818609E-02  0.8561041E-01
        2   -1    0    0  501    0  0.00000000000E+00  0.00000000000E+00  0.14465260045E+04  0.14465260045E+04  0.25500000920E-02 0. -1.
       -2   -1    0    0    0  501  0.00000000000E+00  0.00000000000E+00 -0.76250500511E+03  0.76250500511E+03  0.25500000920E-02 0.  1.
    10030    2    1    2    0    0  0.00000000000E+00  0.00000000000E+00  0.68402099944E+03  0.22090310097E+04  0.21004602529E+04 0.  0.
        2    1    3    3  502    0 -0.10197916074E+04 -0.25571994076E+02  0.79394526729E+02  0.10231971170E+04  0.25500000920E-02 0.  1.
       -2    1    3    3    0  502  0.10197916074E+04  0.25571994076E+02  0.60462647271E+03  0.11858338926E+04  0.25500000920E-02 0. -1.
</event>
<event>
 5   0  0.1130848E-04  0.2116490E+04  0.7818609E-02  0.8554014E-01
       -1   -1    0    0    0  501  0.00000000000E+00  0.00000000000E+00  0.13587227160E+04  0.13587227160E+04  0.50400001928E-02 0.  1.
        1   -1    0    0  501    0  0.00000000000E+00  0.00000000000E+00 -0.82421688091E+03  0.82421688092E+03  0.50400001928E-02 0. -1.
    10030    2    1    2    0    0  0.00000000000E+00  0.00000000000E+00  0.53450583506E+03  0.21829395969E+04  0.21164897344E+04 0.  0.
        5    1    3    3  502    0 -0.37125396157E+03  0.34861339762E+03  0.12240080795E+04  0.13257370304E+04  0.46999998093E+01 0.  1.
       -5    1    3    3    0  502  0.37125396157E+03 -0.34861339762E+03 -0.68950224445E+03  0.85720256654E+03  0.46999998093E+01 0. -1.
</event>
<event>
 5   0  0.2467483E-04  0.2111830E+04  0.7818609E-02  0.8556050E-01
        2   -1    0    0  501    0  0.00000000000E+00  0.00000000000E+00  0.12661655258E+04  0.12661655258E+04  0.25500000920E-02 0.  1.
       -2   -1    0    0    0  501  0.00000000000E+00  0.00000000000E+00 -0.88057717350E+03  0.88057717351E+03  0.25500000920E-02 0. -1.
    10030    2    1    2    0    0  0.00000000000E+00  0.00000000000E+00  0.38558835228E+03  0.21467426993E+04  0.21118299741E+04 0.  0.
        4    1    3    3  502    0  0.74891941110E+03  0.67197419664E+03  0.51828327340E+03  0.11318342501E+04  0.12699999809E+01 0.  1.
       -4    1    3    3    0  502 -0.74891941110E+03 -0.67197419664E+03 -0.13269492113E+03  0.10149084492E+04  0.12699999809E+01 0. -1.
</event>
<event>
 5   0  0.1042395E-04  0.2150938E+04  0.7818609E-02  0.8539131E-01
        1   -1    0    0  501    0  0.00000000000E+00  0.00000000000E+00  0.14877017512E+04  0.14877017512E+04  0.50400001928E-02 0. -1.
       -1   -1    0    0    0  501  0.00000000000E+00  0.00000000000E+00 -0.77746335291E+03  0.77746335293E+03  0.50400001928E-02 0.  1.
    10030    2    1    2    0    0  0.00000000000E+00  0.00000000000E+00  0.71023839827E+03  0.22651651041E+04  0.21509380202E+04 0.  0.
        3    1    3    3  502    0 -0.29247373964E+03  0.69727530232E+03  0.11605212287E+04  0.13851148935E+04  0.10100000352E+00 0. -1.
       -3    1    3    3    0  502  0.29247373964E+03 -0.69727530232E+03 -0.45028283048E+03  0.88005021063E+03  0.10100000352E+00 0.  1.
</event>
<event>
 5   0  0.1042395E-04  0.2073948E+04  0.7818609E-02  0.8572807E-01
        1   -1    0    0  501    0  0.00000000000E+00  0.00000000000E+00  0.82142311913E+03  0.82142311914E+03  0.50400001928E-02 0. -1.
       -1   -1    0    0    0  501  0.00000000000E+00  0.00000000000E+00 -0.13090881095E+04  0.13090881095E+04  0.50400001928E-02 0.  1.
    10030    2    1    2    0    0  0.00000000000E+00  0.00000000000E+00 -0.48766499037E+03  0.21305112287E+04  0.20739481557E+04 0.  0.
        3    1    3    3  502    0  0.36037182619E+03 -0.89695828977E+03 -0.62945446818E+03  0.11535228495E+04  0.10100000352E+00 0.  1.
       -3    1    3    3    0  502 -0.36037182619E+03  0.89695828977E+03  0.14178947781E+03  0.97698837911E+03  0.10100000352E+00 0. -1.
</event>
<event>
 5   0  0.2512839E-04  0.1563116E+04  0.7818609E-02  0.8843533E-01
        2   -1    0    0  501    0  0.00000000000E+00  0.00000000000E+00  0.12583453321E+04  0.12583453321E+04  0.25500000920E-02 0.  1.
       -2   -1    0    0    0  501  0.00000000000E+00  0.00000000000E+00 -0.48542527994E+03  0.48542527994E+03  0.25500000920E-02 0. -1.
    10030    2    1    2    0    0  0.00000000000E+00  0.00000000000E+00  0.77292005214E+03  0.17437706120E+04  0.15631156516E+04 0.  0.
        3    1    3    3  502    0 -0.35800432232E+03 -0.58025311623E+03  0.81267902066E+03  0.10608053424E+04  0.10100000352E+00 0. -1.
       -3    1    3    3    0  502  0.35800432232E+03  0.58025311623E+03 -0.39758968523E+02  0.68296526960E+03  0.10100000352E+00 0.  1.
</event>
<event>
 5   0  0.8698750E-05  0.2161656E+04  0.7818609E-02  0.8534559E-01
        3   -1    0    0  501    0  0.00000000000E+00  0.00000000000E+00  0.18712770469E+04  0.18712770497E+04  0.10100000352E+00 0. -1.
       -3   -1    0    0    0  501  0.00000000000E+00  0.00000000000E+00 -0.62427383310E+03  0.62427384127E+03  0.10100000352E+00 0.  1.
    10030    2    1    2    0    0  0.00000000000E+00  0.00000000000E+00  0.12470032138E+04  0.24955508909E+04  0.21616561322E+04 0.  0.
        1    1    3    3  502    0 -0.34293141204E+02 -0.10230298830E+04  0.10241236197E+04  0.14479624820E+04  0.50400001928E-02 0. -1.
       -1    1    3    3    0  502  0.34293141204E+02  0.10230298830E+04  0.22287959418E+03  0.10475884089E+04  0.50400001928E-02 0.  1.
</event>
<event>
 5   0  0.1042395E-04  0.2108771E+04  0.7818609E-02  0.8557389E-01
        1   -1    0    0  501    0  0.00000000000E+00  0.00000000000E+00  0.19644828310E+04  0.19644828310E+04  0.50400001928E-02 0.  1.
       -1   -1    0    0    0  501  0.00000000000E+00  0.00000000000E+00 -0.56591438059E+03  0.56591438062E+03  0.50400001928E-02 0. -1.
    10030    2    1    2    0    0  0.00000000000E+00  0.00000000000E+00  0.13985684504E+04  0.25303972116E+04  0.21087712863E+04 0.  0.
        3    1    3    3  502    0 -0.82920622092E+03  0.64288520963E+03  0.82424349757E+03  0.13342644802E+04  0.10100000352E+00 0. -1.
       -3    1    3    3    0  502  0.82920622092E+03 -0.64288520963E+03  0.57432495284E+03  0.11961327314E+04  0.10100000352E+00 0.  1.
</event>
<event>
 5   0  0.1186038E-04  0.2073596E+04  0.7818609E-02  0.8572964E-01
        1   -1    0    0  501    0  0.00000000000E+00  0.00000000000E+00  0.13371085791E+04  0.13371085791E+04  0.50400001928E-02 0.  1.
       -1   -1    0    0    0  501  0.00000000000E+00  0.00000000000E+00 -0.80393658628E+03  0.80393658629E+03  0.50400001928E-02 0. -1.
    10030    2    1    2    0    0  0.00000000000E+00  0.00000000000E+00  0.53317199283E+03  0.21410451654E+04  0.20735963991E+04 0.  0.
        4    1    3    3  502    0  0.45350095548E+03 -0.88668923963E+03  0.56417603930E+03  0.11446296958E+04  0.12699999809E+01 0.  1.
       -4    1    3    3    0  502 -0.45350095548E+03  0.88668923963E+03 -0.31004046467E+02  0.99641546961E+03  0.12699999809E+01 0. -1.
</event>
<event>
 5   0  0.1130848E-04  0.2087229E+04  0.7818609E-02  0.8566890E-01
        1   -1    0    0  501    0  0.00000000000E+00  0.00000000000E+00  0.17679637848E+04  0.17679637848E+04  0.50400001928E-02 0.  1.
       -1   -1    0    0    0  501  0.00000000000E+00  0.00000000000E+00 -0.61603712563E+03  0.61603712565E+03  0.50400001928E-02 0. -1.
    10030    2    1    2    0    0  0.00000000000E+00  0.00000000000E+00  0.11519266591E+04  0.23840009104E+04  0.20872290993E+04 0.  0.
        5    1    3    3  502    0  0.42534660523E+03 -0.95166931485E+03  0.51868281443E+03  0.11643230528E+04  0.46999998093E+01 0. -1.
       -5    1    3    3    0  502 -0.42534660523E+03  0.95166931485E+03  0.63324384471E+03  0.12196778576E+04  0.46999998093E+01 0.  1.
</event>
<event>
 5   0  0.1186038E-04  0.1972301E+04  0.7818609E-02  0.8619682E-01
        1   -1    0    0  501    0  0.00000000000E+00  0.00000000000E+00  0.79792076745E+03  0.79792076747E+03  0.50400001928E-02 0. -1.
       -1   -1    0    0    0  501  0.00000000000E+00  0.00000000000E+00 -0.12187832156E+04  0.12187832156E+04  0.50400001928E-02 0.  1.
    10030    2    1    2    0    0  0.00000000000E+00  0.00000000000E+00 -0.42086244811E+03  0.20167039830E+04  0.19723006249E+04 0.  0.
        4    1    3    3  502    0  0.91114216131E+03  0.36395822802E+03 -0.31188803951E+03  0.10295248379E+04  0.12699999809E+01 0.  1.
       -4    1    3    3    0  502 -0.91114216131E+03 -0.36395822802E+03 -0.10897440860E+03  0.98717914509E+03  0.12699999809E+01 0. -1.
</event>
<event>
 5   0  0.2512839E-04  0.2060827E+04  0.7818609E-02  0.8578698E-01
       -2   -1    0    0    0  501  0.00000000000E+00  0.00000000000E+00  0.74339536197E+03  0.74339536197E+03  0.25500000920E-02 0. -1.
        2   -1    0    0  501    0  0.00000000000E+00  0.00000000000E+00 -0.14282469415E+04  0.14282469415E+04  0.25500000920E-02 0.  1.
    10030    2    1    2    0    0  0.00000000000E+00  0.00000000000E+00 -0.68485157952E+03  0.21716423035E+04  0.20608271660E+04 0.  0.
        3    1    3    3  502    0 -0.32494420892E+03 -0.47664608321E+03  0.55728332569E+03  0.80208786479E+03  0.10100000352E+00 0. -1.
       -3    1    3    3    0  502  0.32494420892E+03  0.47664608321E+03 -0.12421349052E+04  0.13695544387E+04  0.10100000352E+00 0.  1.
</event>
<event>
 5   0  0.1122711E-04  0.2313835E+04  0.7818609E-02  0.8472486E-01
       -1   -1    0    0    0  501  0.00000000000E+00  0.00000000000E+00  0.65968802506E+03  0.65968802508E+03  0.50400001928E-02 0. -1.
        1   -1    0    0  501    0  0.00000000000E+00  0.00000000000E+00 -0.20289261383E+04  0.20289261383E+04  0.50400001928E-02 0.  1.
    10030    2    1    2    0    0  0.00000000000E+00  0.00000000000E+00 -0.13692381133E+04  0.26886141634E+04  0.23138351516E+04 0.  0.
        1    1    3    3  502    0  0.45664000684E+03 -0.88471044642E+03  0.83486104289E-01  0.99560668783E+03  0.50400001928E-02 0. -1.
       -1    1    3    3    0  502 -0.45664000684E+03  0.88471044642E+03 -0.13693215994E+04  0.16930074756E+04  0.50400001928E-02 0.  1.
</event>
<event>
 5   0  0.2512839E-04  0.2103655E+04  0.7818609E-02  0.8559635E-01
        2   -1    0    0  501    0  0.00000000000E+00  0.00000000000E+00  0.10404869655E+04  0.10404869655E+04  0.25500000920E-02 0. -1.
       -2   -1    0    0    0  501  0.00000000000E+00  0.00000000000E+00 -0.10632919194E+04  0.10632919194E+04  0.25500000920E-02 0.  1.
    10030    2    1    2    0    0  0.00000000000E+00  0.00000000000E+00 -0.22804953891E+02  0.21037788849E+04  0.21036552785E+04 0.  0.
        3    1    3    3  502    0  0.69448636888E+03  0.33251565523E+01  0.77859267083E+03  0.10433258985E+04  0.10100000352E+00 0. -1.
       -3    1    3    3    0  502 -0.69448636888E+03 -0.33251565523E+01 -0.80139762472E+03  0.10604529864E+04  0.10100000352E+00 0.  1.
</event>
<event>
 5   0  0.2467483E-04  0.2059228E+04  0.7818609E-02  0.8579420E-01
       -2   -1    0    0    0  501  0.00000000000E+00  0.00000000000E+00  0.71211882183E+03  0.71211882183E+03  0.25500000920E-02 0.  1.
        2   -1    0    0  501    0  0.00000000000E+00  0.00000000000E+00 -0.14886625479E+04  0.14886625479E+04  0.25500000920E-02 0. -1.
    10030    2    1    2    0    0  0.00000000000E+00  0.00000000000E+00 -0.77654372607E+03  0.22007813697E+04  0.20592276413E+04 0.  0.
        4    1    3    3  502    0  0.64024015211E+03  0.31614876847E+03  0.40450468751E+03  0.82066019234E+03  0.12699999809E+01 0.  1.
       -4    1    3    3    0  502 -0.64024015211E+03 -0.31614876847E+03 -0.11810484136E+04  0.13801211774E+04  0.12699999809E+01 0. -1.
</event>
<event>
 5   0  0.1122711E-04  0.2075965E+04  0.7818609E-02  0.8571905E-01
        1   -1    0    0  501    0  0.00000000000E+00  0.00000000000E+00  0.21139568568E+04  0.21139568568E+04  0.50400001928E-02 0. -1.
       -1   -1    0    0    0  501  0.00000000000E+00  0.00000000000E+00 -0.50966400197E+03  0.50966400199E+03  0.50400001928E-02 0.  1.
    10030    2    1    2    0    0  0.00000000000E+00  0.00000000000E+00  0.16042928548E+04  0.26236208588E+04  0.20759650398E+04 0.  0.
        1    1    3    3  502    0 -0.61434951188E+03  0.81931989254E+03  0.10162389888E+04  0.14427238445E+04  0.50400001928E-02 0. -1.
       -1    1    3    3    0  502  0.61434951188E+03 -0.81931989254E+03  0.58805386607E+03  0.11808970143E+04  0.50400001928E-02 0.  1.
</event>
<event>
 5   0  0.1122711E-04  0.2041716E+04  0.7818609E-02  0.8587362E-01
        1   -1    0    0  501    0  0.00000000000E+00  0.00000000000E+00  0.29219403748E+04  0.29219403748E+04  0.50400001928E-02 0. -1.
       -1   -1    0    0    0  501  0.00000000000E+00  0.00000000000E+00 -0.35666415252E+03  0.35666415255E+03  0.50400001928E-02 0.  1.
    10030    2    1    2    0    0  0.00000000000E+00  0.00000000000E+00  0.25652762223E+04  0.32786045274E+04  0.20417163246E+04 0.  0.
        1    1    3    3  502    0 -0.91551381668E+03 -0.23171548356E+03  0.66010260318E+03  0.11522122463E+04  0.50400001928E-02 0.  1.
       -1    1    3    3    0  502  0.91551381668E+03  0.23171548356E+03  0.19051736191E+04  0.21263922810E+04  0.50400001928E-02 0. -1.
</event>
<event>
 5   0  0.2448804E-04  0.2095167E+04  0.7818609E-02  0.8563375E-01
        2   -1    0    0  501    0  0.00000000000E+00  0.00000000000E+00  0.10816226529E+04  0.10816226529E+04  0.25500000920E-02 0.  1.
       -2   -1    0    0    0  501  0.00000000000E+00  0.00000000000E+00 -0.10146155646E+04  0.10146155646E+04  0.25500000920E-02 0. -1.
    10030    2    1    2    0    0  0.00000000000E+00  0.00000000000E+00  0.67007088224E+02  0.20962382175E+04  0.20951669897E+04 0.  0.
        2    1    3    3  502    0 -0.10044949721E+04 -0.16848055423E+03  0.27864990576E+03  0.10559553097E+04  0.25500000920E-02 0. -1.
       -2    1    3    3    0  502  0.10044949721E+04  0.16848055423E+03 -0.21164281754E+03  0.10402829078E+04  0.25500000920E-02 0.  1.
</event>
<event>
 5   0  0.2512839E-04  0.1954468E+04  0.7818609E-02  0.8628209E-01
       -2   -1    0    0    0  501  0.00000000000E+00  0.00000000000E+00  0.49583990669E+03  0.49583990670E+03  0.25500000920E-02 0.  1.
        2   -1    0    0  501    0  0.00000000000E+00  0.00000000000E+00 -0.19259972843E+04  0.19259972843E+04  0.25500000920E-02 0. -1.
    10030    2    1    2    0    0  0.00000000000E+00  0.00000000000E+00 -0.14301573776E+04  0.24218371910E+04  0.19544680235E+04 0.  0.
        3    1    3    3  502    0 -0.53987186403E+03  0.65938387084E+03 -0.12244663121E+03  0.86095406753E+03  0.10100000352E+00 0.  1.
       -3    1    3    3    0  502  0.53987186403E+03 -0.65938387084E+03 -0.13077107464E+04  0.15608831235E+04  0.10100000352E+00 0. -1.
</event>
<event>
 5   0  0.1186038E-04  0.2158905E+04  0.7818609E-02  0.8535730E-01
        1   -1    0    0  501    0  0.00000000000E+00  0.00000000000E+00  0.65980765552E+03  0.65980765554E+03  0.50400001928E-02 0. -1.
       -1   -1    0    0    0  501  0.00000000000E+00  0.00000000000E+00 -0.17659961299E+04  0.17659961299E+04  0.50400001928E-02 0.  1.
    10030    2    1    2    0    0  0.00000000000E+00  0.00000000000E+00 -0.11061884743E+04  0.24258037854E+04  0.21589050615E+04 0.  0.
        4    1    3    3  502    0 -0.25796680367E+03 -0.34339879967E+03  0.55966323311E+03  0.70547441825E+03  0.12699999809E+01 0. -1.
       -4    1    3    3    0  502  0.25796680367E+03  0.34339879967E+03 -0.16658517074E+04  0.17203293672E+04  0.12699999809E+01 0.  1.
</event>
<event>
 5   0  0.1156733E-04  0.2058449E+04  0.7818609E-02  0.8579771E-01
       -1   -1    0    0    0  501  0.00000000000E+00  0.00000000000E+00  0.81986052627E+03  0.81986052628E+03  0.50400001928E-02 0.  1.
        1   -1    0    0  501    0  0.00000000000E+00  0.00000000000E+00 -0.12920524501E+04  0.12920524501E+04  0.50400001928E-02 0. -1.
    10030    2    1    2    0    0  0.00000000000E+00  0.00000000000E+00 -0.47219192381E+03  0.21119129764E+04  0.20584487380E+04 0.  0.
        2    1    3    3  502    0  0.88503317246E+03  0.24608954252E+03  0.24013574305E+03  0.94947825378E+03  0.25500000920E-02 0.  1.
       -2    1    3    3    0  502 -0.88503317246E+03 -0.24608954252E+03 -0.71232766687E+03  0.11624347226E+04  0.25500000920E-02 0. -1.
</event>
<event>
 5   0  0.1122711E-04  0.2053939E+04  0.7818609E-02  0.8581809E-01
        1   -1    0    0  501    0  0.00000000000E+00  0.00000000000E+00  0.80520661221E+03  0.80520661223E+03  0.50400001928E-02 0.  1.
       -1   -1    0    0    0  501  0.00000000000E+00  0.00000000000E+00 -0.13098084937E+04  0.13098084937E+04  0.50400001928E-02 0. -1.
    10030    2    1    2    0    0  0.00000000000E+00  0.00000000000E+00 -0.50460188145E+03  0.21150151059E+04  0.20539391031E+04 0.  0.
        1    1    3    3  502    0  0.16548170430E+03  0.47310756590E+03 -0.11753095298E+04  0.12777196306E+04  0.50400001928E-02 0. -1.
       -1    1    3    3    0  502 -0.16548170430E+03 -0.47310756590E+03  0.67070764840E+03  0.83729547533E+03  0.50400001928E-02 0.  1.
</event>
<event>
 5   0  0.2448804E-04  0.2042813E+04  0.7818609E-02  0.8586862E-01
        2   -1    0    0  501    0  0.00000000000E+00  0.00000000000E+00  0.12804268730E+04  0.12804268730E+04  0.25500000920E-02 0. -1.
       -2   -1    0    0    0  501  0.00000000000E+00  0.00000000000E+00 -0.81478365944E+03  0.81478365945E+03  0.25500000920E-02 0.  1.
    10030    2    1    2    0    0  0.00000000000E+00  0.00000000000E+00  0.46564321359E+03  0.20952105325E+04  0.20428126623E+04 0.  0.
        2    1    3    3  502    0  0.98803042418E+02  0.53237654238E+03 -0.65546701315E+03  0.85019046654E+03  0.25500000920E-02 0.  1.
       -2    1    3    3    0  502 -0.98803042418E+02 -0.53237654238E+03  0.11211102267E+04  0.12450200659E+04  0.25500000920E-02 0. -1.
</event>
<event>
 5   0  0.1130848E-04  0.1915729E+04  0.7818609E-02  0.8647066E-01
       -1   -1    0    0    0  501  0.00000000000E+00  0.00000000000E+00  0.78651226113E+03  0.78651226115E+03  0.50400001928E-02 0. -1.
        1   -1    0    0  501    0  0.00000000000E+00  0.00000000000E+00 -0.11665481259E+04  0.11665481260E+04  0.50400001928E-02 0.  1.
    10030    2    1    2    0    0  0.00000000000E+00  0.00000000000E+00 -0.38003586481E+03  0.19530603871E+04  0.19157290041E+04 0.  0.
        5    1    3    3  502    0  0.24260006454E+03  0.10786123055E+03  0.74823867204E+03  0.79395971983E+03  0.46999998093E+01 0. -1.
       -5    1    3    3    0  502 -0.24260006454E+03 -0.10786123055E+03 -0.11282745369E+04  0.11591006673E+04  0.46999998093E+01 0.  1.
</event>
<event>
 5   0  0.1042395E-04  0.2344019E+04  0.7818609E-02  0.8460765E-01
       -1   -1    0    0    0  501  0.00000000000E+00  0.00000000000E+00  0.94552053504E+03  0.94552053505E+03  0.50400001928E-02 0. -1.
        1   -1    0    0  501    0  0.00000000000E+00  0.00000000000E+00 -0.14527510445E+04  0.14527510445E+04  0.50400001928E-02 0.  1.
    10030    2    1    2    0    0  0.00000000000E+00  0.00000000000E+00 -0.50723050942E+03  0.23982715795E+04  0.23440187242E+04 0.  0.
        3    1    3    3  502    0 -0.61234985913E+03  0.59616821291E+03  0.56695554273E+03  0.10255864106E+04  0.10100000352E+00 0. -1.
       -3    1    3    3    0  502  0.61234985913E+03 -0.59616821291E+03 -0.10741860521E+04  0.13726851689E+04  0.10100000352E+00 0.  1.
</event>
<event>
 5   0  0.2512839E-04  0.2041994E+04  0.7818609E-02  0.8587235E-01
       -2   -1    0    0    0  501  0.00000000000E+00  0.00000000000E+00  0.48072913133E+03  0.48072913134E+03  0.25500000920E-02 0. -1.
        2   -1    0    0  501    0  0.00000000000E+00  0.00000000000E+00 -0.21684446013E+04  0.21684446013E+04  0.25500000920E-02 0.  1.
    10030    2    1    2    0    0  0.00000000000E+00  0.00000000000E+00 -0.16877154700E+04  0.26491737327E+04  0.20419936234E+04 0.  0.
        3    1    3    3  502    0 -0.55632880129E+03  0.31338632311E+03 -0.18774464316E+04  0.19830576987E+04  0.10100000352E+00 0.  1.
       -3    1    3    3    0  502  0.55632880129E+03 -0.31338632311E+03  0.18973096164E+03  0.66611603393E+03  0.10100000352E+00 0. -1.
</event>
<event>
 5   0  0.2512839E-04  0.2086397E+04  0.7818609E-02  0.8567259E-01
       -2   -1    0    0    0  501  0.00000000000E+00  0.00000000000E+00  0.17175967032E+04  0.17175967032E+04  0.25500000920E-02 0.  1.
        2   -1    0    0  501    0  0.00000000000E+00  0.00000000000E+00 -0.63359647772E+03  0.63359647772E+03  0.25500000920E-02 0. -1.
    10030    2    1    2    0    0  0.00000000000E+00  0.00000000000E+00  0.10840002255E+04  0.23511931809E+04  0.20863971063E+04 0.  0.
        3    1    3    3  502    0 -0.52867529907E+03 -0.56646538065E+03 -0.24513450313E+03  0.81269399785E+03  0.10100000352E+00 0. -1.
       -3    1    3    3    0  502  0.52867529907E+03  0.56646538065E+03  0.13291347286E+04  0.15384991831E+04  0.10100000352E+00 0.  1.
</event>
<event>
 5   0  0.1122711E-04  0.2121319E+04  0.7818609E-02  0.8551910E-01
       -1   -1    0    0    0  501  0.00000000000E+00  0.00000000000E+00  0.85122355243E+03  0.85122355244E+03  0.50400001928E-02 0.  1.
        1   -1    0    0  501    0  0.00000000000E+00  0.00000000000E+00 -0.13216248567E+04  0.13216248568E+04  0.50400001928E-02 0. -1.
    10030    2    1    2    0    0  0.00000000000E+00  0.00000000000E+00 -0.47040130432E+03  0.21728484092E+04  0.21213186517E+04 0.  0.
        1    1    3    3  502    0  0.93636817017E+03 -0.30653999657E+03  0.16708134180E+03  0.99933392538E+03  0.50400001928E-02 0.  1.
       -1    1    3    3    0  502 -0.93636817017E+03  0.30653999657E+03 -0.63748264612E+03  0.11735144838E+04  0.50400001928E-02 0. -1.
</event>
<event>
 5   0  0.2430898E-04  0.2082059E+04  0.7818609E-02  0.8569188E-01
       -2   -1    0    0    0  501  0.00000000000E+00  0.00000000000E+00  0.13607542852E+04  0.13607542852E+04  0.25500000920E-02 0. -1.
        2   -1    0    0  501    0  0.00000000000E+00  0.00000000000E+00 -0.79642777758E+03  0.79642777758E+03  0.25500000920E-02 0.  1.
    10030    2    1    2    0    0  0.00000000000E+00  0.00000000000E+00  0.56432650762E+03  0.21571820628E+04  0.20820590877E+04 0.  0.
        1    1    3    3  502    0 -0.38890922797E+03 -0.18794658728E+03 -0.69920202149E+03  0.82186238152E+03  0.50400001928E-02 0.  1.
       -1    1    3    3    0  502  0.38890922797E+03  0.18794658728E+03  0.12635285291E+04  0.13353196813E+04  0.50400001928E-02 0. -1.
</event>
<event>
 5   0  0.1186038E-04  0.2092212E+04  0.7818609E-02  0.8564682E-01
        1   -1    0    0  501    0  0.00000000000E+00  0.00000000000E+00  0.68479718172E+03  0.68479718174E+03  0.50400001928E-02 0.  1.
       -1   -1    0    0    0  501  0.00000000000E+00  0.00000000000E+00 -0.15980468648E+04  0.15980468648E+04  0.50400001928E-02 0. -1.
    10030    2    1    2    0    0  0.00000000000E+00  0.00000000000E+00 -0.91324968309E+03  0.22828440466E+04  0.20922122161E+04 0.  0.
        4    1    3    3  502    0  0.51154121488E+03 -0.15166481665E+03 -0.14384220292E+04  0.15341890946E+04  0.12699999809E+01 0. -1.
       -4    1    3    3    0  502 -0.51154121488E+03  0.15166481665E+03  0.52517234607E+03  0.74865495196E+03  0.12699999809E+01 0.  1.
</event>
<event>
 5   0  0.1122711E-04  0.1379767E+04  0.7818609E-02  0.8968596E-01
        1   -1    0    0  501    0  0.00000000000E+00  0.00000000000E+00  0.15227670247E+04  0.15227670247E+04  0.50400001928E-02 0. -1.
       -1   -1    0    0    0  501  0.00000000000E+00  0.00000000000E+00 -0.31254910850E+03  0.31254910854E+03  0.50400001928E-02 0.  1.
    10030    2    1    2    0    0  0.00000000000E+00  0.00000000000E+00  0.12102179162E+04  0.18353161333E+04  0.13797673370E+04 0.  0.
        1    1    3    3  502    0  0.34543018988E+03 -0.80275857965E+02  0.13922390285E+04  0.14366961203E+04  0.50400001928E-02 0. -1.
       -1    1    3    3    0  502 -0.34543018988E+03  0.80275857965E+02 -0.18202111226E+03  0.39862001303E+03  0.50400001928E-02 0.  1.
</event>
<event>
 5   0  0.1156733E-04  0.2150622E+04  0.7818609E-02  0.8539266E-01
        1   -1    0    0  501    0  0.00000000000E+00  0.00000000000E+00  0.17547515509E+04  0.17547515509E+04  0.50400001928E-02 0. -1.
       -1   -1    0    0    0  501  0.00000000000E+00  0.00000000000E+00 -0.65895030046E+03  0.65895030048E+03  0.50400001928E-02 0.  1.
    10030    2    1    2    0    0  0.00000000000E+00  0.00000000000E+00  0.10958012504E+04  0.24137018513E+04  0.21506222929E+04 0.  0.
        2    1    3    3  502    0  0.10630609197E+03 -0.52438668820E+03  0.15947447530E+04  0.16821097500E+04  0.25500000920E-02 0. -1.
       -2    1    3    3    0  502 -0.10630609197E+03  0.52438668820E+03 -0.49894350258E+03  0.73159210133E+03  0.25500000920E-02 0.  1.
</event>
<event>
 5   0  0.2430898E-04  0.2010973E+04  0.7818609E-02  0.8601508E-01
       -2   -1    0    0    0  501  0.00000000000E+00  0.00000000000E+00  0.60530794624E+03  0.60530794624E+03  0.25500000920E-02 0. -1.
        2   -1    0    0  501    0  0.00000000000E+00  0.00000000000E+00 -0.16702289880E+04  0.16702289880E+04  0.25500000920E-02 0.  1.
    10030    2    1    2    0    0  0.00000000000E+00  0.00000000000E+00 -0.10649210418E+04  0.22755369342E+04  0.20109727780E+04 0.  0.
        1    1    3    3  502    0 -0.50486929405E+03 -0.36778822803E+03  0.35913552698E+03  0.72051336665E+03  0.50400001928E-02 0. -1.
       -1    1    3    3    0  502  0.50486929405E+03  0.36778822803E+03 -0.14240565687E+04  0.15550235676E+04  0.50400001928E-02 0.  1.
</event>
<event>
 5   0  0.1186038E-04  0.2043994E+04  0.7818609E-02  0.8586324E-01
       -1   -1    0    0    0  501  0.00000000000E+00  0.00000000000E+00  0.48285977899E+03  0.48285977901E+03  0.50400001928E-02 0. -1.
        1   -1    0    0  501    0  0.00000000000E+00  0.00000000000E+00 -0.21631081760E+04  0.21631081760E+04  0.50400001928E-02 0.  1.
    10030    2    1    2    0    0  0.00000000000E+00  0.00000000000E+00 -0.16802483971E+04  0.26459679551E+04  0.20439940664E+04 0.  0.
        4    1    3    3  502    0 -0.83410217221E+03  0.47660424925E+03 -0.12915315872E+04  0.16096376915E+04  0.12699999809E+01 0.  1.
       -4    1    3    3    0  502  0.83410217221E+03 -0.47660424925E+03 -0.38871680981E+03  0.10363302636E+04  0.12699999809E+01 0. -1.
</event>
<event>
 5   0  0.1156733E-04  0.2105561E+04  0.7818609E-02  0.8558798E-01
        1   -1    0    0  501    0  0.00000000000E+00  0.00000000000E+00  0.17678998182E+04  0.17678998182E+04  0.50400001928E-02 0. -1.
       -1   -1    0    0    0  501  0.00000000000E+00  0.00000000000E+00 -0.62692825340E+03  0.62692825342E+03  0.50400001928E-02 0.  1.
    10030    2    1    2    0    0  0.00000000000E+00  0.00000000000E+00  0.11409715648E+04  0.23948280716E+04  0.21055605859E+04 0.  0.
        2    1    3    3  502    0  0.67155580364E+03 -0.48716446651E+03  0.13076202468E+04  0.15486081250E+04  0.25500000920E-02 0. -1.
       -2    1    3    3    0  502 -0.67155580364E+03  0.48716446651E+03 -0.16664868205E+03  0.84621994662E+03  0.25500000920E-02 0.  1.
</event>
<event>
 5   0  0.2448804E-04  0.2123281E+04  0.7818609E-02  0.8551057E-01
        2   -1    0    0  501    0  0.00000000000E+00  0.00000000000E+00  0.13443735772E+04  0.13443735772E+04  0.25500000920E-02 0.  1.
       -2   -1    0    0    0  501  0.00000000000E+00  0.00000000000E+00 -0.83836836320E+03  0.83836836321E+03  0.25500000920E-02 0. -1.
    10030    2    1    2    0    0  0.00000000000E+00  0.00000000000E+00  0.50600521396E+03  0.21827419404E+04  0.21232807402E+04 0.  0.
        2    1    3    3  502    0 -0.89500429236E+03 -0.56063870985E+03  0.36434943175E+03  0.11171834920E+04  0.25500000920E-02 0.  1.
       -2    1    3    3    0  502  0.89500429236E+03  0.56063870985E+03  0.14165578221E+03  0.10655584484E+04  0.25500000920E-02 0. -1.
</event>
<event>
 5   0  0.1042395E-04  0.1994104E+04  0.7818609E-02  0.8609382E-01
        1   -1    0    0  501    0  0.00000000000E+00  0.00000000000E+00  0.50401984216E+03  0.50401984218E+03  0.50400001928E-02 0.  1.
       -1   -1    0    0    0  501  0.00000000000E+00  0.00000000000E+00 -0.19723678099E+04  0.19723678099E+04  0.50400001928E-02 0. -1.
    10030    2    1    2    0    0  0.00000000000E+00  0.00000000000E+00 -0.14683479677E+04  0.24763876520E+04  0.19941038210E+04 0.  0.
        3    1    3    3  502    0  0.94459290880E+03  0.25558841244E+03 -0.97153174687E+03  0.13789326109E+04  0.10100000352E+00 0.  1.
       -3    1    3    3    0  502 -0.94459290880E+03 -0.25558841244E+03 -0.49681622083E+03  0.10974550412E+04  0.10100000352E+00 0. -1.
</event>
<event>
 5   0  0.2579241E-04  0.2141624E+04  0.7818609E-02  0.8543126E-01
       -2   -1    0    0    0  501  0.00000000000E+00  0.00000000000E+00  0.16625211897E+04  0.16625211897E+04  0.25500000920E-02 0. -1.
        2   -1    0    0  501    0  0.00000000000E+00  0.00000000000E+00 -0.68969849340E+03  0.68969849340E+03  0.25500000920E-02 0.  1.
    10030    2    1    2    0    0  0.00000000000E+00  0.00000000000E+00  0.97282269633E+03  0.23522196831E+04  0.21416240191E+04 0.  0.
        5    1    3    3  502    0  0.45130425742E+03 -0.79091357447E+02 -0.57658433726E+03  0.73647984600E+03  0.46999998093E+01 0.  1.
       -5    1    3    3    0  502 -0.45130425742E+03  0.79091357447E+02  0.15494070336E+04  0.16157398371E+04  0.46999998093E+01 0. -1.
</event>
<event>
 5   0  0.1042395E-04  0.2076162E+04  0.7818609E-02  0.8571818E-01
       -1   -1    0    0    0  501  0.00000000000E+00  0.00000000000E+00  0.80527352295E+03  0.80527352297E+03  0.50400001928E-02 0. -1.
        1   -1    0    0  501    0  0.00000000000E+00  0.00000000000E+00 -0.13381939455E+04  0.13381939455E+04  0.50400001928E-02 0.  1.
    10030    2    1    2    0    0  0.00000000000E+00  0.00000000000E+00 -0.53292042259E+03  0.21434674685E+04  0.20761619907E+04 0.  0.
        3    1    3    3  502    0 -0.10179249166E+04  0.19543960648E+03 -0.32526607809E+03  0.10863543655E+04  0.10100000352E+00 0. -1.
       -3    1    3    3    0  502  0.10179249166E+04 -0.19543960648E+03 -0.20765434449E+03  0.10571131030E+04  0.10100000352E+00 0.  1.
</event>
<event>
 5   0  0.2448804E-04  0.2090401E+04  0.7818609E-02  0.8565484E-01
       -2   -1    0    0    0  501  0.00000000000E+00  0.00000000000E+00  0.60914724919E+03  0.60914724919E+03  0.25500000920E-02 0. -1.
        2   -1    0    0  501    0  0.00000000000E+00  0.00000000000E+00 -0.17933985856E+04  0.17933985856E+04  0.25500000920E-02 0.  1.
    10030    2    1    2    0    0  0.00000000000E+00  0.00000000000E+00 -0.11842513364E+04  0.24025458348E+04  0.20904007416E+04 0.  0.
        2    1    3    3  502    0  0.54548767423E+02 -0.65674354488E+03 -0.15245349911E+04  0.16608716358E+04  0.25500000920E-02 0.  1.
       -2    1    3    3    0  502 -0.54548767423E+02  0.65674354488E+03  0.34028365464E+03  0.74167419895E+03  0.25500000920E-02 0. -1.
</event>
<event>
 5   0  0.2448804E-04  0.2077154E+04  0.7818609E-02  0.8571375E-01
       -2   -1    0    0    0  501  0.00000000000E+00  0.00000000000E+00  0.14797152563E+04  0.14797152563E+04  0.25500000920E-02 0.  1.
        2   -1    0    0  501    0  0.00000000000E+00  0.00000000000E+00 -0.72895247207E+03  0.72895247208E+03  0.25500000920E-02 0. -1.
    10030    2    1    2    0    0  0.00000000000E+00  0.00000000000E+00  0.75076278423E+03  0.22086677284E+04  0.20771539125E+04 0.  0.
        2    1    3    3  502    0 -0.44683070898E+03  0.11733980079E+03 -0.61368153616E+03  0.76813497458E+03  0.25500000920E-02 0. -1.
       -2    1    3    3    0  502  0.44683070898E+03 -0.11733980079E+03  0.13644443204E+04  0.14405327538E+04  0.25500000920E-02 0.  1.
</event>
<event>
 5   0  0.1122711E-04  0.2088377E+04  0.7818609E-02  0.8566381E-01
       -1   -1    0    0    0  501  0.00000000000E+00  0.00000000000E+00  0.11355633943E+04  0.11355633943E+04  0.50400001928E-02 0. -1.
        1   -1    0    0  501    0  0.00000000000E+00  0.00000000000E+00 -0.96016646242E+03  0.96016646244E+03  0.50400001928E-02 0.  1.
    10030    2    1    2    0    0  0.00000000000E+00  0.00000000000E+00  0.17539693186E+03  0.20957298567E+04  0.20883772525E+04 0.  0.
        1    1    3    3  502    0  0.10370216422E+04 -0.10773716194E+03  0.29974607245E+02  0.10430338726E+04  0.50400001928E-02 0. -1.
       -1    1    3    3    0  502 -0.10370216422E+04  0.10773716194E+03  0.14542232461E+03  0.10526959841E+04  0.50400001928E-02 0.  1.
</event>
<event>
 5   0  0.2512839E-04  0.1283446E+04  0.7818609E-02  0.9042796E-01
        2   -1    0    0  501    0  0.00000000000E+00  0.00000000000E+00  0.18075889167E+04  0.18075889167E+04  0.25500000920E-02 0.  1.
       -2   -1    0    0    0  501  0.00000000000E+00  0.00000000000E+00 -0.22782210363E+03  0.22782210364E+03  0.25500000920E-02 0. -1.
    10030    2    1    2    0    0  0.00000000000E+00  0.00000000000E+00  0.15797668130E+04  0.20354110203E+04  0.12834464687E+04 0.  0.
        3    1    3    3  502    0 -0.41353020121E+03  0.19281387731E+03  0.15055144041E+04  0.15731363736E+04  0.10100000352E+00 0.  1.
       -3    1    3    3    0  502  0.41353020121E+03 -0.19281387731E+03  0.74252408912E+02  0.46227464675E+03  0.10100000352E+00 0. -1.
</event>
<event>
 5   0  0.2448804E-04  0.2031067E+04  0.7818609E-02  0.8592232E-01
        2   -1    0    0  501    0  0.00000000000E+00  0.00000000000E+00  0.21611000409E+04  0.21611000409E+04  0.25500000920E-02 0. -1.
       -2   -1    0    0    0  501  0.00000000000E+00  0.00000000000E+00 -0.47721461902E+03  0.47721461902E+03  0.25500000920E-02 0.  1.
    10030    2    1    2    0    0  0.00000000000E+00  0.00000000000E+00  0.16838854219E+04  0.26383146599E+04  0.20310672393E+04 0.  0.
        2    1    3    3  502    0  0.10989972251E+03 -0.78146920487E+03  0.16722095703E+04  0.18490692021E+04  0.25500000920E-02 0. -1.
       -2    1    3    3    0  502 -0.10989972251E+03  0.78146920487E+03  0.11675851575E+02  0.78924545781E+03  0.25500000920E-02 0.  1.
</event>
<event>
 5   0  0.1042395E-04  0.2129374E+04  0.7818609E-02  0.8548413E-01
       -1   -1    0    0    0  501  0.00000000000E+00  0.00000000000E+00  0.13394781058E+04  0.13394781059E+04  0.50400001928E-02 0. -1.
        1   -1    0    0  501    0  0.00000000000E+00  0.00000000000E+00 -0.84626855882E+03  0.84626855884E+03  0.50400001928E-02 0.  1.
    10030    2    1    2    0    0  0.00000000000E+00  0.00000000000E+00  0.49320954702E+03  0.21857466647E+04  0.21293738105E+04 0.  0.
        3    1    3    3  502    0  0.74863575997E+02 -0.73695006128E+03  0.10316112243E+04  0.12700085339E+04  0.10100000352E+00 0. -1.
       -3    1    3    3    0  502 -0.74863575997E+02  0.73695006128E+03 -0.53840167732E+03  0.91573813078E+03  0.10100000352E+00 0.  1.
</event>
<event>
 5   0  0.1042395E-04  0.2052797E+04  0.7818609E-02  0.8582326E-01
        1   -1    0    0  501    0  0.00000000000E+00  0.00000000000E+00  0.21095017876E+04  0.21095017876E+04  0.50400001928E-02 0. -1.
       -1   -1    0    0    0  501  0.00000000000E+00  0.00000000000E+00 -0.49940417312E+03  0.49940417315E+03  0.50400001928E-02 0.  1.
    10030    2    1    2    0    0  0.00000000000E+00  0.00000000000E+00  0.16100976145E+04  0.26089059607E+04  0.20527971122E+04 0.  0.
        3    1    3    3  502    0 -0.78166865617E+03  0.57934871837E+03  0.12204672368E+04  0.15608302636E+04  0.10100000352E+00 0.  1.
       -3    1    3    3    0  502  0.78166865617E+03 -0.57934871837E+03  0.38963037768E+03  0.10480756971E+04  0.10100000352E+00 0. -1.
</event>
<event>
 5   0  0.1186038E-04  0.2150890E+04  0.7818609E-02  0.8539151E-01
       -1   -1    0    0    0  501  0.00000000000E+00  0.00000000000E+00  0.89534860000E+03  0.89534860001E+03  0.50400001928E-02 0. -1.
        1   -1    0    0  501    0  0.00000000000E+00  0.00000000000E+00 -0.12917673833E+04  0.12917673834E+04  0.50400001928E-02 0.  1.
    10030    2    1    2    0    0  0.00000000000E+00  0.00000000000E+00 -0.39641878335E+03  0.21871159834E+04  0.21508901583E+04 0.  0.
        4    1    3    3  502    0  0.54414988177E+03  0.76578866593E+01  0.74500306792E+03  0.92259900345E+03  0.12699999809E+01 0. -1.
       -4    1    3    3    0  502 -0.54414988177E+03 -0.76578866593E+01 -0.11414218513E+04  0.12645169799E+04  0.12699999809E+01 0.  1.
</event>
<event>
 5   0  0.2512839E-04  0.2198440E+04  0.7818609E-02  0.8519078E-01
       -2   -1    0    0    0  501  0.00000000000E+00  0.00000000000E+00  0.20000797856E+04  0.20000797856E+04  0.25500000920E-02 0.  1.
        2   -1    0    0  501    0  0.00000000000E+00  0.00000000000E+00 -0.60411828650E+03  0.60411828650E+03  0.25500000920E-02 0. -1.
    10030    2    1    2    0    0  0.00000000000E+00  0.00000000000E+00  0.13959614991E+04  0.26041980721E+04  0.21984401497E+04 0.  0.
        3    1    3    3  502    0  0.35490896632E+03  0.52111844857E+03  0.17645904031E+04  0.18738474091E+04  0.10100000352E+00 0.  1.
       -3    1    3    3    0  502 -0.35490896632E+03 -0.52111844857E+03 -0.36862890400E+03  0.73035066296E+03  0.10100000352E+00 0. -1.
</event>
<event>
 5   0  0.2448804E-04  0.2100381E+04  0.7818609E-02  0.8561075E-01
        2   -1    0    0  501    0  0.00000000000E+00  0.00000000000E+00  0.11121265190E+04  0.11121265190E+04  0.25500000920E-02 0. -1.
       -2   -1    0    0    0  501  0.00000000000E+00  0.00000000000E+00 -0.99170419556E+03  0.99170419556E+03  0.25500000920E-02 0.  1.
    10030    2    1    2    0    0  0.00000000000E+00  0.00000000000E+00  0.12042232343E+03  0.21038307146E+04  0.21003814272E+04 0.  0.
        2    1    3    3  502    0  0.47889549795E+02  0.95619088360E+03 -0.37212959921E+03  0.10271683667E+04  0.25500000920E-02 0.  1.
       -2    1    3    3    0  502 -0.47889549795E+02 -0.95619088360E+03  0.49255192265E+03  0.10766623479E+04  0.25500000920E-02 0. -1.
</event>
<event>
 5   0  0.2467483E-04  0.1993336E+04  0.7818609E-02  0.8609743E-01
        2   -1    0    0  501    0  0.00000000000E+00  0.00000000000E+00  0.14160386011E+04  0.14160386012E+04  0.25500000920E-02 0.  1.
       -2   -1    0    0    0  501  0.00000000000E+00  0.00000000000E+00 -0.70149720059E+03  0.70149720059E+03  0.25500000920E-02 0. -1.
    10030    2    1    2    0    0  0.00000000000E+00  0.00000000000E+00  0.71454140056E+03  0.21175358017E+04  0.19933360125E+04 0.  0.
        4    1    3    3  502    0  0.29374444584E+02 -0.10374038314E+03 -0.69528283850E+03  0.70359417529E+03  0.12699999809E+01 0. -1.
       -4    1    3    3    0  502 -0.29374444584E+02  0.10374038314E+03  0.14098242391E+04  0.14139416265E+04  0.12699999809E+01 0.  1.
</event>
<event>
 5   0  0.1156733E-04  0.2116372E+04  0.7818609E-02  0.8554066E-01
        1   -1    0    0  501    0  0.00000000000E+00  0.00000000000E+00  0.12815363804E+04  0.12815363805E+04  0.50400001928E-02 0. -1.
       -1   -1    0    0    0  501  0.00000000000E+00  0.00000000000E+00 -0.87376156771E+03  0.87376156772E+03  0.50400001928E-02 0.  1.
    10030    2    1    2    0    0  0.00000000000E+00  0.00000000000E+00  0.40777481274E+03  0.21552979482E+04  0.21163716468E+04 0.  0.
        2    1    3    3  502    0  0.89556835665E+03 -0.57278558904E+02 -0.36717022444E+03  0.96960687315E+03  0.25500000920E-02 0.  1.
       -2    1    3    3    0  502 -0.89556835665E+03  0.57278558904E+02  0.77494503717E+03  0.11856910750E+04  0.25500000920E-02 0. -1.
</event>
<event>
 5   0  0.8698750E-05  0.2093954E+04  0.7818609E-02  0.8563912E-01
       -3   -1    0    0    0  501  0.00000000000E+00  0.00000000000E+00  0.69538975690E+03  0.69538976424E+03  0.10100000352E+00 0.  1.
        3   -1    0    0  501    0  0.00000000000E+00  0.00000000000E+00 -0.15763251847E+04  0.15763251879E+04  0.10100000352E+00 0. -1.
    10030    2    1    2    0    0  0.00000000000E+00  0.00000000000E+00 -0.88093542776E+03  0.22717149521E+04  0.20939535802E+04 0.  0.
        3    1    3    3  502    0 -0.25646949940E+03  0.14169920008E+03  0.65000063342E+03  0.71299095441E+03  0.10100000352E+00 0.  1.
       -3    1    3    3    0  502  0.25646949940E+03 -0.14169920008E+03 -0.15309360612E+04  0.15587239977E+04  0.10100000352E+00 0. -1.
</event>
<event>
 5   0  0.2430898E-04  0.2012095E+04  0.7818609E-02  0.8600986E-01
       -2   -1    0    0    0  501  0.00000000000E+00  0.00000000000E+00  0.12306067779E+04  0.12306067779E+04  0.25500000920E-02 0.  1.
        2   -1    0    0  501    0  0.00000000000E+00  0.00000000000E+00 -0.82246582368E+03  0.82246582368E+03  0.25500000920E-02 0. -1.
    10030    2    1    2    0    0  0.00000000000E+00  0.00000000000E+00  0.40814095423E+03  0.20530726016E+04  0.20120954423E+04 0.  0.
        1    1    3    3  502    0  0.91859766612E+03  0.40489782457E+03  0.27150803728E+03  0.10399425633E+04  0.50400001928E-02 0. -1.
       -1    1    3    3    0  502 -0.91859766612E+03 -0.40489782457E+03  0.13663291696E+03  0.10131300383E+04  0.50400001928E-02 0.  1.
</event>
<event>
 5   0  0.2448804E-04  0.2063245E+04  0.7818609E-02  0.8577609E-01
       -2   -1    0    0    0  501  0.00000000000E+00  0.00000000000E+00  0.90379575091E+03  0.90379575091E+03  0.25500000920E-02 0.  1.
        2   -1    0    0  501    0  0.00000000000E+00  0.00000000000E+00 -0.11775286344E+04  0.11775286345E+04  0.25500000920E-02 0. -1.
    10030    2    1    2    0    0  0.00000000000E+00  0.00000000000E+00 -0.27373288354E+03  0.20813243854E+04  0.20632453818E+04 0.  0.
        2    1    3    3  502    0  0.68494343233E+03 -0.12169556123E+03 -0.90530776055E+03  0.11417265244E+04  0.25500000920E-02 0.  1.
       -2    1    3    3    0  502 -0.68494343233E+03  0.12169556123E+03  0.63157487701E+03  0.93959786100E+03  0.25500000920E-02 0. -1.
</event>
<event>
 5   0  0.1122711E-04  0.2120972E+04  0.7818609E-02  0.8552061E-01
       -1   -1    0    0    0  501  0.00000000000E+00  0.00000000000E+00  0.41698089933E+03  0.41698089936E+03  0.50400001928E-02 0. -1.
        1   -1    0    0  501    0  0.00000000000E+00  0.00000000000E+00 -0.26970785351E+04  0.26970785351E+04  0.50400001928E-02 0.  1.
    10030    2    1    2    0    0  0.00000000000E+00  0.00000000000E+00 -0.22800976358E+04  0.31140594345E+04  0.21209716954E+04 0.  0.
        1    1    3    3  502    0  0.25479980892E+03  0.17738674173E+03 -0.26288596924E+04  0.26471290640E+04  0.50400001928E-02 0.  1.
       -1    1    3    3    0  502 -0.25479980892E+03 -0.17738674173E+03  0.34876205662E+03  0.46693037054E+03  0.50400001928E-02 0. -1.
</event>
<event>
 5   0  0.1042395E-04  0.2074375E+04  0.7818609E-02  0.8572616E-01
       -1   -1    0    0    0  501  0.00000000000E+00  0.00000000000E+00  0.56462009317E+03  0.56462009319E+03  0.50400001928E-02 0. -1.
        1   -1    0    0  501    0  0.00000000000E+00  0.00000000000E+00 -0.19052772624E+04  0.19052772624E+04  0.50400001928E-02 0.  1.
    10030    2    1    2    0    0  0.00000000000E+00  0.00000000000E+00 -0.13406571692E+04  0.24698973556E+04  0.20743749183E+04 0.  0.
        3    1    3    3  502    0  0.67023686535E+03 -0.65144908484E+03 -0.13498413441E+03  0.94436438548E+03  0.10100000352E+00 0. -1.
       -3    1    3    3    0  502 -0.67023686535E+03  0.65144908484E+03 -0.12056730348E+04  0.15255329701E+04  0.10100000352E+00 0.  1.
</event>
<event>
 5   0  0.1186038E-04  0.2178939E+04  0.7818609E-02  0.8527245E-01
        1   -1    0    0  501    0  0.00000000000E+00  0.00000000000E+00  0.13525397331E+04  0.13525397331E+04  0.50400001928E-02 0. -1.
       -1   -1    0    0    0  501  0.00000000000E+00  0.00000000000E+00 -0.87756706821E+03  0.87756706823E+03  0.50400001928E-02 0.  1.
    10030    2    1    2    0    0  0.00000000000E+00  0.00000000000E+00  0.47497266492E+03  0.22301068014E+04  0.21789394928E+04 0.  0.
        4    1    3    3  502    0  0.56615834089E+03 -0.28464344060E+03  0.11445169513E+04  0.13082346196E+04  0.12699999809E+01 0. -1.
       -4    1    3    3    0  502 -0.56615834089E+03  0.28464344060E+03 -0.66954428636E+03  0.92187218178E+03  0.12699999809E+01 0.  1.
</event>
<event>
 5   0  0.1042395E-04  0.2098254E+04  0.7818609E-02  0.8562013E-01
       -1   -1    0    0    0  501  0.00000000000E+00  0.00000000000E+00  0.12156625918E+04  0.12156625918E+04  0.50400001928E-02 0. -1.
        1   -1    0    0  501    0  0.00000000000E+00  0.00000000000E+00 -0.90540572117E+03  0.90540572118E+03  0.50400001928E-02 0.  1.
    10030    2    1    2    0    0  0.00000000000E+00  0.00000000000E+00  0.31025687064E+03  0.21210683130E+04  0.20982543846E+04 0.  0.
        3    1    3    3  502    0 -0.50648858848E+01 -0.10073092826E+04  0.45152319056E+03  0.11038889644E+04  0.10100000352E+00 0. -1.
       -3    1    3    3    0  502  0.50648858848E+01  0.10073092826E+04 -0.14126631992E+03  0.10171793486E+04  0.10100000352E+00 0.  1.
</event>
<event>
 5   0  0.2512839E-04  0.2139868E+04  0.7818609E-02  0.8543882E-01
        2   -1    0    0  501    0  0.00000000000E+00  0.00000000000E+00  0.79191664066E+03  0.79191664066E+03  0.25500000920E-02 0.  1.
       -2   -1    0    0    0  501  0.00000000000E+00  0.00000000000E+00 -0.14455543412E+04  0.14455543412E+04  0.25500000920E-02 0. -1.
    10030    2    1    2    0    0  0.00000000000E+00  0.00000000000E+00 -0.65363770051E+03  0.22374709818E+04  0.21398677882E+04 0.  0.
        3    1    3    3  502    0  0.79249838899E+03 -0.53338955328E+03 -0.83066966657E+03  0.12659266240E+04  0.10100000352E+00 0. -1.
       -3    1    3    3    0  502 -0.79249838899E+03  0.53338955328E+03  0.17703196606E+03  0.97154435787E+03  0.10100000352E+00 0.  1.
</event>
<event>
 5   0  0.1186038E-04  0.2012339E+04  0.7818609E-02  0.8600873E-01
       -1   -1    0    0    0  501  0.00000000000E+00  0.00000000000E+00  0.68377704018E+03  0.68377704020E+03  0.50400001928E-02 0.  1.
        1   -1    0    0  501    0  0.00000000000E+00  0.00000000000E+00 -0.14805658111E+04  0.14805658111E+04  0.50400001928E-02 0. -1.
    10030    2    1    2    0    0  0.00000000000E+00  0.00000000000E+00 -0.79678877092E+03  0.21643428513E+04  0.20123388463E+04 0.  0.
        4    1    3    3  502    0  0.12748179161E+03  0.85535465204E+03  0.15474082576E+03  0.87853828830E+03  0.12699999809E+01 0.  1.
       -4    1    3    3    0  502 -0.12748179161E+03 -0.85535465204E+03 -0.95152959668E+03  0.12858045630E+04  0.12699999809E+01 0. -1.
</event>
<event>
 5   0  0.2430898E-04  0.2110452E+04  0.7818609E-02  0.8556653E-01
       -2   -1    0    0    0  501  0.00000000000E+00  0.00000000000E+00  0.10125079493E+04  0.10125079493E+04  0.25500000920E-02 0. -1.
        2   -1    0    0  501    0  0.00000000000E+00  0.00000000000E+00 -0.10997463043E+04  0.10997463043E+04  0.25500000920E-02 0.  1.
    10030    2    1    2    0    0  0.00000000000E+00  0.00000000000E+00 -0.87238355022E+02  0.21122542536E+04  0.21104519661E+04 0.  0.
        1    1    3    3  502    0  0.55092131790E+03 -0.84902450506E+03 -0.34244569568E+03  0.10684689809E+04  0.50400001928E-02 0. -1.
       -1    1    3    3    0  502 -0.55092131790E+03  0.84902450506E+03  0.25520734066E+03  0.10437852727E+04  0.50400001928E-02 0.  1.
</event>
<event>
 5   0  0.1156733E-04  0.2290782E+04  0.7818609E-02  0.8481564E-01
       -1   -1    0    0    0  501  0.00000000000E+00  0.00000000000E+00  0.10266144906E+04  0.10266144906E+04  0.50400001928E-02 0. -1.
        1   -1    0    0  501    0  0.00000000000E+00  0.00000000000E+00 -0.12779098655E+04  0.12779098656E+04  0.50400001928E-02 0.  1.
    10030    2    1    2    0    0  0.00000000000E+00  0.00000000000E+00 -0.25129537496E+03  0.23045243562E+04  0.22907822120E+04 0.  0.
        2    1    3    3  502    0  0.31756147398E+03  0.10404540517E+04 -0.48631037192E+03  0.11915904083E+04  0.25500000920E-02 0. -1.
       -2    1    3    3    0  502 -0.31756147398E+03 -0.10404540517E+04  0.23501499696E+03  0.11129339478E+04  0.25500000920E-02 0.  1.
</event>
<event>
 5   0  0.1042395E-04  0.2120416E+04  0.7818609E-02  0.8552303E-01
       -1   -1    0    0    0  501  0.00000000000E+00  0.00000000000E+00  0.61061521428E+03  0.61061521430E+03  0.50400001928E-02 0.  1.
        1   -1    0    0  501    0  0.00000000000E+00  0.00000000000E+00 -0.18408333682E+04  0.18408333683E+04  0.50400001928E-02 0. -1.
    10030    2    1    2    0    0  0.00000000000E+00  0.00000000000E+00 -0.12302181540E+04  0.24514485826E+04  0.21204158664E+04 0.  0.
        3    1    3    3  502    0  0.47012454000E+02 -0.33692428225E+03  0.54580309278E+03  0.64314008512E+03  0.10100000352E+00 0.  1.
       -3    1    3    3    0  502 -0.47012454000E+02  0.33692428225E+03 -0.17760212467E+04  0.18083084974E+04  0.10100000352E+00 0. -1.
</event>
<event>
 5   0  0.2430898E-04  0.2115278E+04  0.7818609E-02  0.8554543E-01
       -2   -1    0    0    0  501  0.00000000000E+00  0.00000000000E+00  0.56554888193E+03  0.56554888194E+03  0.25500000920E-02 0. -1.
        2   -1    0    0  501    0  0.00000000000E+00  0.00000000000E+00 -0.19779015531E+04  0.19779015531E+04  0.25500000920E-02 0.  1.
    10030    2    1    2    0    0  0.00000000000E+00  0.00000000000E+00 -0.14123526712E+04  0.25434504351E+04  0.21152777708E+04 0.  0.
        1    1    3    3  502    0  0.76253392147E+03 -0.33483111427E+03  0.77732835376E+02  0.83642826961E+03  0.50400001928E-02 0. -1.
       -1    1    3    3    0  502 -0.76253392147E+03  0.33483111427E+03 -0.14900855066E+04  0.17070221655E+04  0.50400001928E-02 0.  1.
</event>
<event>
 5   0  0.1186038E-04  0.1115962E+04  0.7818609E-02  0.9189773E-01
        1   -1    0    0  501    0  0.00000000000E+00  0.00000000000E+00  0.22296204383E+04  0.22296204383E+04  0.50400001928E-02 0. -1.
       -1   -1    0    0    0  501  0.00000000000E+00  0.00000000000E+00 -0.13963930145E+03  0.13963930154E+03  0.50400001928E-02 0.  1.
    10030    2    1    2    0    0  0.00000000000E+00  0.00000000000E+00  0.20899811369E+04  0.23692597399E+04  0.11159617209E+04 0.  0.
        4    1    3    3  502    0 -0.17682133044E+03 -0.38407819264E+03  0.27201050599E+03  0.50276552112E+03  0.12699999809E+01 0.  1.
       -4    1    3    3    0  502  0.17682133044E+03  0.38407819264E+03  0.18179706309E+04  0.18664942187E+04  0.12699999809E+01 0. -1.
</event>
<event>
 5   0  0.2448804E-04  0.2121343E+04  0.7818609E-02  0.8551900E-01
       -2   -1    0    0    0  501  0.00000000000E+00  0.00000000000E+00  0.55919988187E+03  0.55919988188E+03  0.25500000920E-02 0.  1.
        2   -1    0    0  501    0  0.00000000000E+00  0.00000000000E+00 -0.20118452427E+04  0.20118452427E+04  0.25500000920E-02 0. -1.
    10030    2    1    2    0    0  0.00000000000E+00  0.00000000000E+00 -0.14526453608E+04  0.25710451246E+04  0.21213426145E+04 0.  0.
        2    1    3    3  502    0  0.53311339114E+03 -0.90256526215E+03 -0.92246169714E+03  0.13963414779E+04  0.25500000920E-02 0. -1.
       -2    1    3    3    0  502 -0.53311339114E+03  0.90256526215E+03 -0.53018366368E+03  0.11747036467E+04  0.25500000920E-02 0.  1.
</event>
<event>
 5   0  0.1130848E-04  0.1935282E+04  0.7818609E-02  0.8637491E-01
        1   -1    0    0  501    0  0.00000000000E+00  0.00000000000E+00  0.11484238737E+04  0.11484238737E+04  0.50400001928E-02 0. -1.
       -1   -1    0    0    0  501  0.00000000000E+00  0.00000000000E+00 -0.81531688450E+03  0.81531688451E+03  0.50400001928E-02 0.  1.
    10030    2    1    2    0    0  0.00000000000E+00  0.00000000000E+00  0.33310698916E+03  0.19637407582E+04  0.19352822789E+04 0.  0.
        5    1    3    3  502    0  0.74583356722E+03  0.52759326885E+03 -0.15701639783E+03  0.92698360639E+03  0.46999998093E+01 0.  1.
       -5    1    3    3    0  502 -0.74583356722E+03 -0.52759326885E+03  0.49012338699E+03  0.10367571518E+04  0.46999998093E+01 0. -1.
</event>
<event>
 5   0  0.2512839E-04  0.1803888E+04  0.7818609E-02  0.8704234E-01
        2   -1    0    0  501    0  0.00000000000E+00  0.00000000000E+00  0.98758788386E+03  0.98758788386E+03  0.25500000920E-02 0. -1.
       -2   -1    0    0    0  501  0.00000000000E+00  0.00000000000E+00 -0.82372748037E+03  0.82372748038E+03  0.25500000920E-02 0.  1.
    10030    2    1    2    0    0  0.00000000000E+00  0.00000000000E+00  0.16386040348E+03  0.18113153642E+04  0.18038883327E+04 0.  0.
        3    1    3    3  502    0 -0.29873722018E+03 -0.32715064765E+03  0.87080587977E+03  0.97702321539E+03  0.10100000352E+00 0. -1.
       -3    1    3    3    0  502  0.29873722018E+03  0.32715064765E+03 -0.70694547628E+03  0.83429214884E+03  0.10100000352E+00 0.  1.
</event>
<event>
 5   0  0.1156733E-04  0.2099388E+04  0.7818609E-02  0.8561513E-01
        1   -1    0    0  501    0  0.00000000000E+00  0.00000000000E+00  0.18542226485E+04  0.18542226485E+04  0.50400001928E-02 0.  1.
       -1   -1    0    0    0  501  0.00000000000E+00  0.00000000000E+00 -0.59424237676E+03  0.59424237678E+03  0.50400001928E-02 0. -1.
    10030    2    1    2    0    0  0.00000000000E+00  0.00000000000E+00  0.12599802717E+04  0.24484650253E+04  0.20993881716E+04 0.  0.
        2    1    3    3  502    0 -0.10850389022E+03  0.10072492313E+04  0.30945831402E+03  0.10592868149E+04  0.25500000920E-02 0. -1.
       -2    1    3    3    0  502  0.10850389022E+03 -0.10072492313E+04  0.95052195772E+03  0.13891782104E+04  0.25500000920E-02 0.  1.
</event>
<event>
 5   0  0.2448804E-04  0.2116115E+04  0.7818609E-02  0.8554178E-01
        2   -1    0    0  501    0  0.00000000000E+00  0.00000000000E+00  0.19023153810E+04  0.19023153810E+04  0.25500000920E-02 0. -1.
       -2   -1    0    0    0  501  0.00000000000E+00  0.00000000000E+00 -0.58848567487E+03  0.58848567487E+03  0.25500000920E-02 0.  1.
    10030    2    1    2    0    0  0.00000000000E+00  0.00000000000E+00  0.13138297061E+04  0.24908010559E+04  0.21161146952E+04 0.  0.
        2    1    3    3  502    0  0.82654979444E+03  0.29112900894E+03  0.13548098873E+04  0.16135211474E+04  0.25500000920E-02 0. -1.
       -2    1    3    3    0  502 -0.82654979444E+03 -0.29112900894E+03 -0.40980181131E+02  0.87727990846E+03  0.25500000920E-02 0.  1.
</event>
<event>
 5   0  0.2430898E-04  0.2082737E+04  0.7818609E-02  0.8568886E-01
       -2   -1    0    0    0  501  0.00000000000E+00  0.00000000000E+00  0.11956231956E+04  0.11956231956E+04  0.25500000920E-02 0.  1.
        2   -1    0    0  501    0  0.00000000000E+00  0.00000000000E+00 -0.90701510375E+03  0.90701510376E+03  0.25500000920E-02 0. -1.
    10030    2    1    2    0    0  0.00000000000E+00  0.00000000000E+00  0.28860809189E+03  0.21026382994E+04  0.20827369463E+04 0.  0.
        1    1    3    3  502    0 -0.50436774962E+03 -0.70568383575E+03 -0.43745901705E+03  0.97146636304E+03  0.50400001928E-02 0. -1.
       -1    1    3    3    0  502  0.50436774962E+03  0.70568383575E+03  0.72606710894E+03  0.11311719364E+04  0.50400001928E-02 0.  1.
</event>
<event>
 5   0  0.1042395E-04  0.2112976E+04  0.7818609E-02  0.8555549E-01
       -1   -1    0    0    0  501  0.00000000000E+00  0.00000000000E+00  0.70254581826E+03  0.70254581828E+03  0.50400001928E-02 0.  1.
        1   -1    0    0  501    0  0.00000000000E+00  0.00000000000E+00 -0.15887461159E+04  0.15887461159E+04  0.50400001928E-02 0. -1.
    10030    2    1    2    0    0  0.00000000000E+00  0.00000000000E+00 -0.88620029766E+03  0.22912919342E+04  0.21129760434E+04 0.  0.
        3    1    3    3  502    0 -0.96811954764E+03 -0.18826033922E+03 -0.32361405740E+02  0.98678502453E+03  0.10100000352E+00 0.  1.
       -3    1    3    3    0  502  0.96811954764E+03  0.18826033922E+03 -0.85383889192E+03  0.13045069097E+04  0.10100000352E+00 0. -1.
</event>
<event>
 5   0  0.1186038E-04  0.2088069E+04  0.7818609E-02  0.8566517E-01
        1   -1    0    0  501    0  0.00000000000E+00  0.00000000000E+00  0.10260163846E+04  0.10260163846E+04  0.50400001928E-02 0. -1.
       -1   -1    0    0    0  501  0.00000000000E+00  0.00000000000E+00 -0.10623692498E+04  0.10623692498E+04  0.50400001928E-02 0.  1.
    10030    2    1    2    0    0  0.00000000000E+00  0.00000000000E+00 -0.36352865226E+02  0.20883856344E+04  0.20880692103E+04 0.  0.
        4    1    3    3  502    0 -0.10323350789E+04 -0.11770510027E+03 -0.12035080046E+03  0.10459713829E+04  0.12699999809E+01 0. -1.
       -4    1    3    3    0  502  0.10323350789E+04  0.11770510027E+03  0.83997935231E+02  0.10424142515E+04  0.12699999809E+01 0.  1.
</event>
<event>
 5   0  0.2448804E-04  0.2128272E+04  0.7818609E-02  0.8548891E-01
       -2   -1    0    0    0  501  0.00000000000E+00  0.00000000000E+00  0.86396920699E+03  0.86396920699E+03  0.25500000920E-02 0. -1.
        2   -1    0    0  501    0  0.00000000000E+00  0.00000000000E+00 -0.13106779380E+04  0.13106779380E+04  0.25500000920E-02 0.  1.
    10030    2    1    2    0    0  0.00000000000E+00  0.00000000000E+00 -0.44670873097E+03  0.21746471449E+04  0.21282719551E+04 0.  0.
        2    1    3    3  502    0  0.28634272723E+03 -0.10241864386E+04 -0.26206605466E+03  0.10952755980E+04  0.25500000920E-02 0.  1.
       -2    1    3    3    0  502 -0.28634272723E+03  0.10241864386E+04 -0.18464267631E+03  0.10793715470E+04  0.25500000920E-02 0. -1.
</event>
<event>
 5   0  0.2467483E-04  0.2021970E+04  0.7818609E-02  0.8596417E-01
       -2   -1    0    0    0  501  0.00000000000E+00  0.00000000000E+00  0.10243335309E+04  0.10243335309E+04  0.25500000920E-02 0. -1.
        2   -1    0    0  501    0  0.00000000000E+00  0.00000000000E+00 -0.99781058131E+03  0.99781058132E+03  0.25500000920E-02 0.  1.
    10030    2    1    2    0    0  0.00000000000E+00  0.00000000000E+00  0.26522949569E+02  0.20221441122E+04  0.20219701639E+04 0.  0.
        4    1    3    3  502    0  0.91125035220E+03  0.12353449149E+02  0.45097413364E+03  0.10168132052E+04  0.12699999809E+01 0. -1.
       -4    1    3    3    0  502 -0.91125035220E+03 -0.12353449149E+02 -0.42445118407E+03  0.10053309070E+04  0.12699999809E+01 0.  1.
</event>
<event>
 5   0  0.2512839E-04  0.2088689E+04  0.7818609E-02  0.8566242E-01
       -2   -1    0    0    0  501  0.00000000000E+00  0.00000000000E+00  0.54963085542E+03  0.54963085543E+03  0.25500000920E-02 0. -1.
        2   -1    0    0  501    0  0.00000000000E+00  0.00000000000E+00 -0.19843424377E+04  0.19843424377E+04  0.25500000920E-02 0.  1.
    10030    2    1    2    0    0  0.00000000000E+00  0.00000000000E+00 -0.14347115823E+04  0.25339732931E+04  0.20886893800E+04 0.  0.
        3    1    3    3  502    0 -0.76679217009E+03 -0.68706272898E+03 -0.50502915573E+03  0.11467693247E+04  0.10100000352E+00 0.  1.
       -3    1    3    3    0  502  0.76679217009E+03  0.68706272898E+03 -0.92968242653E+03  0.13872039684E+04  0.10100000352E+00 0. -1.
</event>
<event>
 5   0  0.2579241E-04  0.2078447E+04  0.7818609E-02  0.8570797E-01
        2   -1    0    0  501    0  0.00000000000E+00  0.00000000000E+00  0.13743747657E+04  0.13743747657E+04  0.25500000920E-02 0. -1.
       -2   -1    0    0    0  501  0.00000000000E+00  0.00000000000E+00 -0.78580166923E+03  0.78580166923E+03  0.25500000920E-02 0.  1.
    10030    2    1    2    0    0  0.00000000000E+00  0.00000000000E+00  0.58857309644E+03  0.21601764349E+04  0.20784474831E+04 0.  0.
        5    1    3    3  502    0 -0.26548774587E+02 -0.97288473201E+03 -0.84395361319E+02  0.97691054156E+03  0.46999998093E+01 0.  1.
       -5    1    3    3    0  502  0.26548774587E+02  0.97288473201E+03  0.67296845776E+03  0.11832658933E+04  0.46999998093E+01 0. -1.
</event>
<event>
 5   0  0.1186038E-04  0.1478731E+04  0.7818609E-02  0.8898721E-01
        1   -1    0    0  501    0  0.00000000000E+00  0.00000000000E+00  0.48753101421E+03  0.48753101423E+03  0.50400001928E-02 0.  1.
       -1   -1    0    0    0  501  0.00000000000E+00  0.00000000000E+00 -0.11212853613E+04  0.11212853613E+04  0.50400001928E-02 0. -1.
    10030    2    1    2    0    0  0.00000000000E+00  0.00000000000E+00 -0.63375434706E+03  0.16088163755E+04  0.14787310633E+04 0.  0.
        4    1    3    3  502    0  0.18625120148E+03  0.17124467362E+03  0.43896553071E+03  0.50666221327E+03  0.12699999809E+01 0.  1.
       -4    1    3    3    0  502 -0.18625120148E+03 -0.17124467362E+03 -0.10727198778E+04  0.11021541623E+04  0.12699999809E+01 0. -1.
</event>
<event>
 5   0  0.1130848E-04  0.1783194E+04  0.7818609E-02  0.8715288E-01
        1   -1    0    0  501    0  0.00000000000E+00  0.00000000000E+00  0.22381575789E+04  0.22381575789E+04  0.50400001928E-02 0. -1.
       -1   -1    0    0    0  501  0.00000000000E+00  0.00000000000E+00 -0.35517828853E+03  0.35517828856E+03  0.50400001928E-02 0.  1.
    10030    2    1    2    0    0  0.00000000000E+00  0.00000000000E+00  0.18829792904E+04  0.25933358675E+04  0.17831937398E+04 0.  0.
        5    1    3    3  502    0  0.13958158713E+03  0.86555568781E+03  0.70584828190E+03  0.11255725455E+04  0.46999998093E+01 0.  1.
       -5    1    3    3    0  502 -0.13958158713E+03 -0.86555568781E+03  0.11771310085E+04  0.14677633220E+04  0.46999998093E+01 0. -1.
</event>
<event>
 5   0  0.1122711E-04  0.1747169E+04  0.7818609E-02  0.8734910E-01
       -1   -1    0    0    0  501  0.00000000000E+00  0.00000000000E+00  0.21268303847E+04  0.21268303848E+04  0.50400001928E-02 0.  1.
        1   -1    0    0  501    0  0.00000000000E+00  0.00000000000E+00 -0.35882029047E+03  0.35882029051E+03  0.50400001928E-02 0. -1.
    10030    2    1    2    0    0  0.00000000000E+00  0.00000000000E+00  0.17680100943E+04  0.24856506753E+04  0.17471690204E+04 0.  0.
        1    1    3    3  502    0 -0.57862950474E+03 -0.65293559469E+03  0.82017627667E+03  0.11974247865E+04  0.50400001928E-02 0.  1.
       -1    1    3    3    0  502  0.57862950474E+03  0.65293559469E+03  0.94783381761E+03  0.12882258887E+04  0.50400001928E-02 0. -1.
</event>
<event>
 5   0  0.2467483E-04  0.2052393E+04  0.7818609E-02  0.8582509E-01
        2   -1    0    0  501    0  0.00000000000E+00  0.00000000000E+00  0.94621393770E+03  0.94621393770E+03  0.25500000920E-02 0. -1.
       -2   -1    0    0    0  501  0.00000000000E+00  0.00000000000E+00 -0.11129401848E+04  0.11129401848E+04  0.25500000920E-02 0.  1.
    10030    2    1    2    0    0  0.00000000000E+00  0.00000000000E+00 -0.16672624712E+03  0.20591541225E+04  0.20523932515E+04 0.  0.
        4    1    3    3  502    0  0.41105184882E+03  0.52253617008E+03  0.70092175023E+03  0.96607483370E+03  0.12699999809E+01 0. -1.
       -4    1    3    3    0  502 -0.41105184882E+03 -0.52253617008E+03 -0.86764799735E+03  0.10930792888E+04  0.12699999809E+01 0.  1.
</event>
<event>
 5   0  0.2467483E-04  0.2185868E+04  0.7818609E-02  0.8524333E-01
        2   -1    0    0  501    0  0.00000000000E+00  0.00000000000E+00  0.13344210373E+04  0.13344210373E+04  0.25500000920E-02 0. -1.
       -2   -1    0    0    0  501  0.00000000000E+00  0.00000000000E+00 -0.89514837904E+03  0.89514837904E+03  0.25500000920E-02 0.  1.
    10030    2    1    2    0    0  0.00000000000E+00  0.00000000000E+00  0.43927265826E+03  0.22295694163E+04  0.21858680916E+04 0.  0.
        4    1    3    3  502    0 -0.99696426604E+02  0.10725269975E+04  0.30869668542E+02  0.10775936559E+04  0.12699999809E+01 0. -1.
       -4    1    3    3    0  502  0.99696426604E+02 -0.10725269975E+04  0.40840298971E+03  0.11519757605E+04  0.12699999809E+01 0.  1.
</event>
<event>
 5   0  0.8698750E-05  0.2196564E+04  0.7818609E-02  0.8519860E-01
       -3   -1    0    0    0  501  0.00000000000E+00  0.00000000000E+00  0.48730190807E+03  0.48730191854E+03  0.10100000352E+00 0. -1.
        3   -1    0    0  501    0  0.00000000000E+00  0.00000000000E+00 -0.24753094122E+04  0.24753094143E+04  0.10100000352E+00 0.  1.
    10030    2    1    2    0    0  0.00000000000E+00  0.00000000000E+00 -0.19880075041E+04  0.29626113328E+04  0.21965636965E+04 0.  0.
        2    1    3    3  502    0 -0.38425706393E+03 -0.89796735953E+03 -0.16713710257E+04  0.19358408962E+04  0.25500000920E-02 0.  1.
       -2    1    3    3    0  502  0.38425706393E+03  0.89796735953E+03 -0.31663647847E+03  0.10267704366E+04  0.25500000920E-02 0. -1.
</event>
<event>
 5   0  0.2448804E-04  0.1713309E+04  0.7818609E-02  0.8753810E-01
        2   -1    0    0  501    0  0.00000000000E+00  0.00000000000E+00  0.10272884297E+04  0.10272884297E+04  0.25500000920E-02 0.  1.
       -2   -1    0    0    0  501  0.00000000000E+00  0.00000000000E+00 -0.71436291233E+03  0.71436291233E+03  0.25500000920E-02 0. -1.
    10030    2    1    2    0    0  0.00000000000E+00  0.00000000000E+00  0.31292551739E+03  0.17416513421E+04  0.17133087923E+04 0.  0.
        2    1    3    3  502    0 -0.52804025303E+03  0.34370421010E+03 -0.43356789289E+03  0.76481384049E+03  0.25500000920E-02 0. -1.
       -2    1    3    3    0  502  0.52804025303E+03 -0.34370421010E+03  0.74649341029E+03  0.97683750157E+03  0.25500000920E-02 0.  1.
</event>
<event>
 5   0  0.1156733E-04  0.1992188E+04  0.7818609E-02  0.8610282E-01
        1   -1    0    0  501    0  0.00000000000E+00  0.00000000000E+00  0.11472203440E+04  0.11472203440E+04  0.50400001928E-02 0. -1.
       -1   -1    0    0    0  501  0.00000000000E+00  0.00000000000E+00 -0.86487581674E+03  0.86487581676E+03  0.50400001928E-02 0.  1.
    10030    2    1    2    0    0  0.00000000000E+00  0.00000000000E+00  0.28234452729E+03  0.20120961608E+04  0.19921878747E+04 0.  0.
        2    1    3    3  502    0 -0.52665400257E+03 -0.51866062477E+03  0.81554966934E+03  0.11006791291E+04  0.25500000920E-02 0. -1.
       -2    1    3    3    0  502  0.52665400257E+03  0.51866062477E+03 -0.53320514205E+03  0.91141703168E+03  0.25500000920E-02 0.  1.
</event>
<event>
 5   0  0.1042395E-04  0.2097942E+04  0.7818609E-02  0.8562151E-01
       -1   -1    0    0    0  501  0.00000000000E+00  0.00000000000E+00  0.88150956698E+03  0.88150956699E+03  0.50400001928E-02 0. -1.
        1   -1    0    0  501    0  0.00000000000E+00  0.00000000000E+00 -0.12482447728E+04  0.12482447728E+04  0.50400001928E-02 0.  1.
    10030    2    1    2    0    0  0.00000000000E+00  0.00000000000E+00 -0.36673520579E+03  0.21297543398E+04  0.20979415713E+04 0.  0.
        3    1    3    3  502    0  0.33447260332E+03  0.55113507474E+02 -0.11911089416E+04  0.12384062105E+04  0.10100000352E+00 0.  1.
       -3    1    3    3    0  502 -0.33447260332E+03 -0.55113507474E+02  0.82437373584E+03  0.89134812931E+03  0.10100000352E+00 0. -1.
</event>
<event>
 5   0  0.2579241E-04  0.2087310E+04  0.7818609E-02  0.8566854E-01
        2   -1    0    0  501    0  0.00000000000E+00  0.00000000000E+00  0.15417571828E+04  0.15417571828E+04  0.25500000920E-02 0. -1.
       -2   -1    0    0    0  501  0.00000000000E+00  0.00000000000E+00 -0.70647659630E+03  0.70647659630E+03  0.25500000920E-02 0.  1.
    10030    2    1    2    0    0  0.00000000000E+00  0.00000000000E+00  0.83528058654E+03  0.22482337791E+04  0.20873096242E+04 0.  0.
        5    1    3    3  502    0 -0.32930678221E+03 -0.31991317127E+03 -0.59185014786E+03  0.74906346959E+03  0.46999998093E+01 0.  1.
       -5    1    3    3    0  502  0.32930678221E+03  0.31991317127E+03  0.14271307344E+04  0.14991703095E+04  0.46999998093E+01 0. -1.
</event>
<event>
 5   0  0.2430898E-04  0.2064105E+04  0.7818609E-02  0.8577223E-01
        2   -1    0    0  501    0  0.00000000000E+00  0.00000000000E+00  0.20064420003E+04  0.20064420003E+04  0.25500000920E-02 0.  1.
       -2   -1    0    0    0  501  0.00000000000E+00  0.00000000000E+00 -0.53085610291E+03  0.53085610292E+03  0.25500000920E-02 0. -1.
    10030    2    1    2    0    0  0.00000000000E+00  0.00000000000E+00  0.14755858974E+04  0.25372981032E+04  0.20641046301E+04 0.  0.
        1    1    3    3  502    0 -0.49923319621E+03 -0.80449170880E+03  0.23291533683E+03  0.97503345988E+03  0.50400001928E-02 0. -1.
       -1    1    3    3    0  502  0.49923319621E+03  0.80449170880E+03  0.12426705606E+04  0.15622646433E+04  0.50400001928E-02 0.  1.
</event>
<event>
 5   0  0.1186038E-04  0.1823053E+04  0.7818609E-02  0.8694135E-01
       -1   -1    0    0    0  501  0.00000000000E+00  0.00000000000E+00  0.83575506237E+03  0.83575506238E+03  0.50400001928E-02 0.  1.
        1   -1    0    0  501    0  0.00000000000E+00  0.00000000000E+00 -0.99416781198E+03  0.99416781200E+03  0.50400001928E-02 0. -1.
    10030    2    1    2    0    0  0.00000000000E+00  0.00000000000E+00 -0.15841274961E+03  0.18299228744E+04  0.18230532430E+04 0.  0.
        4    1    3    3  502    0 -0.66349911490E+03  0.45722336251E+03 -0.50695167380E+03  0.95199048901E+03  0.12699999809E+01 0.  1.
       -4    1    3    3    0  502  0.66349911490E+03 -0.45722336251E+03  0.34853892418E+03  0.87793238537E+03  0.12699999809E+01 0. -1.
</event>
<event>
 5   0  0.1186038E-04  0.2013318E+04  0.7818609E-02  0.8600419E-01
        1   -1    0    0  501    0  0.00000000000E+00  0.00000000000E+00  0.22848922470E+04  0.22848922470E+04  0.50400001928E-02 0.  1.
       -1   -1    0    0    0  501  0.00000000000E+00  0.00000000000E+00 -0.44350550933E+03  0.44350550936E+03  0.50400001928E-02 0. -1.
    10030    2    1    2    0    0  0.00000000000E+00  0.00000000000E+00  0.18413867377E+04  0.27283977564E+04  0.20133179578E+04 0.  0.
        4    1    3    3  502    0 -0.76847495259E+03 -0.50313777553E+03  0.36250064827E+03  0.98747643355E+03  0.12699999809E+01 0. -1.
       -4    1    3    3    0  502  0.76847495259E+03  0.50313777553E+03  0.14788860894E+04  0.17409213228E+04  0.12699999809E+01 0.  1.
</event>
<event>
 5   0  0.1130848E-04  0.2127739E+04  0.7818609E-02  0.8549122E-01
        1   -1    0    0  501    0  0.00000000000E+00  0.00000000000E+00  0.11147179736E+04  0.11147179737E+04  0.50400001928E-02 0. -1.
       -1   -1    0    0    0  501  0.00000000000E+00  0.00000000000E+00 -0.10153401301E+04  0.10153401301E+04  0.50400001928E-02 0.  1.
    10030    2    1    2    0    0  0.00000000000E+00  0.00000000000E+00  0.99377843586E+02  0.21300581037E+04  0.21277386046E+04 0.  0.
        5    1    3    3  502    0 -0.59474724025E+03  0.21520708012E+03  0.90604966218E+03  0.11049825553E+04  0.46999998093E+01 0. -1.
       -5    1    3    3    0  502  0.59474724025E+03 -0.21520708012E+03 -0.80667181859E+03  0.10250755484E+04  0.46999998093E+01 0.  1.
</event>
<event>
 5   0  0.2467483E-04  0.2099787E+04  0.7818609E-02  0.8561337E-01
        2   -1    0    0  501    0  0.00000000000E+00  0.00000000000E+00  0.18421872222E+04  0.18421872222E+04  0.25500000920E-02 0.  1.
       -2   -1    0    0    0  501  0.00000000000E+00  0.00000000000E+00 -0.59835180451E+03  0.59835180452E+03  0.25500000920E-02 0. -1.
    10030    2    1    2    0    0  0.00000000000E+00  0.00000000000E+00  0.12438354177E+04  0.24405390267E+04  0.20997867022E+04 0.  0.
        4    1    3    3  502    0  0.81494097362E+03  0.48185624058E+03  0.11493931420E+04  0.14891005456E+04  0.12699999809E+01 0. -1.
       -4    1    3    3    0  502 -0.81494097362E+03 -0.48185624058E+03  0.94442275704E+02  0.95143848115E+03  0.12699999809E+01 0.  1.
</event>
<event>
 5   0  0.1130848E-04  0.2103042E+04  0.7818609E-02  0.8559905E-01
       -1   -1    0    0    0  501  0.00000000000E+00  0.00000000000E+00  0.19224527280E+04  0.19224527280E+04  0.50400001928E-02 0. -1.
        1   -1    0    0  501    0  0.00000000000E+00  0.00000000000E+00 -0.57514859903E+03  0.57514859905E+03  0.50400001928E-02 0.  1.
    10030    2    1    2    0    0  0.00000000000E+00  0.00000000000E+00  0.13473041289E+04  0.24976013270E+04  0.21030416004E+04 0.  0.
        5    1    3    3  502    0  0.57552075393E+03  0.28742224819E+03 -0.31416728069E+03  0.71593215965E+03  0.46999998093E+01 0.  1.
       -5    1    3    3    0  502 -0.57552075393E+03 -0.28742224819E+03  0.16614714096E+04  0.17816691674E+04  0.46999998093E+01 0. -1.
</event>
<event>
 5   0  0.2512839E-04  0.2077811E+04  0.7818609E-02  0.8571081E-01
       -2   -1    0    0    0  501  0.00000000000E+00  0.00000000000E+00  0.55175573936E+03  0.55175573936E+03  0.25500000920E-02 0. -1.
        2   -1    0    0  501    0  0.00000000000E+00  0.00000000000E+00 -0.19561643801E+04  0.19561643801E+04  0.25500000920E-02 0.  1.
    10030    2    1    2    0    0  0.00000000000E+00  0.00000000000E+00 -0.14044086408E+04  0.25079201195E+04  0.20778112752E+04 0.  0.
        3    1    3    3  502    0  0.84446078100E+03  0.30167703513E+03 -0.69015423486E+02  0.89938099994E+03  0.10100000352E+00 0. -1.
       -3    1    3    3    0  502 -0.84446078100E+03 -0.30167703513E+03 -0.13353932173E+04  0.16085391196E+04  0.10100000352E+00 0.  1.
</event>
<event>
 5   0  0.2512839E-04  0.2061372E+04  0.7818609E-02  0.8578453E-01
       -2   -1    0    0    0  501  0.00000000000E+00  0.00000000000E+00  0.12339844962E+04  0.12339844962E+04  0.25500000920E-02 0. -1.
        2   -1    0    0  501    0  0.00000000000E+00  0.00000000000E+00 -0.86088096770E+03  0.86088096770E+03  0.25500000920E-02 0.  1.
    10030    2    1    2    0    0  0.00000000000E+00  0.00000000000E+00  0.37310352855E+03  0.20948654640E+04  0.20613721326E+04 0.  0.
        3    1    3    3  502    0 -0.88884208371E+03  0.69598522816E+02  0.71209014135E+03  0.11410331212E+04  0.10100000352E+00 0. -1.
       -3    1    3    3    0  502  0.88884208371E+03 -0.69598522816E+02 -0.33898661281E+03  0.95383234271E+03  0.10100000352E+00 0.  1.
</event>
<event>
 5   0  0.8698750E-05  0.2135881E+04  0.7818609E-02  0.8545600E-01
       -3   -1    0    0    0  501  0.00000000000E+00  0.00000000000E+00  0.17150430028E+04  0.17150430057E+04  0.10100000352E+00 0. -1.
        3   -1    0    0  501    0  0.00000000000E+00  0.00000000000E+00 -0.66499603160E+03  0.66499603927E+03  0.10100000352E+00 0.  1.
    10030    2    1    2    0    0  0.00000000000E+00  0.00000000000E+00  0.10500469712E+04  0.23800390450E+04  0.21358808989E+04 0.  0.
        1    1    3    3  502    0  0.26416757765E+03 -0.10129551694E+04  0.28960501481E+03  0.10861554902E+04  0.50400001928E-02 0.  1.
       -1    1    3    3    0  502 -0.26416757765E+03  0.10129551694E+04  0.76044195635E+03  0.12938835548E+04  0.50400001928E-02 0. -1.
</event>
<event>
 5   0  0.1130848E-04  0.2079495E+04  0.7818609E-02  0.8570330E-01
        1   -1    0    0  501    0  0.00000000000E+00  0.00000000000E+00  0.23063887214E+04  0.23063887214E+04  0.50400001928E-02 0.  1.
       -1   -1    0    0    0  501  0.00000000000E+00  0.00000000000E+00 -0.46873060525E+03  0.46873060528E+03  0.50400001928E-02 0. -1.
    10030    2    1    2    0    0  0.00000000000E+00  0.00000000000E+00  0.18376581162E+04  0.27751193267E+04  0.20794951131E+04 0.  0.
        5    1    3    3  502    0 -0.46497795966E+03  0.34289709223E+03 -0.23479026963E+03  0.62364371201E+03  0.46999998093E+01 0. -1.
       -5    1    3    3    0  502  0.46497795966E+03 -0.34289709223E+03  0.20724483858E+04  0.21514756147E+04  0.46999998093E+01 0.  1.
</event>
<event>
 5   0  0.2512839E-04  0.2102377E+04  0.7818609E-02  0.8560197E-01
        2   -1    0    0  501    0  0.00000000000E+00  0.00000000000E+00  0.11168283096E+04  0.11168283096E+04  0.25500000920E-02 0. -1.
       -2   -1    0    0    0  501  0.00000000000E+00  0.00000000000E+00 -0.98940685477E+03  0.98940685478E+03  0.25500000920E-02 0.  1.
    10030    2    1    2    0    0  0.00000000000E+00  0.00000000000E+00  0.12742145487E+03  0.21062351644E+04  0.21023773069E+04 0.  0.
        3    1    3    3  502    0 -0.10380168850E+04  0.17492392419E+02  0.22897566342E+03  0.10631156579E+04  0.10100000352E+00 0.  1.
       -3    1    3    3    0  502  0.10380168850E+04 -0.17492392419E+02 -0.10155420855E+03  0.10431195065E+04  0.10100000352E+00 0. -1.
</event>
<event>
 5   0  0.8698750E-05  0.2105592E+04  0.7818609E-02  0.8558784E-01
        3   -1    0    0  501    0  0.00000000000E+00  0.00000000000E+00  0.71875915577E+03  0.71875916287E+03  0.10100000352E+00 0. -1.
       -3   -1    0    0    0  501  0.00000000000E+00  0.00000000000E+00 -0.15420730211E+04  0.15420730244E+04  0.10100000352E+00 0.  1.
    10030    2    1    2    0    0  0.00000000000E+00  0.00000000000E+00 -0.82331386532E+03  0.22608321873E+04  0.21055917121E+04 0.  0.
        5    1    3    3  502    0  0.16050834685E+03 -0.95092494520E+03 -0.86509030999E+03  0.12955402407E+04  0.46999998093E+01 0.  1.
       -5    1    3    3    0  502 -0.16050834685E+03  0.95092494520E+03  0.41776444662E+02  0.96529194658E+03  0.46999998093E+01 0. -1.
</event>
<event>
 5   0  0.2448804E-04  0.2077732E+04  0.7818609E-02  0.8571117E-01
       -2   -1    0    0    0  501  0.00000000000E+00  0.00000000000E+00  0.11676231436E+04  0.11676231436E+04  0.25500000920E-02 0.  1.
        2   -1    0    0  501    0  0.00000000000E+00  0.00000000000E+00 -0.92430711262E+03  0.92430711263E+03  0.25500000920E-02 0. -1.
    10030    2    1    2    0    0  0.00000000000E+00  0.00000000000E+00  0.24331603094E+03  0.20919302562E+04  0.20777318176E+04 0.  0.
        2    1    3    3  502    0  0.75270741496E+03 -0.48685083842E+03  0.65026981735E+03  0.11074488822E+04  0.25500000920E-02 0.  1.
       -2    1    3    3    0  502 -0.75270741496E+03  0.48685083842E+03 -0.40695378641E+03  0.98448137396E+03  0.25500000920E-02 0. -1.
</event>
<event>
 5   0  0.2430898E-04  0.2103740E+04  0.7818609E-02  0.8559598E-01
        2   -1    0    0  501    0  0.00000000000E+00  0.00000000000E+00  0.17045929352E+04  0.17045929352E+04  0.25500000920E-02 0.  1.
       -2   -1    0    0    0  501  0.00000000000E+00  0.00000000000E+00 -0.64908793915E+03  0.64908793916E+03  0.25500000920E-02 0. -1.
    10030    2    1    2    0    0  0.00000000000E+00  0.00000000000E+00  0.10555049961E+04  0.23536808744E+04  0.21037402078E+04 0.  0.
        1    1    3    3  502    0 -0.48090038590E+03 -0.81655879556E+03  0.10384943902E+04  0.14058819461E+04  0.50400001928E-02 0.  1.
       -1    1    3    3    0  502  0.48090038590E+03  0.81655879556E+03  0.17010605847E+02  0.94779892831E+03  0.50400001928E-02 0. -1.
</event>
<event>
 5   0  0.1122711E-04  0.2084540E+04  0.7818609E-02  0.8568084E-01
        1   -1    0    0  501    0  0.00000000000E+00  0.00000000000E+00  0.85063822854E+03  0.85063822856E+03  0.50400001928E-02 0.  1.
       -1   -1    0    0    0  501  0.00000000000E+00  0.00000000000E+00 -0.12770728751E+04  0.12770728751E+04  0.50400001928E-02 0. -1.
    10030    2    1    2    0    0  0.00000000000E+00  0.00000000000E+00 -0.42643464651E+03  0.21277111036E+04  0.20845402449E+04 0.  0.
        1    1    3    3  502    0  0.90394533751E+02  0.37551105192E+03  0.77489496842E+03  0.86581864958E+03  0.50400001928E-02 0.  1.
       -1    1    3    3    0  502 -0.90394533751E+02 -0.37551105192E+03 -0.12013296149E+04  0.12618924540E+04  0.50400001928E-02 0. -1.
</event>
<event>
 5   0  0.2467483E-04  0.2120245E+04  0.7818609E-02  0.8552377E-01
       -2   -1    0    0    0  501  0.00000000000E+00  0.00000000000E+00  0.92244628095E+03  0.92244628095E+03  0.25500000920E-02 0. -1.
        2   -1    0    0  501    0  0.00000000000E+00  0.00000000000E+00 -0.12183474056E+04  0.12183474056E+04  0.25500000920E-02 0.  1.
    10030    2    1    2    0    0  0.00000000000E+00  0.00000000000E+00 -0.29590112461E+03  0.21407936865E+04  0.21202453001E+04 0.  0.
        4    1    3    3  502    0 -0.48070554579E+03  0.44955232518E+03 -0.98707850941E+03  0.11863813516E+04  0.12699999809E+01 0.  1.
       -4    1    3    3    0  502  0.48070554579E+03 -0.44955232518E+03  0.69117738481E+03  0.95441233489E+03  0.12699999809E+01 0. -1.
</event>
<event>
 5   0  0.2467483E-04  0.2124846E+04  0.7818609E-02  0.8550377E-01
       -2   -1    0    0    0  501  0.00000000000E+00  0.00000000000E+00  0.42092385729E+03  0.42092385730E+03  0.25500000920E-02 0. -1.
        2   -1    0    0  501    0  0.00000000000E+00  0.00000000000E+00 -0.26815831391E+04  0.26815831391E+04  0.25500000920E-02 0.  1.
    10030    2    1    2    0    0  0.00000000000E+00  0.00000000000E+00 -0.22606592818E+04  0.31025069964E+04  0.21248457060E+04 0.  0.
        4    1    3    3  502    0  0.29460177614E+03  0.14253121808E+03 -0.26061494184E+04  0.26266179316E+04  0.12699999809E+01 0.  1.
       -4    1    3    3    0  502 -0.29460177614E+03 -0.14253121808E+03  0.34549013658E+03  0.47588906481E+03  0.12699999809E+01 0. -1.
</event>
<event>
 5   0  0.2579241E-04  0.1134395E+04  0.7818609E-02  0.9172302E-01
       -2   -1    0    0    0  501  0.00000000000E+00  0.00000000000E+00  0.75753784403E+03  0.75753784403E+03  0.25500000920E-02 0. -1.
        2   -1    0    0  501    0  0.00000000000E+00  0.00000000000E+00 -0.42468241605E+03  0.42468241606E+03  0.25500000920E-02 0.  1.
    10030    2    1    2    0    0  0.00000000000E+00  0.00000000000E+00  0.33285542798E+03  0.11822202601E+04  0.11343949962E+04 0.  0.
        5    1    3    3  502    0 -0.28122194477E+03  0.35165067222E+03  0.52585473404E+03  0.69230720696E+03  0.46999998093E+01 0. -1.
       -5    1    3    3    0  502  0.28122194477E+03 -0.35165067222E+03 -0.19299930606E+03  0.48991305313E+03  0.46999998093E+01 0.  1.
</event>
<event>
 5   0  0.1186038E-04  0.1104787E+04  0.7818609E-02  0.9200539E-01
       -1   -1    0    0    0  501  0.00000000000E+00  0.00000000000E+00  0.56151191389E+03  0.56151191391E+03  0.50400001928E-02 0.  1.
        1   -1    0    0  501    0  0.00000000000E+00  0.00000000000E+00 -0.54342284870E+03  0.54342284872E+03  0.50400001928E-02 0. -1.
    10030    2    1    2    0    0  0.00000000000E+00  0.00000000000E+00  0.18089065194E+02  0.11049347626E+04  0.11047866832E+04 0.  0.
        4    1    3    3  502    0  0.11426729001E+03  0.52820546941E+03 -0.10533320000E+03  0.55059488501E+03  0.12699999809E+01 0.  1.
       -4    1    3    3    0  502 -0.11426729001E+03 -0.52820546941E+03  0.12342226519E+03  0.55433987762E+03  0.12699999809E+01 0. -1.
</event>
<event>
 5   0  0.1156733E-04  0.2117022E+04  0.7818609E-02  0.8553782E-01
        1   -1    0    0  501    0  0.00000000000E+00  0.00000000000E+00  0.17910202805E+04  0.17910202805E+04  0.50400001928E-02 0. -1.
       -1   -1    0    0    0  501  0.00000000000E+00  0.00000000000E+00 -0.62559089158E+03  0.62559089160E+03  0.50400001928E-02 0.  1.
    10030    2    1    2    0    0  0.00000000000E+00  0.00000000000E+00  0.11654293889E+04  0.24166111721E+04  0.21170224129E+04 0.  0.
        2    1    3    3  502    0 -0.96192572514E+03 -0.26510603662E+03  0.17934862958E+03  0.10137791881E+04  0.25500000920E-02 0.  1.
       -2    1    3    3    0  502  0.96192572514E+03  0.26510603662E+03  0.98608075932E+03  0.14028319840E+04  0.25500000920E-02 0. -1.
</event>
<event>
 5   0  0.2512839E-04  0.2046480E+04  0.7818609E-02  0.8585193E-01
        2   -1    0    0  501    0  0.00000000000E+00  0.00000000000E+00  0.21542429810E+04  0.21542429810E+04  0.25500000920E-02 0. -1.
       -2   -1    0    0    0  501  0.00000000000E+00  0.00000000000E+00 -0.48602684440E+03  0.48602684441E+03  0.25500000920E-02 0.  1.
    10030    2    1    2    0    0  0.00000000000E+00  0.00000000000E+00  0.16682161366E+04  0.26402698254E+04  0.20464798246E+04 0.  0.
        3    1    3    3  502    0 -0.14721935933E+03  0.79731590719E+03  0.28786912705E+02  0.81130443865E+03  0.10100000352E+00 0.  1.
       -3    1    3    3    0  502  0.14721935933E+03 -0.79731590719E+03  0.16394292239E+04  0.18289653868E+04  0.10100000352E+00 0. -1.
</event>
<event>
 5   0  0.2467483E-04  0.2075324E+04  0.7818609E-02  0.8572192E-01
        2   -1    0    0  501    0  0.00000000000E+00  0.00000000000E+00  0.15740305522E+04  0.15740305522E+04  0.25500000920E-02 0.  1.
       -2   -1    0    0    0  501  0.00000000000E+00  0.00000000000E+00 -0.68406672254E+03  0.68406672254E+03  0.25500000920E-02 0. -1.
    10030    2    1    2    0    0  0.00000000000E+00  0.00000000000E+00  0.88996382965E+03  0.22580972747E+04  0.20753235131E+04 0.  0.
        4    1    3    3  502    0  0.14766831738E+03  0.10181345620E+04  0.59231957072E+03  0.11871175195E+04  0.12699999809E+01 0.  1.
       -4    1    3    3    0  502 -0.14766831738E+03 -0.10181345620E+04  0.29764425892E+03  0.10709797552E+04  0.12699999809E+01 0. -1.
</event>
<event>
 5   0  0.2467483E-04  0.2076474E+04  0.7818609E-02  0.8571678E-01
       -2   -1    0    0    0  501  0.00000000000E+00  0.00000000000E+00  0.70478409756E+03  0.70478409756E+03  0.25500000920E-02 0.  1.
        2   -1    0    0  501    0  0.00000000000E+00  0.00000000000E+00 -0.15294563855E+04  0.15294563855E+04  0.25500000920E-02 0. -1.
    10030    2    1    2    0    0  0.00000000000E+00  0.00000000000E+00 -0.82467228797E+03  0.22342404831E+04  0.20764744529E+04 0.  0.
        4    1    3    3  502    0  0.88480985281E+03  0.47004751473E+03 -0.11943730130E+03  0.10090094269E+04  0.12699999809E+01 0. -1.
       -4    1    3    3    0  502 -0.88480985281E+03 -0.47004751473E+03 -0.70523498667E+03  0.12252310562E+04  0.12699999809E+01 0.  1.
</event>
<event>
 5   0  0.1042395E-04  0.2109995E+04  0.7818609E-02  0.8556853E-01
        1   -1    0    0  501    0  0.00000000000E+00  0.00000000000E+00  0.23960313917E+04  0.23960313917E+04  0.50400001928E-02 0.  1.
       -1   -1    0    0    0  501  0.00000000000E+00  0.00000000000E+00 -0.46452641264E+03  0.46452641267E+03  0.50400001928E-02 0. -1.
    10030    2    1    2    0    0  0.00000000000E+00  0.00000000000E+00  0.19315049790E+04  0.28605578043E+04  0.21099951346E+04 0.  0.
        3    1    3    3  502    0 -0.39218930436E+03 -0.37456295630E+03  0.21925908897E+04  0.22586643572E+04  0.10100000352E+00 0.  1.
       -3    1    3    3    0  502  0.39218930436E+03  0.37456295630E+03 -0.26108591072E+03  0.60189344710E+03  0.10100000352E+00 0. -1.
</event>
<event>
 5   0  0.1122711E-04  0.2070705E+04  0.7818609E-02  0.8574259E-01
        1   -1    0    0  501    0  0.00000000000E+00  0.00000000000E+00  0.19925960402E+04  0.19925960402E+04  0.50400001928E-02 0. -1.
       -1   -1    0    0    0  501  0.00000000000E+00  0.00000000000E+00 -0.53796897446E+03  0.53796897448E+03  0.50400001928E-02 0.  1.
    10030    2    1    2    0    0  0.00000000000E+00  0.00000000000E+00  0.14546270657E+04  0.25305650147E+04  0.20707050473E+04 0.  0.
        1    1    3    3  502    0 -0.69550848854E+03 -0.39732494593E+03 -0.74388576216E+02  0.80444566664E+03  0.50400001928E-02 0.  1.
       -1    1    3    3    0  502  0.69550848854E+03  0.39732494593E+03  0.15290156419E+04  0.17261193480E+04  0.50400001928E-02 0. -1.
</event>
<event>
 5   0  0.1186038E-04  0.2137171E+04  0.7818609E-02  0.8545044E-01
        1   -1    0    0  501    0  0.00000000000E+00  0.00000000000E+00  0.16360659908E+04  0.16360659908E+04  0.50400001928E-02 0.  1.
       -1   -1    0    0    0  501  0.00000000000E+00  0.00000000000E+00 -0.69793922829E+03  0.69793922831E+03  0.50400001928E-02 0. -1.
    10030    2    1    2    0    0  0.00000000000E+00  0.00000000000E+00  0.93812676255E+03  0.23340052192E+04  0.21371706858E+04 0.  0.
        4    1    3    3  502    0 -0.36543212570E+03  0.55551579807E+02  0.15640249557E+04  0.16071099189E+04  0.12699999809E+01 0.  1.
       -4    1    3    3    0  502  0.36543212570E+03 -0.55551579807E+02 -0.62589819312E+03  0.72689530028E+03  0.12699999809E+01 0. -1.
</event>
<event>
 5   0  0.2430898E-04  0.2036414E+04  0.7818609E-02  0.8589783E-01
       -2   -1    0    0    0  501  0.00000000000E+00  0.00000000000E+00  0.11805864697E+04  0.11805864697E+04  0.25500000920E-02 0. -1.
        2   -1    0    0  501    0  0.00000000000E+00  0.00000000000E+00 -0.87816159856E+03  0.87816159856E+03  0.25500000920E-02 0.  1.
    10030    2    1    2    0    0  0.00000000000E+00  0.00000000000E+00  0.30242487119E+03  0.20587480683E+04  0.20364142030E+04 0.  0.
        1    1    3    3  502    0  0.75341410073E+03 -0.59630638187E+03 -0.18942741500E+03  0.97933490381E+03  0.50400001928E-02 0. -1.
       -1    1    3    3    0  502 -0.75341410073E+03  0.59630638187E+03  0.49185228619E+03  0.10794131645E+04  0.50400001928E-02 0.  1.
</event>
<event>
 5   0  0.2467483E-04  0.1551977E+04  0.7818609E-02  0.8850606E-01
        2   -1    0    0  501    0  0.00000000000E+00  0.00000000000E+00  0.11833285318E+04  0.11833285318E+04  0.25500000920E-02 0.  1.
       -2   -1    0    0    0  501  0.00000000000E+00  0.00000000000E+00 -0.50886795018E+03  0.50886795019E+03  0.25500000920E-02 0. -1.
    10030    2    1    2    0    0  0.00000000000E+00  0.00000000000E+00  0.67446058161E+03  0.16921964820E+04  0.15519767580E+04 0.  0.
        4    1    3    3  502    0  0.31265023348E+02 -0.13273204976E+03 -0.49570013063E+03  0.51411626227E+03  0.12699999809E+01 0. -1.
       -4    1    3    3    0  502 -0.31265023348E+02  0.13273204976E+03  0.11701607122E+04  0.11780802197E+04  0.12699999809E+01 0.  1.
</event>
<event>
 5   0  0.1130848E-04  0.1868718E+04  0.7818609E-02  0.8670586E-01
       -1   -1    0    0    0  501  0.00000000000E+00  0.00000000000E+00  0.88131656883E+03  0.88131656884E+03  0.50400001928E-02 0. -1.
        1   -1    0    0  501    0  0.00000000000E+00  0.00000000000E+00 -0.99059400227E+03  0.99059400229E+03  0.50400001928E-02 0.  1.
    10030    2    1    2    0    0  0.00000000000E+00  0.00000000000E+00 -0.10927743344E+03  0.18719105711E+04  0.18687181780E+04 0.  0.
        5    1    3    3  502    0 -0.50381948612E+03 -0.21399498300E+03 -0.81314883574E+03  0.98023519954E+03  0.46999998093E+01 0.  1.
       -5    1    3    3    0  502  0.50381948612E+03  0.21399498300E+03  0.70387140230E+03  0.89167537160E+03  0.46999998093E+01 0. -1.
</event>
<event>
 5   0  0.2430898E-04  0.1993156E+04  0.7818609E-02  0.8609827E-01
       -2   -1    0    0    0  501  0.00000000000E+00  0.00000000000E+00  0.51705450848E+03  0.51705450849E+03  0.25500000920E-02 0. -1.
        2   -1    0    0  501    0  0.00000000000E+00  0.00000000000E+00 -0.19208177770E+04  0.19208177770E+04  0.25500000920E-02 0.  1.
    10030    2    1    2    0    0  0.00000000000E+00  0.00000000000E+00 -0.14037632685E+04  0.24378722855E+04  0.19931557807E+04 0.  0.
        1    1    3    3  502    0  0.13202197956E+02 -0.22603694867E+03 -0.18889403972E+04  0.19024623057E+04  0.50400001928E-02 0.  1.
       -1    1    3    3    0  502 -0.13202197956E+02  0.22603694867E+03  0.48517712873E+03  0.53540997980E+03  0.50400001928E-02 0. -1.
</event>
<event>
 5   0  0.1042395E-04  0.2033384E+04  0.7818609E-02  0.8591170E-01
        1   -1    0    0  501    0  0.00000000000E+00  0.00000000000E+00  0.11747660497E+04  0.11747660497E+04  0.50400001928E-02 0. -1.
       -1   -1    0    0    0  501  0.00000000000E+00  0.00000000000E+00 -0.87988793464E+03  0.87988793465E+03  0.50400001928E-02 0.  1.
    10030    2    1    2    0    0  0.00000000000E+00  0.00000000000E+00  0.29487811509E+03  0.20546539844E+04  0.20333838528E+04 0.  0.
        3    1    3    3  502    0 -0.45381830408E+03  0.90978634420E+03  0.14696751090E+03  0.10272593172E+04  0.10100000352E+00 0.  1.
       -3    1    3    3    0  502  0.45381830408E+03 -0.90978634420E+03  0.14791060419E+03  0.10273946672E+04  0.10100000352E+00 0. -1.
</event>
<event>
 5   0  0.1130848E-04  0.1738954E+04  0.7818609E-02  0.8739454E-01
        1   -1    0    0  501    0  0.00000000000E+00  0.00000000000E+00  0.18862729583E+04  0.18862729583E+04  0.50400001928E-02 0. -1.
       -1   -1    0    0    0  501  0.00000000000E+00  0.00000000000E+00 -0.40078503577E+03  0.40078503581E+03  0.50400001928E-02 0.  1.
    10030    2    1    2    0    0  0.00000000000E+00  0.00000000000E+00  0.14854879226E+04  0.22870579941E+04  0.17389536798E+04 0.  0.
        5    1    3    3  502    0 -0.47570128407E+03 -0.41676999980E+03  0.15274397406E+04  0.16532039183E+04  0.46999998093E+01 0. -1.
       -5    1    3    3    0  502  0.47570128407E+03  0.41676999980E+03 -0.41951818045E+02  0.63385407582E+03  0.46999998093E+01 0.  1.
</event>
<event>
 5   0  0.1130848E-04  0.2085450E+04  0.7818609E-02  0.8567680E-01
        1   -1    0    0  501    0  0.00000000000E+00  0.00000000000E+00  0.11318687957E+04  0.11318687957E+04  0.50400001928E-02 0. -1.
       -1   -1    0    0    0  501  0.00000000000E+00  0.00000000000E+00 -0.96060190642E+03  0.96060190643E+03  0.50400001928E-02 0.  1.
    10030    2    1    2    0    0  0.00000000000E+00  0.00000000000E+00  0.17126688930E+03  0.20924707022E+04  0.20854499016E+04 0.  0.
        5    1    3    3  502    0  0.78228915391E+03  0.23790588344E+03  0.73486488188E+03  0.10993743740E+04  0.46999998093E+01 0. -1.
       -5    1    3    3    0  502 -0.78228915391E+03 -0.23790588344E+03 -0.56359799258E+03  0.99309632812E+03  0.46999998093E+01 0.  1.
</event>
<event>
 5   0  0.8698750E-05  0.2220346E+04  0.7818609E-02  0.8510007E-01
       -4   -1    0    0    0  501  0.00000000000E+00  0.00000000000E+00  0.99896370369E+03  0.99896451097E+03  0.12699999809E+01 0. -1.
        4   -1    0    0  501    0  0.00000000000E+00  0.00000000000E+00 -0.12337605445E+04  0.12337611981E+04  0.12699999809E+01 0.  1.
    10030    2    1    2    0    0  0.00000000000E+00  0.00000000000E+00 -0.23479684078E+03  0.22327257091E+04  0.22203455892E+04 0.  0.
        5    1    3    3  502    0  0.14992701459E+02 -0.48025535406E+02  0.99780745613E+03  0.99908610373E+03  0.46999998093E+01 0. -1.
       -5    1    3    3    0  502 -0.14992701459E+02  0.48025535406E+02 -0.12326042969E+04  0.12336396054E+04  0.46999998093E+01 0.  1.
</event>
<event>
 5   0  0.2579241E-04  0.2087356E+04  0.7818609E-02  0.8566833E-01
        2   -1    0    0  501    0  0.00000000000E+00  0.00000000000E+00  0.82460611335E+03  0.82460611335E+03  0.25500000920E-02 0. -1.
       -2   -1    0    0    0  501  0.00000000000E+00  0.00000000000E+00 -0.13209510067E+04  0.13209510067E+04  0.25500000920E-02 0.  1.
    10030    2    1    2    0    0  0.00000000000E+00  0.00000000000E+00 -0.49634489340E+03  0.21455571201E+04  0.20873564867E+04 0.  0.
        5    1    3    3  502    0 -0.70118801854E+02 -0.12651803531E+02 -0.13184372438E+04  0.13203694826E+04  0.46999998093E+01 0.  1.
       -5    1    3    3    0  502  0.70118801854E+02  0.12651803531E+02  0.82209235044E+03  0.82518763755E+03  0.46999998093E+01 0. -1.
</event>
<event>
 5   0  0.2467483E-04  0.2076635E+04  0.7818609E-02  0.8571606E-01
        2   -1    0    0  501    0  0.00000000000E+00  0.00000000000E+00  0.18621889824E+04  0.18621889824E+04  0.25500000920E-02 0. -1.
       -2   -1    0    0    0  501  0.00000000000E+00  0.00000000000E+00 -0.57894383934E+03  0.57894383934E+03  0.25500000920E-02 0.  1.
    10030    2    1    2    0    0  0.00000000000E+00  0.00000000000E+00  0.12832451431E+04  0.24411328217E+04  0.20766346227E+04 0.  0.
        4    1    3    3  502    0 -0.49066077486E+03 -0.78787526978E+03  0.11887221115E+04  0.15081635548E+04  0.12699999809E+01 0. -1.
       -4    1    3    3    0  502  0.49066077486E+03  0.78787526978E+03  0.94523031586E+02  0.93296926698E+03  0.12699999809E+01 0.  1.
</event>
<event>
 5   0  0.1122711E-04  0.2092674E+04  0.7818609E-02  0.8564477E-01
       -1   -1    0    0    0  501  0.00000000000E+00  0.00000000000E+00  0.77310541461E+03  0.77310541462E+03  0.50400001928E-02 0. -1.
        1   -1    0    0  501    0  0.00000000000E+00  0.00000000000E+00 -0.14161347599E+04  0.14161347599E+04  0.50400001928E-02 0.  1.
    10030    2    1    2    0    0  0.00000000000E+00  0.00000000000E+00 -0.64302934532E+03  0.21892401746E+04  0.20926743184E+04 0.  0.
        1    1    3    3  502    0  0.72599861924E+03 -0.72160873090E+03 -0.54838170067E+03  0.11612560636E+04  0.50400001928E-02 0.  1.
       -1    1    3    3    0  502 -0.72599861924E+03  0.72160873090E+03 -0.94647644648E+02  0.10279841109E+04  0.50400001928E-02 0. -1.
</event>
<event>
 5   0  0.2579241E-04  0.2072176E+04  0.7818609E-02  0.8573600E-01
       -2   -1    0    0    0  501  0.00000000000E+00  0.00000000000E+00  0.64049761879E+03  0.64049761879E+03  0.25500000920E-02 0.  1.
        2   -1    0    0  501    0  0.00000000000E+00  0.00000000000E+00 -0.16760071932E+04  0.16760071932E+04  0.25500000920E-02 0. -1.
    10030    2    1    2    0    0  0.00000000000E+00  0.00000000000E+00 -0.10355095745E+04  0.23165048120E+04  0.20721762631E+04 0.  0.
        5    1    3    3  502    0 -0.36387518722E+03  0.35043621778E+03  0.49347164491E+03  0.70622025526E+03  0.46999998093E+01 0.  1.
       -5    1    3    3    0  502  0.36387518722E+03 -0.35043621778E+03 -0.15289812194E+04  0.16102845568E+04  0.46999998093E+01 0. -1.
</event>
<event>
 5   0  0.1130848E-04  0.1852708E+04  0.7818609E-02  0.8678761E-01
        1   -1    0    0  501    0  0.00000000000E+00  0.00000000000E+00  0.61054140807E+03  0.61054140809E+03  0.50400001928E-02 0.  1.
       -1   -1    0    0    0  501  0.00000000000E+00  0.00000000000E+00 -0.14055260526E+04  0.14055260526E+04  0.50400001928E-02 0. -1.
    10030    2    1    2    0    0  0.00000000000E+00  0.00000000000E+00 -0.79498464456E+03  0.20160674607E+04  0.18527081317E+04 0.  0.
        5    1    3    3  502    0  0.20905006629E+03  0.72127241779E+03 -0.98769360221E+03  0.12407645114E+04  0.46999998093E+01 0. -1.
       -5    1    3    3    0  502 -0.20905006629E+03 -0.72127241779E+03  0.19270895765E+03  0.77530294933E+03  0.46999998093E+01 0.  1.
</event>
<event>
 5   0  0.2512839E-04  0.2006653E+04  0.7818609E-02  0.8603516E-01
       -2   -1    0    0    0  501  0.00000000000E+00  0.00000000000E+00  0.55642955407E+03  0.55642955407E+03  0.25500000920E-02 0. -1.
        2   -1    0    0  501    0  0.00000000000E+00  0.00000000000E+00 -0.18091494484E+04  0.18091494484E+04  0.25500000920E-02 0.  1.
    10030    2    1    2    0    0  0.00000000000E+00  0.00000000000E+00 -0.12527198943E+04  0.23655790025E+04  0.20066531547E+04 0.  0.
        3    1    3    3  502    0  0.66469435943E+03 -0.62251695957E+03 -0.11227714859E+04  0.14456700095E+04  0.10100000352E+00 0.  1.
       -3    1    3    3    0  502 -0.66469435943E+03  0.62251695957E+03 -0.12994840842E+03  0.91990899303E+03  0.10100000352E+00 0. -1.
</event>
<event>
 5   0  0.2579241E-04  0.2116874E+04  0.7818609E-02  0.8553846E-01
       -2   -1    0    0    0  501  0.00000000000E+00  0.00000000000E+00  0.62813883906E+03  0.62813883906E+03  0.25500000920E-02 0. -1.
        2   -1    0    0  501    0  0.00000000000E+00  0.00000000000E+00 -0.17835053024E+04  0.17835053024E+04  0.25500000920E-02 0.  1.
    10030    2    1    2    0    0  0.00000000000E+00  0.00000000000E+00 -0.11553664633E+04  0.24116441414E+04  0.21168740634E+04 0.  0.
        5    1    3    3  502    0  0.45191815458E+03  0.94393421283E+03 -0.75790432625E+03  0.12921620929E+04  0.46999998093E+01 0.  1.
       -5    1    3    3    0  502 -0.45191815458E+03 -0.94393421283E+03 -0.39746213708E+03  0.11194820485E+04  0.46999998093E+01 0. -1.
</event>
<event>
 5   0  0.1186038E-04  0.2086634E+04  0.7818609E-02  0.8567154E-01
        1   -1    0    0  501    0  0.00000000000E+00  0.00000000000E+00  0.89365977702E+03  0.89365977703E+03  0.50400001928E-02 0. -1.
       -1   -1    0    0    0  501  0.00000000000E+00  0.00000000000E+00 -0.12180369693E+04  0.12180369693E+04  0.50400001928E-02 0.  1.
    10030    2    1    2    0    0  0.00000000000E+00  0.00000000000E+00 -0.32437719223E+03  0.21116967463E+04  0.20866342721E+04 0.  0.
        4    1    3    3  502    0  0.43621702990E+03 -0.78480137977E+03  0.37552219678E+03  0.97325075702E+03  0.12699999809E+01 0. -1.
       -4    1    3    3    0  502 -0.43621702990E+03  0.78480137977E+03 -0.69989938901E+03  0.11384459893E+04  0.12699999809E+01 0.  1.
</event>
<event>
 5   0  0.2512839E-04  0.2079464E+04  0.7818609E-02  0.8570344E-01
       -2   -1    0    0    0  501  0.00000000000E+00  0.00000000000E+00  0.99873810389E+03  0.99873810389E+03  0.25500000920E-02 0.  1.
        2   -1    0    0  501    0  0.00000000000E+00  0.00000000000E+00 -0.10824082511E+04  0.10824082511E+04  0.25500000920E-02 0. -1.
    10030    2    1    2    0    0  0.00000000000E+00  0.00000000000E+00 -0.83670147176E+02  0.20811463550E+04  0.20794637427E+04 0.  0.
        3    1    3    3  502    0  0.26297300448E+03  0.45271959508E+02 -0.10475551631E+04  0.10810070219E+04  0.10100000352E+00 0. -1.
       -3    1    3    3    0  502 -0.26297300448E+03 -0.45271959508E+02  0.96388501594E+03  0.10001393331E+04  0.10100000352E+00 0.  1.
</event>
<event>
 5   0  0.2448804E-04  0.2132248E+04  0.7818609E-02  0.8547169E-01
        2   -1    0    0  501    0  0.00000000000E+00  0.00000000000E+00  0.42158720562E+03  0.42158720563E+03  0.25500000920E-02 0.  1.
       -2   -1    0    0    0  501  0.00000000000E+00  0.00000000000E+00 -0.26960512008E+04  0.26960512008E+04  0.25500000920E-02 0. -1.
    10030    2    1    2    0    0  0.00000000000E+00  0.00000000000E+00 -0.22744639952E+04  0.31176384064E+04  0.21322482894E+04 0.  0.
        2    1    3    3  502    0  0.45635003562E+03 -0.86677760977E+03 -0.17524804688E+04  0.20076719287E+04  0.25500000920E-02 0. -1.
       -2    1    3    3    0  502 -0.45635003562E+03  0.86677760977E+03 -0.52198352636E+03  0.11099664777E+04  0.25500000920E-02 0.  1.
</event>
<event>
 5   0  0.2467483E-04  0.2013216E+04  0.7818609E-02  0.8600467E-01
       -2   -1    0    0    0  501  0.00000000000E+00  0.00000000000E+00  0.11462057310E+04  0.11462057310E+04  0.25500000920E-02 0.  1.
        2   -1    0    0  501    0  0.00000000000E+00  0.00000000000E+00 -0.88401164120E+03  0.88401164120E+03  0.25500000920E-02 0. -1.
    10030    2    1    2    0    0  0.00000000000E+00  0.00000000000E+00  0.26219408975E+03  0.20302173722E+04  0.20132155467E+04 0.  0.
        4    1    3    3  502    0  0.12138212198E+03  0.22063252673E+03 -0.85173361307E+03  0.88818021365E+03  0.12699999809E+01 0. -1.
       -4    1    3    3    0  502 -0.12138212198E+03 -0.22063252673E+03  0.11139277028E+04  0.11420371585E+04  0.12699999809E+01 0.  1.
</event>
<event>
 5   0  0.2579241E-04  0.2083067E+04  0.7818609E-02  0.8568739E-01
        2   -1    0    0  501    0  0.00000000000E+00  0.00000000000E+00  0.74281798467E+03  0.74281798468E+03  0.25500000920E-02 0. -1.
       -2   -1    0    0    0  501  0.00000000000E+00  0.00000000000E+00 -0.14603743990E+04  0.14603743990E+04  0.25500000920E-02 0.  1.
    10030    2    1    2    0    0  0.00000000000E+00  0.00000000000E+00 -0.71755641429E+03  0.22031923836E+04  0.20830673229E+04 0.  0.
        5    1    3    3  502    0  0.91576184458E+03 -0.44532867155E+03 -0.59009781864E+03  0.11769345382E+04  0.46999998093E+01 0.  1.
       -5    1    3    3    0  502 -0.91576184458E+03  0.44532867155E+03 -0.12745859564E+03  0.10262578454E+04  0.46999998093E+01 0. -1.
</event>
<event>
 5   0  0.2430898E-04  0.2100672E+04  0.7818609E-02  0.8560947E-01
        2   -1    0    0  501    0  0.00000000000E+00  0.00000000000E+00  0.20688955630E+04  0.20688955630E+04  0.25500000920E-02 0. -1.
       -2   -1    0    0    0  501  0.00000000000E+00  0.00000000000E+00 -0.53323420585E+03  0.53323420585E+03  0.25500000920E-02 0.  1.
    10030    2    1    2    0    0  0.00000000000E+00  0.00000000000E+00  0.15356613572E+04  0.26021297689E+04  0.21006721615E+04 0.  0.
        1    1    3    3  502    0  0.92546600325E+03 -0.48486293670E+03  0.63426495579E+03  0.12222403302E+04  0.50400001928E-02 0.  1.
       -1    1    3    3    0  502 -0.92546600325E+03  0.48486293670E+03  0.90139640137E+03  0.13798894387E+04  0.50400001928E-02 0. -1.
</event>
<event>
 5   0  0.2430898E-04  0.2108023E+04  0.7818609E-02  0.8557718E-01
       -2   -1    0    0    0  501  0.00000000000E+00  0.00000000000E+00  0.73923695767E+03  0.73923695768E+03  0.25500000920E-02 0. -1.
        2   -1    0    0  501    0  0.00000000000E+00  0.00000000000E+00 -0.15028196757E+04  0.15028196757E+04  0.25500000920E-02 0.  1.
    10030    2    1    2    0    0  0.00000000000E+00  0.00000000000E+00 -0.76358271802E+03  0.22420566334E+04  0.21080226232E+04 0.  0.
        1    1    3    3  502    0 -0.55708778571E+03 -0.36893574315E+03 -0.12487773737E+04  0.14162998668E+04  0.50400001928E-02 0.  1.
       -1    1    3    3    0  502  0.55708778571E+03  0.36893574315E+03  0.48519465571E+03  0.82575676656E+03  0.50400001928E-02 0. -1.
</event>
<event>
 5   0  0.1122711E-04  0.2125330E+04  0.7818609E-02  0.8550166E-01
        1   -1    0    0  501    0  0.00000000000E+00  0.00000000000E+00  0.14383757685E+04  0.14383757685E+04  0.50400001928E-02 0. -1.
       -1   -1    0    0    0  501  0.00000000000E+00  0.00000000000E+00 -0.78509207335E+03  0.78509207337E+03  0.50400001928E-02 0.  1.
    10030    2    1    2    0    0  0.00000000000E+00  0.00000000000E+00  0.65328369516E+03  0.22234678419E+04  0.21253304820E+04 0.  0.
        1    1    3    3  502    0  0.96893876481E+03 -0.41711630197E+03  0.19254735599E+03  0.10723352198E+04  0.50400001928E-02 0. -1.
       -1    1    3    3    0  502 -0.96893876481E+03  0.41711630197E+03  0.46073633917E+03  0.11511326221E+04  0.50400001928E-02 0.  1.
</event>
<event>
 5   0  0.1156733E-04  0.2155513E+04  0.7818609E-02  0.8537176E-01
       -1   -1    0    0    0  501  0.00000000000E+00  0.00000000000E+00  0.90315565464E+03  0.90315565465E+03  0.50400001928E-02 0. -1.
        1   -1    0    0  501    0  0.00000000000E+00  0.00000000000E+00 -0.12861118507E+04  0.12861118508E+04  0.50400001928E-02 0.  1.
    10030    2    1    2    0    0  0.00000000000E+00  0.00000000000E+00 -0.38295619610E+03  0.21892675054E+04  0.21555131088E+04 0.  0.
        2    1    3    3  502    0 -0.86831195654E+03  0.60833308759E+03  0.52674845002E+01  0.10602181595E+04  0.25500000920E-02 0. -1.
       -2    1    3    3    0  502  0.86831195654E+03 -0.60833308759E+03 -0.38822368060E+03  0.11290493459E+04  0.25500000920E-02 0.  1.
</event>
<event>
 5   0  0.2430898E-04  0.2072671E+04  0.7818609E-02  0.8573379E-01
       -2   -1    0    0    0  501  0.00000000000E+00  0.00000000000E+00  0.73889828284E+03  0.73889828284E+03  0.25500000920E-02 0. -1.
        2   -1    0    0  501    0  0.00000000000E+00  0.00000000000E+00 -0.14535033064E+04  0.14535033064E+04  0.25500000920E-02 0.  1.
    10030    2    1    2    0    0  0.00000000000E+00  0.00000000000E+00 -0.71460502356E+03  0.21924015892E+04  0.20726708347E+04 0.  0.
        1    1    3    3  502    0 -0.10546081327E+03  0.69752885614E+03  0.44571053316E+03  0.83446172332E+03  0.50400001928E-02 0. -1.
       -1    1    3    3    0  502  0.10546081327E+03 -0.69752885614E+03 -0.11603155567E+04  0.13579398659E+04  0.50400001928E-02 0.  1.
</event>
<event>
 5   0  0.1130848E-04  0.2127486E+04  0.7818609E-02  0.8549231E-01
       -1   -1    0    0    0  501  0.00000000000E+00  0.00000000000E+00  0.96929981945E+03  0.96929981946E+03  0.50400001928E-02 0. -1.
        1   -1    0    0  501    0  0.00000000000E+00  0.00000000000E+00 -0.11673887137E+04  0.11673887137E+04  0.50400001928E-02 0.  1.
    10030    2    1    2    0    0  0.00000000000E+00  0.00000000000E+00 -0.19808889428E+03  0.21366885332E+04  0.21274864695E+04 0.  0.
        5    1    3    3  502    0  0.57516692416E+03 -0.13795106887E+03 -0.98699531930E+03  0.11506647376E+04  0.46999998093E+01 0.  1.
       -5    1    3    3    0  502 -0.57516692416E+03  0.13795106887E+03  0.78890642502E+03  0.98602379560E+03  0.46999998093E+01 0. -1.
</event>
<event>
 5   0  0.2579241E-04  0.2068549E+04  0.7818609E-02  0.8575226E-01
        2   -1    0    0  501    0  0.00000000000E+00  0.00000000000E+00  0.10687961674E+04  0.10687961674E+04  0.25500000920E-02 0. -1.
       -2   -1    0    0    0  501  0.00000000000E+00  0.00000000000E+00 -0.10008681323E+04  0.10008681323E+04  0.25500000920E-02 0.  1.
    10030    2    1    2    0    0  0.00000000000E+00  0.00000000000E+00  0.67928035086E+02  0.20696642998E+04  0.20685492732E+04 0.  0.
        5    1    3    3  502    0 -0.34961177329E+03 -0.32029553299E+03 -0.88570734134E+03  0.10046478015E+04  0.46999998093E+01 0.  1.
       -5    1    3    3    0  502  0.34961177329E+03  0.32029553299E+03  0.95363537642E+03  0.10650164983E+04  0.46999998093E+01 0. -1.
</event>
<event>
 5   0  0.1042395E-04  0.2073022E+04  0.7818609E-02  0.8573222E-01
        1   -1    0    0  501    0  0.00000000000E+00  0.00000000000E+00  0.14040561870E+04  0.14040561870E+04  0.50400001928E-02 0. -1.
       -1   -1    0    0    0  501  0.00000000000E+00  0.00000000000E+00 -0.76517925173E+03  0.76517925175E+03  0.50400001928E-02 0.  1.
    10030    2    1    2    0    0  0.00000000000E+00  0.00000000000E+00  0.63887693526E+03  0.21692354387E+04  0.20730216232E+04 0.  0.
        3    1    3    3  502    0 -0.28330940487E+03 -0.61374207782E+02  0.13607757846E+04  0.13913093683E+04  0.10100000352E+00 0. -1.
       -3    1    3    3    0  502  0.28330940487E+03  0.61374207782E+02 -0.72189884930E+03  0.77792607045E+03  0.10100000352E+00 0.  1.
</event>
<event>
 5   0  0.2448804E-04  0.2079249E+04  0.7818609E-02  0.8570440E-01
        2   -1    0    0  501    0  0.00000000000E+00  0.00000000000E+00  0.20214471658E+04  0.20214471658E+04  0.25500000920E-02 0. -1.
       -2   -1    0    0    0  501  0.00000000000E+00  0.00000000000E+00 -0.53467582759E+03  0.53467582759E+03  0.25500000920E-02 0.  1.
    10030    2    1    2    0    0  0.00000000000E+00  0.00000000000E+00  0.14867713382E+04  0.25561229934E+04  0.20792488416E+04 0.  0.
        2    1    3    3  502    0 -0.49058519118E+03  0.10457265836E+03  0.18628427731E+04  0.19291947720E+04  0.25500000920E-02 0. -1.
       -2    1    3    3    0  502  0.49058519118E+03 -0.10457265836E+03 -0.37607143492E+03  0.62692822145E+03  0.25500000920E-02 0.  1.
</event>
<event>
 5   0  0.1186038E-04  0.1677928E+04  0.7818609E-02  0.8774054E-01
        1   -1    0    0  501    0  0.00000000000E+00  0.00000000000E+00  0.92502580092E+03  0.92502580094E+03  0.50400001928E-02 0. -1.
       -1   -1    0    0    0  501  0.00000000000E+00  0.00000000000E+00 -0.76090886925E+03  0.76090886927E+03  0.50400001928E-02 0.  1.
    10030    2    1    2    0    0  0.00000000000E+00  0.00000000000E+00  0.16411693167E+03  0.16859346702E+04  0.16779276936E+04 0.  0.
        4    1    3    3  502    0 -0.21267321194E+03 -0.27705033036E+03  0.84850384103E+03  0.91757678794E+03  0.12699999809E+01 0. -1.
       -4    1    3    3    0  502  0.21267321194E+03  0.27705033036E+03 -0.68438690936E+03  0.76835788226E+03  0.12699999809E+01 0.  1.
</event>
<event>
 5   0  0.1130848E-04  0.2100702E+04  0.7818609E-02  0.8560934E-01
       -1   -1    0    0    0  501  0.00000000000E+00  0.00000000000E+00  0.63696269885E+03  0.63696269887E+03  0.50400001928E-02 0. -1.
        1   -1    0    0  501    0  0.00000000000E+00  0.00000000000E+00 -0.17320276757E+04  0.17320276757E+04  0.50400001928E-02 0.  1.
    10030    2    1    2    0    0  0.00000000000E+00  0.00000000000E+00 -0.10950649769E+04  0.23689903746E+04  0.21007018092E+04 0.  0.
        5    1    3    3  502    0 -0.32176282151E+03  0.92637462690E+03 -0.12330570515E+03  0.98839650424E+03  0.46999998093E+01 0. -1.
       -5    1    3    3    0  502  0.32176282151E+03 -0.92637462690E+03 -0.97175927170E+03  0.13805938703E+04  0.46999998093E+01 0.  1.
</event>
<event>
 5   0  0.1122711E-04  0.1986012E+04  0.7818609E-02  0.8613188E-01
       -1   -1    0    0    0  501  0.00000000000E+00  0.00000000000E+00  0.78599107720E+03  0.78599107722E+03  0.50400001928E-02 0. -1.
        1   -1    0    0  501    0  0.00000000000E+00  0.00000000000E+00 -0.12545452601E+04  0.12545452601E+04  0.50400001928E-02 0.  1.
    10030    2    1    2    0    0  0.00000000000E+00  0.00000000000E+00 -0.46855418290E+03  0.20405363373E+04  0.19860124677E+04 0.  0.
        1    1    3    3  502    0  0.73112164232E+03  0.56458920920E+03  0.14009073547E+03  0.93430468542E+03  0.50400001928E-02 0.  1.
       -1    1    3    3    0  502 -0.73112164232E+03 -0.56458920920E+03 -0.60864491837E+03  0.11062316519E+04  0.50400001928E-02 0. -1.
</event>
<event>
 5   0  0.1156733E-04  0.2094052E+04  0.7818609E-02  0.8563868E-01
        1   -1    0    0  501    0  0.00000000000E+00  0.00000000000E+00  0.22518177749E+04  0.22518177749E+04  0.50400001928E-02 0.  1.
       -1   -1    0    0    0  501  0.00000000000E+00  0.00000000000E+00 -0.48683474142E+03  0.48683474145E+03  0.50400001928E-02 0. -1.
    10030    2    1    2    0    0  0.00000000000E+00  0.00000000000E+00  0.17649830334E+04  0.27386525163E+04  0.20940516939E+04 0.  0.
        2    1    3    3  502    0 -0.33460468413E+03 -0.92856076504E+03  0.13394405524E+04  0.16638168116E+04  0.25500000920E-02 0.  1.
       -2    1    3    3    0  502  0.33460468413E+03  0.92856076504E+03  0.42554248104E+03  0.10748357047E+04  0.25500000920E-02 0. -1.
</event>
<event>
 5   0  0.2512839E-04  0.2099547E+04  0.7818609E-02  0.8561443E-01
        2   -1    0    0  501    0  0.00000000000E+00  0.00000000000E+00  0.15624682244E+04  0.15624682244E+04  0.25500000920E-02 0.  1.
       -2   -1    0    0    0  501  0.00000000000E+00  0.00000000000E+00 -0.70531024780E+03  0.70531024781E+03  0.25500000920E-02 0. -1.
    10030    2    1    2    0    0  0.00000000000E+00  0.00000000000E+00  0.85715797659E+03  0.22677784722E+04  0.20995474279E+04 0.  0.
        3    1    3    3  502    0 -0.24590510180E+02  0.63361098531E+03 -0.47509275336E+03  0.79232613765E+03  0.10100000352E+00 0. -1.
       -3    1    3    3    0  502  0.24590510180E+02 -0.63361098531E+03  0.13322507299E+04  0.14754523346E+04  0.10100000352E+00 0.  1.
</event>
<event>
 5   0  0.2430898E-04  0.2089728E+04  0.7818609E-02  0.8565782E-01
        2   -1    0    0  501    0  0.00000000000E+00  0.00000000000E+00  0.15871318898E+04  0.15871318898E+04  0.25500000920E-02 0. -1.
       -2   -1    0    0    0  501  0.00000000000E+00  0.00000000000E+00 -0.68787014520E+03  0.68787014520E+03  0.25500000920E-02 0.  1.
    10030    2    1    2    0    0  0.00000000000E+00  0.00000000000E+00  0.89926174456E+03  0.22750020350E+04  0.20897278708E+04 0.  0.
        1    1    3    3  502    0 -0.26067733392E+02 -0.56752208902E+03 -0.50503087057E+03  0.76014276850E+03  0.50400001928E-02 0.  1.
       -1    1    3    3    0  502  0.26067733392E+02  0.56752208902E+03  0.14042926151E+04  0.15148592665E+04  0.50400001928E-02 0. -1.
</event>
<event>
 5   0  0.1156733E-04  0.2138737E+04  0.7818609E-02  0.8544369E-01
        1   -1    0    0  501    0  0.00000000000E+00  0.00000000000E+00  0.10372565379E+04  0.10372565379E+04  0.50400001928E-02 0.  1.
       -1   -1    0    0    0  501  0.00000000000E+00  0.00000000000E+00 -0.11024740934E+04  0.11024740934E+04  0.50400001928E-02 0. -1.
    10030    2    1    2    0    0  0.00000000000E+00  0.00000000000E+00 -0.65217555541E+02  0.21397306313E+04  0.21387365067E+04 0.  0.
        2    1    3    3  502    0 -0.91251777615E+03 -0.16576702675E+03 -0.56519169633E+03  0.10860980861E+04  0.25500000920E-02 0. -1.
       -2    1    3    3    0  502  0.91251777615E+03  0.16576702675E+03  0.49997414079E+03  0.10536325453E+04  0.25500000920E-02 0.  1.
</event>
<event>
 5   0  0.1186038E-04  0.1856738E+04  0.7818609E-02  0.8676695E-01
       -1   -1    0    0    0  501  0.00000000000E+00  0.00000000000E+00  0.71753234685E+03  0.71753234687E+03  0.50400001928E-02 0.  1.
        1   -1    0    0  501    0  0.00000000000E+00  0.00000000000E+00 -0.12011576217E+04  0.12011576217E+04  0.50400001928E-02 0. -1.
    10030    2    1    2    0    0  0.00000000000E+00  0.00000000000E+00 -0.48362527487E+03  0.19186899686E+04  0.18567384816E+04 0.  0.
        4    1    3    3  502    0  0.26940263851E+03  0.87475771689E+03 -0.40219749306E+03  0.99977161453E+03  0.12699999809E+01 0.  1.
       -4    1    3    3    0  502 -0.26940263851E+03 -0.87475771689E+03 -0.81427781814E+02  0.91891835407E+03  0.12699999809E+01 0. -1.
</event>
<event>
 5   0  0.1042395E-04  0.2130074E+04  0.7818609E-02  0.8548110E-01
        1   -1    0    0  501    0  0.00000000000E+00  0.00000000000E+00  0.20391364744E+04  0.20391364744E+04  0.50400001928E-02 0. -1.
       -1   -1    0    0    0  501  0.00000000000E+00  0.00000000000E+00 -0.55626656274E+03  0.55626656276E+03  0.50400001928E-02 0.  1.
    10030    2    1    2    0    0  0.00000000000E+00  0.00000000000E+00  0.14828699116E+04  0.25954030372E+04  0.21300736491E+04 0.  0.
        3    1    3    3  502    0  0.99905167937E+03 -0.15651483757E+03  0.33420361165E+03  0.10650320261E+04  0.10100000352E+00 0.  1.
       -3    1    3    3    0  502 -0.99905167937E+03  0.15651483757E+03  0.11486663000E+04  0.15303710110E+04  0.10100000352E+00 0. -1.
</event>
<event>
 5   0  0.1186038E-04  0.2130371E+04  0.7818609E-02  0.8547982E-01
       -1   -1    0    0    0  501  0.00000000000E+00  0.00000000000E+00  0.63785082961E+03  0.63785082963E+03  0.50400001928E-02 0. -1.
        1   -1    0    0  501    0  0.00000000000E+00  0.00000000000E+00 -0.17788172137E+04  0.17788172137E+04  0.50400001928E-02 0.  1.
    10030    2    1    2    0    0  0.00000000000E+00  0.00000000000E+00 -0.11409663840E+04  0.24166680433E+04  0.21303708931E+04 0.  0.
        4    1    3    3  502    0 -0.82529785875E+02  0.84928556691E+03  0.15279175671E+03  0.86685873909E+03  0.12699999809E+01 0. -1.
       -4    1    3    3    0  502  0.82529785875E+02 -0.84928556691E+03 -0.12937581408E+04  0.15498093042E+04  0.12699999809E+01 0.  1.
</event>
<event>
 5   0  0.2448804E-04  0.2113259E+04  0.7818609E-02  0.8555425E-01
        2   -1    0    0  501    0  0.00000000000E+00  0.00000000000E+00  0.10109485064E+04  0.10109485064E+04  0.25500000920E-02 0. -1.
       -2   -1    0    0    0  501  0.00000000000E+00  0.00000000000E+00 -0.11043748895E+04  0.11043748895E+04  0.25500000920E-02 0.  1.
    10030    2    1    2    0    0  0.00000000000E+00  0.00000000000E+00 -0.93426383122E+02  0.21153233959E+04  0.21132592316E+04 0.  0.
        2    1    3    3  502    0  0.56698312101E+02 -0.76941262242E+03 -0.76939877465E+03  0.10895801745E+04  0.25500000920E-02 0.  1.
       -2    1    3    3    0  502 -0.56698312101E+02  0.76941262242E+03  0.67597239153E+03  0.10257432214E+04  0.25500000920E-02 0. -1.
</event>
<event>
 5   0  0.2430898E-04  0.2074667E+04  0.7818609E-02  0.8572485E-01
        2   -1    0    0  501    0  0.00000000000E+00  0.00000000000E+00  0.60393003490E+03  0.60393003490E+03  0.25500000920E-02 0. -1.
       -2   -1    0    0    0  501  0.00000000000E+00  0.00000000000E+00 -0.17817646934E+04  0.17817646934E+04  0.25500000920E-02 0.  1.
    10030    2    1    2    0    0  0.00000000000E+00  0.00000000000E+00 -0.11778346585E+04  0.23856947283E+04  0.20746674080E+04 0.  0.
        1    1    3    3  502    0 -0.10296040216E+03 -0.56513237287E+03 -0.15821723405E+04  0.16832245122E+04  0.50400001928E-02 0.  1.
       -1    1    3    3    0  502  0.10296040216E+03  0.56513237287E+03  0.40433768208E+03  0.70247021606E+03  0.50400001928E-02 0. -1.
</event>
<event>
 5   0  0.1122711E-04  0.2146796E+04  0.7818609E-02  0.8540905E-01
        1   -1    0    0  501    0  0.00000000000E+00  0.00000000000E+00  0.13825808430E+04  0.13825808430E+04  0.50400001928E-02 0.  1.
       -1   -1    0    0    0  501  0.00000000000E+00  0.00000000000E+00 -0.83335713121E+03  0.83335713123E+03  0.50400001928E-02 0. -1.
    10030    2    1    2    0    0  0.00000000000E+00  0.00000000000E+00  0.54922371181E+03  0.22159379743E+04  0.21467963155E+04 0.  0.
        1    1    3    3  502    0  0.10344820654E+04 -0.21557533146E+02 -0.20183497169E+02  0.10349034953E+04  0.50400001928E-02 0. -1.
       -1    1    3    3    0  502 -0.10344820654E+04  0.21557533146E+02  0.56940720898E+03  0.11810344790E+04  0.50400001928E-02 0.  1.
</event>
<event>
 5   0  0.2448804E-04  0.2135937E+04  0.7818609E-02  0.8545576E-01
        2   -1    0    0  501    0  0.00000000000E+00  0.00000000000E+00  0.13136508202E+04  0.13136508202E+04  0.25500000920E-02 0.  1.
       -2   -1    0    0    0  501  0.00000000000E+00  0.00000000000E+00 -0.86823447976E+03  0.86823447977E+03  0.25500000920E-02 0. -1.
    10030    2    1    2    0    0  0.00000000000E+00  0.00000000000E+00  0.44541634045E+03  0.21818853000E+04  0.21359372055E+04 0.  0.
        2    1    3    3  502    0  0.12163629178E+03  0.95301084098E+03  0.69914453048E+03  0.11882037388E+04  0.25500000920E-02 0.  1.
       -2    1    3    3    0  502 -0.12163629178E+03 -0.95301084098E+03 -0.25372819003E+03  0.99368156113E+03  0.25500000920E-02 0. -1.
</event>
<event>
 5   0  0.1042395E-04  0.2118399E+04  0.7818609E-02  0.8553182E-01
        1   -1    0    0  501    0  0.00000000000E+00  0.00000000000E+00  0.73367457792E+03  0.73367457793E+03  0.50400001928E-02 0. -1.
       -1   -1    0    0    0  501  0.00000000000E+00  0.00000000000E+00 -0.15291562431E+04  0.15291562432E+04  0.50400001928E-02 0.  1.
    10030    2    1    2    0    0  0.00000000000E+00  0.00000000000E+00 -0.79548166523E+03  0.22628308211E+04  0.21183985095E+04 0.  0.
        3    1    3    3  502    0 -0.25557572728E+03  0.40020922120E+03 -0.14090859621E+04  0.14869464119E+04  0.10100000352E+00 0.  1.
       -3    1    3    3    0  502  0.25557572728E+03 -0.40020922120E+03  0.61360429685E+03  0.77588440919E+03  0.10100000352E+00 0. -1.
</event>
<event>
 5   0  0.2430898E-04  0.2143582E+04  0.7818609E-02  0.8542284E-01
       -2   -1    0    0    0  501  0.00000000000E+00  0.00000000000E+00  0.10122259955E+04  0.10122259955E+04  0.25500000920E-02 0. -1.
        2   -1    0    0  501    0  0.00000000000E+00  0.00000000000E+00 -0.11348616481E+04  0.11348616481E+04  0.25500000920E-02 0.  1.
    10030    2    1    2    0    0  0.00000000000E+00  0.00000000000E+00 -0.12263565258E+03  0.21470876435E+04  0.21435824793E+04 0.  0.
        1    1    3    3  502    0  0.39654058787E+03  0.39170557582E+03  0.85563461336E+03  0.10211700581E+04  0.50400001928E-02 0. -1.
       -1    1    3    3    0  502 -0.39654058787E+03 -0.39170557582E+03 -0.97827026593E+03  0.11259175854E+04  0.50400001928E-02 0.  1.
</event>
<event>
 5   0  0.1042395E-04  0.2121879E+04  0.7818609E-02  0.8551666E-01
        1   -1    0    0  501    0  0.00000000000E+00  0.00000000000E+00  0.15547079018E+04  0.15547079018E+04  0.50400001928E-02 0.  1.
       -1   -1    0    0    0  501  0.00000000000E+00  0.00000000000E+00 -0.72398957185E+03  0.72398957187E+03  0.50400001928E-02 0. -1.
    10030    2    1    2    0    0  0.00000000000E+00  0.00000000000E+00  0.83071832993E+03  0.22786974736E+04  0.21218787036E+04 0.  0.
        3    1    3    3  502    0  0.51426357963E+03  0.18987214757E+03 -0.56010770651E+03  0.78373408427E+03  0.10100000352E+00 0. -1.
       -3    1    3    3    0  502 -0.51426357963E+03 -0.18987214757E+03  0.13908260364E+04  0.14949633894E+04  0.10100000352E+00 0.  1.
</event>
<event>
 5   0  0.2579241E-04  0.2038933E+04  0.7818609E-02  0.8588631E-01
       -2   -1    0    0    0  501  0.00000000000E+00  0.00000000000E+00  0.12413339514E+04  0.12413339514E+04  0.25500000920E-02 0.  1.
        2   -1    0    0  501    0  0.00000000000E+00  0.00000000000E+00 -0.83725446045E+03  0.83725446045E+03  0.25500000920E-02 0. -1.
    10030    2    1    2    0    0  0.00000000000E+00  0.00000000000E+00  0.40407949100E+03  0.20785884119E+04  0.20389334347E+04 0.  0.
        5    1    3    3  502    0 -0.23596800531E+03 -0.76065662526E+03  0.85082176943E+03  0.11654180256E+04  0.46999998093E+01 0.  1.
       -5    1    3    3    0  502  0.23596800531E+03  0.76065662526E+03 -0.44674227843E+03  0.91317038630E+03  0.46999998093E+01 0. -1.
</event>
<event>
 5   0  0.2430898E-04  0.2014094E+04  0.7818609E-02  0.8600059E-01
       -2   -1    0    0    0  501  0.00000000000E+00  0.00000000000E+00  0.81040370652E+03  0.81040370652E+03  0.25500000920E-02 0.  1.
        2   -1    0    0  501    0  0.00000000000E+00  0.00000000000E+00 -0.12514060600E+04  0.12514060600E+04  0.25500000920E-02 0. -1.
    10030    2    1    2    0    0  0.00000000000E+00  0.00000000000E+00 -0.44100235348E+03  0.20618097665E+04  0.20140944460E+04 0.  0.
        1    1    3    3  502    0 -0.92559970242E+03 -0.38942165377E+03 -0.14280800342E+03  0.10142870202E+04  0.50400001928E-02 0.  1.
       -1    1    3    3    0  502  0.92559970242E+03  0.38942165377E+03 -0.29819435005E+03  0.10475227463E+04  0.50400001928E-02 0. -1.
</event>
<event>
 5   0  0.1156733E-04  0.2097735E+04  0.7818609E-02  0.8562242E-01
       -1   -1    0    0    0  501  0.00000000000E+00  0.00000000000E+00  0.82146465056E+03  0.82146465057E+03  0.50400001928E-02 0.  1.
        1   -1    0    0  501    0  0.00000000000E+00  0.00000000000E+00 -0.13392219511E+04  0.13392219511E+04  0.50400001928E-02 0. -1.
    10030    2    1    2    0    0  0.00000000000E+00  0.00000000000E+00 -0.51775730057E+03  0.21606866017E+04  0.20977354382E+04 0.  0.
        2    1    3    3  502    0 -0.60748383916E+03 -0.59633378687E+03 -0.89002541115E+03  0.12315826536E+04  0.25500000920E-02 0. -1.
       -2    1    3    3    0  502  0.60748383916E+03  0.59633378687E+03  0.37226811058E+03  0.92910394809E+03  0.25500000920E-02 0.  1.
</event>
<event>
 5   0  0.2448804E-04  0.2086742E+04  0.7818609E-02  0.8567106E-01
        2   -1    0    0  501    0  0.00000000000E+00  0.00000000000E+00  0.11469327657E+04  0.11469327657E+04  0.25500000920E-02 0. -1.
       -2   -1    0    0    0  501  0.00000000000E+00  0.00000000000E+00 -0.94916053073E+03  0.94916053073E+03  0.25500000920E-02 0.  1.
    10030    2    1    2    0    0  0.00000000000E+00  0.00000000000E+00  0.19777223497E+03  0.20960932964E+04  0.20867422578E+04 0.  0.
        2    1    3    3  502    0 -0.98739748540E+03 -0.27082063787E+03  0.30059859264E+03  0.10670787815E+04  0.25500000920E-02 0. -1.
       -2    1    3    3    0  502  0.98739748540E+03  0.27082063787E+03 -0.10282635767E+03  0.10290145149E+04  0.25500000920E-02 0.  1.
</event>
<event>
 5   0  0.2430898E-04  0.2113246E+04  0.7818609E-02  0.8555431E-01
       -2   -1    0    0    0  501  0.00000000000E+00  0.00000000000E+00  0.64515163505E+03  0.64515163506E+03  0.25500000920E-02 0.  1.
        2   -1    0    0  501    0  0.00000000000E+00  0.00000000000E+00 -0.17305270329E+04  0.17305270329E+04  0.25500000920E-02 0. -1.
    10030    2    1    2    0    0  0.00000000000E+00  0.00000000000E+00 -0.10853753979E+04  0.23756786680E+04  0.21132461710E+04 0.  0.
        1    1    3    3  502    0  0.97906639296E+03  0.31716330143E+03 -0.27361328300E+03  0.10649074092E+04  0.50400001928E-02 0.  1.
       -1    1    3    3    0  502 -0.97906639296E+03 -0.31716330143E+03 -0.81176211488E+03  0.13107712588E+04  0.50400001928E-02 0. -1.
</event>
<event>
 5   0  0.1156733E-04  0.1908100E+04  0.7818609E-02  0.8650835E-01
       -1   -1    0    0    0  501  0.00000000000E+00  0.00000000000E+00  0.65977495112E+03  0.65977495114E+03  0.50400001928E-02 0. -1.
        1   -1    0    0  501    0  0.00000000000E+00  0.00000000000E+00 -0.13795784340E+04  0.13795784340E+04  0.50400001928E-02 0.  1.
    10030    2    1    2    0    0  0.00000000000E+00  0.00000000000E+00 -0.71980348286E+03  0.20393533851E+04  0.19080998861E+04 0.  0.
        2    1    3    3  502    0 -0.65661558194E+03 -0.65067381926E+03 -0.61212394457E+03  0.11087002142E+04  0.25500000920E-02 0. -1.
       -2    1    3    3    0  502  0.65661558194E+03  0.65067381926E+03 -0.10767953828E+03  0.93065317089E+03  0.25500000920E-02 0.  1.
</event>
<event>
 5   0  0.1186038E-04  0.2082195E+04  0.7818609E-02  0.8569127E-01
        1   -1    0    0  501    0  0.00000000000E+00  0.00000000000E+00  0.12500722196E+04  0.12500722196E+04  0.50400001928E-02 0.  1.
       -1   -1    0    0    0  501  0.00000000000E+00  0.00000000000E+00 -0.86705705011E+03  0.86705705013E+03  0.50400001928E-02 0. -1.
    10030    2    1    2    0    0  0.00000000000E+00  0.00000000000E+00  0.38301516952E+03  0.21171292698E+04  0.20821949296E+04 0.  0.
        4    1    3    3  502    0 -0.30308794285E+03  0.22523555655E+03 -0.79497057514E+03  0.88009839523E+03  0.12699999809E+01 0. -1.
       -4    1    3    3    0  502  0.30308794285E+03 -0.22523555655E+03  0.11779857447E+04  0.12370308745E+04  0.12699999809E+01 0.  1.
</event>
<event>
 5   0  0.2579241E-04  0.2069567E+04  0.7818609E-02  0.8574769E-01
        2   -1    0    0  501    0  0.00000000000E+00  0.00000000000E+00  0.13163489333E+04  0.13163489333E+04  0.25500000920E-02 0. -1.
       -2   -1    0    0    0  501  0.00000000000E+00  0.00000000000E+00 -0.81344460844E+03  0.81344460845E+03  0.25500000920E-02 0.  1.
    10030    2    1    2    0    0  0.00000000000E+00  0.00000000000E+00  0.50290432484E+03  0.21297935417E+04  0.20695670490E+04 0.  0.
        5    1    3    3  502    0  0.71972049791E+03 -0.52065027685E+03  0.79763296615E+03  0.11938654634E+04  0.46999998093E+01 0.  1.
       -5    1    3    3    0  502 -0.71972049791E+03  0.52065027685E+03 -0.29472864131E+03  0.93592807838E+03  0.46999998093E+01 0. -1.
</event>
<event>
 5   0  0.1042395E-04  0.2112665E+04  0.7818609E-02  0.8555685E-01
        1   -1    0    0  501    0  0.00000000000E+00  0.00000000000E+00  0.14674990420E+04  0.14674990420E+04  0.50400001928E-02 0. -1.
       -1   -1    0    0    0  501  0.00000000000E+00  0.00000000000E+00 -0.76036706864E+03  0.76036706866E+03  0.50400001928E-02 0.  1.
    10030    2    1    2    0    0  0.00000000000E+00  0.00000000000E+00  0.70713197333E+03  0.22278661106E+04  0.21126646159E+04 0.  0.
        3    1    3    3  502    0 -0.14598609065E+03 -0.10761928592E+03 -0.74382539586E+03  0.76561744958E+03  0.10100000352E+00 0.  1.
       -3    1    3    3    0  502  0.14598609065E+03  0.10761928592E+03  0.14509573692E+04  0.14622486611E+04  0.10100000352E+00 0. -1.
</event>
<event>
 5   0  0.1042395E-04  0.2042274E+04  0.7818609E-02  0.8587107E-01
       -1   -1    0    0    0  501  0.00000000000E+00  0.00000000000E+00  0.15711541832E+04  0.15711541832E+04  0.50400001928E-02 0.  1.
        1   -1    0    0  501    0  0.00000000000E+00  0.00000000000E+00 -0.66366528661E+03  0.66366528663E+03  0.50400001928E-02 0. -1.
    10030    2    1    2    0    0  0.00000000000E+00  0.00000000000E+00  0.90748889661E+03  0.22348194699E+04  0.20422737244E+04 0.  0.
        3    1    3    3  502    0 -0.70704666575E+03  0.53613490474E+03 -0.99235090423E+02  0.89286238413E+03  0.10100000352E+00 0. -1.
       -3    1    3    3    0  502  0.70704666575E+03 -0.53613490474E+03  0.10067239870E+04  0.13419570857E+04  0.10100000352E+00 0.  1.
</event>
<event>
 5   0  0.2512839E-04  0.1331618E+04  0.7818609E-02  0.9004860E-01
       -2   -1    0    0    0  501  0.00000000000E+00  0.00000000000E+00  0.12191675008E+04  0.12191675008E+04  0.25500000920E-02 0. -1.
        2   -1    0    0  501    0  0.00000000000E+00  0.00000000000E+00 -0.36361036843E+03  0.36361036844E+03  0.25500000920E-02 0.  1.
    10030    2    1    2    0    0  0.00000000000E+00  0.00000000000E+00  0.85555713236E+03  0.15827778692E+04  0.13316184801E+04 0.  0.
        3    1    3    3  502    0  0.65332830301E+03  0.11208403292E+03  0.35353803938E+03  0.75125884849E+03  0.10100000352E+00 0. -1.
       -3    1    3    3    0  502 -0.65332830301E+03 -0.11208403292E+03  0.50201909297E+03  0.83151902074E+03  0.10100000352E+00 0.  1.
</event>
<event>
 5   0  0.2579241E-04  0.2128965E+04  0.7818609E-02  0.8548591E-01
        2   -1    0    0  501    0  0.00000000000E+00  0.00000000000E+00  0.13123117217E+04  0.13123117217E+04  0.25500000920E-02 0.  1.
       -2   -1    0    0    0  501  0.00000000000E+00  0.00000000000E+00 -0.86345531681E+03  0.86345531681E+03  0.25500000920E-02 0. -1.
    10030    2    1    2    0    0  0.00000000000E+00  0.00000000000E+00  0.44885640485E+03  0.21757670385E+04  0.21289645684E+04 0.  0.
        5    1    3    3  502    0 -0.72769293699E+03 -0.60325459214E+03 -0.27587151405E+03  0.98467268457E+03  0.46999998093E+01 0. -1.
       -5    1    3    3    0  502  0.72769293699E+03  0.60325459214E+03  0.72472791890E+03  0.11910943539E+04  0.46999998093E+01 0.  1.
</event>
<event>
 5   0  0.1130848E-04  0.1934855E+04  0.7818609E-02  0.8637699E-01
        1   -1    0    0  501    0  0.00000000000E+00  0.00000000000E+00  0.15591432977E+04  0.15591432977E+04  0.50400001928E-02 0. -1.
       -1   -1    0    0    0  501  0.00000000000E+00  0.00000000000E+00 -0.60027558358E+03  0.60027558360E+03  0.50400001928E-02 0.  1.
    10030    2    1    2    0    0  0.00000000000E+00  0.00000000000E+00  0.95886771408E+03  0.21594188813E+04  0.19348546746E+04 0.  0.
        5    1    3    3  502    0  0.62808729169E+02 -0.26939192754E+03 -0.55518480881E+03  0.62029767775E+03  0.46999998093E+01 0.  1.
       -5    1    3    3    0  502 -0.62808729169E+02  0.26939192754E+03  0.15140525229E+04  0.15391212035E+04  0.46999998093E+01 0. -1.
</event>
<event>
 5   0  0.1156733E-04  0.2096243E+04  0.7818609E-02  0.8562900E-01
       -1   -1    0    0    0  501  0.00000000000E+00  0.00000000000E+00  0.65182425278E+03  0.65182425280E+03  0.50400001928E-02 0.  1.
        1   -1    0    0  501    0  0.00000000000E+00  0.00000000000E+00 -0.16853608365E+04  0.16853608365E+04  0.50400001928E-02 0. -1.
    10030    2    1    2    0    0  0.00000000000E+00  0.00000000000E+00 -0.10335365837E+04  0.23371850893E+04  0.20962433713E+04 0.  0.
        2    1    3    3  502    0  0.16272829038E+03  0.63977126959E+03 -0.14244493022E+04  0.15699820344E+04  0.25500000920E-02 0. -1.
       -2    1    3    3    0  502 -0.16272829038E+03 -0.63977126959E+03  0.39091271851E+03  0.76720305486E+03  0.25500000920E-02 0.  1.
</event>
<event>
 5   0  0.2467483E-04  0.2182177E+04  0.7818609E-02  0.8525883E-01
        2   -1    0    0  501    0  0.00000000000E+00  0.00000000000E+00  0.23461181240E+04  0.23461181240E+04  0.25500000920E-02 0.  1.
       -2   -1    0    0    0  501  0.00000000000E+00  0.00000000000E+00 -0.50742277373E+03  0.50742277374E+03  0.25500000920E-02 0. -1.
    10030    2    1    2    0    0  0.00000000000E+00  0.00000000000E+00  0.18386953503E+04  0.28535408977E+04  0.21821766803E+04 0.  0.
        4    1    3    3  502    0  0.60391881683E+03 -0.88238938979E+02  0.21020143947E+04  0.21888284940E+04  0.12699999809E+01 0.  1.
       -4    1    3    3    0  502 -0.60391881683E+03  0.88238938979E+02 -0.26331904441E+03  0.66471240376E+03  0.12699999809E+01 0. -1.
</event>
<event>
 5   0  0.2579241E-04  0.1289678E+04  0.7818609E-02  0.9037791E-01
        2   -1    0    0  501    0  0.00000000000E+00  0.00000000000E+00  0.26910742737E+04  0.26910742737E+04  0.25500000920E-02 0.  1.
       -2   -1    0    0    0  501  0.00000000000E+00  0.00000000000E+00 -0.15451715019E+03  0.15451715021E+03  0.25500000920E-02 0. -1.
    10030    2    1    2    0    0  0.00000000000E+00  0.00000000000E+00  0.25365571235E+04  0.28455914239E+04  0.12896776772E+04 0.  0.
        5    1    3    3  502    0  0.60782911197E+03 -0.13560986711E+03  0.16371480460E+04  0.17516055720E+04  0.46999998093E+01 0.  1.
       -5    1    3    3    0  502 -0.60782911197E+03  0.13560986711E+03  0.89940907751E+03  0.10939858519E+04  0.46999998093E+01 0. -1.
</event>
<event>
 5   0  0.1122711E-04  0.2105167E+04  0.7818609E-02  0.8558971E-01
       -1   -1    0    0    0  501  0.00000000000E+00  0.00000000000E+00  0.10614808293E+04  0.10614808293E+04  0.50400001928E-02 0.  1.
        1   -1    0    0  501    0  0.00000000000E+00  0.00000000000E+00 -0.10437605137E+04  0.10437605137E+04  0.50400001928E-02 0. -1.
    10030    2    1    2    0    0  0.00000000000E+00  0.00000000000E+00  0.17720315626E+02  0.21052413431E+04  0.21051667637E+04 0.  0.
        1    1    3    3  502    0 -0.77175858789E+03 -0.46079687891E+03 -0.53886965663E+03  0.10480102998E+04  0.50400001928E-02 0. -1.
       -1    1    3    3    0  502  0.77175858789E+03  0.46079687891E+03  0.55658997226E+03  0.10572310433E+04  0.50400001928E-02 0.  1.
</event>
<event>
 5   0  0.2448804E-04  0.2107062E+04  0.7818609E-02  0.8558139E-01
       -2   -1    0    0    0  501  0.00000000000E+00  0.00000000000E+00  0.83336007094E+03  0.83336007094E+03  0.25500000920E-02 0.  1.
        2   -1    0    0  501    0  0.00000000000E+00  0.00000000000E+00 -0.13318700157E+04  0.13318700157E+04  0.25500000920E-02 0. -1.
    10030    2    1    2    0    0  0.00000000000E+00  0.00000000000E+00 -0.49850994475E+03  0.21652300866E+04  0.21070617369E+04 0.  0.
        2    1    3    3  502    0  0.69344505019E+03  0.78244519476E+03 -0.38260950112E+03  0.11133178121E+04  0.25500000920E-02 0.  1.
       -2    1    3    3    0  502 -0.69344505019E+03 -0.78244519476E+03 -0.11590044364E+03  0.10519122745E+04  0.25500000920E-02 0. -1.
</event>
<event>
 5   0  0.1156733E-04  0.1972192E+04  0.7818609E-02  0.8619733E-01
       -1   -1    0    0    0  501  0.00000000000E+00  0.00000000000E+00  0.89010776464E+03  0.89010776465E+03  0.50400001928E-02 0. -1.
        1   -1    0    0  501    0  0.00000000000E+00  0.00000000000E+00 -0.10924355267E+04  0.10924355267E+04  0.50400001928E-02 0.  1.
    10030    2    1    2    0    0  0.00000000000E+00  0.00000000000E+00 -0.20232776201E+03  0.19825432913E+04  0.19721920238E+04 0.  0.
        2    1    3    3  502    0  0.49716994197E+03 -0.58737425444E+03 -0.72100287941E+03  0.10545290978E+04  0.25500000920E-02 0.  1.
       -2    1    3    3    0  502 -0.49716994197E+03  0.58737425444E+03  0.51867511739E+03  0.92801419352E+03  0.25500000920E-02 0. -1.
</event>
<event>
 5   0  0.2430898E-04  0.2049418E+04  0.7818609E-02  0.8583858E-01
        2   -1    0    0  501    0  0.00000000000E+00  0.00000000000E+00  0.17215902227E+04  0.17215902227E+04  0.25500000920E-02 0.  1.
       -2   -1    0    0    0  501  0.00000000000E+00  0.00000000000E+00 -0.60991791545E+03  0.60991791546E+03  0.25500000920E-02 0. -1.
    10030    2    1    2    0    0  0.00000000000E+00  0.00000000000E+00  0.11116723072E+04  0.23315081381E+04  0.20494181807E+04 0.  0.
        1    1    3    3  502    0  0.61476484782E+03  0.23170013333E+02 -0.37644624491E+03  0.72123813194E+03  0.50400001928E-02 0. -1.
       -1    1    3    3    0  502 -0.61476484782E+03 -0.23170013333E+02  0.14881185521E+04  0.16102700062E+04  0.50400001928E-02 0.  1.
</event>
<event>
 5   0  0.1042395E-04  0.2130120E+04  0.7818609E-02  0.8548090E-01
        1   -1    0    0  501    0  0.00000000000E+00  0.00000000000E+00  0.11340349255E+04  0.11340349256E+04  0.50400001928E-02 0. -1.
       -1   -1    0    0    0  501  0.00000000000E+00  0.00000000000E+00 -0.10002803433E+04  0.10002803434E+04  0.50400001928E-02 0.  1.
    10030    2    1    2    0    0  0.00000000000E+00  0.00000000000E+00  0.13375458221E+03  0.21343152689E+04  0.21301200386E+04 0.  0.
        3    1    3    3  502    0 -0.50286364810E+03  0.63873351833E+03 -0.62259164601E+03  0.10239495710E+04  0.10100000352E+00 0.  1.
       -3    1    3    3    0  502  0.50286364810E+03 -0.63873351833E+03  0.75634622822E+03  0.11103656979E+04  0.10100000352E+00 0. -1.
</event>
<event>
 5   0  0.1042395E-04  0.2098866E+04  0.7818609E-02  0.8561743E-01
        1   -1    0    0  501    0  0.00000000000E+00  0.00000000000E+00  0.13430247001E+04  0.13430247001E+04  0.50400001928E-02 0.  1.
       -1   -1    0    0    0  501  0.00000000000E+00  0.00000000000E+00 -0.82002214536E+03  0.82002214538E+03  0.50400001928E-02 0. -1.
    10030    2    1    2    0    0  0.00000000000E+00  0.00000000000E+00  0.52300255478E+03  0.21630468455E+04  0.20988663568E+04 0.  0.
        3    1    3    3  502    0 -0.14582346475E+03 -0.59197952210E+03  0.11417902519E+04  0.12943682733E+04  0.10100000352E+00 0.  1.
       -3    1    3    3    0  502  0.14582346475E+03  0.59197952210E+03 -0.61878769713E+03  0.86867857219E+03  0.10100000352E+00 0. -1.
</event>
<event>
 5   0  0.2467483E-04  0.2095955E+04  0.7818609E-02  0.8563027E-01
        2   -1    0    0  501    0  0.00000000000E+00  0.00000000000E+00  0.10528817903E+04  0.10528817903E+04  0.25500000920E-02 0.  1.
       -2   -1    0    0    0  501  0.00000000000E+00  0.00000000000E+00 -0.10430957724E+04  0.10430957725E+04  0.25500000920E-02 0. -1.
    10030    2    1    2    0    0  0.00000000000E+00  0.00000000000E+00  0.97860178401E+01  0.20959775627E+04  0.20959547174E+04 0.  0.
        4    1    3    3  502    0  0.68226169891E+03 -0.77404808903E+03 -0.17847600288E+03  0.10471326403E+04  0.12699999809E+01 0. -1.
       -4    1    3    3    0  502 -0.68226169891E+03  0.77404808903E+03  0.18826202072E+03  0.10488449224E+04  0.12699999809E+01 0.  1.
</event>
<event>
 5   0  0.2430898E-04  0.2228543E+04  0.7818609E-02  0.8506641E-01
        2   -1    0    0  501    0  0.00000000000E+00  0.00000000000E+00  0.84212367944E+03  0.84212367945E+03  0.25500000920E-02 0.  1.
       -2   -1    0    0    0  501  0.00000000000E+00  0.00000000000E+00 -0.14743686201E+04  0.14743686201E+04  0.25500000920E-02 0. -1.
    10030    2    1    2    0    0  0.00000000000E+00  0.00000000000E+00 -0.63224494065E+03  0.23164922995E+04  0.22285427770E+04 0.  0.
        1    1    3    3  502    0  0.56305916071E+03  0.70561332901E+03  0.36285983025E+03  0.97293013365E+03  0.50400001928E-02 0.  1.
       -1    1    3    3    0  502 -0.56305916071E+03 -0.70561332901E+03 -0.99510477090E+03  0.13435621659E+04  0.50400001928E-02 0. -1.
</event>
<event>
 5   0  0.1156733E-04  0.2087149E+04  0.7818609E-02  0.8566926E-01
        1   -1    0    0  501    0  0.00000000000E+00  0.00000000000E+00  0.12063442300E+04  0.12063442300E+04  0.50400001928E-02 0. -1.
       -1   -1    0    0    0  501  0.00000000000E+00  0.00000000000E+00 -0.90276703245E+03  0.90276703246E+03  0.50400001928E-02 0.  1.
    10030    2    1    2    0    0  0.00000000000E+00  0.00000000000E+00  0.30357719756E+03  0.21091112625E+04  0.20871490610E+04 0.  0.
        2    1    3    3  502    0  0.34093944403E+03 -0.19372864527E+03 -0.82548512684E+03  0.91389068665E+03  0.25500000920E-02 0.  1.
       -2    1    3    3    0  502 -0.34093944403E+03  0.19372864527E+03  0.11290623244E+04  0.11952205758E+04  0.25500000920E-02 0. -1.
</event>
<event>
 5   0  0.1186038E-04  0.2086740E+04  0.7818609E-02  0.8567107E-01
        1   -1    0    0  501    0  0.00000000000E+00  0.00000000000E+00  0.17649974632E+04  0.17649974632E+04  0.50400001928E-02 0. -1.
       -1   -1    0    0    0  501  0.00000000000E+00  0.00000000000E+00 -0.61678314710E+03  0.61678314712E+03  0.50400001928E-02 0.  1.
    10030    2    1    2    0    0  0.00000000000E+00  0.00000000000E+00  0.11482143161E+04  0.23817806103E+04  0.20867397442E+04 0.  0.
        4    1    3    3  502    0  0.91924155412E+03  0.46817729400E+03  0.39572869013E+03  0.11048972000E+04  0.12699999809E+01 0.  1.
       -4    1    3    3    0  502 -0.91924155412E+03 -0.46817729400E+03  0.75248562598E+03  0.12768834104E+04  0.12699999809E+01 0. -1.
</event>
<event>
 5   0  0.1130848E-04  0.2121762E+04  0.7818609E-02  0.8551717E-01
        1   -1    0    0  501    0  0.00000000000E+00  0.00000000000E+00  0.14855666671E+04  0.14855666671E+04  0.50400001928E-02 0. -1.
       -1   -1    0    0    0  501  0.00000000000E+00  0.00000000000E+00 -0.75760203702E+03  0.75760203703E+03  0.50400001928E-02 0.  1.
    10030    2    1    2    0    0  0.00000000000E+00  0.00000000000E+00  0.72796463006E+03  0.22431687041E+04  0.21217618463E+04 0.  0.
        5    1    3    3  502    0 -0.89955458042E+03 -0.55951007906E+03  0.42375284769E+03  0.11409813923E+04  0.46999998093E+01 0.  1.
       -5    1    3    3    0  502  0.89955458042E+03  0.55951007906E+03  0.30421178237E+03  0.11021873118E+04  0.46999998093E+01 0. -1.
</event>
<event>
 5   0  0.2448804E-04  0.2094935E+04  0.7818609E-02  0.8563478E-01
        2   -1    0    0  501    0  0.00000000000E+00  0.00000000000E+00  0.85402957388E+03  0.85402957389E+03  0.25500000920E-02 0. -1.
       -2   -1    0    0    0  501  0.00000000000E+00  0.00000000000E+00 -0.12847195123E+04  0.12847195123E+04  0.25500000920E-02 0.  1.
    10030    2    1    2    0    0  0.00000000000E+00  0.00000000000E+00 -0.43068993843E+03  0.21387490862E+04  0.20949352808E+04 0.  0.
        2    1    3    3  502    0  0.18855988657E+03 -0.75478625153E+02  0.83373392230E+03  0.85811660447E+03  0.25500000920E-02 0. -1.
       -2    1    3    3    0  502 -0.18855988657E+03  0.75478625153E+02 -0.12644238607E+04  0.12806324817E+04  0.25500000920E-02 0.  1.
</event>
<event>
 5   0  0.1186038E-04  0.2036688E+04  0.7818609E-02  0.8589657E-01
       -1   -1    0    0    0  501  0.00000000000E+00  0.00000000000E+00  0.74513731159E+03  0.74513731161E+03  0.50400001928E-02 0. -1.
        1   -1    0    0  501    0  0.00000000000E+00  0.00000000000E+00 -0.13917231961E+04  0.13917231961E+04  0.50400001928E-02 0.  1.
    10030    2    1    2    0    0  0.00000000000E+00  0.00000000000E+00 -0.64658588448E+03  0.21368605077E+04  0.20366883717E+04 0.  0.
        4    1    3    3  502    0 -0.17048456578E+03 -0.42622262369E+03 -0.12770077133E+04  0.13570117998E+04  0.12699999809E+01 0.  1.
       -4    1    3    3    0  502  0.17048456578E+03  0.42622262369E+03  0.63042182878E+03  0.77984870791E+03  0.12699999809E+01 0. -1.
</event>
<event>
 5   0  0.2579241E-04  0.2101673E+04  0.7818609E-02  0.8560507E-01
       -2   -1    0    0    0  501  0.00000000000E+00  0.00000000000E+00  0.75549167499E+03  0.75549167500E+03  0.25500000920E-02 0. -1.
        2   -1    0    0  501    0  0.00000000000E+00  0.00000000000E+00 -0.14616406162E+04  0.14616406162E+04  0.25500000920E-02 0.  1.
    10030    2    1    2    0    0  0.00000000000E+00  0.00000000000E+00 -0.70614894119E+03  0.22171322912E+04  0.21016729692E+04 0.  0.
        5    1    3    3  502    0 -0.50275335594E+03  0.87338790557E+03 -0.66720458641E+03  0.12086154974E+04  0.46999998093E+01 0. -1.
       -5    1    3    3    0  502  0.50275335594E+03 -0.87338790557E+03 -0.38944354783E+02  0.10085167938E+04  0.46999998093E+01 0.  1.
</event>
<event>
 5   0  0.1130848E-04  0.2118747E+04  0.7818609E-02  0.8553030E-01
       -1   -1    0    0    0  501  0.00000000000E+00  0.00000000000E+00  0.36993885549E+03  0.36993885553E+03  0.50400001928E-02 0.  1.
        1   -1    0    0  501    0  0.00000000000E+00  0.00000000000E+00 -0.30336691867E+04  0.30336691867E+04  0.50400001928E-02 0. -1.
    10030    2    1    2    0    0  0.00000000000E+00  0.00000000000E+00 -0.26637303312E+04  0.34036080422E+04  0.21187469003E+04 0.  0.
        5    1    3    3  502    0 -0.69827072848E+03 -0.10425240947E+03 -0.63095017637E+02  0.70883964786E+03  0.46999998093E+01 0.  1.
       -5    1    3    3    0  502  0.69827072848E+03  0.10425240947E+03 -0.26006353136E+04  0.26947683944E+04  0.46999998093E+01 0. -1.
</event>
<event>
 5   0  0.1122711E-04  0.2058599E+04  0.7818609E-02  0.8579703E-01
        1   -1    0    0  501    0  0.00000000000E+00  0.00000000000E+00  0.10507563504E+04  0.10507563504E+04  0.50400001928E-02 0. -1.
       -1   -1    0    0    0  501  0.00000000000E+00  0.00000000000E+00 -0.10082807772E+04  0.10082807773E+04  0.50400001928E-02 0.  1.
    10030    2    1    2    0    0  0.00000000000E+00  0.00000000000E+00  0.42475573126E+02  0.20590371276E+04  0.20585989699E+04 0.  0.
        1    1    3    3  502    0 -0.39603756810E+03 -0.52481043861E+03  0.81335690010E+03  0.10458590722E+04  0.50400001928E-02 0. -1.
       -1    1    3    3    0  502  0.39603756810E+03  0.52481043861E+03 -0.77088132698E+03  0.10131780555E+04  0.50400001928E-02 0.  1.
</event>
<event>
 5   0  0.2448804E-04  0.1981796E+04  0.7818609E-02  0.8615179E-01
       -2   -1    0    0    0  501  0.00000000000E+00  0.00000000000E+00  0.68057792772E+03  0.68057792772E+03  0.25500000920E-02 0. -1.
        2   -1    0    0  501    0  0.00000000000E+00  0.00000000000E+00 -0.14427133692E+04  0.14427133692E+04  0.25500000920E-02 0.  1.
    10030    2    1    2    0    0  0.00000000000E+00  0.00000000000E+00 -0.76213544149E+03  0.21232912969E+04  0.19817960290E+04 0.  0.
        2    1    3    3  502    0  0.10297543710E+03 -0.98200632259E+03 -0.29182270927E+03  0.10296119909E+04  0.25500000920E-02 0.  1.
       -2    1    3    3    0  502 -0.10297543710E+03  0.98200632259E+03 -0.47031273222E+03  0.10936793060E+04  0.25500000920E-02 0. -1.
</event>
<event>
 5   0  0.1130848E-04  0.2011982E+04  0.7818609E-02  0.8601039E-01
       -1   -1    0    0    0  501  0.00000000000E+00  0.00000000000E+00  0.58194272029E+03  0.58194272031E+03  0.50400001928E-02 0. -1.
        1   -1    0    0  501    0  0.00000000000E+00  0.00000000000E+00 -0.17390332498E+04  0.17390332498E+04  0.50400001928E-02 0.  1.
    10030    2    1    2    0    0  0.00000000000E+00  0.00000000000E+00 -0.11570905295E+04  0.23209759701E+04  0.20119818489E+04 0.  0.
        5    1    3    3  502    0  0.45013248055E+03 -0.84188633896E+03 -0.21265255061E+03  0.97807722346E+03  0.46999998093E+01 0. -1.
       -5    1    3    3    0  502 -0.45013248055E+03  0.84188633896E+03 -0.94443797890E+03  0.13428987467E+04  0.46999998093E+01 0.  1.
</event>
<event>
 5   0  0.2430898E-04  0.2109513E+04  0.7818609E-02  0.8557064E-01
        2   -1    0    0  501    0  0.00000000000E+00  0.00000000000E+00  0.11274716026E+04  0.11274716026E+04  0.25500000920E-02 0.  1.
       -2   -1    0    0    0  501  0.00000000000E+00  0.00000000000E+00 -0.98673101073E+03  0.98673101074E+03  0.25500000920E-02 0. -1.
    10030    2    1    2    0    0  0.00000000000E+00  0.00000000000E+00  0.14074059190E+03  0.21142026134E+04  0.21095129239E+04 0.  0.
        1    1    3    3  502    0  0.64313514628E+03 -0.74833421304E+03 -0.30313001335E+03  0.10322377225E+04  0.50400001928E-02 0. -1.
       -1    1    3    3    0  502 -0.64313514628E+03  0.74833421304E+03  0.44387060525E+03  0.10819648908E+04  0.50400001928E-02 0.  1.
</event>
<event>
 5   0  0.1122711E-04  0.1072795E+04  0.7818609E-02  0.9232121E-01
       -1   -1    0    0    0  501  0.00000000000E+00  0.00000000000E+00  0.70467727176E+03  0.70467727178E+03  0.50400001928E-02 0.  1.
        1   -1    0    0  501    0  0.00000000000E+00  0.00000000000E+00 -0.40830338888E+03  0.40830338891E+03  0.50400001928E-02 0. -1.
    10030    2    1    2    0    0  0.00000000000E+00  0.00000000000E+00  0.29637388288E+03  0.11129806607E+04  0.10727947020E+04 0.  0.
        1    1    3    3  502    0 -0.19887299896E+03 -0.15618083249E+03 -0.34258627397E+03  0.42580309686E+03  0.50400001928E-02 0. -1.
       -1    1    3    3    0  502  0.19887299896E+03  0.15618083249E+03  0.63896015686E+03  0.68717756383E+03  0.50400001928E-02 0.  1.
</event>
<event>
 5   0  0.1156733E-04  0.2076049E+04  0.7818609E-02  0.8571868E-01
       -1   -1    0    0    0  501  0.00000000000E+00  0.00000000000E+00  0.58354642166E+03  0.58354642168E+03  0.50400001928E-02 0. -1.
        1   -1    0    0  501    0  0.00000000000E+00  0.00000000000E+00 -0.18464594960E+04  0.18464594960E+04  0.50400001928E-02 0.  1.
    10030    2    1    2    0    0  0.00000000000E+00  0.00000000000E+00 -0.12629130743E+04  0.24300059177E+04  0.20760489702E+04 0.  0.
        2    1    3    3  502    0  0.85493877521E+03  0.58857601887E+03 -0.64592493682E+03  0.12225224183E+04  0.25500000920E-02 0.  1.
       -2    1    3    3    0  502 -0.85493877521E+03 -0.58857601887E+03 -0.61698813752E+03  0.12074834993E+04  0.25500000920E-02 0. -1.
</event>
<event>
 5   0  0.2467483E-04  0.2117380E+04  0.7818609E-02  0.8553626E-01
        2   -1    0    0  501    0  0.00000000000E+00  0.00000000000E+00  0.69183482999E+03  0.69183483000E+03  0.25500000920E-02 0. -1.
       -2   -1    0    0    0  501  0.00000000000E+00  0.00000000000E+00 -0.16200749696E+04  0.16200749696E+04  0.25500000920E-02 0.  1.
    10030    2    1    2    0    0  0.00000000000E+00  0.00000000000E+00 -0.92824013956E+03  0.23119097996E+04  0.21173797875E+04 0.  0.
        4    1    3    3  502    0  0.31730217587E+03 -0.97225711260E+03 -0.16538131618E+03  0.10360102106E+04  0.12699999809E+01 0. -1.
       -4    1    3    3    0  502 -0.31730217587E+03  0.97225711260E+03 -0.76285882338E+03  0.12758995890E+04  0.12699999809E+01 0.  1.
</event>
<event>
 5   0  0.2448804E-04  0.2044381E+04  0.7818609E-02  0.8586148E-01
       -2   -1    0    0    0  501  0.00000000000E+00  0.00000000000E+00  0.61991930206E+03  0.61991930206E+03  0.25500000920E-02 0. -1.
        2   -1    0    0  501    0  0.00000000000E+00  0.00000000000E+00 -0.16854995531E+04  0.16854995531E+04  0.25500000920E-02 0.  1.
    10030    2    1    2    0    0  0.00000000000E+00  0.00000000000E+00 -0.10655802510E+04  0.23054188551E+04  0.20443812820E+04 0.  0.
        2    1    3    3  502    0  0.27616705528E+03 -0.15679455329E+03  0.56287731701E+03  0.64628449492E+03  0.25500000920E-02 0. -1.
       -2    1    3    3    0  502 -0.27616705528E+03  0.15679455329E+03 -0.16284575680E+04  0.16591343602E+04  0.25500000920E-02 0.  1.
</event>
<event>
 5   0  0.2467483E-04  0.2085844E+04  0.7818609E-02  0.8567505E-01
       -2   -1    0    0    0  501  0.00000000000E+00  0.00000000000E+00  0.83956089295E+03  0.83956089295E+03  0.25500000920E-02 0. -1.
        2   -1    0    0  501    0  0.00000000000E+00  0.00000000000E+00 -0.12955422206E+04  0.12955422206E+04  0.25500000920E-02 0.  1.
    10030    2    1    2    0    0  0.00000000000E+00  0.00000000000E+00 -0.45598132763E+03  0.21351031135E+04  0.20858442737E+04 0.  0.
        4    1    3    3  502    0 -0.22682556946E+03 -0.85615335793E+03 -0.79166433875E+03  0.11879320054E+04  0.12699999809E+01 0.  1.
       -4    1    3    3    0  502  0.22682556946E+03  0.85615335793E+03  0.33568301113E+03  0.94717110815E+03  0.12699999809E+01 0. -1.
</event>
<event>
 5   0  0.1156733E-04  0.2071603E+04  0.7818609E-02  0.8573857E-01
        1   -1    0    0  501    0  0.00000000000E+00  0.00000000000E+00  0.13357952269E+04  0.13357952269E+04  0.50400001928E-02 0.  1.
       -1   -1    0    0    0  501  0.00000000000E+00  0.00000000000E+00 -0.80318081848E+03  0.80318081849E+03  0.50400001928E-02 0. -1.
    10030    2    1    2    0    0  0.00000000000E+00  0.00000000000E+00  0.53261440844E+03  0.21389760454E+04  0.20716033440E+04 0.  0.
        2    1    3    3  502    0 -0.64220968593E+03 -0.44053294116E+03  0.97143926932E+03  0.12450689969E+04  0.25500000920E-02 0.  1.
       -2    1    3    3    0  502  0.64220968593E+03  0.44053294116E+03 -0.43882486088E+03  0.89390704857E+03  0.25500000920E-02 0. -1.
</event>
<event>
 5   0  0.2430898E-04  0.2127311E+04  0.7818609E-02  0.8549307E-01
       -2   -1    0    0    0  501  0.00000000000E+00  0.00000000000E+00  0.49279935805E+03  0.49279935805E+03  0.25500000920E-02 0.  1.
        2   -1    0    0  501    0  0.00000000000E+00  0.00000000000E+00 -0.22957891072E+04  0.22957891072E+04  0.25500000920E-02 0. -1.
    10030    2    1    2    0    0  0.00000000000E+00  0.00000000000E+00 -0.18029897492E+04  0.27885884653E+04  0.21273113531E+04 0.  0.
        1    1    3    3  502    0 -0.15860242091E+03 -0.15447454833E+03  0.46226052782E+03  0.51254454402E+03  0.50400001928E-02 0.  1.
       -1    1    3    3    0  502  0.15860242091E+03  0.15447454833E+03 -0.22652502770E+04  0.22760439213E+04  0.50400001928E-02 0. -1.
</event>
<event>
 5   0  0.1186038E-04  0.2135849E+04  0.7818609E-02  0.8545614E-01
        1   -1    0    0  501    0  0.00000000000E+00  0.00000000000E+00  0.13527330474E+04  0.13527330474E+04  0.50400001928E-02 0.  1.
       -1   -1    0    0    0  501  0.00000000000E+00  0.00000000000E+00 -0.84308020304E+03  0.84308020306E+03  0.50400001928E-02 0. -1.
    10030    2    1    2    0    0  0.00000000000E+00  0.00000000000E+00  0.50965284432E+03  0.21958132504E+04  0.21358487327E+04 0.  0.
        4    1    3    3  502    0 -0.76216650920E+03 -0.52659499939E+03 -0.29137164880E+03  0.97113291148E+03  0.12699999809E+01 0.  1.
       -4    1    3    3    0  502  0.76216650920E+03  0.52659499939E+03  0.80102449312E+03  0.12246803389E+04  0.12699999809E+01 0. -1.
</event>
<event>
 5   0  0.1156733E-04  0.2055153E+04  0.7818609E-02  0.8581260E-01
        1   -1    0    0  501    0  0.00000000000E+00  0.00000000000E+00  0.12991269172E+04  0.12991269172E+04  0.50400001928E-02 0. -1.
       -1   -1    0    0    0  501  0.00000000000E+00  0.00000000000E+00 -0.81278729124E+03  0.81278729126E+03  0.50400001928E-02 0.  1.
    10030    2    1    2    0    0  0.00000000000E+00  0.00000000000E+00  0.48633962597E+03  0.21119142085E+04  0.20551533744E+04 0.  0.
        2    1    3    3  502    0  0.26410056883E+03  0.84397176267E+03 -0.29461599854E+03  0.93211374480E+03  0.25500000920E-02 0.  1.
       -2    1    3    3    0  502 -0.26410056883E+03 -0.84397176267E+03  0.78095562451E+03  0.11798004637E+04  0.25500000920E-02 0. -1.
</event>
<event>
 5   0  0.1122711E-04  0.2061447E+04  0.7818609E-02  0.8578419E-01
       -1   -1    0    0    0  501  0.00000000000E+00  0.00000000000E+00  0.10294674822E+04  0.10294674823E+04  0.50400001928E-02 0. -1.
        1   -1    0    0  501    0  0.00000000000E+00  0.00000000000E+00 -0.10319812884E+04  0.10319812884E+04  0.50400001928E-02 0.  1.
    10030    2    1    2    0    0  0.00000000000E+00  0.00000000000E+00 -0.25138061514E+01  0.20614487707E+04  0.20614472379E+04 0.  0.
        1    1    3    3  502    0 -0.41727417487E+03 -0.47421078485E+03  0.81323592052E+03  0.10297311629E+04  0.50400001928E-02 0. -1.
       -1    1    3    3    0  502  0.41727417487E+03  0.47421078485E+03 -0.81574972667E+03  0.10317176077E+04  0.50400001928E-02 0.  1.
</event>
<event>
 5   0  0.2430898E-04  0.2015406E+04  0.7818609E-02  0.8599451E-01
        2   -1    0    0  501    0  0.00000000000E+00  0.00000000000E+00  0.98523136055E+03  0.98523136056E+03  0.25500000920E-02 0.  1.
       -2   -1    0    0    0  501  0.00000000000E+00  0.00000000000E+00 -0.10306875953E+04  0.10306875953E+04  0.25500000920E-02 0. -1.
    10030    2    1    2    0    0  0.00000000000E+00  0.00000000000E+00 -0.45456234720E+02  0.20159189558E+04  0.20154064025E+04 0.  0.
        1    1    3    3  502    0  0.85481845836E+03 -0.32982334003E+03  0.39686361771E+03  0.99849825412E+03  0.50400001928E-02 0.  1.
       -1    1    3    3    0  502 -0.85481845836E+03  0.32982334003E+03 -0.44231985243E+03  0.10174207017E+04  0.50400001928E-02 0. -1.
</event>
<event>
 5   0  0.1042395E-04  0.1714178E+04  0.7818609E-02  0.8753319E-01
        1   -1    0    0  501    0  0.00000000000E+00  0.00000000000E+00  0.16394850415E+04  0.16394850415E+04  0.50400001928E-02 0. -1.
       -1   -1    0    0    0  501  0.00000000000E+00  0.00000000000E+00 -0.44806838223E+03  0.44806838226E+03  0.50400001928E-02 0.  1.
    10030    2    1    2    0    0  0.00000000000E+00  0.00000000000E+00  0.11914166593E+04  0.20875534238E+04  0.17141778324E+04 0.  0.
        3    1    3    3  502    0 -0.37978475318E+03  0.73934112227E+03  0.85040270680E+03  0.11891368835E+04  0.10100000352E+00 0. -1.
       -3    1    3    3    0  502  0.37978475318E+03 -0.73934112227E+03  0.34101395250E+03  0.89841654027E+03  0.10100000352E+00 0.  1.
</event>
<event>
 5   0  0.1130848E-04  0.2094072E+04  0.7818609E-02  0.8563859E-01
       -1   -1    0    0    0  501  0.00000000000E+00  0.00000000000E+00  0.11139995015E+04  0.11139995016E+04  0.50400001928E-02 0. -1.
        1   -1    0    0  501    0  0.00000000000E+00  0.00000000000E+00 -0.98409728889E+03  0.98409728890E+03  0.50400001928E-02 0.  1.
    10030    2    1    2    0    0  0.00000000000E+00  0.00000000000E+00  0.12990221266E+03  0.20980967905E+04  0.20940715263E+04 0.  0.
        5    1    3    3  502    0  0.51919112206E+03 -0.90905934081E+03  0.47211339075E+02  0.10479500498E+04  0.46999998093E+01 0.  1.
       -5    1    3    3    0  502 -0.51919112206E+03  0.90905934081E+03  0.82690873586E+02  0.10501467407E+04  0.46999998093E+01 0. -1.
</event>
<event>
 5   0  0.1042395E-04  0.2086527E+04  0.7818609E-02  0.8567202E-01
        1   -1    0    0  501    0  0.00000000000E+00  0.00000000000E+00  0.13354557197E+04  0.13354557197E+04  0.50400001928E-02 0.  1.
       -1   -1    0    0    0  501  0.00000000000E+00  0.00000000000E+00 -0.81500144126E+03  0.81500144128E+03  0.50400001928E-02 0. -1.
    10030    2    1    2    0    0  0.00000000000E+00  0.00000000000E+00  0.52045427843E+03  0.21504571610E+04  0.20865266222E+04 0.  0.
        3    1    3    3  502    0  0.10263130318E+04  0.18704919290E+03  0.27013877631E+03  0.10776273978E+04  0.10100000352E+00 0. -1.
       -3    1    3    3    0  502 -0.10263130318E+04 -0.18704919290E+03  0.25031550213E+03  0.10728297631E+04  0.10100000352E+00 0.  1.
</event>
<event>
 5   0  0.2448804E-04  0.2058973E+04  0.7818609E-02  0.8579535E-01
        2   -1    0    0  501    0  0.00000000000E+00  0.00000000000E+00  0.91679739750E+03  0.91679739751E+03  0.25500000920E-02 0. -1.
       -2   -1    0    0    0  501  0.00000000000E+00  0.00000000000E+00 -0.11560264438E+04  0.11560264438E+04  0.25500000920E-02 0.  1.
    10030    2    1    2    0    0  0.00000000000E+00  0.00000000000E+00 -0.23922904631E+03  0.20728238413E+04  0.20589725934E+04 0.  0.
        2    1    3    3  502    0 -0.83776698093E+03  0.16989520555E+03 -0.69716732884E+03  0.11030685290E+04  0.25500000920E-02 0.  1.
       -2    1    3    3    0  502  0.83776698093E+03 -0.16989520555E+03  0.45793828254E+03  0.96975531234E+03  0.25500000920E-02 0. -1.
</event>
<event>
 5   0  0.2448804E-04  0.1990349E+04  0.7818609E-02  0.8611146E-01
       -2   -1    0    0    0  501  0.00000000000E+00  0.00000000000E+00  0.78401119312E+03  0.78401119312E+03  0.25500000920E-02 0.  1.
        2   -1    0    0  501    0  0.00000000000E+00  0.00000000000E+00 -0.12632114590E+04  0.12632114590E+04  0.25500000920E-02 0. -1.
    10030    2    1    2    0    0  0.00000000000E+00  0.00000000000E+00 -0.47920026588E+03  0.20472226521E+04  0.19903486359E+04 0.  0.
        2    1    3    3  502    0 -0.55832570669E+03 -0.65155664433E+03  0.27890596195E+03  0.90224286705E+03  0.25500000920E-02 0.  1.
       -2    1    3    3    0  502  0.55832570669E+03  0.65155664433E+03 -0.75810622783E+03  0.11449797851E+04  0.25500000920E-02 0. -1.
</event>
<event>
 5   0  0.2467483E-04  0.2121327E+04  0.7818609E-02  0.8551907E-01
        2   -1    0    0  501    0  0.00000000000E+00  0.00000000000E+00  0.12161198345E+04  0.12161198345E+04  0.25500000920E-02 0. -1.
       -2   -1    0    0    0  501  0.00000000000E+00  0.00000000000E+00 -0.92507891049E+03  0.92507891049E+03  0.25500000920E-02 0.  1.
    10030    2    1    2    0    0  0.00000000000E+00  0.00000000000E+00  0.29104092398E+03  0.21411987450E+04  0.21213267655E+04 0.  0.
        4    1    3    3  502    0 -0.60789758579E+03 -0.86680351414E+03  0.80752460166E+02  0.10617958277E+04  0.12699999809E+01 0.  1.
       -4    1    3    3    0  502  0.60789758579E+03  0.86680351414E+03  0.21028846381E+03  0.10794029173E+04  0.12699999809E+01 0. -1.
</event>
<event>
 5   0  0.8698750E-05  0.2109968E+04  0.7818609E-02  0.8556865E-01
        3   -1    0    0  501    0  0.00000000000E+00  0.00000000000E+00  0.94017923929E+03  0.94017924472E+03  0.10100000352E+00 0.  1.
       -3   -1    0    0    0  501  0.00000000000E+00  0.00000000000E+00 -0.11838076377E+04  0.11838076420E+04  0.10100000352E+00 0. -1.
    10030    2    1    2    0    0  0.00000000000E+00  0.00000000000E+00 -0.24362839843E+03  0.21239868867E+04  0.21099681274E+04 0.  0.
        4    1    3    3  502    0  0.63493421481E+03  0.58957034135E+03  0.48406103502E+03  0.99249752799E+03  0.12699999809E+01 0.  1.
       -4    1    3    3    0  502 -0.63493421481E+03 -0.58957034135E+03 -0.72768943345E+03  0.11314893588E+04  0.12699999809E+01 0. -1.
</event>
<event>
 5   0  0.1042395E-04  0.2106494E+04  0.7818609E-02  0.8558388E-01
       -1   -1    0    0    0  501  0.00000000000E+00  0.00000000000E+00  0.96207780211E+03  0.96207780212E+03  0.50400001928E-02 0.  1.
        1   -1    0    0  501    0  0.00000000000E+00  0.00000000000E+00 -0.11530561827E+04  0.11530561827E+04  0.50400001928E-02 0. -1.
    10030    2    1    2    0    0  0.00000000000E+00  0.00000000000E+00 -0.19097838056E+03  0.21151339848E+04  0.21064944889E+04 0.  0.
        3    1    3    3  502    0 -0.48380971820E+02  0.73429581605E+03 -0.85210384152E+03  0.11258827785E+04  0.10100000352E+00 0. -1.
       -3    1    3    3    0  502  0.48380971820E+02 -0.73429581605E+03  0.66112546097E+03  0.98925120634E+03  0.10100000352E+00 0.  1.
</event>
<event>
 5   0  0.1186038E-04  0.2097240E+04  0.7818609E-02  0.8562460E-01
        1   -1    0    0  501    0  0.00000000000E+00  0.00000000000E+00  0.17880046615E+04  0.17880046615E+04  0.50400001928E-02 0. -1.
       -1   -1    0    0    0  501  0.00000000000E+00  0.00000000000E+00 -0.61498960642E+03  0.61498960644E+03  0.50400001928E-02 0.  1.
    10030    2    1    2    0    0  0.00000000000E+00  0.00000000000E+00  0.11730150550E+04  0.24029942679E+04  0.20972403611E+04 0.  0.
        4    1    3    3  502    0  0.14342105499E+03  0.54854239338E+03  0.15972297425E+04  0.16948784085E+04  0.12699999809E+01 0. -1.
       -4    1    3    3    0  502 -0.14342105499E+03 -0.54854239338E+03 -0.42421468749E+03  0.70811585940E+03  0.12699999809E+01 0.  1.
</event>
<event>
 5   0  0.2579241E-04  0.2205848E+04  0.7818609E-02  0.8515998E-01
       -2   -1    0    0    0  501  0.00000000000E+00  0.00000000000E+00  0.65798773847E+03  0.65798773847E+03  0.25500000920E-02 0. -1.
        2   -1    0    0  501    0  0.00000000000E+00  0.00000000000E+00 -0.18487302321E+04  0.18487302321E+04  0.25500000920E-02 0.  1.
    10030    2    1    2    0    0  0.00000000000E+00  0.00000000000E+00 -0.11907424936E+04  0.25067179706E+04  0.22058484304E+04 0.  0.
        5    1    3    3  502    0  0.70101380938E+03 -0.62736161369E+03  0.58838564530E+02  0.94259589536E+03  0.46999998093E+01 0. -1.
       -5    1    3    3    0  502 -0.70101380938E+03  0.62736161369E+03 -0.12495810581E+04  0.15641220752E+04  0.46999998093E+01 0.  1.
</event>
<event>
 5   0  0.1130848E-04  0.1407910E+04  0.7818609E-02  0.8948113E-01
        1   -1    0    0  501    0  0.00000000000E+00  0.00000000000E+00  0.10545143629E+04  0.10545143629E+04  0.50400001928E-02 0. -1.
       -1   -1    0    0    0  501  0.00000000000E+00  0.00000000000E+00 -0.46993461299E+03  0.46993461301E+03  0.50400001928E-02 0.  1.
    10030    2    1    2    0    0  0.00000000000E+00  0.00000000000E+00  0.58457974995E+03  0.15244489760E+04  0.14079102231E+04 0.  0.
        5    1    3    3  502    0 -0.49637516580E+03 -0.48598389819E+03  0.16901491998E+03  0.71495229750E+03  0.46999998093E+01 0.  1.
       -5    1    3    3    0  502  0.49637516580E+03  0.48598389819E+03  0.41556482997E+03  0.80949667846E+03  0.46999998093E+01 0. -1.
</event>
<event>
 5   0  0.1156733E-04  0.2050574E+04  0.7818609E-02  0.8583334E-01
        1   -1    0    0  501    0  0.00000000000E+00  0.00000000000E+00  0.14395466535E+04  0.14395466535E+04  0.50400001928E-02 0. -1.
       -1   -1    0    0    0  501  0.00000000000E+00  0.00000000000E+00 -0.73023933873E+03  0.73023933875E+03  0.50400001928E-02 0.  1.
    10030    2    1    2    0    0  0.00000000000E+00  0.00000000000E+00  0.70930731480E+03  0.21697859923E+04  0.20505741600E+04 0.  0.
        2    1    3    3  502    0 -0.91289519460E+03 -0.43315760806E+03  0.53856986106E+03  0.11450155654E+04  0.25500000920E-02 0.  1.
       -2    1    3    3    0  502  0.91289519460E+03  0.43315760806E+03  0.17073745374E+03  0.10247704269E+04  0.25500000920E-02 0. -1.
</event>
<event>
 5   0  0.2512839E-04  0.2094976E+04  0.7818609E-02  0.8563460E-01
       -2   -1    0    0    0  501  0.00000000000E+00  0.00000000000E+00  0.86635655823E+03  0.86635655823E+03  0.25500000920E-02 0.  1.
        2   -1    0    0  501    0  0.00000000000E+00  0.00000000000E+00 -0.12664896230E+04  0.12664896230E+04  0.25500000920E-02 0. -1.
    10030    2    1    2    0    0  0.00000000000E+00  0.00000000000E+00 -0.40013306476E+03  0.21328461812E+04  0.20949764589E+04 0.  0.
        3    1    3    3  502    0 -0.74390732850E+03  0.64458508089E+03  0.16466003279E+03  0.99799848522E+03  0.10100000352E+00 0. -1.
       -3    1    3    3    0  502  0.74390732850E+03 -0.64458508089E+03 -0.56479309755E+03  0.11348476960E+04  0.10100000352E+00 0.  1.
</event>
<event>
 5   0  0.1042395E-04  0.2068088E+04  0.7818609E-02  0.8575433E-01
        1   -1    0    0  501    0  0.00000000000E+00  0.00000000000E+00  0.15414951883E+04  0.15414951884E+04  0.50400001928E-02 0.  1.
       -1   -1    0    0    0  501  0.00000000000E+00  0.00000000000E+00 -0.69364285404E+03  0.69364285406E+03  0.50400001928E-02 0. -1.
    10030    2    1    2    0    0  0.00000000000E+00  0.00000000000E+00  0.84785233431E+03  0.22351380424E+04  0.20680881238E+04 0.  0.
        3    1    3    3  502    0  0.10179739690E+04 -0.17271864305E+03  0.36332194834E+03  0.10945800928E+04  0.10100000352E+00 0. -1.
       -3    1    3    3    0  502 -0.10179739690E+04  0.17271864305E+03  0.48453038597E+03  0.11405579496E+04  0.10100000352E+00 0.  1.
</event>
<event>
 5   0  0.1042395E-04  0.2048473E+04  0.7818609E-02  0.8584287E-01
        1   -1    0    0  501    0  0.00000000000E+00  0.00000000000E+00  0.15583462224E+04  0.15583462224E+04  0.50400001928E-02 0.  1.
       -1   -1    0    0    0  501  0.00000000000E+00  0.00000000000E+00 -0.67318824459E+03  0.67318824461E+03  0.50400001928E-02 0. -1.
    10030    2    1    2    0    0  0.00000000000E+00  0.00000000000E+00  0.88515797780E+03  0.22315344670E+04  0.20484729512E+04 0.  0.
        3    1    3    3  502    0 -0.98698246210E+03  0.16959655477E+03  0.67663525050E+03  0.12086077297E+04  0.10100000352E+00 0.  1.
       -3    1    3    3    0  502  0.98698246210E+03 -0.16959655477E+03  0.20852272730E+03  0.10229267373E+04  0.10100000352E+00 0. -1.
</event>
<event>
 5   0  0.1042395E-04  0.2139640E+04  0.7818609E-02  0.8543980E-01
        1   -1    0    0  501    0  0.00000000000E+00  0.00000000000E+00  0.96742808044E+03  0.96742808045E+03  0.50400001928E-02 0. -1.
       -1   -1    0    0    0  501  0.00000000000E+00  0.00000000000E+00 -0.11830485815E+04  0.11830485815E+04  0.50400001928E-02 0.  1.
    10030    2    1    2    0    0  0.00000000000E+00  0.00000000000E+00 -0.21562050106E+03  0.21504766620E+04  0.21396396129E+04 0.  0.
        3    1    3    3  502    0 -0.29097977986E+03  0.89528798578E+03 -0.61862117031E+03  0.11264554906E+04  0.10100000352E+00 0.  1.
       -3    1    3    3    0  502  0.29097977986E+03 -0.89528798578E+03  0.40300066925E+03  0.10240211714E+04  0.10100000352E+00 0. -1.
</event>
<event>
 5   0  0.1156733E-04  0.1675094E+04  0.7818609E-02  0.8775698E-01
       -1   -1    0    0    0  501  0.00000000000E+00  0.00000000000E+00  0.13311346523E+04  0.13311346523E+04  0.50400001928E-02 0. -1.
        1   -1    0    0  501    0  0.00000000000E+00  0.00000000000E+00 -0.52698292602E+03  0.52698292604E+03  0.50400001928E-02 0.  1.
    10030    2    1    2    0    0  0.00000000000E+00  0.00000000000E+00  0.80415172628E+03  0.18581175783E+04  0.16750943066E+04 0.  0.
        2    1    3    3  502    0 -0.36226871165E+03 -0.61422545178E+03 -0.85209090439E+02  0.71817276066E+03  0.25500000920E-02 0.  1.
       -2    1    3    3    0  502  0.36226871165E+03  0.61422545178E+03  0.88936081672E+03  0.11399448177E+04  0.25500000920E-02 0. -1.
</event>
<event>
 5   0  0.1186038E-04  0.2186376E+04  0.7818609E-02  0.8524120E-01
       -1   -1    0    0    0  501  0.00000000000E+00  0.00000000000E+00  0.11486057763E+04  0.11486057763E+04  0.50400001928E-02 0. -1.
        1   -1    0    0  501    0  0.00000000000E+00  0.00000000000E+00 -0.10404441043E+04  0.10404441043E+04  0.50400001928E-02 0.  1.
    10030    2    1    2    0    0  0.00000000000E+00  0.00000000000E+00  0.10816167204E+03  0.21890498806E+04  0.21863760958E+04 0.  0.
        4    1    3    3  502    0  0.79758338185E+03 -0.30193456551E+03  0.73884322145E+03  0.11283592742E+04  0.12699999809E+01 0. -1.
       -4    1    3    3    0  502 -0.79758338185E+03  0.30193456551E+03 -0.63068154941E+03  0.10606906064E+04  0.12699999809E+01 0.  1.
</event>
<event>
 5   0  0.1186038E-04  0.2150506E+04  0.7818609E-02  0.8539316E-01
        1   -1    0    0  501    0  0.00000000000E+00  0.00000000000E+00  0.28539822842E+04  0.28539822842E+04  0.50400001928E-02 0. -1.
       -1   -1    0    0    0  501  0.00000000000E+00  0.00000000000E+00 -0.40510720458E+03  0.40510720462E+03  0.50400001928E-02 0.  1.
    10030    2    1    2    0    0  0.00000000000E+00  0.00000000000E+00  0.24488750796E+04  0.32590894888E+04  0.21505057872E+04 0.  0.
        4    1    3    3  502    0 -0.56621299202E+03 -0.83111187291E+03  0.18011702074E+04  0.20629008281E+04  0.12699999809E+01 0. -1.
       -4    1    3    3    0  502  0.56621299202E+03  0.83111187291E+03  0.64770487217E+03  0.11961886607E+04  0.12699999809E+01 0.  1.
</event>
<event>
 5   0  0.2512839E-04  0.2073745E+04  0.7818609E-02  0.8572898E-01
        2   -1    0    0  501    0  0.00000000000E+00  0.00000000000E+00  0.79443076276E+03  0.79443076277E+03  0.25500000920E-02 0.  1.
       -2   -1    0    0    0  501  0.00000000000E+00  0.00000000000E+00 -0.13533018850E+04  0.13533018850E+04  0.25500000920E-02 0. -1.
    10030    2    1    2    0    0  0.00000000000E+00  0.00000000000E+00 -0.55887112222E+03  0.21477326478E+04  0.20737450651E+04 0.  0.
        3    1    3    3  502    0  0.60082048854E+02 -0.10204146294E+04 -0.45956251839E+03  0.11207379654E+04  0.10100000352E+00 0. -1.
       -3    1    3    3    0  502 -0.60082048854E+02  0.10204146294E+04 -0.99308603835E+02  0.10269946824E+04  0.10100000352E+00 0.  1.
</event>
<event>
 5   0  0.2467483E-04  0.2095725E+04  0.7818609E-02  0.8563129E-01
       -2   -1    0    0    0  501  0.00000000000E+00  0.00000000000E+00  0.10601291602E+04  0.10601291602E+04  0.25500000920E-02 0.  1.
        2   -1    0    0  501    0  0.00000000000E+00  0.00000000000E+00 -0.10357376056E+04  0.10357376056E+04  0.25500000920E-02 0. -1.
    10030    2    1    2    0    0  0.00000000000E+00  0.00000000000E+00  0.24391554616E+02  0.20958667658E+04  0.20957248273E+04 0.  0.
        4    1    3    3  502    0  0.86201453603E+03 -0.53606100050E+03  0.27218178336E+03  0.10509590823E+04  0.12699999809E+01 0.  1.
       -4    1    3    3    0  502 -0.86201453603E+03  0.53606100050E+03 -0.24779022875E+03  0.10449076835E+04  0.12699999809E+01 0. -1.
</event>
<event>
 5   0  0.2467483E-04  0.2070189E+04  0.7818609E-02  0.8574490E-01
        2   -1    0    0  501    0  0.00000000000E+00  0.00000000000E+00  0.13865544883E+04  0.13865544883E+04  0.25500000920E-02 0. -1.
       -2   -1    0    0    0  501  0.00000000000E+00  0.00000000000E+00 -0.77272161801E+03  0.77272161801E+03  0.25500000920E-02 0.  1.
    10030    2    1    2    0    0  0.00000000000E+00  0.00000000000E+00  0.61383287026E+03  0.21592761063E+04  0.20701890036E+04 0.  0.
        4    1    3    3  502    0 -0.85265644609E+02  0.10212104806E+04  0.45906328342E+03  0.11228899265E+04  0.12699999809E+01 0.  1.
       -4    1    3    3    0  502  0.85265644609E+02 -0.10212104806E+04  0.15476958684E+03  0.10363861798E+04  0.12699999809E+01 0. -1.
</event>
<event>
 5   0  0.1130848E-04  0.2329504E+04  0.7818609E-02  0.8466378E-01
       -1   -1    0    0    0  501  0.00000000000E+00  0.00000000000E+00  0.98617523090E+03  0.98617523091E+03  0.50400001928E-02 0.  1.
        1   -1    0    0  501    0  0.00000000000E+00  0.00000000000E+00 -0.13756659622E+04  0.13756659622E+04  0.50400001928E-02 0. -1.
    10030    2    1    2    0    0  0.00000000000E+00  0.00000000000E+00 -0.38949073130E+03  0.23618411931E+04  0.23295044090E+04 0.  0.
        5    1    3    3  502    0 -0.54960000328E+02 -0.87537665072E+03  0.58226143425E+03  0.10527845696E+04  0.46999998093E+01 0.  1.
       -5    1    3    3    0  502  0.54960000328E+02  0.87537665072E+03 -0.97175216555E+03  0.13090566235E+04  0.46999998093E+01 0. -1.
</event>
<event>
 5   0  0.1042395E-04  0.2052746E+04  0.7818609E-02  0.8582350E-01
        1   -1    0    0  501    0  0.00000000000E+00  0.00000000000E+00  0.74118113314E+03  0.74118113316E+03  0.50400001928E-02 0. -1.
       -1   -1    0    0    0  501  0.00000000000E+00  0.00000000000E+00 -0.14213009142E+04  0.14213009142E+04  0.50400001928E-02 0.  1.
    10030    2    1    2    0    0  0.00000000000E+00  0.00000000000E+00 -0.68011978106E+03  0.21624820474E+04  0.20527458899E+04 0.  0.
        3    1    3    3  502    0  0.75166501458E+03 -0.20847832766E+03  0.36266695186E+03  0.86022719988E+03  0.10100000352E+00 0. -1.
       -3    1    3    3    0  502 -0.75166501458E+03  0.20847832766E+03 -0.10427867329E+04  0.13022548475E+04  0.10100000352E+00 0.  1.
</event>
<event>
 5   0  0.2467483E-04  0.2095553E+04  0.7818609E-02  0.8563205E-01
       -2   -1    0    0    0  501  0.00000000000E+00  0.00000000000E+00  0.94334687989E+03  0.94334687989E+03  0.25500000920E-02 0. -1.
        2   -1    0    0  501    0  0.00000000000E+00  0.00000000000E+00 -0.11637667376E+04  0.11637667376E+04  0.25500000920E-02 0.  1.
    10030    2    1    2    0    0  0.00000000000E+00  0.00000000000E+00 -0.22041985772E+03  0.21071136175E+04  0.20955531211E+04 0.  0.
        4    1    3    3  502    0  0.44264923854E+01  0.77004896794E+03  0.60423008751E+03  0.97882103492E+03  0.12699999809E+01 0. -1.
       -4    1    3    3    0  502 -0.44264923854E+01 -0.77004896794E+03 -0.82464994522E+03  0.11282925826E+04  0.12699999809E+01 0.  1.
</event>
<event>
 5   0  0.2579241E-04  0.2058970E+04  0.7818609E-02  0.8579536E-01
       -2   -1    0    0    0  501  0.00000000000E+00  0.00000000000E+00  0.13066297033E+04  0.13066297033E+04  0.25500000920E-02 0.  1.
        2   -1    0    0  501    0  0.00000000000E+00  0.00000000000E+00 -0.81112421911E+03  0.81112421911E+03  0.25500000920E-02 0. -1.
    10030    2    1    2    0    0  0.00000000000E+00  0.00000000000E+00  0.49550548414E+03  0.21177539224E+04  0.20589696430E+04 0.  0.
        5    1    3    3  502    0 -0.93829843028E+03 -0.28279367405E+03  0.57209806567E+03  0.11347662724E+04  0.46999998093E+01 0.  1.
       -5    1    3    3    0  502  0.93829843028E+03  0.28279367405E+03 -0.76592581525E+02  0.98298764992E+03  0.46999998093E+01 0. -1.
</event>
<event>
 5   0  0.1130848E-04  0.2202383E+04  0.7818609E-02  0.8517437E-01
       -1   -1    0    0    0  501  0.00000000000E+00  0.00000000000E+00  0.13057001284E+04  0.13057001284E+04  0.50400001928E-02 0. -1.
        1   -1    0    0  501    0  0.00000000000E+00  0.00000000000E+00 -0.92871440926E+03  0.92871440927E+03  0.50400001928E-02 0.  1.
    10030    2    1    2    0    0  0.00000000000E+00  0.00000000000E+00  0.37698571915E+03  0.22344145377E+04  0.22023828218E+04 0.  0.
        5    1    3    3  502    0 -0.29240828200E+02 -0.94123262230E+03 -0.39062129200E+03  0.10195003478E+04  0.46999998093E+01 0. -1.
       -5    1    3    3    0  502  0.29240828200E+02  0.94123262230E+03  0.76760701115E+03  0.12149141899E+04  0.46999998093E+01 0.  1.
</event>
<event>
 5   0  0.1042395E-04  0.2109114E+04  0.7818609E-02  0.8557239E-01
       -1   -1    0    0    0  501  0.00000000000E+00  0.00000000000E+00  0.70866938429E+03  0.70866938431E+03  0.50400001928E-02 0. -1.
        1   -1    0    0  501    0  0.00000000000E+00  0.00000000000E+00 -0.15692658276E+04  0.15692658276E+04  0.50400001928E-02 0.  1.
    10030    2    1    2    0    0  0.00000000000E+00  0.00000000000E+00 -0.86059644333E+03  0.22779352119E+04  0.21091141722E+04 0.  0.
        3    1    3    3  502    0  0.89437287055E+03  0.37960653209E+03  0.12502108954E+02  0.97167909503E+03  0.10100000352E+00 0. -1.
       -3    1    3    3    0  502 -0.89437287055E+03 -0.37960653209E+03 -0.87309855228E+03  0.13062561169E+04  0.10100000352E+00 0.  1.
</event>
<event>
 5   0  0.2448804E-04  0.1988633E+04  0.7818609E-02  0.8611954E-01
        2   -1    0    0  501    0  0.00000000000E+00  0.00000000000E+00  0.95364340913E+03  0.95364340913E+03  0.25500000920E-02 0. -1.
       -2   -1    0    0    0  501  0.00000000000E+00  0.00000000000E+00 -0.10367242257E+04  0.10367242257E+04  0.25500000920E-02 0.  1.
    10030    2    1    2    0    0  0.00000000000E+00  0.00000000000E+00 -0.83080816530E+02  0.19903676348E+04  0.19886329223E+04 0.  0.
        2    1    3    3  502    0 -0.79747776388E+03  0.59094904794E+03  0.17448799489E+02  0.99272152276E+03  0.25500000920E-02 0. -1.
       -2    1    3    3    0  502  0.79747776388E+03 -0.59094904794E+03 -0.10052961602E+03  0.99764611203E+03  0.25500000920E-02 0.  1.
</event>
<event>
 5   0  0.2579241E-04  0.2235950E+04  0.7818609E-02  0.8503612E-01
       -2   -1    0    0    0  501  0.00000000000E+00  0.00000000000E+00  0.71452777897E+03  0.71452777898E+03  0.25500000920E-02 0.  1.
        2   -1    0    0  501    0  0.00000000000E+00  0.00000000000E+00 -0.17492229713E+04  0.17492229713E+04  0.25500000920E-02 0. -1.
    10030    2    1    2    0    0  0.00000000000E+00  0.00000000000E+00 -0.10346951923E+04  0.24637507503E+04  0.22359502719E+04 0.  0.
        5    1    3    3  502    0  0.34907155530E+03 -0.83644533383E+03  0.20382020835E+03  0.92900835009E+03  0.46999998093E+01 0.  1.
       -5    1    3    3    0  502 -0.34907155530E+03  0.83644533383E+03 -0.12385154007E+04  0.15347424002E+04  0.46999998093E+01 0. -1.
</event>
<event>
 5   0  0.2430898E-04  0.2182452E+04  0.7818609E-02  0.8525768E-01
        2   -1    0    0  501    0  0.00000000000E+00  0.00000000000E+00  0.24174835185E+04  0.24174835185E+04  0.25500000920E-02 0. -1.
       -2   -1    0    0    0  501  0.00000000000E+00  0.00000000000E+00 -0.49256756349E+03  0.49256756350E+03  0.25500000920E-02 0.  1.
    10030    2    1    2    0    0  0.00000000000E+00  0.00000000000E+00  0.19249159550E+04  0.29100510820E+04  0.21824518015E+04 0.  0.
        1    1    3    3  502    0  0.93395500894E+02 -0.80483657937E+03 -0.12181954188E+02  0.81032896969E+03  0.50400001928E-02 0.  1.
       -1    1    3    3    0  502 -0.93395500894E+02  0.80483657937E+03  0.19370979092E+04  0.20997221123E+04  0.50400001928E-02 0. -1.
</event>
<event>
 5   0  0.2467483E-04  0.2152856E+04  0.7818609E-02  0.8538311E-01
        2   -1    0    0  501    0  0.00000000000E+00  0.00000000000E+00  0.10128799934E+04  0.10128799934E+04  0.25500000920E-02 0. -1.
       -2   -1    0    0    0  501  0.00000000000E+00  0.00000000000E+00 -0.11439625147E+04  0.11439625147E+04  0.25500000920E-02 0.  1.
    10030    2    1    2    0    0  0.00000000000E+00  0.00000000000E+00 -0.13108252131E+03  0.21568425081E+04  0.21528555403E+04 0.  0.
        4    1    3    3  502    0 -0.99250236732E+03  0.23301754810E+03 -0.41163290284E+03  0.10994550407E+04  0.12699999809E+01 0.  1.
       -4    1    3    3    0  502  0.99250236732E+03 -0.23301754810E+03  0.28055038153E+03  0.10573874675E+04  0.12699999809E+01 0. -1.
</event>
<event>
 5   0  0.2579241E-04  0.2115806E+04  0.7818609E-02  0.8554312E-01
        2   -1    0    0  501    0  0.00000000000E+00  0.00000000000E+00  0.15514932039E+04  0.15514932039E+04  0.25500000920E-02 0.  1.
       -2   -1    0    0    0  501  0.00000000000E+00  0.00000000000E+00 -0.72134328871E+03  0.72134328871E+03  0.25500000920E-02 0. -1.
    10030    2    1    2    0    0  0.00000000000E+00  0.00000000000E+00  0.83014991523E+03  0.22728364926E+04  0.21158064280E+04 0.  0.
        5    1    3    3  502    0 -0.63171595477E+03  0.33461782096E+03  0.12527601330E+04  0.14423814248E+04  0.46999998093E+01 0.  1.
       -5    1    3    3    0  502  0.63171595477E+03 -0.33461782096E+03 -0.42261021778E+03  0.83045506789E+03  0.46999998093E+01 0. -1.
</event>
<event>
 5   0  0.2512839E-04  0.2084527E+04  0.7818609E-02  0.8568090E-01
        2   -1    0    0  501    0  0.00000000000E+00  0.00000000000E+00  0.12426622818E+04  0.12426622818E+04  0.25500000920E-02 0. -1.
       -2   -1    0    0    0  501  0.00000000000E+00  0.00000000000E+00 -0.87418221830E+03  0.87418221831E+03  0.25500000920E-02 0.  1.
    10030    2    1    2    0    0  0.00000000000E+00  0.00000000000E+00  0.36848006352E+03  0.21168445001E+04  0.20845270640E+04 0.  0.
        3    1    3    3  502    0  0.14378643236E+03 -0.87937821227E+03  0.73330040856E+03  0.11539974340E+04  0.10100000352E+00 0. -1.
       -3    1    3    3    0  502 -0.14378643236E+03  0.87937821227E+03 -0.36482034505E+03  0.96284706610E+03  0.10100000352E+00 0.  1.
</event>
<event>
 5   0  0.1186038E-04  0.2094432E+04  0.7818609E-02  0.8563700E-01
        1   -1    0    0  501    0  0.00000000000E+00  0.00000000000E+00  0.10991905487E+04  0.10991905487E+04  0.50400001928E-02 0.  1.
       -1   -1    0    0    0  501  0.00000000000E+00  0.00000000000E+00 -0.99769945260E+03  0.99769945262E+03  0.50400001928E-02 0. -1.
    10030    2    1    2    0    0  0.00000000000E+00  0.00000000000E+00  0.10149109613E+03  0.20968900014E+04  0.20944324375E+04 0.  0.
        4    1    3    3  502    0  0.31600945739E+03  0.49400508911E+03 -0.81788830267E+03  0.10064024512E+04  0.12699999809E+01 0. -1.
       -4    1    3    3    0  502 -0.31600945739E+03 -0.49400508911E+03  0.91937939880E+03  0.10904875502E+04  0.12699999809E+01 0.  1.
</event>
<event>
 5   0  0.2579241E-04  0.2078810E+04  0.7818609E-02  0.8570636E-01
        2   -1    0    0  501    0  0.00000000000E+00  0.00000000000E+00  0.12480872876E+04  0.12480872876E+04  0.25500000920E-02 0.  1.
       -2   -1    0    0    0  501  0.00000000000E+00  0.00000000000E+00 -0.86561442897E+03  0.86561442897E+03  0.25500000920E-02 0. -1.
    10030    2    1    2    0    0  0.00000000000E+00  0.00000000000E+00  0.38247285861E+03  0.21137017166E+04  0.20788096255E+04 0.  0.
        5    1    3    3  502    0  0.33199727417E+03 -0.93413456340E+03 -0.12627190009E+03  0.99939794644E+03  0.46999998093E+01 0. -1.
       -5    1    3    3    0  502 -0.33199727417E+03  0.93413456340E+03  0.50874475870E+03  0.11143037701E+04  0.46999998093E+01 0.  1.
</event>
<event>
 5   0  0.1130848E-04  0.2094702E+04  0.7818609E-02  0.8563581E-01
        1   -1    0    0  501    0  0.00000000000E+00  0.00000000000E+00  0.20073216339E+04  0.20073216339E+04  0.50400001928E-02 0.  1.
       -1   -1    0    0    0  501  0.00000000000E+00  0.00000000000E+00 -0.54647154915E+03  0.54647154918E+03  0.50400001928E-02 0. -1.
    10030    2    1    2    0    0  0.00000000000E+00  0.00000000000E+00  0.14608500847E+04  0.25537931831E+04  0.20947020437E+04 0.  0.
        5    1    3    3  502    0 -0.50875651074E+03 -0.30421410061E+03 -0.32226306924E+03  0.67472585694E+03  0.46999998093E+01 0. -1.
       -5    1    3    3    0  502  0.50875651074E+03  0.30421410061E+03  0.17831131540E+04  0.18790673261E+04  0.46999998093E+01 0.  1.
</event>
<event>
 5   0  0.1130848E-04  0.2108507E+04  0.7818609E-02  0.8557505E-01
       -1   -1    0    0    0  501  0.00000000000E+00  0.00000000000E+00  0.15075356682E+04  0.15075356682E+04  0.50400001928E-02 0. -1.
        1   -1    0    0  501    0  0.00000000000E+00  0.00000000000E+00 -0.73726285223E+03  0.73726285224E+03  0.50400001928E-02 0.  1.
    10030    2    1    2    0    0  0.00000000000E+00  0.00000000000E+00  0.77027281594E+03  0.22447985204E+04  0.21085066247E+04 0.  0.
        5    1    3    3  502    0  0.40138767774E+03  0.87386529046E+03 -0.74850929300E+02  0.96456071107E+03  0.46999998093E+01 0.  1.
       -5    1    3    3    0  502 -0.40138767774E+03 -0.87386529046E+03  0.84512374524E+03  0.12802378093E+04  0.46999998093E+01 0. -1.
</event>
<event>
 5   0  0.1130848E-04  0.1977959E+04  0.7818609E-02  0.8616995E-01
       -1   -1    0    0    0  501  0.00000000000E+00  0.00000000000E+00  0.82521026216E+03  0.82521026217E+03  0.50400001928E-02 0.  1.
        1   -1    0    0  501    0  0.00000000000E+00  0.00000000000E+00 -0.11852502699E+04  0.11852502700E+04  0.50400001928E-02 0. -1.
    10030    2    1    2    0    0  0.00000000000E+00  0.00000000000E+00 -0.36004000779E+03  0.20104605321E+04  0.19779592372E+04 0.  0.
        5    1    3    3  502    0 -0.66075669528E+03 -0.22228547968E+03  0.53296780653E+03  0.87754602023E+03  0.46999998093E+01 0.  1.
       -5    1    3    3    0  502  0.66075669528E+03  0.22228547968E+03 -0.89300781432E+03  0.11329145119E+04  0.46999998093E+01 0. -1.
</event>
<event>
 5   0  0.1122711E-04  0.1751964E+04  0.7818609E-02  0.8732270E-01
       -1   -1    0    0    0  501  0.00000000000E+00  0.00000000000E+00  0.57316192040E+03  0.57316192042E+03  0.50400001928E-02 0.  1.
        1   -1    0    0  501    0  0.00000000000E+00  0.00000000000E+00 -0.13387923322E+04  0.13387923322E+04  0.50400001928E-02 0. -1.
    10030    2    1    2    0    0  0.00000000000E+00  0.00000000000E+00 -0.76563041175E+03  0.19119542526E+04  0.17519643651E+04 0.  0.
        1    1    3    3  502    0 -0.76183126858E+02 -0.74144483039E+03  0.11942988102E+03  0.75485614645E+03  0.50400001928E-02 0.  1.
       -1    1    3    3    0  502  0.76183126858E+02  0.74144483039E+03 -0.88506029278E+03  0.11570981061E+04  0.50400001928E-02 0. -1.
</event>
<event>
 5   0  0.2512839E-04  0.2126781E+04  0.7818609E-02  0.8549537E-01
        2   -1    0    0  501    0  0.00000000000E+00  0.00000000000E+00  0.25643545052E+04  0.25643545052E+04  0.25500000920E-02 0.  1.
       -2   -1    0    0    0  501  0.00000000000E+00  0.00000000000E+00 -0.44096846266E+03  0.44096846266E+03  0.25500000920E-02 0. -1.
    10030    2    1    2    0    0  0.00000000000E+00  0.00000000000E+00  0.21233860426E+04  0.30053229679E+04  0.21267811019E+04 0.  0.
        3    1    3    3  502    0  0.49069886334E+03 -0.41793289982E+03 -0.13346817985E+03  0.65823023971E+03  0.10100000352E+00 0. -1.
       -3    1    3    3    0  502 -0.49069886334E+03  0.41793289982E+03  0.22568542224E+04  0.23470927282E+04  0.10100000352E+00 0.  1.
</event>
<event>
 5   0  0.1156733E-04  0.2133788E+04  0.7818609E-02  0.8546504E-01
        1   -1    0    0  501    0  0.00000000000E+00  0.00000000000E+00  0.12193736238E+04  0.12193736238E+04  0.50400001928E-02 0.  1.
       -1   -1    0    0    0  501  0.00000000000E+00  0.00000000000E+00 -0.93348165139E+03  0.93348165140E+03  0.50400001928E-02 0. -1.
    10030    2    1    2    0    0  0.00000000000E+00  0.00000000000E+00  0.28589197244E+03  0.21528552752E+04  0.21337880908E+04 0.  0.
        2    1    3    3  502    0 -0.79491928322E+03 -0.68609889341E+03 -0.47511988451E+02  0.10511354563E+04  0.25500000920E-02 0. -1.
       -2    1    3    3    0  502  0.79491928322E+03  0.68609889341E+03  0.33340396089E+03  0.11017198190E+04  0.25500000920E-02 0.  1.
</event>
<event>
 5   0  0.1186038E-04  0.2004378E+04  0.7818609E-02  0.8604577E-01
       -1   -1    0    0    0  501  0.00000000000E+00  0.00000000000E+00  0.38754989834E+03  0.38754989837E+03  0.50400001928E-02 0.  1.
        1   -1    0    0  501    0  0.00000000000E+00  0.00000000000E+00 -0.25916217968E+04  0.25916217968E+04  0.50400001928E-02 0. -1.
    10030    2    1    2    0    0  0.00000000000E+00  0.00000000000E+00 -0.22040718985E+04  0.29791716952E+04  0.20043779723E+04 0.  0.
        4    1    3    3  502    0  0.86784523230E+03  0.37935052757E+03 -0.15889521022E+04  0.18498196037E+04  0.12699999809E+01 0.  1.
       -4    1    3    3    0  502 -0.86784523230E+03 -0.37935052757E+03 -0.61511979621E+03  0.11293520915E+04  0.12699999809E+01 0. -1.
</event>
<event>
 5   0  0.2448804E-04  0.1837877E+04  0.7818609E-02  0.8686412E-01
       -2   -1    0    0    0  501  0.00000000000E+00  0.00000000000E+00  0.73197670715E+03  0.73197670716E+03  0.25500000920E-02 0.  1.
        2   -1    0    0  501    0  0.00000000000E+00  0.00000000000E+00 -0.11536546487E+04  0.11536546487E+04  0.25500000920E-02 0. -1.
    10030    2    1    2    0    0  0.00000000000E+00  0.00000000000E+00 -0.42167794153E+03  0.18856313558E+04  0.18378773963E+04 0.  0.
        2    1    3    3  502    0  0.70755207400E+02 -0.91620061291E+03 -0.21524812975E+03  0.94380168459E+03  0.25500000920E-02 0. -1.
       -2    1    3    3    0  502 -0.70755207400E+02  0.91620061291E+03 -0.20642981178E+03  0.94182967126E+03  0.25500000920E-02 0.  1.
</event>
<event>
 5   0  0.2448804E-04  0.2092974E+04  0.7818609E-02  0.8564345E-01
        2   -1    0    0  501    0  0.00000000000E+00  0.00000000000E+00  0.95219833291E+03  0.95219833291E+03  0.25500000920E-02 0.  1.
       -2   -1    0    0    0  501  0.00000000000E+00  0.00000000000E+00 -0.11501121195E+04  0.11501121195E+04  0.25500000920E-02 0. -1.
    10030    2    1    2    0    0  0.00000000000E+00  0.00000000000E+00 -0.19791378662E+03  0.21023104524E+04  0.20929738105E+04 0.  0.
        2    1    3    3  502    0  0.54190494953E+03  0.87720885884E+03 -0.27857991930E+03  0.10680651327E+04  0.25500000920E-02 0. -1.
       -2    1    3    3    0  502 -0.54190494953E+03 -0.87720885884E+03  0.80666132675E+02  0.10342453197E+04  0.25500000920E-02 0.  1.
</event>
<event>
 5   0  0.1122711E-04  0.2083434E+04  0.7818609E-02  0.8568576E-01
       -1   -1    0    0    0  501  0.00000000000E+00  0.00000000000E+00  0.89479788007E+03  0.89479788009E+03  0.50400001928E-02 0. -1.
        1   -1    0    0  501    0  0.00000000000E+00  0.00000000000E+00 -0.12127595447E+04  0.12127595447E+04  0.50400001928E-02 0.  1.
    10030    2    1    2    0    0  0.00000000000E+00  0.00000000000E+00 -0.31796166466E+03  0.21075574248E+04  0.20834343471E+04 0.  0.
        1    1    3    3  502    0  0.35389079304E+03 -0.46011381048E+01  0.83211566731E+03  0.90425458123E+03  0.50400001928E-02 0. -1.
       -1    1    3    3    0  502 -0.35389079304E+03  0.46011381048E+01 -0.11500773320E+04  0.12033028436E+04  0.50400001928E-02 0.  1.
</event>
<event>
 5   0  0.2579241E-04  0.2096267E+04  0.7818609E-02  0.8562890E-01
       -2   -1    0    0    0  501  0.00000000000E+00  0.00000000000E+00  0.74745750028E+03  0.74745750028E+03  0.25500000920E-02 0. -1.
        2   -1    0    0  501    0  0.00000000000E+00  0.00000000000E+00 -0.14697605635E+04  0.14697605635E+04  0.25500000920E-02 0.  1.
    10030    2    1    2    0    0  0.00000000000E+00  0.00000000000E+00 -0.72230306326E+03  0.22172180638E+04  0.20962667357E+04 0.  0.
        5    1    3    3  502    0  0.84038371503E+03  0.61719101173E+03 -0.47404286006E+03  0.11453856366E+04  0.46999998093E+01 0. -1.
       -5    1    3    3    0  502 -0.84038371503E+03 -0.61719101173E+03 -0.24826020320E+03  0.10718324272E+04  0.46999998093E+01 0.  1.
</event>
<event>
 5   0  0.1042395E-04  0.2150623E+04  0.7818609E-02  0.8539265E-01
        1   -1    0    0  501    0  0.00000000000E+00  0.00000000000E+00  0.24483968530E+04  0.24483968531E+04  0.50400001928E-02 0. -1.
       -1   -1    0    0    0  501  0.00000000000E+00  0.00000000000E+00 -0.47226629090E+03  0.47226629093E+03  0.50400001928E-02 0.  1.
    10030    2    1    2    0    0  0.00000000000E+00  0.00000000000E+00  0.19761305621E+04  0.29206631440E+04  0.21506234449E+04 0.  0.
        3    1    3    3  502    0 -0.36970311335E+03  0.44309245643E+03  0.22202956982E+04  0.22940628401E+04  0.10100000352E+00 0. -1.
       -3    1    3    3    0  502  0.36970311335E+03 -0.44309245643E+03 -0.24416513600E+03  0.62660030387E+03  0.10100000352E+00 0.  1.
</event>
<event>
 5   0  0.2467483E-04  0.2143518E+04  0.7818609E-02  0.8542312E-01
       -2   -1    0    0    0  501  0.00000000000E+00  0.00000000000E+00  0.11339484791E+04  0.11339484791E+04  0.25500000920E-02 0.  1.
        2   -1    0    0  501    0  0.00000000000E+00  0.00000000000E+00 -0.10129802567E+04  0.10129802567E+04  0.25500000920E-02 0. -1.
    10030    2    1    2    0    0  0.00000000000E+00  0.00000000000E+00  0.12096822235E+03  0.21469287358E+04  0.21435180628E+04 0.  0.
        4    1    3    3  502    0 -0.85196294090E+03 -0.65023557543E+03  0.56158407238E+02  0.10732206371E+04  0.12699999809E+01 0.  1.
       -4    1    3    3    0  502  0.85196294090E+03  0.65023557543E+03  0.64809815112E+02  0.10737080987E+04  0.12699999809E+01 0. -1.
</event>
<event>
 5   0  0.1156733E-04  0.2098606E+04  0.7818609E-02  0.8561858E-01
        1   -1    0    0  501    0  0.00000000000E+00  0.00000000000E+00  0.11927742508E+04  0.11927742508E+04  0.50400001928E-02 0. -1.
       -1   -1    0    0    0  501  0.00000000000E+00  0.00000000000E+00 -0.92308920080E+03  0.92308920081E+03  0.50400001928E-02 0.  1.
    10030    2    1    2    0    0  0.00000000000E+00  0.00000000000E+00  0.26968504999E+03  0.21158634516E+04  0.20986062326E+04 0.  0.
        2    1    3    3  502    0  0.82673001529E+03  0.10756711224E+03 -0.50756563034E+03  0.97605126450E+03  0.25500000920E-02 0.  1.
       -2    1    3    3    0  502 -0.82673001529E+03 -0.10756711224E+03  0.77725068033E+03  0.11398121871E+04  0.25500000920E-02 0. -1.
</event>
<event>
 5   0  0.1042395E-04  0.2114408E+04  0.7818609E-02  0.8554923E-01
        1   -1    0    0  501    0  0.00000000000E+00  0.00000000000E+00  0.22586622970E+04  0.22586622970E+04  0.50400001928E-02 0.  1.
       -1   -1    0    0    0  501  0.00000000000E+00  0.00000000000E+00 -0.49484153847E+03  0.49484153850E+03  0.50400001928E-02 0. -1.
    10030    2    1    2    0    0  0.00000000000E+00  0.00000000000E+00  0.17638207585E+04  0.27535038355E+04  0.21144076485E+04 0.  0.
        3    1    3    3  502    0 -0.61609927593E+03 -0.69328849574E+03  0.15426732876E+04  0.18000189273E+04  0.10100000352E+00 0.  1.
       -3    1    3    3    0  502  0.61609927593E+03  0.69328849574E+03  0.22114747094E+03  0.95348490823E+03  0.10100000352E+00 0. -1.
</event>
<event>
 5   0  0.1122711E-04  0.1067580E+04  0.7818609E-02  0.9237380E-01
       -1   -1    0    0    0  501  0.00000000000E+00  0.00000000000E+00  0.39520852891E+03  0.39520852894E+03  0.50400001928E-02 0. -1.
        1   -1    0    0  501    0  0.00000000000E+00  0.00000000000E+00 -0.72096509780E+03  0.72096509782E+03  0.50400001928E-02 0.  1.
    10030    2    1    2    0    0  0.00000000000E+00  0.00000000000E+00 -0.32575656889E+03  0.11161736268E+04  0.10675796096E+04 0.  0.
        1    1    3    3  502    0  0.44207688534E+03  0.18126832563E+03 -0.41170579169E+03  0.63070741027E+03  0.50400001928E-02 0.  1.
       -1    1    3    3    0  502 -0.44207688534E+03 -0.18126832563E+03  0.85949222800E+02  0.48546621649E+03  0.50400001928E-02 0. -1.
</event>
<event>
 5   0  0.1042395E-04  0.2069694E+04  0.7818609E-02  0.8574712E-01
        1   -1    0    0  501    0  0.00000000000E+00  0.00000000000E+00  0.16741184151E+04  0.16741184151E+04  0.50400001928E-02 0. -1.
       -1   -1    0    0    0  501  0.00000000000E+00  0.00000000000E+00 -0.63968523075E+03  0.63968523077E+03  0.50400001928E-02 0.  1.
    10030    2    1    2    0    0  0.00000000000E+00  0.00000000000E+00  0.10344331844E+04  0.23138036459E+04  0.20696944941E+04 0.  0.
        3    1    3    3  502    0 -0.52644530144E+03 -0.52992092895E+03 -0.28345959734E+03  0.79894317687E+03  0.10100000352E+00 0.  1.
       -3    1    3    3    0  502  0.52644530144E+03  0.52992092895E+03  0.13178927817E+04  0.15148604690E+04  0.10100000352E+00 0. -1.
</event>
<event>
 5   0  0.2467483E-04  0.2352655E+04  0.7818609E-02  0.8457445E-01
        2   -1    0    0  501    0  0.00000000000E+00  0.00000000000E+00  0.20541664481E+04  0.20541664481E+04  0.25500000920E-02 0. -1.
       -2   -1    0    0    0  501  0.00000000000E+00  0.00000000000E+00 -0.67362905742E+03  0.67362905742E+03  0.25500000920E-02 0.  1.
    10030    2    1    2    0    0  0.00000000000E+00  0.00000000000E+00  0.13805373907E+04  0.27277955055E+04  0.23526548478E+04 0.  0.
        4    1    3    3  502    0  0.35586250879E+03  0.89847476413E+03  0.14679241919E+04  0.17574692239E+04  0.12699999809E+01 0. -1.
       -4    1    3    3    0  502 -0.35586250879E+03 -0.89847476413E+03 -0.87386801179E+02  0.97032628165E+03  0.12699999809E+01 0.  1.
</event>
<event>
 5   0  0.2430898E-04  0.2119703E+04  0.7818609E-02  0.8552613E-01
       -2   -1    0    0    0  501  0.00000000000E+00  0.00000000000E+00  0.16221192650E+04  0.16221192650E+04  0.25500000920E-02 0. -1.
        2   -1    0    0  501    0  0.00000000000E+00  0.00000000000E+00 -0.69247996239E+03  0.69247996240E+03  0.25500000920E-02 0.  1.
    10030    2    1    2    0    0  0.00000000000E+00  0.00000000000E+00  0.92963930264E+03  0.23145992274E+04  0.21197028921E+04 0.  0.
        1    1    3    3  502    0 -0.89450946724E+03  0.33920550839E+03  0.96291604443E+03  0.13573558386E+04  0.50400001928E-02 0.  1.
       -1    1    3    3    0  502  0.89450946724E+03 -0.33920550839E+03 -0.33276741794E+02  0.95724338884E+03  0.50400001928E-02 0. -1.
</event>
<event>
 5   0  0.1156733E-04  0.2061311E+04  0.7818609E-02  0.8578480E-01
        1   -1    0    0  501    0  0.00000000000E+00  0.00000000000E+00  0.12700065506E+04  0.12700065506E+04  0.50400001928E-02 0.  1.
       -1   -1    0    0    0  501  0.00000000000E+00  0.00000000000E+00 -0.83641340778E+03  0.83641340780E+03  0.50400001928E-02 0. -1.
    10030    2    1    2    0    0  0.00000000000E+00  0.00000000000E+00  0.43359314281E+03  0.21064199584E+04  0.20613107548E+04 0.  0.
        2    1    3    3  502    0 -0.21635918968E+03 -0.40566901806E+03 -0.72581674605E+03  0.85917902676E+03  0.25500000920E-02 0. -1.
       -2    1    3    3    0  502  0.21635918968E+03  0.40566901806E+03  0.11594098889E+04  0.12472409316E+04  0.25500000920E-02 0.  1.
</event>
<event>
 5   0  0.1156733E-04  0.2128034E+04  0.7818609E-02  0.8548994E-01
        1   -1    0    0  501    0  0.00000000000E+00  0.00000000000E+00  0.57337870954E+03  0.57337870956E+03  0.50400001928E-02 0.  1.
       -1   -1    0    0    0  501  0.00000000000E+00  0.00000000000E+00 -0.19744920454E+04  0.19744920455E+04  0.50400001928E-02 0. -1.
    10030    2    1    2    0    0  0.00000000000E+00  0.00000000000E+00 -0.14011133359E+04  0.25478707550E+04  0.21280335534E+04 0.  0.
        2    1    3    3  502    0 -0.24527650169E+03  0.97386494561E+03 -0.11214138282E+04  0.15053712062E+04  0.25500000920E-02 0.  1.
       -2    1    3    3    0  502  0.24527650169E+03 -0.97386494561E+03 -0.27969950775E+03  0.10424995488E+04  0.25500000920E-02 0. -1.
</event>
<event>
 5   0  0.1130848E-04  0.1967566E+04  0.7818609E-02  0.8621937E-01
       -1   -1    0    0    0  501  0.00000000000E+00  0.00000000000E+00  0.75673407591E+03  0.75673407593E+03  0.50400001928E-02 0.  1.
        1   -1    0    0  501    0  0.00000000000E+00  0.00000000000E+00 -0.12789545941E+04  0.12789545941E+04  0.50400001928E-02 0. -1.
    10030    2    1    2    0    0  0.00000000000E+00  0.00000000000E+00 -0.52222051821E+03  0.20356886701E+04  0.19675655241E+04 0.  0.
        5    1    3    3  502    0  0.65965683424E+03 -0.64026631607E+03  0.10133038089E+03  0.92486649336E+03  0.46999998093E+01 0.  1.
       -5    1    3    3    0  502 -0.65965683424E+03  0.64026631607E+03 -0.62355089910E+03  0.11108221767E+04  0.46999998093E+01 0. -1.
</event>
<event>
 5   0  0.2467483E-04  0.2153545E+04  0.7818609E-02  0.8538016E-01
       -2   -1    0    0    0  501  0.00000000000E+00  0.00000000000E+00  0.85571829832E+03  0.85571829833E+03  0.25500000920E-02 0.  1.
        2   -1    0    0  501    0  0.00000000000E+00  0.00000000000E+00 -0.13549307909E+04  0.13549307909E+04  0.25500000920E-02 0. -1.
    10030    2    1    2    0    0  0.00000000000E+00  0.00000000000E+00 -0.49921249255E+03  0.22106490892E+04  0.21535450501E+04 0.  0.
        4    1    3    3  502    0  0.41636896405E+03  0.93248070993E+03  0.10084658154E+03  0.10261846981E+04  0.12699999809E+01 0. -1.
       -4    1    3    3    0  502 -0.41636896405E+03 -0.93248070993E+03 -0.60005907409E+03  0.11844643912E+04  0.12699999809E+01 0.  1.
</event>
<event>
 5   0  0.1042395E-04  0.1984640E+04  0.7818609E-02  0.8613836E-01
       -1   -1    0    0    0  501  0.00000000000E+00  0.00000000000E+00  0.18192633264E+04  0.18192633264E+04  0.50400001928E-02 0. -1.
        1   -1    0    0  501    0  0.00000000000E+00  0.00000000000E+00 -0.54126256892E+03  0.54126256895E+03  0.50400001928E-02 0.  1.
    10030    2    1    2    0    0  0.00000000000E+00  0.00000000000E+00  0.12780007575E+04  0.23605258953E+04  0.19846401605E+04 0.  0.
        3    1    3    3  502    0  0.85928364159E+03 -0.48741649127E+03  0.75029594299E+03  0.12405189337E+04  0.10100000352E+00 0. -1.
       -3    1    3    3    0  502 -0.85928364159E+03  0.48741649127E+03  0.52770481447E+03  0.11200069616E+04  0.10100000352E+00 0.  1.
</event>
<event>
 5   0  0.2467483E-04  0.2120712E+04  0.7818609E-02  0.8552174E-01
       -2   -1    0    0    0  501  0.00000000000E+00  0.00000000000E+00  0.90616178337E+03  0.90616178337E+03  0.25500000920E-02 0.  1.
        2   -1    0    0  501    0  0.00000000000E+00  0.00000000000E+00 -0.12407878068E+04  0.12407878068E+04  0.25500000920E-02 0. -1.
    10030    2    1    2    0    0  0.00000000000E+00  0.00000000000E+00 -0.33462602347E+03  0.21469495902E+04  0.21207116653E+04 0.  0.
        4    1    3    3  502    0  0.73887146287E+03  0.34244435894E+03 -0.85479776578E+03  0.11806269567E+04  0.12699999809E+01 0. -1.
       -4    1    3    3    0  502 -0.73887146287E+03 -0.34244435894E+03  0.52017174231E+03  0.96632263350E+03  0.12699999809E+01 0.  1.
</event>
<event>
 5   0  0.1042395E-04  0.2102644E+04  0.7818609E-02  0.8560079E-01
       -1   -1    0    0    0  501  0.00000000000E+00  0.00000000000E+00  0.84667851337E+03  0.84667851338E+03  0.50400001928E-02 0. -1.
        1   -1    0    0  501    0  0.00000000000E+00  0.00000000000E+00 -0.13054283712E+04  0.13054283712E+04  0.50400001928E-02 0.  1.
    10030    2    1    2    0    0  0.00000000000E+00  0.00000000000E+00 -0.45874985786E+03  0.21521068846E+04  0.21026441950E+04 0.  0.
        3    1    3    3  502    0  0.97422655601E+02  0.63726566743E+02  0.84006120473E+03  0.84808907966E+03  0.10100000352E+00 0. -1.
       -3    1    3    3    0  502 -0.97422655601E+02 -0.63726566743E+02 -0.12988110626E+04  0.13040178050E+04  0.10100000352E+00 0.  1.
</event>
<event>
 5   0  0.1042395E-04  0.2087745E+04  0.7818609E-02  0.8566661E-01
        1   -1    0    0  501    0  0.00000000000E+00  0.00000000000E+00  0.17770951235E+04  0.17770951235E+04  0.50400001928E-02 0. -1.
       -1   -1    0    0    0  501  0.00000000000E+00  0.00000000000E+00 -0.61317470230E+03  0.61317470232E+03  0.50400001928E-02 0.  1.
    10030    2    1    2    0    0  0.00000000000E+00  0.00000000000E+00  0.11639204212E+04  0.23902698258E+04  0.20877449780E+04 0.  0.
        3    1    3    3  502    0 -0.71712122751E+03 -0.62659756850E+03  0.10714421404E+04  0.14334837419E+04  0.10100000352E+00 0. -1.
       -3    1    3    3    0  502  0.71712122751E+03  0.62659756850E+03  0.92478280793E+02  0.95678608394E+03  0.10100000352E+00 0.  1.
</event>
<event>
 5   0  0.2467483E-04  0.2157678E+04  0.7818609E-02  0.8536253E-01
       -2   -1    0    0    0  501  0.00000000000E+00  0.00000000000E+00  0.11836115005E+04  0.11836115005E+04  0.25500000920E-02 0.  1.
        2   -1    0    0  501    0  0.00000000000E+00  0.00000000000E+00 -0.98334107316E+03  0.98334107317E+03  0.25500000920E-02 0. -1.
    10030    2    1    2    0    0  0.00000000000E+00  0.00000000000E+00  0.20027042738E+03  0.21669525737E+04  0.21576781995E+04 0.  0.
        4    1    3    3  502    0  0.69844613912E+03 -0.20221889366E+03  0.90053809731E+03  0.11574497690E+04  0.12699999809E+01 0.  1.
       -4    1    3    3    0  502 -0.69844613912E+03  0.20221889366E+03 -0.70026766993E+03  0.10095028047E+04  0.12699999809E+01 0. -1.
</event>
<event>
 5   0  0.2430898E-04  0.2077953E+04  0.7818609E-02  0.8571018E-01
        2   -1    0    0  501    0  0.00000000000E+00  0.00000000000E+00  0.90915682172E+03  0.90915682173E+03  0.25500000920E-02 0. -1.
       -2   -1    0    0    0  501  0.00000000000E+00  0.00000000000E+00 -0.11873336532E+04  0.11873336532E+04  0.25500000920E-02 0.  1.
    10030    2    1    2    0    0  0.00000000000E+00  0.00000000000E+00 -0.27817683146E+03  0.20964904749E+04  0.20779533108E+04 0.  0.
        1    1    3    3  502    0 -0.84913043399E+03 -0.20582119049E+03  0.42814376444E+03  0.97298095533E+03  0.50400001928E-02 0. -1.
       -1    1    3    3    0  502  0.84913043399E+03  0.20582119049E+03 -0.70632059590E+03  0.11235095196E+04  0.50400001928E-02 0.  1.
</event>
<event>
 5   0  0.2448804E-04  0.2092422E+04  0.7818609E-02  0.8564589E-01
       -2   -1    0    0    0  501  0.00000000000E+00  0.00000000000E+00  0.57426223189E+03  0.57426223190E+03  0.25500000920E-02 0. -1.
        2   -1    0    0  501    0  0.00000000000E+00  0.00000000000E+00 -0.19060239534E+04  0.19060239534E+04  0.25500000920E-02 0.  1.
    10030    2    1    2    0    0  0.00000000000E+00  0.00000000000E+00 -0.13317617215E+04  0.24802861853E+04  0.20924221080E+04 0.  0.
        2    1    3    3  502    0 -0.53774281672E+03  0.83699980280E+03 -0.10496568583E+04  0.14462072905E+04  0.25500000920E-02 0.  1.
       -2    1    3    3    0  502  0.53774281672E+03 -0.83699980280E+03 -0.28210486317E+03  0.10340788948E+04  0.25500000920E-02 0. -1.
</event>
<event>
 5   0  0.2467483E-04  0.2107429E+04  0.7818609E-02  0.8557978E-01
        2   -1    0    0  501    0  0.00000000000E+00  0.00000000000E+00  0.19084764470E+04  0.19084764470E+04  0.25500000920E-02 0.  1.
       -2   -1    0    0    0  501  0.00000000000E+00  0.00000000000E+00 -0.58178045624E+03  0.58178045625E+03  0.25500000920E-02 0. -1.
    10030    2    1    2    0    0  0.00000000000E+00  0.00000000000E+00  0.13266959907E+04  0.24902569032E+04  0.21074290480E+04 0.  0.
        4    1    3    3  502    0 -0.17491625581E+03 -0.29812029949E+03  0.18395806595E+04  0.18717718946E+04  0.12699999809E+01 0.  1.
       -4    1    3    3    0  502  0.17491625581E+03  0.29812029949E+03 -0.51288466880E+03  0.61848500864E+03  0.12699999809E+01 0. -1.
</event>
<event>
 5   0  0.1122711E-04  0.1915906E+04  0.7818609E-02  0.8646979E-01
       -1   -1    0    0    0  501  0.00000000000E+00  0.00000000000E+00  0.49171359495E+03  0.49171359497E+03  0.50400001928E-02 0.  1.
        1   -1    0    0  501    0  0.00000000000E+00  0.00000000000E+00 -0.18662776110E+04  0.18662776110E+04  0.50400001928E-02 0. -1.
    10030    2    1    2    0    0  0.00000000000E+00  0.00000000000E+00 -0.13745640161E+04  0.23579912060E+04  0.19159061285E+04 0.  0.
        1    1    3    3  502    0  0.74017836705E+03 -0.17205296575E+03  0.30578579741E+02  0.76052698021E+03  0.50400001928E-02 0.  1.
       -1    1    3    3    0  502 -0.74017836705E+03  0.17205296575E+03 -0.14051425958E+04  0.15974642258E+04  0.50400001928E-02 0. -1.
</event>
<event>
 5   0  0.1042395E-04  0.2042386E+04  0.7818609E-02  0.8587056E-01
       -1   -1    0    0    0  501  0.00000000000E+00  0.00000000000E+00  0.79296961355E+03  0.79296961357E+03  0.50400001928E-02 0.  1.
        1   -1    0    0  501    0  0.00000000000E+00  0.00000000000E+00 -0.13151011296E+04  0.13151011296E+04  0.50400001928E-02 0. -1.
    10030    2    1    2    0    0  0.00000000000E+00  0.00000000000E+00 -0.52213151604E+03  0.21080707432E+04  0.20423860894E+04 0.  0.
        3    1    3    3  502    0  0.34638325028E+03 -0.94796342787E+03 -0.10043552006E+03  0.10142501272E+04  0.10100000352E+00 0.  1.
       -3    1    3    3    0  502 -0.34638325028E+03  0.94796342787E+03 -0.42169599598E+03  0.10938206160E+04  0.10100000352E+00 0. -1.
</event>
<event>
 5   0  0.2448804E-04  0.2142790E+04  0.7818609E-02  0.8542625E-01
        2   -1    0    0  501    0  0.00000000000E+00  0.00000000000E+00  0.48796975503E+03  0.48796975504E+03  0.25500000920E-02 0.  1.
       -2   -1    0    0    0  501  0.00000000000E+00  0.00000000000E+00 -0.23523732215E+04  0.23523732215E+04  0.25500000920E-02 0. -1.
    10030    2    1    2    0    0  0.00000000000E+00  0.00000000000E+00 -0.18644034665E+04  0.28403429765E+04  0.21427897560E+04 0.  0.
        2    1    3    3  502    0  0.25430766511E+02 -0.83651252281E+03 -0.18189114431E+04  0.20022084713E+04  0.25500000920E-02 0. -1.
       -2    1    3    3    0  502 -0.25430766511E+02  0.83651252281E+03 -0.45492023383E+02  0.83813450525E+03  0.25500000920E-02 0.  1.
</event>
<event>
 5   0  0.1156733E-04  0.2324325E+04  0.7818609E-02  0.8468392E-01
       -1   -1    0    0    0  501  0.00000000000E+00  0.00000000000E+00  0.84704260015E+03  0.84704260017E+03  0.50400001928E-02 0.  1.
        1   -1    0    0  501    0  0.00000000000E+00  0.00000000000E+00 -0.15945140988E+04  0.15945140988E+04  0.50400001928E-02 0. -1.
    10030    2    1    2    0    0  0.00000000000E+00  0.00000000000E+00 -0.74747149868E+03  0.24415566990E+04  0.23243247349E+04 0.  0.
        2    1    3    3  502    0  0.96070567191E+03 -0.54958855389E+03 -0.74603884032E+03  0.13347572505E+04  0.25500000920E-02 0. -1.
       -2    1    3    3    0  502 -0.96070567191E+03  0.54958855389E+03 -0.14326583592E+01  0.11067994485E+04  0.25500000920E-02 0.  1.
</event>
<event>
 5   0  0.1186038E-04  0.1781826E+04  0.7818609E-02  0.8716025E-01
       -1   -1    0    0    0  501  0.00000000000E+00  0.00000000000E+00  0.12736920835E+04  0.12736920836E+04  0.50400001928E-02 0.  1.
        1   -1    0    0  501    0  0.00000000000E+00  0.00000000000E+00 -0.62316909734E+03  0.62316909736E+03  0.50400001928E-02 0. -1.
    10030    2    1    2    0    0  0.00000000000E+00  0.00000000000E+00  0.65052298621E+03  0.18968611809E+04  0.17818255201E+04 0.  0.
        4    1    3    3  502    0 -0.13127778400E+03  0.40366909222E+03  0.11591198574E+04  0.12343998742E+04  0.12699999809E+01 0.  1.
       -4    1    3    3    0  502  0.13127778400E+03 -0.40366909222E+03 -0.50859687123E+03  0.66246130673E+03  0.12699999809E+01 0. -1.
</event>
<event>
 5   0  0.1186038E-04  0.2088554E+04  0.7818609E-02  0.8566302E-01
        1   -1    0    0  501    0  0.00000000000E+00  0.00000000000E+00  0.13002119469E+04  0.13002119469E+04  0.50400001928E-02 0. -1.
       -1   -1    0    0    0  501  0.00000000000E+00  0.00000000000E+00 -0.83872053274E+03  0.83872053276E+03  0.50400001928E-02 0.  1.
    10030    2    1    2    0    0  0.00000000000E+00  0.00000000000E+00  0.46149141419E+03  0.21389324797E+04  0.20885540039E+04 0.  0.
        4    1    3    3  502    0 -0.30449204893E+03 -0.61020085987E+03  0.10406775599E+04  0.12442153727E+04  0.12699999809E+01 0. -1.
       -4    1    3    3    0  502  0.30449204893E+03  0.61020085987E+03 -0.57918614568E+03  0.89471710696E+03  0.12699999809E+01 0.  1.
</event>
<event>
 5   0  0.2448804E-04  0.2080705E+04  0.7818609E-02  0.8569791E-01
        2   -1    0    0  501    0  0.00000000000E+00  0.00000000000E+00  0.96697607173E+03  0.96697607174E+03  0.25500000920E-02 0. -1.
       -2   -1    0    0    0  501  0.00000000000E+00  0.00000000000E+00 -0.11192966337E+04  0.11192966337E+04  0.25500000920E-02 0.  1.
    10030    2    1    2    0    0  0.00000000000E+00  0.00000000000E+00 -0.15232056193E+03  0.20862727054E+04  0.20807047478E+04 0.  0.
        2    1    3    3  502    0  0.60637056451E+03  0.33568961435E+03 -0.85409747666E+03  0.10999342155E+04  0.25500000920E-02 0.  1.
       -2    1    3    3    0  502 -0.60637056451E+03 -0.33568961435E+03  0.70177691474E+03  0.98633848995E+03  0.25500000920E-02 0. -1.
</event>
<event>
 5   0  0.1122711E-04  0.2113060E+04  0.7818609E-02  0.8555512E-01
       -1   -1    0    0    0  501  0.00000000000E+00  0.00000000000E+00  0.10265849463E+04  0.10265849463E+04  0.50400001928E-02 0. -1.
        1   -1    0    0  501    0  0.00000000000E+00  0.00000000000E+00 -0.10873488210E+04  0.10873488210E+04  0.50400001928E-02 0.  1.
    10030    2    1    2    0    0  0.00000000000E+00  0.00000000000E+00 -0.60763874766E+02  0.21139337673E+04  0.21130602746E+04 0.  0.
        1    1    3    3  502    0 -0.22995461541E+03  0.21794729045E+03  0.97794134388E+03  0.10279831801E+04  0.50400001928E-02 0. -1.
       -1    1    3    3    0  502  0.22995461541E+03 -0.21794729045E+03 -0.10387052186E+04  0.10859505872E+04  0.50400001928E-02 0.  1.
</event>
<event>
 5   0  0.2448804E-04  0.2087838E+04  0.7818609E-02  0.8566620E-01
       -2   -1    0    0    0  501  0.00000000000E+00  0.00000000000E+00  0.56103503210E+03  0.56103503210E+03  0.25500000920E-02 0. -1.
        2   -1    0    0  501    0  0.00000000000E+00  0.00000000000E+00 -0.19424224094E+04  0.19424224094E+04  0.25500000920E-02 0.  1.
    10030    2    1    2    0    0  0.00000000000E+00  0.00000000000E+00 -0.13813873773E+04  0.25034574415E+04  0.20878381343E+04 0.  0.
        2    1    3    3  502    0  0.11480468913E+03  0.70893524539E+03  0.21775095963E+03  0.75045638063E+03  0.25500000920E-02 0. -1.
       -2    1    3    3    0  502 -0.11480468913E+03 -0.70893524539E+03 -0.15991383369E+04  0.17530010609E+04  0.25500000920E-02 0.  1.
</event>
<event>
 5   0  0.2448804E-04  0.2260929E+04  0.7818609E-02  0.8493488E-01
        2   -1    0    0  501    0  0.00000000000E+00  0.00000000000E+00  0.23952940245E+04  0.23952940245E+04  0.25500000920E-02 0. -1.
       -2   -1    0    0    0  501  0.00000000000E+00  0.00000000000E+00 -0.53352518454E+03  0.53352518454E+03  0.25500000920E-02 0.  1.
    10030    2    1    2    0    0  0.00000000000E+00  0.00000000000E+00  0.18617688400E+04  0.29288192091E+04  0.22609287353E+04 0.  0.
        2    1    3    3  502    0 -0.48581377499E+03 -0.96109235405E+03  0.48545301899E+03  0.11812612626E+04  0.25500000920E-02 0.  1.
       -2    1    3    3    0  502  0.48581377499E+03  0.96109235405E+03  0.13763158210E+04  0.17475579464E+04  0.25500000920E-02 0. -1.
</event>
<event>
 5   0  0.2448804E-04  0.2121271E+04  0.7818609E-02  0.8551931E-01
       -2   -1    0    0    0  501  0.00000000000E+00  0.00000000000E+00  0.59152375055E+03  0.59152375056E+03  0.25500000920E-02 0.  1.
        2   -1    0    0  501    0  0.00000000000E+00  0.00000000000E+00 -0.19017797488E+04  0.19017797488E+04  0.25500000920E-02 0. -1.
    10030    2    1    2    0    0  0.00000000000E+00  0.00000000000E+00 -0.13102559982E+04  0.24933034993E+04  0.21212712129E+04 0.  0.
        2    1    3    3  502    0 -0.10515174953E+04  0.46173075904E+02 -0.50130607093E+03  0.11658167835E+04  0.25500000920E-02 0.  1.
       -2    1    3    3    0  502  0.10515174953E+04 -0.46173075904E+02 -0.80894992728E+03  0.13274867158E+04  0.25500000920E-02 0. -1.
</event>
<event>
 5   0  0.2430898E-04  0.2230749E+04  0.7818609E-02  0.8505737E-01
        2   -1    0    0  501    0  0.00000000000E+00  0.00000000000E+00  0.10011139652E+04  0.10011139652E+04  0.25500000920E-02 0. -1.
       -2   -1    0    0    0  501  0.00000000000E+00  0.00000000000E+00 -0.12426765271E+04  0.12426765271E+04  0.25500000920E-02 0.  1.
    10030    2    1    2    0    0  0.00000000000E+00  0.00000000000E+00 -0.24156256187E+03  0.22437904922E+04  0.22307494933E+04 0.  0.
        1    1    3    3  502    0  0.59467208062E+03 -0.38119396847E+03 -0.98902922913E+03  0.12153693024E+04  0.50400001928E-02 0.  1.
       -1    1    3    3    0  502 -0.59467208062E+03  0.38119396847E+03  0.74746666726E+03  0.10284211899E+04  0.50400001928E-02 0. -1.
</event>
<event>
 5   0  0.1156733E-04  0.2113773E+04  0.7818609E-02  0.8555200E-01
       -1   -1    0    0    0  501  0.00000000000E+00  0.00000000000E+00  0.13285610668E+04  0.13285610668E+04  0.50400001928E-02 0. -1.
        1   -1    0    0  501    0  0.00000000000E+00  0.00000000000E+00 -0.84076636600E+03  0.84076636601E+03  0.50400001928E-02 0.  1.
    10030    2    1    2    0    0  0.00000000000E+00  0.00000000000E+00  0.48779470082E+03  0.21693274328E+04  0.21137733655E+04 0.  0.
        2    1    3    3  502    0 -0.77537404165E+03  0.10993904583E+03 -0.48448666369E+03  0.92087937623E+03  0.25500000920E-02 0.  1.
       -2    1    3    3    0  502  0.77537404165E+03 -0.10993904583E+03  0.97228136452E+03  0.12484480566E+04  0.25500000920E-02 0. -1.
</event>
<event>
 5   0  0.2467483E-04  0.1779609E+04  0.7818609E-02  0.8717219E-01
       -2   -1    0    0    0  501  0.00000000000E+00  0.00000000000E+00  0.14817577231E+04  0.14817577231E+04  0.25500000920E-02 0.  1.
        2   -1    0    0  501    0  0.00000000000E+00  0.00000000000E+00 -0.53433276909E+03  0.53433276909E+03  0.25500000920E-02 0. -1.
    10030    2    1    2    0    0  0.00000000000E+00  0.00000000000E+00  0.94742495398E+03  0.20160904922E+04  0.17796086169E+04 0.  0.
        4    1    3    3  502    0  0.36843498452E+03  0.15406949802E+02  0.13911167494E+04  0.14391626508E+04  0.12699999809E+01 0.  1.
       -4    1    3    3    0  502 -0.36843498452E+03 -0.15406949802E+02 -0.44369179545E+03  0.57692784139E+03  0.12699999809E+01 0. -1.
</event>
<event>
 5   0  0.2579241E-04  0.2505813E+04  0.7818609E-02  0.8400918E-01
        2   -1    0    0  501    0  0.00000000000E+00  0.00000000000E+00  0.11457485102E+04  0.11457485102E+04  0.25500000920E-02 0. -1.
       -2   -1    0    0    0  501  0.00000000000E+00  0.00000000000E+00 -0.13700865813E+04  0.13700865813E+04  0.25500000920E-02 0.  1.
    10030    2    1    2    0    0  0.00000000000E+00  0.00000000000E+00 -0.22433807110E+03  0.25158350915E+04  0.25058129694E+04 0.  0.
        5    1    3    3  502    0 -0.79802659727E+03  0.70447444347E+03 -0.77558552886E+03  0.13170746729E+04  0.46999998093E+01 0.  1.
       -5    1    3    3    0  502  0.79802659727E+03 -0.70447444347E+03  0.55124745776E+03  0.11987604186E+04  0.46999998093E+01 0. -1.
</event>
<event>
 5   0  0.1042395E-04  0.2082377E+04  0.7818609E-02  0.8569046E-01
       -1   -1    0    0    0  501  0.00000000000E+00  0.00000000000E+00  0.82546112565E+03  0.82546112566E+03  0.50400001928E-02 0. -1.
        1   -1    0    0  501    0  0.00000000000E+00  0.00000000000E+00 -0.13132944173E+04  0.13132944173E+04  0.50400001928E-02 0.  1.
    10030    2    1    2    0    0  0.00000000000E+00  0.00000000000E+00 -0.48783329162E+03  0.21387555429E+04  0.20823769957E+04 0.  0.
        3    1    3    3  502    0  0.45601936049E+03 -0.73216867026E+03 -0.84284165972E+03  0.12059878492E+04  0.10100000352E+00 0.  1.
       -3    1    3    3    0  502 -0.45601936049E+03  0.73216867026E+03  0.35500836810E+03  0.93276769374E+03  0.10100000352E+00 0. -1.
</event>
<event>
 5   0  0.2579241E-04  0.2085878E+04  0.7818609E-02  0.8567490E-01
        2   -1    0    0  501    0  0.00000000000E+00  0.00000000000E+00  0.41047659352E+03  0.41047659353E+03  0.25500000920E-02 0.  1.
       -2   -1    0    0    0  501  0.00000000000E+00  0.00000000000E+00 -0.26498992799E+04  0.26498992799E+04  0.25500000920E-02 0. -1.
    10030    2    1    2    0    0  0.00000000000E+00  0.00000000000E+00 -0.22394226863E+04  0.30603758734E+04  0.20858778771E+04 0.  0.
        5    1    3    3  502    0 -0.91317964390E+03  0.48221412055E+03 -0.13336997536E+04  0.16867734415E+04  0.46999998093E+01 0.  1.
       -5    1    3    3    0  502  0.91317964390E+03 -0.48221412055E+03 -0.90572293272E+03  0.13736024319E+04  0.46999998093E+01 0. -1.
</event>
<event>
 5   0  0.1130848E-04  0.2145763E+04  0.7818609E-02  0.8541348E-01
        1   -1    0    0  501    0  0.00000000000E+00  0.00000000000E+00  0.13694432126E+04  0.13694432126E+04  0.50400001928E-02 0.  1.
       -1   -1    0    0    0  501  0.00000000000E+00  0.00000000000E+00 -0.84054200835E+03  0.84054200836E+03  0.50400001928E-02 0. -1.
    10030    2    1    2    0    0  0.00000000000E+00  0.00000000000E+00  0.52890120427E+03  0.22099852210E+04  0.21457628464E+04 0.  0.
        5    1    3    3  502    0 -0.35788110257E+03  0.26228788129E+03  0.12705073857E+04  0.13457655529E+04  0.46999998093E+01 0.  1.
       -5    1    3    3    0  502  0.35788110257E+03 -0.26228788129E+03 -0.74160618148E+03  0.86421966805E+03  0.46999998093E+01 0. -1.
</event>
<event>
 5   0  0.2579241E-04  0.2086564E+04  0.7818609E-02  0.8567185E-01
        2   -1    0    0  501    0  0.00000000000E+00  0.00000000000E+00  0.10084045236E+04  0.10084045236E+04  0.25500000920E-02 0. -1.
       -2   -1    0    0    0  501  0.00000000000E+00  0.00000000000E+00 -0.10793656105E+04  0.10793656105E+04  0.25500000920E-02 0.  1.
    10030    2    1    2    0    0  0.00000000000E+00  0.00000000000E+00 -0.70961086833E+02  0.20877701341E+04  0.20865638397E+04 0.  0.
        5    1    3    3  502    0 -0.16532577926E+03 -0.11756407646E+03  0.98846886663E+03  0.10090821154E+04  0.46999998093E+01 0. -1.
       -5    1    3    3    0  502  0.16532577926E+03  0.11756407646E+03 -0.10594299535E+04  0.10786880187E+04  0.46999998093E+01 0.  1.
</event>
<event>
 5   0  0.2448804E-04  0.2047825E+04  0.7818609E-02  0.8584582E-01
        2   -1    0    0  501    0  0.00000000000E+00  0.00000000000E+00  0.19819441728E+04  0.19819441728E+04  0.25500000920E-02 0.  1.
       -2   -1    0    0    0  501  0.00000000000E+00  0.00000000000E+00 -0.52897383130E+03  0.52897383131E+03  0.25500000920E-02 0. -1.
    10030    2    1    2    0    0  0.00000000000E+00  0.00000000000E+00  0.14529703415E+04  0.25109180041E+04  0.20478247996E+04 0.  0.
        2    1    3    3  502    0  0.60994641958E+03 -0.11808121518E+03  0.17244289047E+04  0.18329301283E+04  0.25500000920E-02 0.  1.
       -2    1    3    3    0  502 -0.60994641958E+03  0.11808121518E+03 -0.27145856318E+03  0.67798787575E+03  0.25500000920E-02 0. -1.
</event>
<event>
 5   0  0.1122711E-04  0.2135388E+04  0.7818609E-02  0.8545813E-01
        1   -1    0    0  501    0  0.00000000000E+00  0.00000000000E+00  0.20772266968E+04  0.20772266968E+04  0.50400001928E-02 0. -1.
       -1   -1    0    0    0  501  0.00000000000E+00  0.00000000000E+00 -0.54879455384E+03  0.54879455386E+03  0.50400001928E-02 0.  1.
    10030    2    1    2    0    0  0.00000000000E+00  0.00000000000E+00  0.15284321429E+04  0.26260212506E+04  0.21353882067E+04 0.  0.
        1    1    3    3  502    0 -0.72533671939E+03 -0.77348569405E+02  0.17230168401E+04  0.18710647207E+04  0.50400001928E-02 0. -1.
       -1    1    3    3    0  502  0.72533671939E+03  0.77348569405E+02 -0.19458469719E+03  0.75495652993E+03  0.50400001928E-02 0.  1.
</event>
<event>
 5   0  0.1042395E-04  0.2159720E+04  0.7818609E-02  0.8535383E-01
        1   -1    0    0  501    0  0.00000000000E+00  0.00000000000E+00  0.88734489664E+03  0.88734489666E+03  0.50400001928E-02 0. -1.
       -1   -1    0    0    0  501  0.00000000000E+00  0.00000000000E+00 -0.13141421033E+04  0.13141421033E+04  0.50400001928E-02 0.  1.
    10030    2    1    2    0    0  0.00000000000E+00  0.00000000000E+00 -0.42679720662E+03  0.22014869999E+04  0.21597196937E+04 0.  0.
        3    1    3    3  502    0  0.33962065800E+03 -0.10247582252E+04 -0.23889568323E+03  0.11056865600E+04  0.10100000352E+00 0. -1.
       -3    1    3    3    0  502 -0.33962065800E+03  0.10247582252E+04 -0.18790152339E+03  0.10958004399E+04  0.10100000352E+00 0.  1.
</event>
<event>
 5   0  0.2467483E-04  0.1898175E+04  0.7818609E-02  0.8655765E-01
        2   -1    0    0  501    0  0.00000000000E+00  0.00000000000E+00  0.12402970087E+04  0.12402970087E+04  0.25500000920E-02 0. -1.
       -2   -1    0    0    0  501  0.00000000000E+00  0.00000000000E+00 -0.72625133204E+03  0.72625133204E+03  0.25500000920E-02 0.  1.
    10030    2    1    2    0    0  0.00000000000E+00  0.00000000000E+00  0.51404567664E+03  0.19665483407E+04  0.18981752866E+04 0.  0.
        4    1    3    3  502    0  0.87775339368E+03  0.10429260667E+03 -0.10102343831E+03  0.88968270519E+03  0.12699999809E+01 0.  1.
       -4    1    3    3    0  502 -0.87775339368E+03 -0.10429260667E+03  0.61506911494E+03  0.10768656355E+04  0.12699999809E+01 0. -1.
</event>
<event>
 5   0  0.2467483E-04  0.2145147E+04  0.7818609E-02  0.8541612E-01
        2   -1    0    0  501    0  0.00000000000E+00  0.00000000000E+00  0.12651261097E+04  0.12651261097E+04  0.25500000920E-02 0. -1.
       -2   -1    0    0    0  501  0.00000000000E+00  0.00000000000E+00 -0.90932742198E+03  0.90932742198E+03  0.25500000920E-02 0.  1.
    10030    2    1    2    0    0  0.00000000000E+00  0.00000000000E+00  0.35579868767E+03  0.21744535316E+04  0.21451469542E+04 0.  0.
        4    1    3    3  502    0 -0.16997635019E+02  0.47953288817E+03 -0.79446154205E+03  0.92812254855E+03  0.12699999809E+01 0.  1.
       -4    1    3    3    0  502  0.16997635019E+02 -0.47953288817E+03  0.11502602297E+04  0.12463309831E+04  0.12699999809E+01 0. -1.
</event>
<event>
 5   0  0.2430898E-04  0.2059309E+04  0.7818609E-02  0.8579383E-01
        2   -1    0    0  501    0  0.00000000000E+00  0.00000000000E+00  0.81903111309E+03  0.81903111309E+03  0.25500000920E-02 0.  1.
       -2   -1    0    0    0  501  0.00000000000E+00  0.00000000000E+00 -0.12944427305E+04  0.12944427305E+04  0.25500000920E-02 0. -1.
    10030    2    1    2    0    0  0.00000000000E+00  0.00000000000E+00 -0.47541161739E+03  0.21134738436E+04  0.20593094672E+04 0.  0.
        1    1    3    3  502    0  0.93328306198E+03 -0.43305353614E+03 -0.27922009964E+03  0.10660752802E+04  0.50400001928E-02 0.  1.
       -1    1    3    3    0  502 -0.93328306198E+03  0.43305353614E+03 -0.19619151775E+03  0.10473985634E+04  0.50400001928E-02 0. -1.
</event>
<event>
 5   0  0.8698750E-05  0.2089449E+04  0.7818609E-02  0.8565905E-01
        4   -1    0    0  501    0  0.00000000000E+00  0.00000000000E+00  0.18919622867E+04  0.18919627129E+04  0.12699999809E+01 0. -1.
       -4   -1    0    0    0  501  0.00000000000E+00  0.00000000000E+00 -0.57688627120E+03  0.57688766913E+03  0.12699999809E+01 0.  1.
    10030    2    1    2    0    0  0.00000000000E+00  0.00000000000E+00  0.13150760155E+04  0.24688503820E+04  0.20894490380E+04 0.  0.
        1    1    3    3  502    0 -0.45090085745E+03  0.88555433034E+03  0.10384600427E+04  0.14373299258E+04  0.50400001928E-02 0. -1.
       -1    1    3    3    0  502  0.45090085745E+03 -0.88555433034E+03  0.27661597273E+03  0.10315204562E+04  0.50400001928E-02 0.  1.
</event>
<event>
 5   0  0.1042395E-04  0.2207614E+04  0.7818609E-02  0.8515266E-01
       -1   -1    0    0    0  501  0.00000000000E+00  0.00000000000E+00  0.52602507278E+03  0.52602507280E+03  0.50400001928E-02 0. -1.
        1   -1    0    0  501    0  0.00000000000E+00  0.00000000000E+00 -0.23162191462E+04  0.23162191462E+04  0.50400001928E-02 0.  1.
    10030    2    1    2    0    0  0.00000000000E+00  0.00000000000E+00 -0.17901940734E+04  0.28422442190E+04  0.22076135033E+04 0.  0.
        3    1    3    3  502    0  0.95870781541E+03 -0.16222292945E+02 -0.15991055907E+04  0.18645435202E+04  0.10100000352E+00 0.  1.
       -3    1    3    3    0  502 -0.95870781541E+03  0.16222292945E+02 -0.19108848271E+03  0.97770069885E+03  0.10100000352E+00 0. -1.
</event>
<event>
 5   0  0.1122711E-04  0.2099573E+04  0.7818609E-02  0.8561431E-01
        1   -1    0    0  501    0  0.00000000000E+00  0.00000000000E+00  0.14702782454E+04  0.14702782454E+04  0.50400001928E-02 0.  1.
       -1   -1    0    0    0  501  0.00000000000E+00  0.00000000000E+00 -0.74955321699E+03  0.74955321701E+03  0.50400001928E-02 0. -1.
    10030    2    1    2    0    0  0.00000000000E+00  0.00000000000E+00  0.72072502836E+03  0.22198314624E+04  0.20995730887E+04 0.  0.
        1    1    3    3  502    0  0.61091137015E+03  0.72789982990E+03  0.83200894422E+03  0.12630478011E+04  0.50400001928E-02 0.  1.
       -1    1    3    3    0  502 -0.61091137015E+03 -0.72789982990E+03 -0.11128391586E+03  0.95678366128E+03  0.50400001928E-02 0. -1.
</event>
<event>
 5   0  0.2448804E-04  0.2023219E+04  0.7818609E-02  0.8595841E-01
        2   -1    0    0  501    0  0.00000000000E+00  0.00000000000E+00  0.13496589025E+04  0.13496589025E+04  0.25500000920E-02 0.  1.
       -2   -1    0    0    0  501  0.00000000000E+00  0.00000000000E+00 -0.75823118184E+03  0.75823118184E+03  0.25500000920E-02 0. -1.
    10030    2    1    2    0    0  0.00000000000E+00  0.00000000000E+00  0.59142772067E+03  0.21078900843E+04  0.20232186879E+04 0.  0.
        2    1    3    3  502    0 -0.35380202688E+03 -0.93809391667E+03  0.43610247613E+03  0.10933350083E+04  0.25500000920E-02 0. -1.
       -2    1    3    3    0  502  0.35380202688E+03  0.93809391667E+03  0.15532524454E+03  0.10145550760E+04  0.25500000920E-02 0.  1.
</event>
<event>
 5   0  0.1130848E-04  0.1877992E+04  0.7818609E-02  0.8665889E-01
       -1   -1    0    0    0  501  0.00000000000E+00  0.00000000000E+00  0.59998896796E+03  0.59998896798E+03  0.50400001928E-02 0.  1.
        1   -1    0    0  501    0  0.00000000000E+00  0.00000000000E+00 -0.14695495118E+04  0.14695495118E+04  0.50400001928E-02 0. -1.
    10030    2    1    2    0    0  0.00000000000E+00  0.00000000000E+00 -0.86956054389E+03  0.20695384798E+04  0.18779920074E+04 0.  0.
        5    1    3    3  502    0  0.62006674182E+02  0.75077045971E+03  0.18291766191E+03  0.77523033471E+03  0.46999998093E+01 0.  1.
       -5    1    3    3    0  502 -0.62006674182E+02 -0.75077045971E+03 -0.10524782058E+04  0.12943081451E+04  0.46999998093E+01 0. -1.
</event>
<event>
 5   0  0.1042395E-04  0.2050570E+04  0.7818609E-02  0.8583336E-01
       -1   -1    0    0    0  501  0.00000000000E+00  0.00000000000E+00  0.10023346143E+04  0.10023346143E+04  0.50400001928E-02 0.  1.
        1   -1    0    0  501    0  0.00000000000E+00  0.00000000000E+00 -0.10487613779E+04  0.10487613779E+04  0.50400001928E-02 0. -1.
    10030    2    1    2    0    0  0.00000000000E+00  0.00000000000E+00 -0.46426763568E+02  0.20510959922E+04  0.20505704877E+04 0.  0.
        3    1    3    3  502    0  0.49773392159E+03  0.58313026199E+01  0.87336266646E+03  0.10052539073E+04  0.10100000352E+00 0.  1.
       -3    1    3    3    0  502 -0.49773392159E+03 -0.58313026199E+01 -0.91978943003E+03  0.10458420849E+04  0.10100000352E+00 0. -1.
</event>
<event>
 5   0  0.1156733E-04  0.2107584E+04  0.7818609E-02  0.8557910E-01
       -1   -1    0    0    0  501  0.00000000000E+00  0.00000000000E+00  0.97074403460E+03  0.97074403462E+03  0.50400001928E-02 0.  1.
        1   -1    0    0  501    0  0.00000000000E+00  0.00000000000E+00 -0.11439444873E+04  0.11439444873E+04  0.50400001928E-02 0. -1.
    10030    2    1    2    0    0  0.00000000000E+00  0.00000000000E+00 -0.17320045272E+03  0.21146885220E+04  0.21075837227E+04 0.  0.
        2    1    3    3  502    0 -0.23089869526E+03  0.83536853551E+03  0.51485564973E+03  0.10080829022E+04  0.25500000920E-02 0.  1.
       -2    1    3    3    0  502  0.23089869526E+03 -0.83536853551E+03 -0.68805610244E+03  0.11066056198E+04  0.25500000920E-02 0. -1.
</event>
<event>
 5   0  0.2448804E-04  0.1873543E+04  0.7818609E-02  0.8668139E-01
        2   -1    0    0  501    0  0.00000000000E+00  0.00000000000E+00  0.12732208767E+04  0.12732208767E+04  0.25500000920E-02 0.  1.
       -2   -1    0    0    0  501  0.00000000000E+00  0.00000000000E+00 -0.68922929976E+03  0.68922929977E+03  0.25500000920E-02 0. -1.
    10030    2    1    2    0    0  0.00000000000E+00  0.00000000000E+00  0.58399157698E+03  0.19624501765E+04  0.18735433097E+04 0.  0.
        2    1    3    3  502    0  0.44792012794E+03 -0.34514490332E+03  0.10742858401E+04  0.12140212154E+04  0.25500000920E-02 0.  1.
       -2    1    3    3    0  502 -0.44792012794E+03  0.34514490332E+03 -0.49029426312E+03  0.74842896107E+03  0.25500000920E-02 0. -1.
</event>
<event>
 5   0  0.2512839E-04  0.2087038E+04  0.7818609E-02  0.8566975E-01
       -2   -1    0    0    0  501  0.00000000000E+00  0.00000000000E+00  0.82027525183E+03  0.82027525183E+03  0.25500000920E-02 0.  1.
        2   -1    0    0  501    0  0.00000000000E+00  0.00000000000E+00 -0.13275197692E+04  0.13275197692E+04  0.25500000920E-02 0. -1.
    10030    2    1    2    0    0  0.00000000000E+00  0.00000000000E+00 -0.50724451736E+03  0.21477950210E+04  0.20870377217E+04 0.  0.
        3    1    3    3  502    0 -0.72766593655E+03  0.64414790965E+03 -0.64483006577E+03  0.11662890159E+04  0.10100000352E+00 0. -1.
       -3    1    3    3    0  502  0.72766593655E+03 -0.64414790965E+03  0.13758554840E+03  0.98150600511E+03  0.10100000352E+00 0.  1.
</event>
<event>
 5   0  0.1130848E-04  0.2093043E+04  0.7818609E-02  0.8564314E-01
        1   -1    0    0  501    0  0.00000000000E+00  0.00000000000E+00  0.84114977821E+03  0.84114977822E+03  0.50400001928E-02 0.  1.
       -1   -1    0    0    0  501  0.00000000000E+00  0.00000000000E+00 -0.13020360662E+04  0.13020360662E+04  0.50400001928E-02 0. -1.
    10030    2    1    2    0    0  0.00000000000E+00  0.00000000000E+00 -0.46088628796E+03  0.21431858444E+04  0.20930430940E+04 0.  0.
        5    1    3    3  502    0 -0.46390107402E+03 -0.47158108342E+03 -0.10607909312E+04  0.12501569559E+04  0.46999998093E+01 0. -1.
       -5    1    3    3    0  502  0.46390107402E+03  0.47158108342E+03  0.59990464323E+03  0.89302888849E+03  0.46999998093E+01 0.  1.
</event>
<event>
 5   0  0.1122711E-04  0.2089190E+04  0.7818609E-02  0.8566020E-01
        1   -1    0    0  501    0  0.00000000000E+00  0.00000000000E+00  0.19003719419E+04  0.19003719419E+04  0.50400001928E-02 0.  1.
       -1   -1    0    0    0  501  0.00000000000E+00  0.00000000000E+00 -0.57419195474E+03  0.57419195476E+03  0.50400001928E-02 0. -1.
    10030    2    1    2    0    0  0.00000000000E+00  0.00000000000E+00  0.13261799871E+04  0.24745638966E+04  0.20891895846E+04 0.  0.
        1    1    3    3  502    0  0.95963974340E+03 -0.35120870712E+03  0.91966267083E+03  0.13747855910E+04  0.50400001928E-02 0.  1.
       -1    1    3    3    0  502 -0.95963974340E+03  0.35120870712E+03  0.40651731629E+03  0.10997783056E+04  0.50400001928E-02 0. -1.
</event>
<event>
 5   0  0.1042395E-04  0.2062612E+04  0.7818609E-02  0.8577894E-01
       -1   -1    0    0    0  501  0.00000000000E+00  0.00000000000E+00  0.12239894070E+04  0.12239894070E+04  0.50400001928E-02 0. -1.
        1   -1    0    0  501    0  0.00000000000E+00  0.00000000000E+00 -0.86895550191E+03  0.86895550193E+03  0.50400001928E-02 0.  1.
    10030    2    1    2    0    0  0.00000000000E+00  0.00000000000E+00  0.35503390511E+03  0.20929449090E+04  0.20626122559E+04 0.  0.
        3    1    3    3  502    0  0.67005135226E+02 -0.86690910390E+03 -0.38522988409E+03  0.95101164892E+03  0.10100000352E+00 0.  1.
       -3    1    3    3    0  502 -0.67005135226E+02  0.86690910390E+03  0.74026378920E+03  0.11419332600E+04  0.10100000352E+00 0. -1.
</event>
<event>
 5   0  0.2579241E-04  0.1717421E+04  0.7818609E-02  0.8751491E-01
       -2   -1    0    0    0  501  0.00000000000E+00  0.00000000000E+00  0.16218054761E+04  0.16218054761E+04  0.25500000920E-02 0.  1.
        2   -1    0    0  501    0  0.00000000000E+00  0.00000000000E+00 -0.45466817847E+03  0.45466817848E+03  0.25500000920E-02 0. -1.
    10030    2    1    2    0    0  0.00000000000E+00  0.00000000000E+00  0.11671372976E+04  0.20764736546E+04  0.17174205561E+04 0.  0.
        5    1    3    3  502    0 -0.96484174277E+02 -0.82387732828E+02 -0.44325767117E+03  0.46108175788E+03  0.46999998093E+01 0. -1.
       -5    1    3    3    0  502  0.96484174277E+02  0.82387732828E+02  0.16103949688E+04  0.16153918967E+04  0.46999998093E+01 0.  1.
</event>
<event>
 5   0  0.8698750E-05  0.2114409E+04  0.7818609E-02  0.8554922E-01
       -3   -1    0    0    0  501  0.00000000000E+00  0.00000000000E+00  0.17236060555E+04  0.17236060585E+04  0.10100000352E+00 0. -1.
        3   -1    0    0  501    0  0.00000000000E+00  0.00000000000E+00 -0.64845528225E+03  0.64845529012E+03  0.10100000352E+00 0.  1.
    10030    2    1    2    0    0  0.00000000000E+00  0.00000000000E+00  0.10751507732E+04  0.23720613486E+04  0.21144091033E+04 0.  0.
        1    1    3    3  502    0 -0.97037306642E+02  0.84823767276E+02  0.17147594996E+04  0.17195963049E+04  0.50400001928E-02 0. -1.
       -1    1    3    3    0  502  0.97037306642E+02 -0.84823767276E+02 -0.63960872634E+03  0.65246504367E+03  0.50400001928E-02 0.  1.
</event>
<event>
 5   0  0.2448804E-04  0.2122216E+04  0.7818609E-02  0.8551520E-01
        2   -1    0    0  501    0  0.00000000000E+00  0.00000000000E+00  0.12034371155E+04  0.12034371155E+04  0.25500000920E-02 0. -1.
       -2   -1    0    0    0  501  0.00000000000E+00  0.00000000000E+00 -0.93561190605E+03  0.93561190605E+03  0.25500000920E-02 0.  1.
    10030    2    1    2    0    0  0.00000000000E+00  0.00000000000E+00  0.26782520945E+03  0.21390490215E+04  0.21222159112E+04 0.  0.
        2    1    3    3  502    0 -0.41748734770E+03 -0.91000808781E+03 -0.22035743132E+03  0.10251672073E+04  0.25500000920E-02 0.  1.
       -2    1    3    3    0  502  0.41748734770E+03  0.91000808781E+03  0.48818264077E+03  0.11138818143E+04  0.25500000920E-02 0. -1.
</event>
<event>
 5   0  0.2448804E-04  0.2257244E+04  0.7818609E-02  0.8494972E-01
       -2   -1    0    0    0  501  0.00000000000E+00  0.00000000000E+00  0.15642124221E+04  0.15642124221E+04  0.25500000920E-02 0.  1.
        2   -1    0    0  501    0  0.00000000000E+00  0.00000000000E+00 -0.81433196834E+03  0.81433196834E+03  0.25500000920E-02 0. -1.
    10030    2    1    2    0    0  0.00000000000E+00  0.00000000000E+00  0.74988045380E+03  0.23785443905E+04  0.22572444977E+04 0.  0.
        2    1    3    3  502    0  0.11216291276E+04  0.20793885589E+02  0.24458343977E+03  0.11481747883E+04  0.25500000920E-02 0.  1.
       -2    1    3    3    0  502 -0.11216291276E+04 -0.20793885589E+02  0.50529701402E+03  0.12303696022E+04  0.25500000920E-02 0. -1.
</event>
<event>
 5   0  0.2579241E-04  0.1865166E+04  0.7818609E-02  0.8672393E-01
        2   -1    0    0  501    0  0.00000000000E+00  0.00000000000E+00  0.68126920609E+03  0.68126920609E+03  0.25500000920E-02 0. -1.
       -2   -1    0    0    0  501  0.00000000000E+00  0.00000000000E+00 -0.12766038441E+04  0.12766038441E+04  0.25500000920E-02 0.  1.
    10030    2    1    2    0    0  0.00000000000E+00  0.00000000000E+00 -0.59533463800E+03  0.19578730502E+04  0.18651658236E+04 0.  0.
        5    1    3    3  502    0  0.47227312272E+03 -0.70200342455E+03  0.11404988474E+03  0.85374479603E+03  0.46999998093E+01 0. -1.
       -5    1    3    3    0  502 -0.47227312272E+03  0.70200342455E+03 -0.70938452274E+03  0.11041282542E+04  0.46999998093E+01 0.  1.
</event>
<event>
 5   0  0.2430898E-04  0.2092615E+04  0.7818609E-02  0.8564504E-01
        2   -1    0    0  501    0  0.00000000000E+00  0.00000000000E+00  0.73610616675E+03  0.73610616675E+03  0.25500000920E-02 0. -1.
       -2   -1    0    0    0  501  0.00000000000E+00  0.00000000000E+00 -0.14872298972E+04  0.14872298973E+04  0.25500000920E-02 0.  1.
    10030    2    1    2    0    0  0.00000000000E+00  0.00000000000E+00 -0.75112373050E+03  0.22233360640E+04  0.20926147268E+04 0.  0.
        1    1    3    3  502    0  0.68981451891E+03  0.62028777383E+01 -0.12113916625E+04  0.13940417161E+04  0.50400001928E-02 0.  1.
       -1    1    3    3    0  502 -0.68981451891E+03 -0.62028777383E+01  0.46026793201E+03  0.82929434790E+03  0.50400001928E-02 0. -1.
</event>
<event>
 5   0  0.2448804E-04  0.1971927E+04  0.7818609E-02  0.8619859E-01
        2   -1    0    0  501    0  0.00000000000E+00  0.00000000000E+00  0.20057903474E+04  0.20057903474E+04  0.25500000920E-02 0.  1.
       -2   -1    0    0    0  501  0.00000000000E+00  0.00000000000E+00 -0.48465880691E+03  0.48465880692E+03  0.25500000920E-02 0. -1.
    10030    2    1    2    0    0  0.00000000000E+00  0.00000000000E+00  0.15211315405E+04  0.24904491543E+04  0.19719269324E+04 0.  0.
        2    1    3    3  502    0  0.57650195679E+03 -0.53184427808E+03  0.15150790658E+04  0.17060707541E+04  0.25500000920E-02 0.  1.
       -2    1    3    3    0  502 -0.57650195679E+03  0.53184427808E+03  0.60524746980E+01  0.78437840024E+03  0.25500000920E-02 0. -1.
</event>
<event>
 5   0  0.2430898E-04  0.2063828E+04  0.7818609E-02  0.8577347E-01
       -2   -1    0    0    0  501  0.00000000000E+00  0.00000000000E+00  0.10959505176E+04  0.10959505176E+04  0.25500000920E-02 0. -1.
        2   -1    0    0  501    0  0.00000000000E+00  0.00000000000E+00 -0.97161885467E+03  0.97161885468E+03  0.25500000920E-02 0.  1.
    10030    2    1    2    0    0  0.00000000000E+00  0.00000000000E+00  0.12433166296E+03  0.20675693723E+04  0.20638276931E+04 0.  0.
        1    1    3    3  502    0 -0.29168667310E+03 -0.97479205976E+03  0.23436554012E+03  0.10441397806E+04  0.50400001928E-02 0. -1.
       -1    1    3    3    0  502  0.29168667310E+03  0.97479205976E+03 -0.11003387715E+03  0.10234295917E+04  0.50400001928E-02 0.  1.
</event>
<event>
 5   0  0.1186038E-04  0.2099876E+04  0.7818609E-02  0.8561298E-01
        1   -1    0    0  501    0  0.00000000000E+00  0.00000000000E+00  0.15015444309E+04  0.15015444309E+04  0.50400001928E-02 0. -1.
       -1   -1    0    0    0  501  0.00000000000E+00  0.00000000000E+00 -0.73415758633E+03  0.73415758635E+03  0.50400001928E-02 0.  1.
    10030    2    1    2    0    0  0.00000000000E+00  0.00000000000E+00  0.76738684457E+03  0.22357020173E+04  0.20998764108E+04 0.  0.
        4    1    3    3  502    0 -0.97444688289E+03 -0.38104374252E+03  0.47667845075E+03  0.11497673763E+04  0.12699999809E+01 0.  1.
       -4    1    3    3    0  502  0.97444688289E+03  0.38104374252E+03  0.29070839382E+03  0.10859346410E+04  0.12699999809E+01 0. -1.
</event>
<event>
 5   0  0.1122711E-04  0.2152536E+04  0.7818609E-02  0.8538447E-01
       -1   -1    0    0    0  501  0.00000000000E+00  0.00000000000E+00  0.64969020344E+03  0.64969020346E+03  0.50400001928E-02 0. -1.
        1   -1    0    0  501    0  0.00000000000E+00  0.00000000000E+00 -0.17829311904E+04  0.17829311904E+04  0.50400001928E-02 0.  1.
    10030    2    1    2    0    0  0.00000000000E+00  0.00000000000E+00 -0.11332409869E+04  0.24326213939E+04  0.21525361115E+04 0.  0.
        1    1    3    3  502    0  0.23778911736E+03  0.96135766577E+03 -0.90357963353E+02  0.99444295334E+03  0.50400001928E-02 0. -1.
       -1    1    3    3    0  502 -0.23778911736E+03 -0.96135766577E+03 -0.10428830236E+04  0.14381784405E+04  0.50400001928E-02 0.  1.
</event>
<event>
 5   0  0.1122711E-04  0.2024459E+04  0.7818609E-02  0.8595270E-01
        1   -1    0    0  501    0  0.00000000000E+00  0.00000000000E+00  0.54363831687E+03  0.54363831689E+03  0.50400001928E-02 0. -1.
       -1   -1    0    0    0  501  0.00000000000E+00  0.00000000000E+00 -0.18847240182E+04  0.18847240182E+04  0.50400001928E-02 0.  1.
    10030    2    1    2    0    0  0.00000000000E+00  0.00000000000E+00 -0.13410857014E+04  0.24283623351E+04  0.20244586368E+04 0.  0.
        1    1    3    3  502    0  0.71159973836E+03  0.48211083203E+03 -0.13118086625E+04  0.15683261807E+04  0.50400001928E-02 0.  1.
       -1    1    3    3    0  502 -0.71159973836E+03 -0.48211083203E+03 -0.29277038915E+02  0.86003615449E+03  0.50400001928E-02 0. -1.
</event>
<event>
 5   0  0.2467483E-04  0.2199757E+04  0.7818609E-02  0.8518529E-01
       -2   -1    0    0    0  501  0.00000000000E+00  0.00000000000E+00  0.81184371214E+03  0.81184371214E+03  0.25500000920E-02 0.  1.
        2   -1    0    0  501    0  0.00000000000E+00  0.00000000000E+00 -0.14901058108E+04  0.14901058108E+04  0.25500000920E-02 0. -1.
    10030    2    1    2    0    0  0.00000000000E+00  0.00000000000E+00 -0.67826209871E+03  0.23019495230E+04  0.21997572893E+04 0.  0.
        4    1    3    3  502    0  0.20891677047E+03  0.10557157787E+04 -0.57672360473E+03  0.12209806516E+04  0.12699999809E+01 0. -1.
       -4    1    3    3    0  502 -0.20891677047E+03 -0.10557157787E+04 -0.10153849398E+03  0.10809688714E+04  0.12699999809E+01 0.  1.
</event>
<event>
 5   0  0.1130848E-04  0.2133823E+04  0.7818609E-02  0.8546489E-01
        1   -1    0    0  501    0  0.00000000000E+00  0.00000000000E+00  0.17665893632E+04  0.17665893632E+04  0.50400001928E-02 0.  1.
       -1   -1    0    0    0  501  0.00000000000E+00  0.00000000000E+00 -0.64434881843E+03  0.64434881845E+03  0.50400001928E-02 0. -1.
    10030    2    1    2    0    0  0.00000000000E+00  0.00000000000E+00  0.11222405447E+04  0.24109381816E+04  0.21338226438E+04 0.  0.
        5    1    3    3  502    0 -0.14187435233E+03  0.92502552036E+03  0.11399802091E+04  0.14749161034E+04  0.46999998093E+01 0.  1.
       -5    1    3    3    0  502  0.14187435233E+03 -0.92502552036E+03 -0.17739664308E+02  0.93602207819E+03  0.46999998093E+01 0. -1.
</event>
<event>
 5   0  0.1156733E-04  0.2101241E+04  0.7818609E-02  0.8560697E-01
       -1   -1    0    0    0  501  0.00000000000E+00  0.00000000000E+00  0.76877755516E+03  0.76877755518E+03  0.50400001928E-02 0. -1.
        1   -1    0    0  501    0  0.00000000000E+00  0.00000000000E+00 -0.14357910618E+04  0.14357910618E+04  0.50400001928E-02 0.  1.
    10030    2    1    2    0    0  0.00000000000E+00  0.00000000000E+00 -0.66701350664E+03  0.22045686170E+04  0.21012414828E+04 0.  0.
        2    1    3    3  502    0 -0.97336822049E+03  0.39357228565E+03 -0.37358336609E+03  0.11144098744E+04  0.25500000920E-02 0. -1.
       -2    1    3    3    0  502  0.97336822049E+03 -0.39357228565E+03 -0.29343014055E+03  0.10901587426E+04  0.25500000920E-02 0.  1.
</event>
<event>
 5   0  0.1186038E-04  0.2071648E+04  0.7818609E-02  0.8573837E-01
       -1   -1    0    0    0  501  0.00000000000E+00  0.00000000000E+00  0.60268740367E+03  0.60268740369E+03  0.50400001928E-02 0.  1.
        1   -1    0    0  501    0  0.00000000000E+00  0.00000000000E+00 -0.17802447297E+04  0.17802447297E+04  0.50400001928E-02 0. -1.
    10030    2    1    2    0    0  0.00000000000E+00  0.00000000000E+00 -0.11775573261E+04  0.23829321334E+04  0.20716477250E+04 0.  0.
        4    1    3    3  502    0  0.80070350177E+03  0.30775353897E+03 -0.12566140447E+04  0.15214857241E+04  0.12699999809E+01 0. -1.
       -4    1    3    3    0  502 -0.80070350177E+03 -0.30775353897E+03  0.79056718603E+02  0.86144640933E+03  0.12699999809E+01 0.  1.
</event>
<event>
 5   0  0.1122711E-04  0.2115071E+04  0.7818609E-02  0.8554634E-01
       -1   -1    0    0    0  501  0.00000000000E+00  0.00000000000E+00  0.95268001300E+03  0.95268001301E+03  0.50400001928E-02 0.  1.
        1   -1    0    0  501    0  0.00000000000E+00  0.00000000000E+00 -0.11739314221E+04  0.11739314221E+04  0.50400001928E-02 0. -1.
    10030    2    1    2    0    0  0.00000000000E+00  0.00000000000E+00 -0.22125140913E+03  0.21266114351E+04  0.21150706868E+04 0.  0.
        1    1    3    3  502    0  0.18666767723E+03  0.10225869785E+04  0.84991916944E+02  0.10429537747E+04  0.50400001928E-02 0.  1.
       -1    1    3    3    0  502 -0.18666767723E+03 -0.10225869785E+04 -0.30624332607E+03  0.10836576604E+04  0.50400001928E-02 0. -1.
</event>
<event>
 5   0  0.2512839E-04  0.1366707E+04  0.7818609E-02  0.8978276E-01
       -2   -1    0    0    0  501  0.00000000000E+00  0.00000000000E+00  0.23191907702E+03  0.23191907703E+03  0.25500000920E-02 0.  1.
        2   -1    0    0  501    0  0.00000000000E+00  0.00000000000E+00 -0.20135133103E+04  0.20135133103E+04  0.25500000920E-02 0. -1.
    10030    2    1    2    0    0  0.00000000000E+00  0.00000000000E+00 -0.17815942333E+04  0.22454323873E+04  0.13667072086E+04 0.  0.
        3    1    3    3  502    0  0.18085255598E+03  0.24815029087E+03  0.11219147385E+03  0.32691459262E+03  0.10100000352E+00 0.  1.
       -3    1    3    3    0  502 -0.18085255598E+03 -0.24815029087E+03 -0.18937857071E+04  0.19185177947E+04  0.10100000352E+00 0. -1.
</event>
<event>
 5   0  0.1156733E-04  0.2160449E+04  0.7818609E-02  0.8535073E-01
        1   -1    0    0  501    0  0.00000000000E+00  0.00000000000E+00  0.12852757918E+04  0.12852757918E+04  0.50400001928E-02 0.  1.
       -1   -1    0    0    0  501  0.00000000000E+00  0.00000000000E+00 -0.90788674767E+03  0.90788674769E+03  0.50400001928E-02 0. -1.
    10030    2    1    2    0    0  0.00000000000E+00  0.00000000000E+00  0.37738904413E+03  0.21931625395E+04  0.21604488964E+04 0.  0.
        2    1    3    3  502    0  0.20433109358E+03 -0.67636566812E+03  0.10181737667E+04  0.12393141378E+04  0.25500000920E-02 0.  1.
       -2    1    3    3    0  502 -0.20433109358E+03  0.67636566812E+03 -0.64078472258E+03  0.95384840174E+03  0.25500000920E-02 0. -1.
</event>
<event>
 5   0  0.2512839E-04  0.2101870E+04  0.7818609E-02  0.8560420E-01
        2   -1    0    0  501    0  0.00000000000E+00  0.00000000000E+00  0.11282040119E+04  0.11282040119E+04  0.25500000920E-02 0.  1.
       -2   -1    0    0    0  501  0.00000000000E+00  0.00000000000E+00 -0.97895836486E+03  0.97895836487E+03  0.25500000920E-02 0. -1.
    10030    2    1    2    0    0  0.00000000000E+00  0.00000000000E+00  0.14924564702E+03  0.21071623768E+04  0.21018703620E+04 0.  0.
        3    1    3    3  502    0 -0.35212770528E+03 -0.42548072248E+03 -0.82174073800E+03  0.99009374138E+03  0.10100000352E+00 0. -1.
       -3    1    3    3    0  502  0.35212770528E+03  0.42548072248E+03  0.97098638502E+03  0.11170686354E+04  0.10100000352E+00 0.  1.
</event>
<event>
 5   0  0.1130848E-04  0.2109163E+04  0.7818609E-02  0.8557218E-01
       -1   -1    0    0    0  501  0.00000000000E+00  0.00000000000E+00  0.49370895432E+03  0.49370895434E+03  0.50400001928E-02 0.  1.
        1   -1    0    0  501    0  0.00000000000E+00  0.00000000000E+00 -0.22526263115E+04  0.22526263115E+04  0.50400001928E-02 0. -1.
    10030    2    1    2    0    0  0.00000000000E+00  0.00000000000E+00 -0.17589173571E+04  0.27463352658E+04  0.21091626592E+04 0.  0.
        5    1    3    3  502    0 -0.10512673687E+04 -0.51288745443E+02 -0.79381595108E+03  0.13183169081E+04  0.46999998093E+01 0. -1.
       -5    1    3    3    0  502  0.10512673687E+04  0.51288745443E+02 -0.96510140606E+03  0.14280183577E+04  0.46999998093E+01 0.  1.
</event>
<event>
 5   0  0.2512839E-04  0.2139906E+04  0.7818609E-02  0.8543865E-01
       -2   -1    0    0    0  501  0.00000000000E+00  0.00000000000E+00  0.66148068305E+03  0.66148068306E+03  0.25500000920E-02 0.  1.
        2   -1    0    0  501    0  0.00000000000E+00  0.00000000000E+00 -0.17306623261E+04  0.17306623261E+04  0.25500000920E-02 0. -1.
    10030    2    1    2    0    0  0.00000000000E+00  0.00000000000E+00 -0.10691816430E+04  0.23921430091E+04  0.21399062574E+04 0.  0.
        3    1    3    3  502    0  0.67249966724E+03  0.17779771912E+03 -0.14433958747E+04  0.16022669854E+04  0.10100000352E+00 0. -1.
       -3    1    3    3    0  502 -0.67249966724E+03 -0.17779771912E+03  0.37421423170E+03  0.78987602366E+03  0.10100000352E+00 0.  1.
</event>
<event>
 5   0  0.1042395E-04  0.2140337E+04  0.7818609E-02  0.8543680E-01
        1   -1    0    0  501    0  0.00000000000E+00  0.00000000000E+00  0.11024752272E+04  0.11024752272E+04  0.50400001928E-02 0. -1.
       -1   -1    0    0    0  501  0.00000000000E+00  0.00000000000E+00 -0.10388086727E+04  0.10388086727E+04  0.50400001928E-02 0.  1.
    10030    2    1    2    0    0  0.00000000000E+00  0.00000000000E+00  0.63666554488E+02  0.21412838999E+04  0.21403371954E+04 0.  0.
        3    1    3    3  502    0  0.10437579363E+04 -0.16152026237E+03 -0.14069993296E+03  0.10655120393E+04  0.10100000352E+00 0. -1.
       -3    1    3    3    0  502 -0.10437579363E+04  0.16152026237E+03  0.20436648745E+03  0.10757718606E+04  0.10100000352E+00 0.  1.
</event>
<event>
 5   0  0.1130848E-04  0.2018097E+04  0.7818609E-02  0.8598206E-01
        1   -1    0    0  501    0  0.00000000000E+00  0.00000000000E+00  0.12010174906E+04  0.12010174906E+04  0.50400001928E-02 0.  1.
       -1   -1    0    0    0  501  0.00000000000E+00  0.00000000000E+00 -0.84776341336E+03  0.84776341338E+03  0.50400001928E-02 0. -1.
    10030    2    1    2    0    0  0.00000000000E+00  0.00000000000E+00  0.35325407724E+03  0.20487809040E+04  0.20180968137E+04 0.  0.
        5    1    3    3  502    0  0.64280219271E+03  0.27406718239E+02  0.96575560745E+03  0.11604532608E+04  0.46999998093E+01 0.  1.
       -5    1    3    3    0  502 -0.64280219271E+03 -0.27406718239E+02 -0.61250153021E+03  0.88832764320E+03  0.46999998093E+01 0. -1.
</event>
<event>
 5   0  0.2579241E-04  0.2048131E+04  0.7818609E-02  0.8584443E-01
        2   -1    0    0  501    0  0.00000000000E+00  0.00000000000E+00  0.64230321328E+03  0.64230321328E+03  0.25500000920E-02 0.  1.
       -2   -1    0    0    0  501  0.00000000000E+00  0.00000000000E+00 -0.16327332096E+04  0.16327332096E+04  0.25500000920E-02 0. -1.
    10030    2    1    2    0    0  0.00000000000E+00  0.00000000000E+00 -0.99042999635E+03  0.22750364229E+04  0.20481306472E+04 0.  0.
        5    1    3    3  502    0 -0.38435073918E+03 -0.32717917957E+03  0.49451782328E+03  0.70664112093E+03  0.46999998093E+01 0.  1.
       -5    1    3    3    0  502  0.38435073918E+03  0.32717917957E+03 -0.14849478196E+04  0.15683953020E+04  0.46999998093E+01 0. -1.
</event>
<event>
 5   0  0.1042395E-04  0.1819708E+04  0.7818609E-02  0.8695889E-01
        1   -1    0    0  501    0  0.00000000000E+00  0.00000000000E+00  0.13786537873E+04  0.13786537873E+04  0.50400001928E-02 0.  1.
       -1   -1    0    0    0  501  0.00000000000E+00  0.00000000000E+00 -0.60046558983E+03  0.60046558986E+03  0.50400001928E-02 0. -1.
    10030    2    1    2    0    0  0.00000000000E+00  0.00000000000E+00  0.77818819746E+03  0.19791193772E+04  0.18197078442E+04 0.  0.
        3    1    3    3  502    0 -0.45939551671E+03 -0.37099396698E+02 -0.46411179831E+03  0.65407979447E+03  0.10100000352E+00 0. -1.
       -3    1    3    3    0  502  0.45939551671E+03  0.37099396698E+02  0.12422999958E+04  0.13250395827E+04  0.10100000352E+00 0.  1.
</event>
<event>
 5   0  0.1156733E-04  0.1994593E+04  0.7818609E-02  0.8609153E-01
        1   -1    0    0  501    0  0.00000000000E+00  0.00000000000E+00  0.97551541756E+03  0.97551541757E+03  0.50400001928E-02 0. -1.
       -1   -1    0    0    0  501  0.00000000000E+00  0.00000000000E+00 -0.10195635128E+04  0.10195635128E+04  0.50400001928E-02 0.  1.
    10030    2    1    2    0    0  0.00000000000E+00  0.00000000000E+00 -0.44048095224E+02  0.19950789304E+04  0.19945926160E+04 0.  0.
        2    1    3    3  502    0  0.90861486989E+03 -0.14028037807E+03 -0.40856407373E+03  0.10060736398E+04  0.25500000920E-02 0.  1.
       -2    1    3    3    0  502 -0.90861486989E+03  0.14028037807E+03  0.36451597850E+03  0.98900529061E+03  0.25500000920E-02 0. -1.
</event>
<event>
 5   0  0.2448804E-04  0.1228368E+04  0.7818609E-02  0.9088382E-01
       -2   -1    0    0    0  501  0.00000000000E+00  0.00000000000E+00  0.42842769524E+03  0.42842769525E+03  0.25500000920E-02 0.  1.
        2   -1    0    0  501    0  0.00000000000E+00  0.00000000000E+00 -0.88048011485E+03  0.88048011485E+03  0.25500000920E-02 0. -1.
    10030    2    1    2    0    0  0.00000000000E+00  0.00000000000E+00 -0.45205241961E+03  0.13089078101E+04  0.12283681310E+04 0.  0.
        2    1    3    3  502    0  0.18694843241E+03 -0.35659631913E+03 -0.72023702735E+03  0.82513758051E+03  0.25500000920E-02 0. -1.
       -2    1    3    3    0  502 -0.18694843241E+03  0.35659631913E+03  0.26818460774E+03  0.48377022959E+03  0.25500000920E-02 0.  1.
</event>
<event>
 5   0  0.2448804E-04  0.2115320E+04  0.7818609E-02  0.8554525E-01
        2   -1    0    0  501    0  0.00000000000E+00  0.00000000000E+00  0.13201623257E+04  0.13201623257E+04  0.25500000920E-02 0. -1.
       -2   -1    0    0    0  501  0.00000000000E+00  0.00000000000E+00 -0.84735406586E+03  0.84735406586E+03  0.25500000920E-02 0.  1.
    10030    2    1    2    0    0  0.00000000000E+00  0.00000000000E+00  0.47280825982E+03  0.21675163915E+04  0.21153202256E+04 0.  0.
        2    1    3    3  502    0  0.18318077847E+03  0.93320154488E+03  0.71066897312E+03  0.11872113166E+04  0.25500000920E-02 0.  1.
       -2    1    3    3    0  502 -0.18318077847E+03 -0.93320154488E+03 -0.23786071330E+03  0.98030507491E+03  0.25500000920E-02 0. -1.
</event>
<event>
 5   0  0.2467483E-04  0.2081195E+04  0.7818609E-02  0.8569573E-01
       -2   -1    0    0    0  501  0.00000000000E+00  0.00000000000E+00  0.15941827950E+04  0.15941827950E+04  0.25500000920E-02 0. -1.
        2   -1    0    0  501    0  0.00000000000E+00  0.00000000000E+00 -0.67924632539E+03  0.67924632539E+03  0.25500000920E-02 0.  1.
    10030    2    1    2    0    0  0.00000000000E+00  0.00000000000E+00  0.91493646963E+03  0.22734291204E+04  0.20811946622E+04 0.  0.
        4    1    3    3  502    0  0.15072485483E+03 -0.72743622003E+03 -0.33850693078E+03  0.81637613338E+03  0.12699999809E+01 0.  1.
       -4    1    3    3    0  502 -0.15072485483E+03  0.72743622003E+03  0.12534434004E+04  0.14570529870E+04  0.12699999809E+01 0. -1.
</event>
<event>
 5   0  0.2430898E-04  0.2098039E+04  0.7818609E-02  0.8562108E-01
        2   -1    0    0  501    0  0.00000000000E+00  0.00000000000E+00  0.22269948366E+04  0.22269948366E+04  0.25500000920E-02 0.  1.
       -2   -1    0    0    0  501  0.00000000000E+00  0.00000000000E+00 -0.49413748213E+03  0.49413748213E+03  0.25500000920E-02 0. -1.
    10030    2    1    2    0    0  0.00000000000E+00  0.00000000000E+00  0.17328573545E+04  0.27211323188E+04  0.20980387235E+04 0.  0.
        1    1    3    3  502    0 -0.68232576546E+03  0.70672439048E+03  0.38915483299E+03  0.10566311080E+04  0.50400001928E-02 0. -1.
       -1    1    3    3    0  502  0.68232576546E+03 -0.70672439048E+03  0.13437025215E+04  0.16645012108E+04  0.50400001928E-02 0.  1.
</event>
<event>
 5   0  0.1156733E-04  0.2122326E+04  0.7818609E-02  0.8551472E-01
        1   -1    0    0  501    0  0.00000000000E+00  0.00000000000E+00  0.13369225780E+04  0.13369225780E+04  0.50400001928E-02 0.  1.
       -1   -1    0    0    0  501  0.00000000000E+00  0.00000000000E+00 -0.84228266641E+03  0.84228266643E+03  0.50400001928E-02 0. -1.
    10030    2    1    2    0    0  0.00000000000E+00  0.00000000000E+00  0.49463991158E+03  0.21792052444E+04  0.21223258127E+04 0.  0.
        2    1    3    3  502    0  0.86780041089E+03 -0.60724371699E+03  0.31421369537E+03  0.11047862831E+04  0.25500000920E-02 0.  1.
       -2    1    3    3    0  502 -0.86780041089E+03  0.60724371699E+03  0.18042621621E+03  0.10744189613E+04  0.25500000920E-02 0. -1.
</event>
<event>
 5   0  0.2448804E-04  0.2107567E+04  0.7818609E-02  0.8557917E-01
       -2   -1    0    0    0  501  0.00000000000E+00  0.00000000000E+00  0.10809156261E+04  0.10809156261E+04  0.25500000920E-02 0. -1.
        2   -1    0    0  501    0  0.00000000000E+00  0.00000000000E+00 -0.10273323035E+04  0.10273323035E+04  0.25500000920E-02 0.  1.
    10030    2    1    2    0    0  0.00000000000E+00  0.00000000000E+00  0.53583322584E+02  0.21082479296E+04  0.21075668816E+04 0.  0.
        2    1    3    3  502    0  0.67919736876E+03  0.12437158486E+03  0.82309046880E+03  0.10743627305E+04  0.25500000920E-02 0. -1.
       -2    1    3    3    0  502 -0.67919736876E+03 -0.12437158486E+03 -0.76950714622E+03  0.10338851991E+04  0.25500000920E-02 0.  1.
</event>
<event>
 5   0  0.2512839E-04  0.1999630E+04  0.7818609E-02  0.8606794E-01
        2   -1    0    0  501    0  0.00000000000E+00  0.00000000000E+00  0.19251677891E+04  0.19251677891E+04  0.25500000920E-02 0.  1.
       -2   -1    0    0    0  501  0.00000000000E+00  0.00000000000E+00 -0.51924299604E+03  0.51924299604E+03  0.25500000920E-02 0. -1.
    10030    2    1    2    0    0  0.00000000000E+00  0.00000000000E+00  0.14059247931E+04  0.24444107852E+04  0.19996298565E+04 0.  0.
        3    1    3    3  502    0  0.99527559644E+03 -0.84131241144E+02  0.64859095318E+03  0.11909331691E+04  0.10100000352E+00 0. -1.
       -3    1    3    3    0  502 -0.99527559644E+03  0.84131241144E+02  0.75733383990E+03  0.12534776160E+04  0.10100000352E+00 0.  1.
</event>
<event>
 5   0  0.8698750E-05  0.2075420E+04  0.7818609E-02  0.8572149E-01
        3   -1    0    0  501    0  0.00000000000E+00  0.00000000000E+00  0.73587878314E+03  0.73587879008E+03  0.10100000352E+00 0.  1.
       -3   -1    0    0    0  501  0.00000000000E+00  0.00000000000E+00 -0.14633413698E+04  0.14633413733E+04  0.10100000352E+00 0. -1.
    10030    2    1    2    0    0  0.00000000000E+00  0.00000000000E+00 -0.72746258666E+03  0.21992201634E+04  0.20754198399E+04 0.  0.
        3    1    3    3  502    0 -0.57101106604E+03  0.67220696355E+03 -0.94308609485E+03  0.12912502592E+04  0.10100000352E+00 0. -1.
       -3    1    3    3    0  502  0.57101106604E+03 -0.67220696355E+03  0.21562350819E+03  0.90796990417E+03  0.10100000352E+00 0.  1.
</event>
<event>
 5   0  0.8698750E-05  0.2057528E+04  0.7818609E-02  0.8580187E-01
       -3   -1    0    0    0  501  0.00000000000E+00  0.00000000000E+00  0.10886448961E+04  0.10886449008E+04  0.10100000352E+00 0. -1.
        3   -1    0    0  501    0  0.00000000000E+00  0.00000000000E+00 -0.97217723566E+03  0.97217724091E+03  0.10100000352E+00 0.  1.
    10030    2    1    2    0    0  0.00000000000E+00  0.00000000000E+00  0.11646766042E+03  0.20608221417E+04  0.20575284162E+04 0.  0.
        3    1    3    3  502    0  0.38538301170E+02 -0.51720058411E+03 -0.83165574160E+03  0.98011883340E+03  0.10100000352E+00 0.  1.
       -3    1    3    3    0  502 -0.38538301170E+02  0.51720058411E+03  0.94812340201E+03  0.10807033083E+04  0.10100000352E+00 0. -1.
</event>
<event>
 5   0  0.1042395E-04  0.1383544E+04  0.7818609E-02  0.8965817E-01
       -1   -1    0    0    0  501  0.00000000000E+00  0.00000000000E+00  0.46133084217E+03  0.46133084219E+03  0.50400001928E-02 0.  1.
        1   -1    0    0  501    0  0.00000000000E+00  0.00000000000E+00 -0.10373223001E+04  0.10373223002E+04  0.50400001928E-02 0. -1.
    10030    2    1    2    0    0  0.00000000000E+00  0.00000000000E+00 -0.57599145798E+03  0.14986531423E+04  0.13835443908E+04 0.  0.
        3    1    3    3  502    0 -0.19607639000E+03  0.63413859093E+03 -0.49906955075E+03  0.83045055837E+03  0.10100000352E+00 0.  1.
       -3    1    3    3    0  502  0.19607639000E+03 -0.63413859093E+03 -0.76921907230E+02  0.66820258398E+03  0.10100000352E+00 0. -1.
</event>
<event>
 5   0  0.2579241E-04  0.2205283E+04  0.7818609E-02  0.8516233E-01
       -2   -1    0    0    0  501  0.00000000000E+00  0.00000000000E+00  0.10819051667E+04  0.10819051667E+04  0.25500000920E-02 0. -1.
        2   -1    0    0  501    0  0.00000000000E+00  0.00000000000E+00 -0.11237749125E+04  0.11237749125E+04  0.25500000920E-02 0.  1.
    10030    2    1    2    0    0  0.00000000000E+00  0.00000000000E+00 -0.41869745847E+02  0.22056800792E+04  0.22052826431E+04 0.  0.
        5    1    3    3  502    0  0.83836616544E+03 -0.94325168675E+02 -0.73102108037E+03  0.11163193874E+04  0.46999998093E+01 0.  1.
       -5    1    3    3    0  502 -0.83836616544E+03  0.94325168675E+02  0.68915133453E+03  0.10893606917E+04  0.46999998093E+01 0. -1.
</event>
<event>
 5   0  0.1186038E-04  0.2104145E+04  0.7818609E-02  0.8559420E-01
       -1   -1    0    0    0  501  0.00000000000E+00  0.00000000000E+00  0.93543725489E+03  0.93543725490E+03  0.50400001928E-02 0. -1.
        1   -1    0    0  501    0  0.00000000000E+00  0.00000000000E+00 -0.11832505049E+04  0.11832505049E+04  0.50400001928E-02 0.  1.
    10030    2    1    2    0    0  0.00000000000E+00  0.00000000000E+00 -0.24781325004E+03  0.21186877598E+04  0.21041450560E+04 0.  0.
        4    1    3    3  502    0 -0.15420104584E+02  0.46700623719E+03  0.82522286781E+03  0.94832852939E+03  0.12699999809E+01 0. -1.
       -4    1    3    3    0  502  0.15420104584E+02 -0.46700623719E+03 -0.10730361178E+04  0.11703592305E+04  0.12699999809E+01 0.  1.
</event>
<event>
 5   0  0.2430898E-04  0.2118375E+04  0.7818609E-02  0.8553192E-01
       -2   -1    0    0    0  501  0.00000000000E+00  0.00000000000E+00  0.72624328198E+03  0.72624328198E+03  0.25500000920E-02 0.  1.
        2   -1    0    0  501    0  0.00000000000E+00  0.00000000000E+00 -0.15447689320E+04  0.15447689320E+04  0.25500000920E-02 0. -1.
    10030    2    1    2    0    0  0.00000000000E+00  0.00000000000E+00 -0.81852564997E+03  0.22710122139E+04  0.21183749045E+04 0.  0.
        1    1    3    3  502    0  0.21565331892E+03 -0.33105475240E+03 -0.14628112550E+04  0.15152294780E+04  0.50400001928E-02 0. -1.
       -1    1    3    3    0  502 -0.21565331892E+03  0.33105475240E+03  0.64428560506E+03  0.75578273595E+03  0.50400001928E-02 0.  1.
</event>
<event>
 5   0  0.2448804E-04  0.2005693E+04  0.7818609E-02  0.8603964E-01
        2   -1    0    0  501    0  0.00000000000E+00  0.00000000000E+00  0.19148381690E+04  0.19148381690E+04  0.25500000920E-02 0. -1.
       -2   -1    0    0    0  501  0.00000000000E+00  0.00000000000E+00 -0.52521477927E+03  0.52521477928E+03  0.25500000920E-02 0.  1.
    10030    2    1    2    0    0  0.00000000000E+00  0.00000000000E+00  0.13896233897E+04  0.24400529483E+04  0.20056932032E+04 0.  0.
        2    1    3    3  502    0 -0.29173837545E+03  0.22135445693E+03  0.18305843880E+04  0.18668551837E+04  0.25500000920E-02 0. -1.
       -2    1    3    3    0  502  0.29173837545E+03 -0.22135445693E+03 -0.44096099827E+03  0.57319776458E+03  0.25500000920E-02 0.  1.
</event>
<event>
 5   0  0.1130848E-04  0.1949777E+04  0.7818609E-02  0.8630468E-01
        1   -1    0    0  501    0  0.00000000000E+00  0.00000000000E+00  0.86908299455E+03  0.86908299456E+03  0.50400001928E-02 0.  1.
       -1   -1    0    0    0  501  0.00000000000E+00  0.00000000000E+00 -0.10935748552E+04  0.10935748552E+04  0.50400001928E-02 0. -1.
    10030    2    1    2    0    0  0.00000000000E+00  0.00000000000E+00 -0.22449186065E+03  0.19626578498E+04  0.19497767154E+04 0.  0.
        5    1    3    3  502    0 -0.56203888311E+03 -0.25536385825E+03 -0.87174155829E+03  0.10682012173E+04  0.46999998093E+01 0. -1.
       -5    1    3    3    0  502  0.56203888311E+03  0.25536385825E+03  0.64724969764E+03  0.89445663245E+03  0.46999998093E+01 0.  1.
</event>
<event>
 5   0  0.2467483E-04  0.2158654E+04  0.7818609E-02  0.8535837E-01
        2   -1    0    0  501    0  0.00000000000E+00  0.00000000000E+00  0.11574416128E+04  0.11574416128E+04  0.25500000920E-02 0. -1.
       -2   -1    0    0    0  501  0.00000000000E+00  0.00000000000E+00 -0.10064842860E+04  0.10064842860E+04  0.25500000920E-02 0.  1.
    10030    2    1    2    0    0  0.00000000000E+00  0.00000000000E+00  0.15095732686E+03  0.21639258988E+04  0.21586540206E+04 0.  0.
        4    1    3    3  502    0  0.54920381140E+03  0.92059668205E+03  0.20157180722E+03  0.10907593153E+04  0.12699999809E+01 0.  1.
       -4    1    3    3    0  502 -0.54920381140E+03 -0.92059668205E+03 -0.50614480363E+02  0.10731665835E+04  0.12699999809E+01 0. -1.
</event>
<event>
 5   0  0.2579241E-04  0.2077613E+04  0.7818609E-02  0.8571170E-01
        2   -1    0    0  501    0  0.00000000000E+00  0.00000000000E+00  0.12094277267E+04  0.12094277267E+04  0.25500000920E-02 0. -1.
       -2   -1    0    0    0  501  0.00000000000E+00  0.00000000000E+00 -0.89225565193E+03  0.89225565193E+03  0.25500000920E-02 0.  1.
    10030    2    1    2    0    0  0.00000000000E+00  0.00000000000E+00  0.31717207477E+03  0.21016833786E+04  0.20776127885E+04 0.  0.
        5    1    3    3  502    0 -0.21479681789E+03 -0.26747861010E+03  0.11504633020E+04  0.12005292080E+04  0.46999998093E+01 0. -1.
       -5    1    3    3    0  502  0.21479681789E+03  0.26747861010E+03 -0.83329122728E+03  0.90115417066E+03  0.46999998093E+01 0.  1.
</event>
<event>
 5   0  0.1186038E-04  0.2123680E+04  0.7818609E-02  0.8550883E-01
        1   -1    0    0  501    0  0.00000000000E+00  0.00000000000E+00  0.13615489007E+04  0.13615489007E+04  0.50400001928E-02 0.  1.
       -1   -1    0    0    0  501  0.00000000000E+00  0.00000000000E+00 -0.82810383961E+03  0.82810383962E+03  0.50400001928E-02 0. -1.
    10030    2    1    2    0    0  0.00000000000E+00  0.00000000000E+00  0.53344506110E+03  0.21896527403E+04  0.21236797051E+04 0.  0.
        4    1    3    3  502    0 -0.80541609361E+03  0.62151812323E+03 -0.46901743474E+02  0.10184209581E+04  0.12699999809E+01 0. -1.
       -4    1    3    3    0  502  0.80541609361E+03 -0.62151812323E+03  0.58034680458E+03  0.11712317823E+04  0.12699999809E+01 0.  1.
</event>
<event>
 5   0  0.2512839E-04  0.2050461E+04  0.7818609E-02  0.8583385E-01
        2   -1    0    0  501    0  0.00000000000E+00  0.00000000000E+00  0.15932147443E+04  0.15932147443E+04  0.25500000920E-02 0.  1.
       -2   -1    0    0    0  501  0.00000000000E+00  0.00000000000E+00 -0.65973378894E+03  0.65973378895E+03  0.25500000920E-02 0. -1.
    10030    2    1    2    0    0  0.00000000000E+00  0.00000000000E+00  0.93348095533E+03  0.22529485332E+04  0.20504610212E+04 0.  0.
        3    1    3    3  502    0  0.60459151927E+03  0.23403280459E+03 -0.40591734851E+03  0.76489944622E+03  0.10100000352E+00 0. -1.
       -3    1    3    3    0  502 -0.60459151927E+03 -0.23403280459E+03  0.13393983038E+04  0.14880490870E+04  0.10100000352E+00 0.  1.
</event>
<event>
 5   0  0.1130848E-04  0.2126771E+04  0.7818609E-02  0.8549541E-01
       -1   -1    0    0    0  501  0.00000000000E+00  0.00000000000E+00  0.59254093175E+03  0.59254093178E+03  0.50400001928E-02 0. -1.
        1   -1    0    0  501    0  0.00000000000E+00  0.00000000000E+00 -0.19083730860E+04  0.19083730860E+04  0.50400001928E-02 0.  1.
    10030    2    1    2    0    0  0.00000000000E+00  0.00000000000E+00 -0.13158321543E+04  0.25009140178E+04  0.21267714184E+04 0.  0.
        5    1    3    3  502    0 -0.22653411045E+03 -0.78263288529E+03  0.14562156267E+03  0.82768331253E+03  0.46999998093E+01 0. -1.
       -5    1    3    3    0  502  0.22653411045E+03  0.78263288529E+03 -0.14614537169E+04  0.16732307053E+04  0.46999998093E+01 0.  1.
</event>
<event>
 5   0  0.1042395E-04  0.2206256E+04  0.7818609E-02  0.8515829E-01
        1   -1    0    0  501    0  0.00000000000E+00  0.00000000000E+00  0.24131025163E+04  0.24131025163E+04  0.50400001928E-02 0.  1.
       -1   -1    0    0    0  501  0.00000000000E+00  0.00000000000E+00 -0.50428514469E+03  0.50428514471E+03  0.50400001928E-02 0. -1.
    10030    2    1    2    0    0  0.00000000000E+00  0.00000000000E+00  0.19088173716E+04  0.29173876610E+04  0.22062563329E+04 0.  0.
        3    1    3    3  502    0  0.84773143806E+03  0.14234933451E+03  0.40205033685E+02  0.86053958599E+03  0.10100000352E+00 0. -1.
       -3    1    3    3    0  502 -0.84773143806E+03 -0.14234933451E+03  0.18686123379E+04  0.20568480750E+04  0.10100000352E+00 0.  1.
</event>
<event>
 5   0  0.1042395E-04  0.2090612E+04  0.7818609E-02  0.8565390E-01
       -1   -1    0    0    0  501  0.00000000000E+00  0.00000000000E+00  0.81528785930E+03  0.81528785932E+03  0.50400001928E-02 0.  1.
        1   -1    0    0  501    0  0.00000000000E+00  0.00000000000E+00 -0.13402194651E+04  0.13402194651E+04  0.50400001928E-02 0. -1.
    10030    2    1    2    0    0  0.00000000000E+00  0.00000000000E+00 -0.52493160579E+03  0.21555073244E+04  0.20906120240E+04 0.  0.
        3    1    3    3  502    0 -0.37633719202E+03  0.68528923653E+02  0.74053059093E+03  0.83349352834E+03  0.10100000352E+00 0.  1.
       -3    1    3    3    0  502  0.37633719202E+03 -0.68528923653E+02 -0.12654621967E+04  0.13220137961E+04  0.10100000352E+00 0. -1.
</event>
<event>
 5   0  0.1122711E-04  0.2122429E+04  0.7818609E-02  0.8551427E-01
       -1   -1    0    0    0  501  0.00000000000E+00  0.00000000000E+00  0.12125566975E+04  0.12125566975E+04  0.50400001928E-02 0.  1.
        1   -1    0    0  501    0  0.00000000000E+00  0.00000000000E+00 -0.92876183340E+03  0.92876183341E+03  0.50400001928E-02 0. -1.
    10030    2    1    2    0    0  0.00000000000E+00  0.00000000000E+00  0.28379486412E+03  0.21413185309E+04  0.21224291569E+04 0.  0.
        1    1    3    3  502    0 -0.35815588449E+03  0.82238910619E+03  0.71402186594E+03  0.11464844982E+04  0.50400001928E-02 0.  1.
       -1    1    3    3    0  502  0.35815588449E+03 -0.82238910619E+03 -0.43022700182E+03  0.99483403274E+03  0.50400001928E-02 0. -1.
</event>
<event>
 5   0  0.2512839E-04  0.2064294E+04  0.7818609E-02  0.8577138E-01
        2   -1    0    0  501    0  0.00000000000E+00  0.00000000000E+00  0.84897614311E+03  0.84897614312E+03  0.25500000920E-02 0. -1.
       -2   -1    0    0    0  501  0.00000000000E+00  0.00000000000E+00 -0.12548372962E+04  0.12548372962E+04  0.25500000920E-02 0.  1.
    10030    2    1    2    0    0  0.00000000000E+00  0.00000000000E+00 -0.40586115309E+03  0.21038134393E+04  0.20642935140E+04 0.  0.
        3    1    3    3  502    0  0.53981063763E+03  0.71447027870E+03 -0.72604428324E+03  0.11528241909E+04  0.10100000352E+00 0. -1.
       -3    1    3    3    0  502 -0.53981063763E+03 -0.71447027870E+03  0.32018313015E+03  0.95098924845E+03  0.10100000352E+00 0.  1.
</event>
<event>
 5   0  0.8698750E-05  0.1349056E+04  0.7818609E-02  0.8991543E-01
        3   -1    0    0  501    0  0.00000000000E+00  0.00000000000E+00  0.29226165140E+03  0.29226166885E+03  0.10100000352E+00 0. -1.
       -3   -1    0    0    0  501  0.00000000000E+00  0.00000000000E+00 -0.15567838641E+04  0.15567838673E+04  0.10100000352E+00 0.  1.
    10030    2    1    2    0    0  0.00000000000E+00  0.00000000000E+00 -0.12645222127E+04  0.18490455362E+04  0.13490563252E+04 0.  0.
        4    1    3    3  502    0 -0.24164586373E+02  0.35250503150E+03  0.15527143498E+03  0.38594631219E+03  0.12699999809E+01 0. -1.
       -4    1    3    3    0  502  0.24164586373E+02 -0.35250503150E+03 -0.14197936476E+04  0.14630992240E+04  0.12699999809E+01 0.  1.
</event>
<event>
 5   0  0.2512839E-04  0.1438271E+04  0.7818609E-02  0.8926573E-01
        2   -1    0    0  501    0  0.00000000000E+00  0.00000000000E+00  0.18668456947E+04  0.18668456947E+04  0.25500000920E-02 0.  1.
       -2   -1    0    0    0  501  0.00000000000E+00  0.00000000000E+00 -0.27702117097E+03  0.27702117098E+03  0.25500000920E-02 0. -1.
    10030    2    1    2    0    0  0.00000000000E+00  0.00000000000E+00  0.15898245238E+04  0.21438668657E+04  0.14382708791E+04 0.  0.
        3    1    3    3  502    0 -0.66841666779E+03 -0.10208013435E+03  0.11598916071E+04  0.13425906845E+04  0.10100000352E+00 0.  1.
       -3    1    3    3    0  502  0.66841666779E+03  0.10208013435E+03  0.42993291668E+03  0.80127618126E+03  0.10100000352E+00 0. -1.
</event>
<event>
 5   0  0.2579241E-04  0.1912981E+04  0.7818609E-02  0.8648422E-01
        2   -1    0    0  501    0  0.00000000000E+00  0.00000000000E+00  0.13956035677E+04  0.13956035677E+04  0.25500000920E-02 0.  1.
       -2   -1    0    0    0  501  0.00000000000E+00  0.00000000000E+00 -0.65553974361E+03  0.65553974361E+03  0.25500000920E-02 0. -1.
    10030    2    1    2    0    0  0.00000000000E+00  0.00000000000E+00  0.74006382405E+03  0.20511433113E+04  0.19129805069E+04 0.  0.
        5    1    3    3  502    0 -0.87729108110E+03  0.37648344039E+03  0.30685169117E+03  0.10027758834E+04  0.46999998093E+01 0. -1.
       -5    1    3    3    0  502  0.87729108110E+03 -0.37648344039E+03  0.43321213288E+03  0.10483674279E+04  0.46999998093E+01 0.  1.
</event>
<event>
 5   0  0.1186038E-04  0.2114207E+04  0.7818609E-02  0.8555011E-01
       -1   -1    0    0    0  501  0.00000000000E+00  0.00000000000E+00  0.96321055839E+03  0.96321055840E+03  0.50400001928E-02 0.  1.
        1   -1    0    0  501    0  0.00000000000E+00  0.00000000000E+00 -0.11601485290E+04  0.11601485290E+04  0.50400001928E-02 0. -1.
    10030    2    1    2    0    0  0.00000000000E+00  0.00000000000E+00 -0.19693797060E+03  0.21233590874E+04  0.21142065296E+04 0.  0.
        4    1    3    3  502    0  0.34225986990E+03 -0.78246220595E+03 -0.72412390362E+03  0.11197079811E+04  0.12699999809E+01 0. -1.
       -4    1    3    3    0  502 -0.34225986990E+03  0.78246220595E+03  0.52718593301E+03  0.10036511063E+04  0.12699999809E+01 0.  1.
</event>
<event>
 5   0  0.1122711E-04  0.2100270E+04  0.7818609E-02  0.8561124E-01
       -1   -1    0    0    0  501  0.00000000000E+00  0.00000000000E+00  0.92180522135E+03  0.92180522136E+03  0.50400001928E-02 0. -1.
        1   -1    0    0  501    0  0.00000000000E+00  0.00000000000E+00 -0.11963303215E+04  0.11963303216E+04  0.50400001928E-02 0.  1.
    10030    2    1    2    0    0  0.00000000000E+00  0.00000000000E+00 -0.27452510020E+03  0.21181355429E+04  0.21002700178E+04 0.  0.
        1    1    3    3  502    0  0.10225184764E+04  0.14781872308E+02  0.10355937548E+03  0.10278555747E+04  0.50400001928E-02 0. -1.
       -1    1    3    3    0  502 -0.10225184764E+04 -0.14781872308E+02 -0.37808447568E+03  0.10902799682E+04  0.50400001928E-02 0.  1.
</event>
<event>
 5   0  0.2448804E-04  0.2074032E+04  0.7818609E-02  0.8572770E-01
       -2   -1    0    0    0  501  0.00000000000E+00  0.00000000000E+00  0.72857536010E+03  0.72857536011E+03  0.25500000920E-02 0. -1.
        2   -1    0    0  501    0  0.00000000000E+00  0.00000000000E+00 -0.14760339495E+04  0.14760339495E+04  0.25500000920E-02 0.  1.
    10030    2    1    2    0    0  0.00000000000E+00  0.00000000000E+00 -0.74745858941E+03  0.22046093096E+04  0.20740317898E+04 0.  0.
        2    1    3    3  502    0  0.50100010956E+03 -0.12407266613E+03  0.58234649818E+03  0.77815331407E+03  0.25500000920E-02 0. -1.
       -2    1    3    3    0  502 -0.50100010956E+03  0.12407266613E+03 -0.13298050876E+04  0.14264559956E+04  0.25500000920E-02 0.  1.
</event>
<event>
 5   0  0.2512839E-04  0.2042935E+04  0.7818609E-02  0.8586806E-01
        2   -1    0    0  501    0  0.00000000000E+00  0.00000000000E+00  0.17386519428E+04  0.17386519428E+04  0.25500000920E-02 0.  1.
       -2   -1    0    0    0  501  0.00000000000E+00  0.00000000000E+00 -0.60011788109E+03  0.60011788110E+03  0.25500000920E-02 0. -1.
    10030    2    1    2    0    0  0.00000000000E+00  0.00000000000E+00  0.11385340617E+04  0.23387698239E+04  0.20429352607E+04 0.  0.
        3    1    3    3  502    0 -0.11396580386E+02 -0.37988726255E+03  0.16546952382E+04  0.16977810683E+04  0.10100000352E+00 0.  1.
       -3    1    3    3    0  502  0.11396580386E+02  0.37988726255E+03 -0.51616117659E+03  0.64098875552E+03  0.10100000352E+00 0. -1.
</event>
<event>
 5   0  0.1122711E-04  0.2102905E+04  0.7818609E-02  0.8559965E-01
       -1   -1    0    0    0  501  0.00000000000E+00  0.00000000000E+00  0.91316260672E+03  0.91316260673E+03  0.50400001928E-02 0. -1.
        1   -1    0    0  501    0  0.00000000000E+00  0.00000000000E+00 -0.12106854842E+04  0.12106854842E+04  0.50400001928E-02 0.  1.
    10030    2    1    2    0    0  0.00000000000E+00  0.00000000000E+00 -0.29752287750E+03  0.21238480910E+04  0.21029053357E+04 0.  0.
        1    1    3    3  502    0  0.39915771295E+03  0.89616845782E+03 -0.53082496046E+03  0.11154460647E+04  0.50400001928E-02 0.  1.
       -1    1    3    3    0  502 -0.39915771295E+03 -0.89616845782E+03  0.23330208296E+03  0.10084020262E+04  0.50400001928E-02 0. -1.
</event>
<event>
 5   0  0.2579241E-04  0.2128177E+04  0.7818609E-02  0.8548932E-01
       -2   -1    0    0    0  501  0.00000000000E+00  0.00000000000E+00  0.61957952576E+03  0.61957952576E+03  0.25500000920E-02 0. -1.
        2   -1    0    0  501    0  0.00000000000E+00  0.00000000000E+00 -0.18275040653E+04  0.18275040653E+04  0.25500000920E-02 0.  1.
    10030    2    1    2    0    0  0.00000000000E+00  0.00000000000E+00 -0.12079245395E+04  0.24470835911E+04  0.21281767803E+04 0.  0.
        5    1    3    3  502    0  0.49180201213E+03 -0.85299598862E+03 -0.14002868282E+03  0.99453582024E+03  0.46999998093E+01 0. -1.
       -5    1    3    3    0  502 -0.49180201213E+03  0.85299598862E+03 -0.10678958567E+04  0.14525477708E+04  0.46999998093E+01 0.  1.
</event>
<event>
 5   0  0.1122711E-04  0.2018078E+04  0.7818609E-02  0.8598215E-01
       -1   -1    0    0    0  501  0.00000000000E+00  0.00000000000E+00  0.42231512305E+03  0.42231512308E+03  0.50400001928E-02 0. -1.
        1   -1    0    0  501    0  0.00000000000E+00  0.00000000000E+00 -0.24108996260E+04  0.24108996260E+04  0.50400001928E-02 0.  1.
    10030    2    1    2    0    0  0.00000000000E+00  0.00000000000E+00 -0.19885845030E+04  0.28332147491E+04  0.20180776717E+04 0.  0.
        1    1    3    3  502    0 -0.90161288868E+03 -0.41068176983E+03 -0.12628556882E+04  0.16051074127E+04  0.50400001928E-02 0. -1.
       -1    1    3    3    0  502  0.90161288868E+03  0.41068176983E+03 -0.72572881477E+03  0.12281073364E+04  0.50400001928E-02 0.  1.
</event>
<event>
 5   0  0.1130848E-04  0.1571288E+04  0.7818609E-02  0.8838383E-01
        1   -1    0    0  501    0  0.00000000000E+00  0.00000000000E+00  0.15787097762E+04  0.15787097762E+04  0.50400001928E-02 0.  1.
       -1   -1    0    0    0  501  0.00000000000E+00  0.00000000000E+00 -0.39097552345E+03  0.39097552349E+03  0.50400001928E-02 0. -1.
    10030    2    1    2    0    0  0.00000000000E+00  0.00000000000E+00  0.11877342527E+04  0.19696852997E+04  0.15712884919E+04 0.  0.
        5    1    3    3  502    0  0.67409075294E+03  0.42020494714E+02  0.10969299885E+04  0.12881931357E+04  0.46999998093E+01 0.  1.
       -5    1    3    3    0  502 -0.67409075294E+03 -0.42020494714E+02  0.90804264233E+02  0.68149216399E+03  0.46999998093E+01 0. -1.
</event>
<event>
 5   0  0.2448804E-04  0.1968321E+04  0.7818609E-02  0.8621577E-01
        2   -1    0    0  501    0  0.00000000000E+00  0.00000000000E+00  0.54279626178E+03  0.54279626179E+03  0.25500000920E-02 0. -1.
       -2   -1    0    0    0  501  0.00000000000E+00  0.00000000000E+00 -0.17844112208E+04  0.17844112208E+04  0.25500000920E-02 0.  1.
    10030    2    1    2    0    0  0.00000000000E+00  0.00000000000E+00 -0.12416149591E+04  0.23272074826E+04  0.19683208480E+04 0.  0.
        2    1    3    3  502    0  0.76359568124E+03  0.53374489748E+03 -0.99583165860E+03  0.13636871607E+04  0.25500000920E-02 0.  1.
       -2    1    3    3    0  502 -0.76359568124E+03 -0.53374489748E+03 -0.24578330046E+03  0.96352032193E+03  0.25500000920E-02 0. -1.
</event>
<event>
 5   0  0.1122711E-04  0.1629015E+04  0.7818609E-02  0.8802919E-01
        1   -1    0    0  501    0  0.00000000000E+00  0.00000000000E+00  0.12949161695E+04  0.12949161695E+04  0.50400001928E-02 0.  1.
       -1   -1    0    0    0  501  0.00000000000E+00  0.00000000000E+00 -0.51232851730E+03  0.51232851733E+03  0.50400001928E-02 0. -1.
    10030    2    1    2    0    0  0.00000000000E+00  0.00000000000E+00  0.78258765221E+03  0.18072446868E+04  0.16290150167E+04 0.  0.
        1    1    3    3  502    0 -0.42164003575E+03  0.68438356980E+03  0.53705051816E+03  0.96673908033E+03  0.50400001928E-02 0.  1.
       -1    1    3    3    0  502  0.42164003575E+03 -0.68438356980E+03  0.24553713405E+03  0.84050560652E+03  0.50400001928E-02 0. -1.
</event>
<event>
 5   0  0.1156733E-04  0.2027952E+04  0.7818609E-02  0.8593663E-01
        1   -1    0    0  501    0  0.00000000000E+00  0.00000000000E+00  0.24293266873E+04  0.24293266873E+04  0.50400001928E-02 0.  1.
       -1   -1    0    0    0  501  0.00000000000E+00  0.00000000000E+00 -0.42322299630E+03  0.42322299633E+03  0.50400001928E-02 0. -1.
    10030    2    1    2    0    0  0.00000000000E+00  0.00000000000E+00  0.20061036910E+04  0.28525496836E+04  0.20279515967E+04 0.  0.
        2    1    3    3  502    0  0.36981877044E+03 -0.12045986785E+03  0.23202264282E+04  0.23526000894E+04  0.25500000920E-02 0.  1.
       -2    1    3    3    0  502 -0.36981877044E+03  0.12045986785E+03 -0.31412273717E+03  0.49994959421E+03  0.25500000920E-02 0. -1.
</event>
<event>
 5   0  0.2579241E-04  0.1749818E+04  0.7818609E-02  0.8733450E-01
        2   -1    0    0  501    0  0.00000000000E+00  0.00000000000E+00  0.13875994453E+04  0.13875994453E+04  0.25500000920E-02 0. -1.
       -2   -1    0    0    0  501  0.00000000000E+00  0.00000000000E+00 -0.55164762428E+03  0.55164762428E+03  0.25500000920E-02 0.  1.
    10030    2    1    2    0    0  0.00000000000E+00  0.00000000000E+00  0.83595182102E+03  0.19392470696E+04  0.17498182048E+04 0.  0.
        5    1    3    3  502    0  0.47403792523E+03 -0.63406141912E+03  0.52370813895E+01  0.79170408284E+03  0.46999998093E+01 0.  1.
       -5    1    3    3    0  502 -0.47403792523E+03  0.63406141912E+03  0.83071473963E+03  0.11475429867E+04  0.46999998093E+01 0. -1.
</event>
<event>
 5   0  0.2467483E-04  0.1993904E+04  0.7818609E-02  0.8609476E-01
        2   -1    0    0  501    0  0.00000000000E+00  0.00000000000E+00  0.15012102176E+04  0.15012102176E+04  0.25500000920E-02 0. -1.
       -2   -1    0    0    0  501  0.00000000000E+00  0.00000000000E+00 -0.66207456515E+03  0.66207456515E+03  0.25500000920E-02 0.  1.
    10030    2    1    2    0    0  0.00000000000E+00  0.00000000000E+00  0.83913565242E+03  0.21632847827E+04  0.19939038111E+04 0.  0.
        4    1    3    3  502    0  0.58755231021E+03 -0.76553763887E+03  0.14801407773E+03  0.97630700800E+03  0.12699999809E+01 0. -1.
       -4    1    3    3    0  502 -0.58755231021E+03  0.76553763887E+03  0.69112157469E+03  0.11869777747E+04  0.12699999809E+01 0.  1.
</event>
<event>
 5   0  0.1156733E-04  0.2046734E+04  0.7818609E-02  0.8585078E-01
       -1   -1    0    0    0  501  0.00000000000E+00  0.00000000000E+00  0.85967401204E+03  0.85967401205E+03  0.50400001928E-02 0. -1.
        1   -1    0    0  501    0  0.00000000000E+00  0.00000000000E+00 -0.12182288630E+04  0.12182288630E+04  0.50400001928E-02 0.  1.
    10030    2    1    2    0    0  0.00000000000E+00  0.00000000000E+00 -0.35855485097E+03  0.20779028751E+04  0.20467336849E+04 0.  0.
        2    1    3    3  502    0  0.76997522069E+03  0.57894717064E+02  0.50256493633E+03  0.92129536739E+03  0.25500000920E-02 0. -1.
       -2    1    3    3    0  502 -0.76997522069E+03 -0.57894717064E+02 -0.86111978729E+03  0.11566075077E+04  0.25500000920E-02 0.  1.
</event>
<event>
 5   0  0.1042395E-04  0.2040613E+04  0.7818609E-02  0.8587865E-01
        1   -1    0    0  501    0  0.00000000000E+00  0.00000000000E+00  0.16050397393E+04  0.16050397393E+04  0.50400001928E-02 0. -1.
       -1   -1    0    0    0  501  0.00000000000E+00  0.00000000000E+00 -0.64859778510E+03  0.64859778512E+03  0.50400001928E-02 0.  1.
    10030    2    1    2    0    0  0.00000000000E+00  0.00000000000E+00  0.95644195416E+03  0.22536375244E+04  0.20406128686E+04 0.  0.
        3    1    3    3  502    0  0.34232620752E+03  0.31148324591E+03 -0.52599684264E+03  0.70062952657E+03  0.10100000352E+00 0.  1.
       -3    1    3    3    0  502 -0.34232620752E+03 -0.31148324591E+03  0.14824387968E+04  0.15530079978E+04  0.10100000352E+00 0. -1.
</event>
<event>
 5   0  0.1156733E-04  0.2111714E+04  0.7818609E-02  0.8556101E-01
        1   -1    0    0  501    0  0.00000000000E+00  0.00000000000E+00  0.15994483945E+04  0.15994483945E+04  0.50400001928E-02 0. -1.
       -1   -1    0    0    0  501  0.00000000000E+00  0.00000000000E+00 -0.69701138951E+03  0.69701138953E+03  0.50400001928E-02 0.  1.
    10030    2    1    2    0    0  0.00000000000E+00  0.00000000000E+00  0.90243700503E+03  0.22964597841E+04  0.21117137571E+04 0.  0.
        2    1    3    3  502    0 -0.76876414229E+03  0.71912306418E+03  0.54021621837E+03  0.11832032161E+04  0.25500000920E-02 0. -1.
       -2    1    3    3    0  502  0.76876414229E+03 -0.71912306418E+03  0.36222078666E+03  0.11132565680E+04  0.25500000920E-02 0.  1.
</event>
<event>
 5   0  0.2512839E-04  0.2095903E+04  0.7818609E-02  0.8563050E-01
        2   -1    0    0  501    0  0.00000000000E+00  0.00000000000E+00  0.81325384248E+03  0.81325384248E+03  0.25500000920E-02 0.  1.
       -2   -1    0    0    0  501  0.00000000000E+00  0.00000000000E+00 -0.13503801986E+04  0.13503801987E+04  0.25500000920E-02 0. -1.
    10030    2    1    2    0    0  0.00000000000E+00  0.00000000000E+00 -0.53712635617E+03  0.21636340411E+04  0.20959025601E+04 0.  0.
        3    1    3    3  502    0 -0.97917767606E+03 -0.69316223819E+02 -0.64730956643E+03  0.11758415476E+04  0.10100000352E+00 0. -1.
       -3    1    3    3    0  502  0.97917767606E+03  0.69316223819E+02  0.11018321026E+03  0.98779249349E+03  0.10100000352E+00 0.  1.
</event>
<event>
 5   0  0.1130848E-04  0.1980849E+04  0.7818609E-02  0.8615627E-01
        1   -1    0    0  501    0  0.00000000000E+00  0.00000000000E+00  0.13269070908E+04  0.13269070908E+04  0.50400001928E-02 0.  1.
       -1   -1    0    0    0  501  0.00000000000E+00  0.00000000000E+00 -0.73926832508E+03  0.73926832510E+03  0.50400001928E-02 0. -1.
    10030    2    1    2    0    0  0.00000000000E+00  0.00000000000E+00  0.58763876573E+03  0.20661754159E+04  0.19808486894E+04 0.  0.
        5    1    3    3  502    0 -0.16172237680E+03 -0.45546676663E+03  0.11955306612E+04  0.12895424594E+04  0.46999998093E+01 0.  1.
       -5    1    3    3    0  502  0.16172237680E+03  0.45546676663E+03 -0.60789189545E+03  0.77663295656E+03  0.46999998093E+01 0. -1.
</event>
<event>
 5   0  0.1186038E-04  0.2095825E+04  0.7818609E-02  0.8563085E-01
        1   -1    0    0  501    0  0.00000000000E+00  0.00000000000E+00  0.12201340115E+04  0.12201340115E+04  0.50400001928E-02 0. -1.
       -1   -1    0    0    0  501  0.00000000000E+00  0.00000000000E+00 -0.90000037078E+03  0.90000037079E+03  0.50400001928E-02 0.  1.
    10030    2    1    2    0    0  0.00000000000E+00  0.00000000000E+00  0.32013364074E+03  0.21201343823E+04  0.20958254343E+04 0.  0.
        4    1    3    3  502    0 -0.63353102558E+03  0.57770758684E+03 -0.44942611185E+03  0.96803567041E+03  0.12699999809E+01 0.  1.
       -4    1    3    3    0  502  0.63353102558E+03 -0.57770758684E+03  0.76955975259E+03  0.11520987119E+04  0.12699999809E+01 0. -1.
</event>
<event>
 5   0  0.1042395E-04  0.2081344E+04  0.7818609E-02  0.8569506E-01
        1   -1    0    0  501    0  0.00000000000E+00  0.00000000000E+00  0.13315818312E+04  0.13315818313E+04  0.50400001928E-02 0. -1.
       -1   -1    0    0    0  501  0.00000000000E+00  0.00000000000E+00 -0.81331692482E+03  0.81331692483E+03  0.50400001928E-02 0.  1.
    10030    2    1    2    0    0  0.00000000000E+00  0.00000000000E+00  0.51826490643E+03  0.21448987561E+04  0.20813438353E+04 0.  0.
        3    1    3    3  502    0  0.96737527110E+03  0.99680294537E+02 -0.12264855737E+03  0.98020087486E+03  0.10100000352E+00 0. -1.
       -3    1    3    3    0  502 -0.96737527110E+03 -0.99680294537E+02  0.64091346380E+03  0.11646978812E+04  0.10100000352E+00 0.  1.
</event>
<event>
 5   0  0.2430898E-04  0.2180334E+04  0.7818609E-02  0.8526658E-01
        2   -1    0    0  501    0  0.00000000000E+00  0.00000000000E+00  0.71792576693E+03  0.71792576693E+03  0.25500000920E-02 0. -1.
       -2   -1    0    0    0  501  0.00000000000E+00  0.00000000000E+00 -0.16554134300E+04  0.16554134300E+04  0.25500000920E-02 0.  1.
    10030    2    1    2    0    0  0.00000000000E+00  0.00000000000E+00 -0.93748766310E+03  0.23733391970E+04  0.21803338793E+04 0.  0.
        1    1    3    3  502    0  0.15173686309E+03  0.80572743327E+03 -0.12508468717E+04  0.14956064552E+04  0.50400001928E-02 0.  1.
       -1    1    3    3    0  502 -0.15173686309E+03 -0.80572743327E+03  0.31335920860E+03  0.87773274177E+03  0.50400001928E-02 0. -1.
</event>
<event>
 5   0  0.1122711E-04  0.2049215E+04  0.7818609E-02  0.8583951E-01
        1   -1    0    0  501    0  0.00000000000E+00  0.00000000000E+00  0.12914115704E+04  0.12914115704E+04  0.50400001928E-02 0. -1.
       -1   -1    0    0    0  501  0.00000000000E+00  0.00000000000E+00 -0.81292478741E+03  0.81292478742E+03  0.50400001928E-02 0.  1.
    10030    2    1    2    0    0  0.00000000000E+00  0.00000000000E+00  0.47848678296E+03  0.21043363578E+04  0.20492149485E+04 0.  0.
        1    1    3    3  502    0  0.38623152801E+03 -0.84965022350E+03  0.67339232639E+03  0.11508855377E+04  0.50400001928E-02 0. -1.
       -1    1    3    3    0  502 -0.38623152801E+03  0.84965022350E+03 -0.19490554344E+03  0.95345082013E+03  0.50400001928E-02 0.  1.
</event>
<event>
 5   0  0.2512839E-04  0.2109069E+04  0.7818609E-02  0.8557259E-01
       -2   -1    0    0    0  501  0.00000000000E+00  0.00000000000E+00  0.82906303909E+03  0.82906303910E+03  0.25500000920E-02 0.  1.
        2   -1    0    0  501    0  0.00000000000E+00  0.00000000000E+00 -0.13413253860E+04  0.13413253860E+04  0.25500000920E-02 0. -1.
    10030    2    1    2    0    0  0.00000000000E+00  0.00000000000E+00 -0.51226234691E+03  0.21703884251E+04  0.21090692743E+04 0.  0.
        3    1    3    3  502    0  0.32843157216E+01  0.88603232443E+03 -0.84457728762E+03  0.12240812357E+04  0.10100000352E+00 0. -1.
       -3    1    3    3    0  502 -0.32843157216E+01 -0.88603232443E+03  0.33231494071E+03  0.94630718939E+03  0.10100000352E+00 0.  1.
</event>
<event>
 5   0  0.2512839E-04  0.2146616E+04  0.7818609E-02  0.8540982E-01
       -2   -1    0    0    0  501  0.00000000000E+00  0.00000000000E+00  0.86151237218E+03  0.86151237219E+03  0.25500000920E-02 0. -1.
        2   -1    0    0  501    0  0.00000000000E+00  0.00000000000E+00 -0.13371723907E+04  0.13371723907E+04  0.25500000920E-02 0.  1.
    10030    2    1    2    0    0  0.00000000000E+00  0.00000000000E+00 -0.47566001848E+03  0.21986847628E+04  0.21466164616E+04 0.  0.
        3    1    3    3  502    0 -0.10189006963E+04  0.33712216464E+03 -0.22406661496E+03  0.10963648303E+04  0.10100000352E+00 0.  1.
       -3    1    3    3    0  502  0.10189006963E+04 -0.33712216464E+03 -0.25159340352E+03  0.11023199326E+04  0.10100000352E+00 0. -1.
</event>
<event>
 5   0  0.2467483E-04  0.2060155E+04  0.7818609E-02  0.8579001E-01
       -2   -1    0    0    0  501  0.00000000000E+00  0.00000000000E+00  0.92473872462E+03  0.92473872462E+03  0.25500000920E-02 0.  1.
        2   -1    0    0  501    0  0.00000000000E+00  0.00000000000E+00 -0.11474160761E+04  0.11474160761E+04  0.25500000920E-02 0. -1.
    10030    2    1    2    0    0  0.00000000000E+00  0.00000000000E+00 -0.22267735144E+03  0.20721548007E+04  0.20601554104E+04 0.  0.
        4    1    3    3  502    0  0.23614166920E+03 -0.20060031334E+03  0.87675533423E+03  0.92989510304E+03  0.12699999809E+01 0.  1.
       -4    1    3    3    0  502 -0.23614166920E+03  0.20060031334E+03 -0.10994326857E+04  0.11422596976E+04  0.12699999809E+01 0. -1.
</event>
<event>
 5   0  0.1042395E-04  0.2011492E+04  0.7818609E-02  0.8601267E-01
       -1   -1    0    0    0  501  0.00000000000E+00  0.00000000000E+00  0.99107322638E+03  0.99107322639E+03  0.50400001928E-02 0.  1.
        1   -1    0    0  501    0  0.00000000000E+00  0.00000000000E+00 -0.10206355601E+04  0.10206355601E+04  0.50400001928E-02 0. -1.
    10030    2    1    2    0    0  0.00000000000E+00  0.00000000000E+00 -0.29562333709E+02  0.20117087865E+04  0.20114915635E+04 0.  0.
        3    1    3    3  502    0 -0.17225939149E+03  0.99083891830E+03 -0.24243020215E+02  0.10059934365E+04  0.10100000352E+00 0.  1.
       -3    1    3    3    0  502  0.17225939149E+03 -0.99083891830E+03 -0.53193134936E+01  0.10057153500E+04  0.10100000352E+00 0. -1.
</event>
<event>
 5   0  0.2467483E-04  0.2129953E+04  0.7818609E-02  0.8548162E-01
        2   -1    0    0  501    0  0.00000000000E+00  0.00000000000E+00  0.18106119778E+04  0.18106119778E+04  0.25500000920E-02 0.  1.
       -2   -1    0    0    0  501  0.00000000000E+00  0.00000000000E+00 -0.62640433004E+03  0.62640433004E+03  0.25500000920E-02 0. -1.
    10030    2    1    2    0    0  0.00000000000E+00  0.00000000000E+00  0.11842076478E+04  0.24370163078E+04  0.21299532229E+04 0.  0.
        4    1    3    3  502    0  0.76962904254E+03  0.70904722240E+03  0.36586941404E+03  0.11085751521E+04  0.12699999809E+01 0.  1.
       -4    1    3    3    0  502 -0.76962904254E+03 -0.70904722240E+03  0.81833823371E+03  0.13284411558E+04  0.12699999809E+01 0. -1.
</event>
<event>
 5   0  0.1130848E-04  0.2122903E+04  0.7818609E-02  0.8551221E-01
        1   -1    0    0  501    0  0.00000000000E+00  0.00000000000E+00  0.22917817664E+04  0.22917817664E+04  0.50400001928E-02 0.  1.
       -1   -1    0    0    0  501  0.00000000000E+00  0.00000000000E+00 -0.49161719668E+03  0.49161719671E+03  0.50400001928E-02 0. -1.
    10030    2    1    2    0    0  0.00000000000E+00  0.00000000000E+00  0.18001645697E+04  0.27833989631E+04  0.21229030382E+04 0.  0.
        5    1    3    3  502    0  0.26341625211E+03  0.60611702691E+02 -0.44572297849E+03  0.52129930360E+03  0.46999998093E+01 0. -1.
       -5    1    3    3    0  502 -0.26341625211E+03 -0.60611702691E+02  0.22458875482E+04  0.22620996595E+04  0.46999998093E+01 0.  1.
</event>
<event>
 5   0  0.2430898E-04  0.2161239E+04  0.7818609E-02  0.8534737E-01
        2   -1    0    0  501    0  0.00000000000E+00  0.00000000000E+00  0.20944593119E+04  0.20944593119E+04  0.25500000920E-02 0. -1.
       -2   -1    0    0    0  501  0.00000000000E+00  0.00000000000E+00 -0.55753700310E+03  0.55753700311E+03  0.25500000920E-02 0.  1.
    10030    2    1    2    0    0  0.00000000000E+00  0.00000000000E+00  0.15369223088E+04  0.26519963150E+04  0.21612390593E+04 0.  0.
        1    1    3    3  502    0  0.84562266914E+03  0.66957579206E+02 -0.53015372851E+02  0.84992449415E+03  0.50400001928E-02 0.  1.
       -1    1    3    3    0  502 -0.84562266914E+03 -0.66957579206E+02  0.15899376816E+04  0.18020718208E+04  0.50400001928E-02 0. -1.
</event>
<event>
 5   0  0.1156733E-04  0.2180187E+04  0.7818609E-02  0.8526720E-01
        1   -1    0    0  501    0  0.00000000000E+00  0.00000000000E+00  0.86764235913E+03  0.86764235915E+03  0.50400001928E-02 0. -1.
       -1   -1    0    0    0  501  0.00000000000E+00  0.00000000000E+00 -0.13695781842E+04  0.13695781842E+04  0.50400001928E-02 0.  1.
    10030    2    1    2    0    0  0.00000000000E+00  0.00000000000E+00 -0.50193582502E+03  0.22372205433E+04  0.21801871908E+04 0.  0.
        2    1    3    3  502    0 -0.28942131110E+03  0.68916457685E+03  0.56325713055E+03  0.93593327990E+03  0.25500000920E-02 0. -1.
       -2    1    3    3    0  502  0.28942131110E+03 -0.68916457685E+03 -0.10651929556E+04  0.13012872634E+04  0.25500000920E-02 0.  1.
</event>
<event>
 5   0  0.2579241E-04  0.2021568E+04  0.7818609E-02  0.8596603E-01
       -2   -1    0    0    0  501  0.00000000000E+00  0.00000000000E+00  0.14105250006E+04  0.14105250006E+04  0.25500000920E-02 0.  1.
        2   -1    0    0  501    0  0.00000000000E+00  0.00000000000E+00 -0.72432925580E+03  0.72432925581E+03  0.25500000920E-02 0. -1.
    10030    2    1    2    0    0  0.00000000000E+00  0.00000000000E+00  0.68619574477E+03  0.21348542564E+04  0.20215682269E+04 0.  0.
        5    1    3    3  502    0  0.49383089526E+03 -0.65201578002E+03 -0.28404055452E+03  0.86584909604E+03  0.46999998093E+01 0. -1.
       -5    1    3    3    0  502 -0.49383089526E+03  0.65201578002E+03  0.97023629929E+03  0.12690051603E+04  0.46999998093E+01 0.  1.
</event>
<event>
 5   0  0.1042395E-04  0.2094403E+04  0.7818609E-02  0.8563713E-01
        1   -1    0    0  501    0  0.00000000000E+00  0.00000000000E+00  0.13235665345E+04  0.13235665345E+04  0.50400001928E-02 0. -1.
       -1   -1    0    0    0  501  0.00000000000E+00  0.00000000000E+00 -0.82854276588E+03  0.82854276590E+03  0.50400001928E-02 0.  1.
    10030    2    1    2    0    0  0.00000000000E+00  0.00000000000E+00  0.49502376864E+03  0.21521093004E+04  0.20944034734E+04 0.  0.
        3    1    3    3  502    0 -0.13989097761E+03  0.68198072781E+03  0.10513470610E+04  0.12609511694E+04  0.10100000352E+00 0. -1.
       -3    1    3    3    0  502  0.13989097761E+03 -0.68198072781E+03 -0.55632329235E+03  0.89115813104E+03  0.10100000352E+00 0.  1.
</event>
<event>
 5   0  0.1042395E-04  0.2000107E+04  0.7818609E-02  0.8606570E-01
        1   -1    0    0  501    0  0.00000000000E+00  0.00000000000E+00  0.93104436118E+03  0.93104436119E+03  0.50400001928E-02 0.  1.
       -1   -1    0    0    0  501  0.00000000000E+00  0.00000000000E+00 -0.10741779404E+04  0.10741779404E+04  0.50400001928E-02 0. -1.
    10030    2    1    2    0    0  0.00000000000E+00  0.00000000000E+00 -0.14313357919E+03  0.20052223016E+04  0.20001073114E+04 0.  0.
        3    1    3    3  502    0  0.40220267860E+03  0.68503293401E+03 -0.68063188594E+03  0.10460864638E+04  0.10100000352E+00 0. -1.
       -3    1    3    3    0  502 -0.40220267860E+03 -0.68503293401E+03  0.53749830675E+03  0.95913583778E+03  0.10100000352E+00 0.  1.
</event>
<event>
 5   0  0.8698750E-05  0.1463199E+04  0.7818609E-02  0.8909301E-01
        3   -1    0    0  501    0  0.00000000000E+00  0.00000000000E+00  0.17798968852E+04  0.17798968880E+04  0.10100000352E+00 0.  1.
       -3   -1    0    0    0  501  0.00000000000E+00  0.00000000000E+00 -0.30071294602E+03  0.30071296298E+03  0.10100000352E+00 0. -1.
    10030    2    1    2    0    0  0.00000000000E+00  0.00000000000E+00  0.14791839391E+04  0.20806098510E+04  0.14631993119E+04 0.  0.
        1    1    3    3  502    0  0.61080247328E+03 -0.18435682242E+03  0.12486672112E+04  0.14022256964E+04  0.50400001928E-02 0.  1.
       -1    1    3    3    0  502 -0.61080247328E+03  0.18435682242E+03  0.23051672796E+03  0.67838415461E+03  0.50400001928E-02 0. -1.
</event>
<event>
 5   0  0.1042395E-04  0.1518265E+04  0.7818609E-02  0.8872397E-01
       -1   -1    0    0    0  501  0.00000000000E+00  0.00000000000E+00  0.10387314722E+04  0.10387314722E+04  0.50400001928E-02 0.  1.
        1   -1    0    0  501    0  0.00000000000E+00  0.00000000000E+00 -0.55479415363E+03  0.55479415365E+03  0.50400001928E-02 0. -1.
    10030    2    1    2    0    0  0.00000000000E+00  0.00000000000E+00  0.48393731857E+03  0.15935256259E+04  0.15182649940E+04 0.  0.
        3    1    3    3  502    0 -0.69861630569E+03 -0.28691734014E+03  0.32255921283E+03  0.82123733392E+03  0.10100000352E+00 0. -1.
       -3    1    3    3    0  502  0.69861630569E+03  0.28691734014E+03  0.16137810574E+03  0.77228829194E+03  0.10100000352E+00 0.  1.
</event>
<event>
 5   0  0.1156733E-04  0.2086023E+04  0.7818609E-02  0.8567426E-01
        1   -1    0    0  501    0  0.00000000000E+00  0.00000000000E+00  0.83881049224E+03  0.83881049225E+03  0.50400001928E-02 0.  1.
       -1   -1    0    0    0  501  0.00000000000E+00  0.00000000000E+00 -0.12969228271E+04  0.12969228271E+04  0.50400001928E-02 0. -1.
    10030    2    1    2    0    0  0.00000000000E+00  0.00000000000E+00 -0.45811233488E+03  0.21357333194E+04  0.20860225071E+04 0.  0.
        2    1    3    3  502    0 -0.63159295802E+03  0.42258662382E+03  0.50237975334E+03  0.91097449790E+03  0.25500000920E-02 0.  1.
       -2    1    3    3    0  502  0.63159295802E+03 -0.42258662382E+03 -0.96049208822E+03  0.12247588215E+04  0.25500000920E-02 0. -1.
</event>
<event>
 5   0  0.1130848E-04  0.2065952E+04  0.7818609E-02  0.8576392E-01
        1   -1    0    0  501    0  0.00000000000E+00  0.00000000000E+00  0.15625557966E+04  0.15625557966E+04  0.50400001928E-02 0. -1.
       -1   -1    0    0    0  501  0.00000000000E+00  0.00000000000E+00 -0.68288087041E+03  0.68288087043E+03  0.50400001928E-02 0.  1.
    10030    2    1    2    0    0  0.00000000000E+00  0.00000000000E+00  0.87967492617E+03  0.22454366670E+04  0.20659520444E+04 0.  0.
        5    1    3    3  502    0 -0.36672504208E+03  0.80540950351E+03  0.10188949665E+04  0.13495705864E+04  0.46999998093E+01 0. -1.
       -5    1    3    3    0  502  0.36672504208E+03 -0.80540950351E+03 -0.13922004033E+03  0.89586608065E+03  0.46999998093E+01 0.  1.
</event>
<event>
 5   0  0.2579241E-04  0.2071044E+04  0.7818609E-02  0.8574107E-01
        2   -1    0    0  501    0  0.00000000000E+00  0.00000000000E+00  0.19708087089E+04  0.19708087089E+04  0.25500000920E-02 0. -1.
       -2   -1    0    0    0  501  0.00000000000E+00  0.00000000000E+00 -0.54409431043E+03  0.54409431043E+03  0.25500000920E-02 0.  1.
    10030    2    1    2    0    0  0.00000000000E+00  0.00000000000E+00  0.14267143985E+04  0.25149030194E+04  0.20710439932E+04 0.  0.
        5    1    3    3  502    0  0.10327119027E+04  0.24684251324E+02  0.80075871910E+03  0.13070347365E+04  0.46999998093E+01 0.  1.
       -5    1    3    3    0  502 -0.10327119027E+04 -0.24684251324E+02  0.62595567940E+03  0.12078682829E+04  0.46999998093E+01 0. -1.
</event>
<event>
 5   0  0.1130848E-04  0.1340882E+04  0.7818609E-02  0.8997759E-01
       -1   -1    0    0    0  501  0.00000000000E+00  0.00000000000E+00  0.59230956829E+03  0.59230956831E+03  0.50400001928E-02 0. -1.
        1   -1    0    0  501    0  0.00000000000E+00  0.00000000000E+00 -0.75887928307E+03  0.75887928309E+03  0.50400001928E-02 0.  1.
    10030    2    1    2    0    0  0.00000000000E+00  0.00000000000E+00 -0.16656971478E+03  0.13511888514E+04  0.13408824864E+04 0.  0.
        5    1    3    3  502    0  0.11913098617E+03 -0.65767528531E+03 -0.30533682121E+02  0.66909145004E+03  0.46999998093E+01 0. -1.
       -5    1    3    3    0  502 -0.11913098617E+03  0.65767528531E+03 -0.13603603266E+03  0.68209740137E+03  0.46999998093E+01 0.  1.
</event>
<event>
 5   0  0.2430898E-04  0.2066914E+04  0.7818609E-02  0.8575960E-01
       -2   -1    0    0    0  501  0.00000000000E+00  0.00000000000E+00  0.38364992001E+03  0.38364992002E+03  0.25500000920E-02 0.  1.
        2   -1    0    0  501    0  0.00000000000E+00  0.00000000000E+00 -0.27838753349E+04  0.27838753349E+04  0.25500000920E-02 0. -1.
    10030    2    1    2    0    0  0.00000000000E+00  0.00000000000E+00 -0.24002254149E+04  0.31675252550E+04  0.20669141729E+04 0.  0.
        1    1    3    3  502    0 -0.69954808461E+02 -0.10140194385E+04 -0.14864237240E+04  0.18007177969E+04  0.50400001928E-02 0.  1.
       -1    1    3    3    0  502  0.69954808461E+02  0.10140194385E+04 -0.91380169098E+03  0.13668074581E+04  0.50400001928E-02 0. -1.
</event>
<event>
 5   0  0.1122711E-04  0.1363475E+04  0.7818609E-02  0.8980690E-01
        1   -1    0    0  501    0  0.00000000000E+00  0.00000000000E+00  0.63093864598E+03  0.63093864600E+03  0.50400001928E-02 0. -1.
       -1   -1    0    0    0  501  0.00000000000E+00  0.00000000000E+00 -0.73662583434E+03  0.73662583436E+03  0.50400001928E-02 0.  1.
    10030    2    1    2    0    0  0.00000000000E+00  0.00000000000E+00 -0.10568718836E+03  0.13675644804E+04  0.13634745418E+04 0.  0.
        1    1    3    3  502    0  0.55548401964E+03 -0.17544484647E+03  0.30236886264E+03  0.65633095260E+03  0.50400001928E-02 0. -1.
       -1    1    3    3    0  502 -0.55548401964E+03  0.17544484647E+03 -0.40805605100E+03  0.71123352776E+03  0.50400001928E-02 0.  1.
</event>
<event>
 5   0  0.2467483E-04  0.2042869E+04  0.7818609E-02  0.8586836E-01
       -2   -1    0    0    0  501  0.00000000000E+00  0.00000000000E+00  0.66781420248E+03  0.66781420248E+03  0.25500000920E-02 0.  1.
        2   -1    0    0  501    0  0.00000000000E+00  0.00000000000E+00 -0.15623032441E+04  0.15623032441E+04  0.25500000920E-02 0. -1.
    10030    2    1    2    0    0  0.00000000000E+00  0.00000000000E+00 -0.89448904161E+03  0.22301174466E+04  0.20428688602E+04 0.  0.
        4    1    3    3  502    0 -0.88071927934E+03 -0.51526681751E+03 -0.39650477520E+03  0.10947072631E+04  0.12699999809E+01 0. -1.
       -4    1    3    3    0  502  0.88071927934E+03  0.51526681751E+03 -0.49798426641E+03  0.11354101835E+04  0.12699999809E+01 0.  1.
</event>
<event>
 5   0  0.2512839E-04  0.2140924E+04  0.7818609E-02  0.8543427E-01
        2   -1    0    0  501    0  0.00000000000E+00  0.00000000000E+00  0.14014156820E+04  0.14014156820E+04  0.25500000920E-02 0.  1.
       -2   -1    0    0    0  501  0.00000000000E+00  0.00000000000E+00 -0.81766499872E+03  0.81766499872E+03  0.25500000920E-02 0. -1.
    10030    2    1    2    0    0  0.00000000000E+00  0.00000000000E+00  0.58375068324E+03  0.22190806807E+04  0.21409236808E+04 0.  0.
        3    1    3    3  502    0  0.10500431072E+04  0.19538185863E+03  0.21768043515E+03  0.10900226510E+04  0.10100000352E+00 0. -1.
       -3    1    3    3    0  502 -0.10500431072E+04 -0.19538185863E+03  0.36607024808E+03  0.11290580297E+04  0.10100000352E+00 0.  1.
</event>
<event>
 5   0  0.1042395E-04  0.2017845E+04  0.7818609E-02  0.8598323E-01
        1   -1    0    0  501    0  0.00000000000E+00  0.00000000000E+00  0.12662419434E+04  0.12662419434E+04  0.50400001928E-02 0.  1.
       -1   -1    0    0    0  501  0.00000000000E+00  0.00000000000E+00 -0.80389454270E+03  0.80389454271E+03  0.50400001928E-02 0. -1.
    10030    2    1    2    0    0  0.00000000000E+00  0.00000000000E+00  0.46234740071E+03  0.20701364861E+04  0.20178453737E+04 0.  0.
        3    1    3    3  502    0  0.66198337725E+03 -0.24157526390E+03 -0.50957934177E+03  0.86962734297E+03  0.10100000352E+00 0. -1.
       -3    1    3    3    0  502 -0.66198337725E+03  0.24157526390E+03  0.97192674248E+03  0.12005091432E+04  0.10100000352E+00 0.  1.
</event>
<event>
 5   0  0.1130848E-04  0.2238525E+04  0.7818609E-02  0.8502562E-01
        1   -1    0    0  501    0  0.00000000000E+00  0.00000000000E+00  0.10775072923E+04  0.10775072923E+04  0.50400001928E-02 0.  1.
       -1   -1    0    0    0  501  0.00000000000E+00  0.00000000000E+00 -0.11626358518E+04  0.11626358518E+04  0.50400001928E-02 0. -1.
    10030    2    1    2    0    0  0.00000000000E+00  0.00000000000E+00 -0.85128559523E+02  0.22401431441E+04  0.22385250578E+04 0.  0.
        5    1    3    3  502    0  0.27360304123E+03 -0.10390889191E+03  0.10385271354E+04  0.10789885926E+04  0.46999998093E+01 0.  1.
       -5    1    3    3    0  502 -0.27360304123E+03  0.10390889191E+03 -0.11236556949E+04  0.11611545516E+04  0.46999998093E+01 0. -1.
</event>
<event>
 5   0  0.8698750E-05  0.2087944E+04  0.7818609E-02  0.8566573E-01
       -3   -1    0    0    0  501  0.00000000000E+00  0.00000000000E+00  0.20427275389E+04  0.20427275414E+04  0.10100000352E+00 0.  1.
        3   -1    0    0  501    0  0.00000000000E+00  0.00000000000E+00 -0.53354045127E+03  0.53354046083E+03  0.10100000352E+00 0. -1.
    10030    2    1    2    0    0  0.00000000000E+00  0.00000000000E+00  0.15091870877E+04  0.25762680023E+04  0.20879442411E+04 0.  0.
        5    1    3    3  502    0 -0.87487228398E+02 -0.46711168726E+03  0.19015082304E+04  0.19600007611E+04  0.46999998093E+01 0.  1.
       -5    1    3    3    0  502  0.87487228398E+02  0.46711168726E+03 -0.39232114268E+03  0.61626724114E+03  0.46999998093E+01 0. -1.
</event>
<event>
 5   0  0.1186038E-04  0.2111012E+04  0.7818609E-02  0.8556408E-01
        1   -1    0    0  501    0  0.00000000000E+00  0.00000000000E+00  0.74655073172E+03  0.74655073174E+03  0.50400001928E-02 0.  1.
       -1   -1    0    0    0  501  0.00000000000E+00  0.00000000000E+00 -0.14923204267E+04  0.14923204267E+04  0.50400001928E-02 0. -1.
    10030    2    1    2    0    0  0.00000000000E+00  0.00000000000E+00 -0.74576969498E+03  0.22388711584E+04  0.21110119910E+04 0.  0.
        4    1    3    3  502    0  0.44634101922E+02 -0.64077834585E+03  0.51540136412E+03  0.82354676285E+03  0.12699999809E+01 0.  1.
       -4    1    3    3    0  502 -0.44634101922E+02  0.64077834585E+03 -0.12611710591E+04  0.14153243956E+04  0.12699999809E+01 0. -1.
</event>
<event>
 5   0  0.2579241E-04  0.2054097E+04  0.7818609E-02  0.8581738E-01
        2   -1    0    0  501    0  0.00000000000E+00  0.00000000000E+00  0.25828516107E+04  0.25828516107E+04  0.25500000920E-02 0. -1.
       -2   -1    0    0    0  501  0.00000000000E+00  0.00000000000E+00 -0.40839683522E+03  0.40839683523E+03  0.25500000920E-02 0.  1.
    10030    2    1    2    0    0  0.00000000000E+00  0.00000000000E+00  0.21744547755E+04  0.29912484459E+04  0.20540968075E+04 0.  0.
        5    1    3    3  502    0  0.35213470627E+03 -0.15776904759E+03 -0.29881222240E+03  0.48805815021E+03  0.46999998093E+01 0.  1.
       -5    1    3    3    0  502 -0.35213470627E+03  0.15776904759E+03  0.24732669979E+04  0.25031902957E+04  0.46999998093E+01 0. -1.
</event>
<event>
 5   0  0.2448804E-04  0.2064525E+04  0.7818609E-02  0.8577033E-01
        2   -1    0    0  501    0  0.00000000000E+00  0.00000000000E+00  0.17847567710E+04  0.17847567711E+04  0.25500000920E-02 0. -1.
       -2   -1    0    0    0  501  0.00000000000E+00  0.00000000000E+00 -0.59703700596E+03  0.59703700597E+03  0.25500000920E-02 0.  1.
    10030    2    1    2    0    0  0.00000000000E+00  0.00000000000E+00  0.11877197651E+04  0.23817937770E+04  0.20645249710E+04 0.  0.
        2    1    3    3  502    0 -0.32520664338E+03  0.47045600365E+03  0.15852684947E+04  0.16852787343E+04  0.25500000920E-02 0. -1.
       -2    1    3    3    0  502  0.32520664338E+03 -0.47045600365E+03 -0.39754872958E+03  0.69651504267E+03  0.25500000920E-02 0.  1.
</event>
<event>
 5   0  0.2512839E-04  0.1732483E+04  0.7818609E-02  0.8743052E-01
        2   -1    0    0  501    0  0.00000000000E+00  0.00000000000E+00  0.21051616356E+04  0.21051616356E+04  0.25500000920E-02 0.  1.
       -2   -1    0    0    0  501  0.00000000000E+00  0.00000000000E+00 -0.35644514420E+03  0.35644514421E+03  0.25500000920E-02 0. -1.
    10030    2    1    2    0    0  0.00000000000E+00  0.00000000000E+00  0.17487164914E+04  0.24616067798E+04  0.17324833538E+04 0.  0.
        3    1    3    3  502    0  0.85770689568E+03 -0.85478656833E+02  0.75207464237E+03  0.11439335634E+04  0.10100000352E+00 0. -1.
       -3    1    3    3    0  502 -0.85770689568E+03  0.85478656833E+02  0.99664184902E+03  0.13176732164E+04  0.10100000352E+00 0.  1.
</event>
<event>
 5   0  0.2448804E-04  0.2123328E+04  0.7818609E-02  0.8551036E-01
       -2   -1    0    0    0  501  0.00000000000E+00  0.00000000000E+00  0.87668564817E+03  0.87668564817E+03  0.25500000920E-02 0. -1.
        2   -1    0    0  501    0  0.00000000000E+00  0.00000000000E+00 -0.12856727090E+04  0.12856727090E+04  0.25500000920E-02 0.  1.
    10030    2    1    2    0    0  0.00000000000E+00  0.00000000000E+00 -0.40898706081E+03  0.21623583571E+04  0.21233283422E+04 0.  0.
        2    1    3    3  502    0 -0.83482734858E+03  0.65559753961E+03 -0.22450093925E+03  0.10849633669E+04  0.25500000920E-02 0.  1.
       -2    1    3    3    0  502  0.83482734858E+03 -0.65559753961E+03 -0.18448612156E+03  0.10773949902E+04  0.25500000920E-02 0. -1.
</event>
<event>
 5   0  0.2512839E-04  0.1241464E+04  0.7818609E-02  0.9077318E-01
       -2   -1    0    0    0  501  0.00000000000E+00  0.00000000000E+00  0.28083997100E+03  0.28083997101E+03  0.25500000920E-02 0. -1.
        2   -1    0    0  501    0  0.00000000000E+00  0.00000000000E+00 -0.13719841865E+04  0.13719841865E+04  0.25500000920E-02 0.  1.
    10030    2    1    2    0    0  0.00000000000E+00  0.00000000000E+00 -0.10911442155E+04  0.16528241575E+04  0.12414636510E+04 0.  0.
        3    1    3    3  502    0  0.34260250186E+03 -0.50455683832E+03 -0.39172232341E+03  0.72484513259E+03  0.10100000352E+00 0. -1.
       -3    1    3    3    0  502 -0.34260250186E+03  0.50455683832E+03 -0.69942189210E+03  0.92797902494E+03  0.10100000352E+00 0.  1.
</event>
<event>
 5   0  0.2579241E-04  0.2061231E+04  0.7818609E-02  0.8578516E-01
       -2   -1    0    0    0  501  0.00000000000E+00  0.00000000000E+00  0.10712464654E+04  0.10712464654E+04  0.25500000920E-02 0.  1.
        2   -1    0    0  501    0  0.00000000000E+00  0.00000000000E+00 -0.99152532794E+03  0.99152532795E+03  0.25500000920E-02 0. -1.
    10030    2    1    2    0    0  0.00000000000E+00  0.00000000000E+00  0.79721137481E+02  0.20627717934E+04  0.20612307032E+04 0.  0.
        5    1    3    3  502    0 -0.72876153989E+03  0.55787539283E+03 -0.42934771167E+03  0.10132521322E+04  0.46999998093E+01 0. -1.
       -5    1    3    3    0  502  0.72876153989E+03 -0.55787539283E+03  0.50906884915E+03  0.10495196611E+04  0.46999998093E+01 0.  1.
</event>
<event>
 5   0  0.2467483E-04  0.1964892E+04  0.7818609E-02  0.8623213E-01
       -2   -1    0    0    0  501  0.00000000000E+00  0.00000000000E+00  0.55843045132E+03  0.55843045133E+03  0.25500000920E-02 0. -1.
        2   -1    0    0  501    0  0.00000000000E+00  0.00000000000E+00 -0.17284165298E+04  0.17284165298E+04  0.25500000920E-02 0.  1.
    10030    2    1    2    0    0  0.00000000000E+00  0.00000000000E+00 -0.11699860785E+04  0.22868469811E+04  0.19648922849E+04 0.  0.
        4    1    3    3  502    0  0.24540993840E+03  0.33044989864E+02  0.52151338372E+03  0.57731779075E+03  0.12699999809E+01 0. -1.
       -4    1    3    3    0  502 -0.24540993840E+03 -0.33044989864E+02 -0.16914994622E+04  0.17095291904E+04  0.12699999809E+01 0.  1.
</event>
<event>
 5   0  0.2467483E-04  0.2079322E+04  0.7818609E-02  0.8570407E-01
       -2   -1    0    0    0  501  0.00000000000E+00  0.00000000000E+00  0.38489296769E+03  0.38489296770E+03  0.25500000920E-02 0.  1.
        2   -1    0    0  501    0  0.00000000000E+00  0.00000000000E+00 -0.28082993974E+04  0.28082993974E+04  0.25500000920E-02 0. -1.
    10030    2    1    2    0    0  0.00000000000E+00  0.00000000000E+00 -0.24234064297E+04  0.31931923651E+04  0.20793217060E+04 0.  0.
        4    1    3    3  502    0 -0.98086162940E+03  0.19928379854E+03 -0.77982347423E+03  0.12688301038E+04  0.12699999809E+01 0.  1.
       -4    1    3    3    0  502  0.98086162940E+03 -0.19928379854E+03 -0.16435829555E+04  0.19243622614E+04  0.12699999809E+01 0. -1.
</event>
<event>
 5   0  0.1122711E-04  0.2079946E+04  0.7818609E-02  0.8570129E-01
        1   -1    0    0  501    0  0.00000000000E+00  0.00000000000E+00  0.15161139988E+04  0.15161139988E+04  0.50400001928E-02 0.  1.
       -1   -1    0    0    0  501  0.00000000000E+00  0.00000000000E+00 -0.71336602482E+03  0.71336602483E+03  0.50400001928E-02 0. -1.
    10030    2    1    2    0    0  0.00000000000E+00  0.00000000000E+00  0.80274797402E+03  0.22294800237E+04  0.20799463614E+04 0.  0.
        1    1    3    3  502    0 -0.44104123328E+03 -0.12881053759E+03  0.14014189947E+04  0.14748168438E+04  0.50400001928E-02 0.  1.
       -1    1    3    3    0  502  0.44104123328E+03  0.12881053759E+03 -0.59867102067E+03  0.75466317988E+03  0.50400001928E-02 0. -1.
</event>
<event>
 5   0  0.2448804E-04  0.2007649E+04  0.7818609E-02  0.8603053E-01
       -2   -1    0    0    0  501  0.00000000000E+00  0.00000000000E+00  0.11168656319E+04  0.11168656319E+04  0.25500000920E-02 0. -1.
        2   -1    0    0  501    0  0.00000000000E+00  0.00000000000E+00 -0.90222480822E+03  0.90222480823E+03  0.25500000920E-02 0.  1.
    10030    2    1    2    0    0  0.00000000000E+00  0.00000000000E+00  0.21464082367E+03  0.20190904401E+04  0.20076492528E+04 0.  0.
        2    1    3    3  502    0  0.19567707936E+03  0.91838482313E+03  0.46422827547E+03  0.10474865605E+04  0.25500000920E-02 0. -1.
       -2    1    3    3    0  502 -0.19567707936E+03 -0.91838482313E+03 -0.24958745180E+03  0.97160387959E+03  0.25500000920E-02 0.  1.
</event>
<event>
 5   0  0.1130848E-04  0.2120885E+04  0.7818609E-02  0.8552099E-01
       -1   -1    0    0    0  501  0.00000000000E+00  0.00000000000E+00  0.18563991222E+04  0.18563991222E+04  0.50400001928E-02 0.  1.
        1   -1    0    0  501    0  0.00000000000E+00  0.00000000000E+00 -0.60576324411E+03  0.60576324413E+03  0.50400001928E-02 0. -1.
    10030    2    1    2    0    0  0.00000000000E+00  0.00000000000E+00  0.12506358781E+04  0.24621623664E+04  0.21208850555E+04 0.  0.
        5    1    3    3  502    0 -0.62258317040E+03  0.46657688459E+03  0.14618298223E+04  0.16559807706E+04  0.46999998093E+01 0.  1.
       -5    1    3    3    0  502  0.62258317040E+03 -0.46657688459E+03 -0.21119394416E+03  0.80618159576E+03  0.46999998093E+01 0. -1.
</event>
<event>
 5   0  0.1122711E-04  0.2184349E+04  0.7818609E-02  0.8524971E-01
       -1   -1    0    0    0  501  0.00000000000E+00  0.00000000000E+00  0.62441015949E+03  0.62441015951E+03  0.50400001928E-02 0. -1.
        1   -1    0    0  501    0  0.00000000000E+00  0.00000000000E+00 -0.19103554361E+04  0.19103554361E+04  0.50400001928E-02 0.  1.
    10030    2    1    2    0    0  0.00000000000E+00  0.00000000000E+00 -0.12859452766E+04  0.25347655956E+04  0.21843491869E+04 0.  0.
        1    1    3    3  502    0 -0.62138154289E+02  0.65884855667E+03  0.36526115215E+03  0.75588245127E+03  0.50400001928E-02 0. -1.
       -1    1    3    3    0  502  0.62138154289E+02 -0.65884855667E+03 -0.16512064287E+04  0.17788831443E+04  0.50400001928E-02 0.  1.
</event>
<event>
 5   0  0.1130848E-04  0.2039296E+04  0.7818609E-02  0.8588466E-01
        1   -1    0    0  501    0  0.00000000000E+00  0.00000000000E+00  0.86469962066E+03  0.86469962068E+03  0.50400001928E-02 0.  1.
       -1   -1    0    0    0  501  0.00000000000E+00  0.00000000000E+00 -0.12023623623E+04  0.12023623623E+04  0.50400001928E-02 0. -1.
    10030    2    1    2    0    0  0.00000000000E+00  0.00000000000E+00 -0.33766274161E+03  0.20670619830E+04  0.20392962301E+04 0.  0.
        5    1    3    3  502    0  0.40276729271E+03  0.37771333783E+03  0.70002759020E+03  0.89159944745E+03  0.46999998093E+01 0.  1.
       -5    1    3    3    0  502 -0.40276729271E+03 -0.37771333783E+03 -0.10376903318E+04  0.11754625355E+04  0.46999998093E+01 0. -1.
</event>
<event>
 5   0  0.2430898E-04  0.1839358E+04  0.7818609E-02  0.8685645E-01
        2   -1    0    0  501    0  0.00000000000E+00  0.00000000000E+00  0.59079481298E+03  0.59079481298E+03  0.25500000920E-02 0. -1.
       -2   -1    0    0    0  501  0.00000000000E+00  0.00000000000E+00 -0.14316466544E+04  0.14316466544E+04  0.25500000920E-02 0.  1.
    10030    2    1    2    0    0  0.00000000000E+00  0.00000000000E+00 -0.84085184147E+03  0.20224414674E+04  0.18393579504E+04 0.  0.
        1    1    3    3  502    0 -0.40090861562E+03 -0.20608626799E+03 -0.13018471325E+04  0.13776811040E+04  0.50400001928E-02 0.  1.
       -1    1    3    3    0  502  0.40090861562E+03  0.20608626799E+03  0.46099529099E+03  0.64476036345E+03  0.50400001928E-02 0. -1.
</event>
<event>
 5   0  0.2512839E-04  0.2105492E+04  0.7818609E-02  0.8558828E-01
        2   -1    0    0  501    0  0.00000000000E+00  0.00000000000E+00  0.10183135032E+04  0.10183135032E+04  0.25500000920E-02 0.  1.
       -2   -1    0    0    0  501  0.00000000000E+00  0.00000000000E+00 -0.10883431106E+04  0.10883431106E+04  0.25500000920E-02 0. -1.
    10030    2    1    2    0    0  0.00000000000E+00  0.00000000000E+00 -0.70029607443E+02  0.21066566138E+04  0.21054923279E+04 0.  0.
        3    1    3    3  502    0 -0.25175725438E+03 -0.97902816473E+02  0.98304861053E+03  0.10194857809E+04  0.10100000352E+00 0.  1.
       -3    1    3    3    0  502  0.25175725438E+03  0.97902816473E+02 -0.10530782180E+04  0.10871708329E+04  0.10100000352E+00 0. -1.
</event>
<event>
 5   0  0.2579241E-04  0.2136473E+04  0.7818609E-02  0.8545345E-01
        2   -1    0    0  501    0  0.00000000000E+00  0.00000000000E+00  0.14127962324E+04  0.14127962324E+04  0.25500000920E-02 0. -1.
       -2   -1    0    0    0  501  0.00000000000E+00  0.00000000000E+00 -0.80770970091E+03  0.80770970091E+03  0.25500000920E-02 0.  1.
    10030    2    1    2    0    0  0.00000000000E+00  0.00000000000E+00  0.60508653149E+03  0.22205059333E+04  0.21364730022E+04 0.  0.
        5    1    3    3  502    0  0.74316350615E+03 -0.15917371229E+02 -0.49480959064E+03  0.89297479279E+03  0.46999998093E+01 0.  1.
       -5    1    3    3    0  502 -0.74316350615E+03  0.15917371229E+02  0.10998961221E+04  0.13275311405E+04  0.46999998093E+01 0. -1.
</event>
<event>
 5   0  0.1130848E-04  0.2078065E+04  0.7818609E-02  0.8570968E-01
       -1   -1    0    0    0  501  0.00000000000E+00  0.00000000000E+00  0.97483693476E+03  0.97483693477E+03  0.50400001928E-02 0. -1.
        1   -1    0    0  501    0  0.00000000000E+00  0.00000000000E+00 -0.11074558897E+04  0.11074558898E+04  0.50400001928E-02 0.  1.
    10030    2    1    2    0    0  0.00000000000E+00  0.00000000000E+00 -0.13261895498E+03  0.20822928245E+04  0.20780653550E+04 0.  0.
        5    1    3    3  502    0  0.13859627837E+03 -0.53221300142E+03  0.81702070306E+03  0.98488807815E+03  0.46999998093E+01 0. -1.
       -5    1    3    3    0  502 -0.13859627837E+03  0.53221300142E+03 -0.94963965804E+03  0.10974047464E+04  0.46999998093E+01 0.  1.
</event>
<event>
 5   0  0.2512839E-04  0.2231717E+04  0.7818609E-02  0.8505342E-01
       -2   -1    0    0    0  501  0.00000000000E+00  0.00000000000E+00  0.58670260618E+03  0.58670260619E+03  0.25500000920E-02 0. -1.
        2   -1    0    0  501    0  0.00000000000E+00  0.00000000000E+00 -0.21222680758E+04  0.21222680758E+04  0.25500000920E-02 0.  1.
    10030    2    1    2    0    0  0.00000000000E+00  0.00000000000E+00 -0.15355654696E+04  0.27089706820E+04  0.22317170171E+04 0.  0.
        3    1    3    3  502    0 -0.44670483535E+03  0.11296514989E+02  0.47335626711E+03  0.65095236922E+03  0.10100000352E+00 0. -1.
       -3    1    3    3    0  502  0.44670483535E+03 -0.11296514989E+02 -0.20089217367E+04  0.20580183128E+04  0.10100000352E+00 0.  1.
</event>
<event>
 5   0  0.2467483E-04  0.2217686E+04  0.7818609E-02  0.8511103E-01
        2   -1    0    0  501    0  0.00000000000E+00  0.00000000000E+00  0.33689766693E+04  0.33689766693E+04  0.25500000920E-02 0.  1.
       -2   -1    0    0    0  501  0.00000000000E+00  0.00000000000E+00 -0.36495750070E+03  0.36495750071E+03  0.25500000920E-02 0. -1.
    10030    2    1    2    0    0  0.00000000000E+00  0.00000000000E+00  0.30040191686E+04  0.37339341700E+04  0.22176864568E+04 0.  0.
        4    1    3    3  502    0  0.23181194984E+03 -0.23502768653E+03 -0.28030134212E+03  0.43306494758E+03  0.12699999809E+01 0. -1.
       -4    1    3    3    0  502 -0.23181194984E+03  0.23502768653E+03  0.32843205107E+04  0.33008692225E+04  0.12699999809E+01 0.  1.
</event>
<event>
 5   0  0.2579241E-04  0.2077746E+04  0.7818609E-02  0.8571110E-01
        2   -1    0    0  501    0  0.00000000000E+00  0.00000000000E+00  0.99828345358E+03  0.99828345358E+03  0.25500000920E-02 0. -1.
       -2   -1    0    0    0  501  0.00000000000E+00  0.00000000000E+00 -0.10811129588E+04  0.10811129588E+04  0.25500000920E-02 0.  1.
    10030    2    1    2    0    0  0.00000000000E+00  0.00000000000E+00 -0.82829505242E+02  0.20793964124E+04  0.20777460656E+04 0.  0.
        5    1    3    3  502    0 -0.73711888155E+03  0.95346472315E+02 -0.76780107967E+03  0.10686326699E+04  0.46999998093E+01 0.  1.
       -5    1    3    3    0  502  0.73711888155E+03 -0.95346472315E+02  0.68497157443E+03  0.10107637425E+04  0.46999998093E+01 0. -1.
</event>
<event>
 5   0  0.1130848E-04  0.2154923E+04  0.7818609E-02  0.8537428E-01
       -1   -1    0    0    0  501  0.00000000000E+00  0.00000000000E+00  0.85987583008E+03  0.85987583009E+03  0.50400001928E-02 0. -1.
        1   -1    0    0  501    0  0.00000000000E+00  0.00000000000E+00 -0.13501056098E+04  0.13501056098E+04  0.50400001928E-02 0.  1.
    10030    2    1    2    0    0  0.00000000000E+00  0.00000000000E+00 -0.49022977967E+03  0.22099814399E+04  0.21549229053E+04 0.  0.
        5    1    3    3  502    0  0.10083152529E+04 -0.30889317295E+03 -0.47163486186E+03  0.11552385790E+04  0.46999998093E+01 0.  1.
       -5    1    3    3    0  502 -0.10083152529E+04  0.30889317295E+03 -0.18594917816E+02  0.10547428608E+04  0.46999998093E+01 0. -1.
</event>
<event>
 5   0  0.2512839E-04  0.2053614E+04  0.7818609E-02  0.8581957E-01
        2   -1    0    0  501    0  0.00000000000E+00  0.00000000000E+00  0.97491828563E+03  0.97491828563E+03  0.25500000920E-02 0. -1.
       -2   -1    0    0    0  501  0.00000000000E+00  0.00000000000E+00 -0.10814575841E+04  0.10814575841E+04  0.25500000920E-02 0.  1.
    10030    2    1    2    0    0  0.00000000000E+00  0.00000000000E+00 -0.10653929848E+03  0.20563758698E+04  0.20536141545E+04 0.  0.
        3    1    3    3  502    0 -0.71910292720E+03 -0.43430961835E+02 -0.78592121377E+03  0.10661460654E+04  0.10100000352E+00 0.  1.
       -3    1    3    3    0  502  0.71910292720E+03  0.43430961835E+02  0.67938191529E+03  0.99022980433E+03  0.10100000352E+00 0. -1.
</event>
<event>
 5   0  0.2430898E-04  0.1863995E+04  0.7818609E-02  0.8672989E-01
        2   -1    0    0  501    0  0.00000000000E+00  0.00000000000E+00  0.13253381537E+04  0.13253381537E+04  0.25500000920E-02 0.  1.
       -2   -1    0    0    0  501  0.00000000000E+00  0.00000000000E+00 -0.65539418266E+03  0.65539418266E+03  0.25500000920E-02 0. -1.
    10030    2    1    2    0    0  0.00000000000E+00  0.00000000000E+00  0.66994397106E+03  0.19807323364E+04  0.18639945451E+04 0.  0.
        1    1    3    3  502    0  0.16568409651E+03  0.87178400211E+03  0.32243624429E+02  0.88797422120E+03  0.50400001928E-02 0. -1.
       -1    1    3    3    0  502 -0.16568409651E+03 -0.87178400211E+03  0.63770034663E+03  0.10927581152E+04  0.50400001928E-02 0.  1.
</event>
<event>
 5   0  0.2467483E-04  0.2260196E+04  0.7818609E-02  0.8493783E-01
        2   -1    0    0  501    0  0.00000000000E+00  0.00000000000E+00  0.23355753174E+04  0.23355753174E+04  0.25500000920E-02 0. -1.
       -2   -1    0    0    0  501  0.00000000000E+00  0.00000000000E+00 -0.54681238116E+03  0.54681238117E+03  0.25500000920E-02 0.  1.
    10030    2    1    2    0    0  0.00000000000E+00  0.00000000000E+00  0.17887629363E+04  0.28823876986E+04  0.22601960098E+04 0.  0.
        4    1    3    3  502    0  0.31910670295E+03 -0.45579934913E+03 -0.36003068186E+03  0.66272606657E+03  0.12699999809E+01 0.  1.
       -4    1    3    3    0  502 -0.31910670295E+03  0.45579934913E+03  0.21487936181E+04  0.22196616320E+04  0.12699999809E+01 0. -1.
</event>
<event>
 5   0  0.2430898E-04  0.1742786E+04  0.7818609E-02  0.8737331E-01
       -2   -1    0    0    0  501  0.00000000000E+00  0.00000000000E+00  0.74436248469E+03  0.74436248469E+03  0.25500000920E-02 0.  1.
        2   -1    0    0  501    0  0.00000000000E+00  0.00000000000E+00 -0.10201017677E+04  0.10201017677E+04  0.25500000920E-02 0. -1.
    10030    2    1    2    0    0  0.00000000000E+00  0.00000000000E+00 -0.27573928303E+03  0.17644642524E+04  0.17427856856E+04 0.  0.
        1    1    3    3  502    0 -0.59574513379E+03 -0.23766436920E+03  0.45932253956E+03  0.78890671958E+03  0.50400001928E-02 0.  1.
       -1    1    3    3    0  502  0.59574513379E+03  0.23766436920E+03 -0.73506182259E+03  0.97555753284E+03  0.50400001928E-02 0. -1.
</event>
<event>
 5   0  0.2512839E-04  0.2020235E+04  0.7818609E-02  0.8597218E-01
       -2   -1    0    0    0  501  0.00000000000E+00  0.00000000000E+00  0.62334094405E+03  0.62334094406E+03  0.25500000920E-02 0. -1.
        2   -1    0    0  501    0  0.00000000000E+00  0.00000000000E+00 -0.16368841500E+04  0.16368841500E+04  0.25500000920E-02 0.  1.
    10030    2    1    2    0    0  0.00000000000E+00  0.00000000000E+00 -0.10135432059E+04  0.22602250940E+04  0.20202345521E+04 0.  0.
        3    1    3    3  502    0 -0.79647832974E+03  0.58982194880E+03 -0.72506319173E+03  0.12280001235E+04  0.10100000352E+00 0.  1.
       -3    1    3    3    0  502  0.79647832974E+03 -0.58982194880E+03 -0.28848001417E+03  0.10322249705E+04  0.10100000352E+00 0. -1.
</event>
<event>
 5   0  0.2448804E-04  0.2217528E+04  0.7818609E-02  0.8511168E-01
        2   -1    0    0  501    0  0.00000000000E+00  0.00000000000E+00  0.18137639816E+04  0.18137639816E+04  0.25500000920E-02 0.  1.
       -2   -1    0    0    0  501  0.00000000000E+00  0.00000000000E+00 -0.67779346543E+03  0.67779346544E+03  0.25500000920E-02 0. -1.
    10030    2    1    2    0    0  0.00000000000E+00  0.00000000000E+00  0.11359705162E+04  0.24915574471E+04  0.22175277898E+04 0.  0.
        2    1    3    3  502    0 -0.23251458933E+03  0.23169729829E+03  0.17579193471E+04  0.17883028555E+04  0.25500000920E-02 0.  1.
       -2    1    3    3    0  502  0.23251458933E+03 -0.23169729829E+03 -0.62194883087E+03  0.70325459154E+03  0.25500000920E-02 0. -1.
</event>
<event>
 5   0  0.2430898E-04  0.2165563E+04  0.7818609E-02  0.8532900E-01
        2   -1    0    0  501    0  0.00000000000E+00  0.00000000000E+00  0.69002328205E+03  0.69002328205E+03  0.25500000920E-02 0.  1.
       -2   -1    0    0    0  501  0.00000000000E+00  0.00000000000E+00 -0.16990954117E+04  0.16990954117E+04  0.25500000920E-02 0. -1.
    10030    2    1    2    0    0  0.00000000000E+00  0.00000000000E+00 -0.10090721297E+04  0.23891186938E+04  0.21655626452E+04 0.  0.
        1    1    3    3  502    0  0.62815834623E+03 -0.12650757408E+03  0.45839573923E+03  0.78785387478E+03  0.50400001928E-02 0.  1.
       -1    1    3    3    0  502 -0.62815834623E+03  0.12650757408E+03 -0.14674678689E+04  0.16012648190E+04  0.50400001928E-02 0. -1.
</event>
<event>
 5   0  0.2448804E-04  0.2083560E+04  0.7818609E-02  0.8568520E-01
        2   -1    0    0  501    0  0.00000000000E+00  0.00000000000E+00  0.15001379693E+04  0.15001379693E+04  0.25500000920E-02 0. -1.
       -2   -1    0    0    0  501  0.00000000000E+00  0.00000000000E+00 -0.72347018079E+03  0.72347018080E+03  0.25500000920E-02 0.  1.
    10030    2    1    2    0    0  0.00000000000E+00  0.00000000000E+00  0.77666778854E+03  0.22236081501E+04  0.20835595388E+04 0.  0.
        2    1    3    3  502    0  0.18810579400E+03  0.10036646488E+04  0.60854939335E+03  0.11887215322E+04  0.25500000920E-02 0. -1.
       -2    1    3    3    0  502 -0.18810579400E+03 -0.10036646488E+04  0.16811839519E+03  0.10348866179E+04  0.25500000920E-02 0.  1.
</event>
<event>
 5   0  0.1122711E-04  0.1994086E+04  0.7818609E-02  0.8609391E-01
       -1   -1    0    0    0  501  0.00000000000E+00  0.00000000000E+00  0.18651147247E+04  0.18651147247E+04  0.50400001928E-02 0.  1.
        1   -1    0    0  501    0  0.00000000000E+00  0.00000000000E+00 -0.53299361968E+03  0.53299361971E+03  0.50400001928E-02 0. -1.
    10030    2    1    2    0    0  0.00000000000E+00  0.00000000000E+00  0.13321211050E+04  0.23981083444E+04  0.19940855030E+04 0.  0.
        1    1    3    3  502    0 -0.97389050941E+03 -0.21211386879E+03  0.69646616840E+03  0.12159441358E+04  0.50400001928E-02 0.  1.
       -1    1    3    3    0  502  0.97389050941E+03  0.21211386879E+03  0.63565493663E+03  0.11821642086E+04  0.50400001928E-02 0. -1.
</event>
<event>
 5   0  0.1156733E-04  0.2103838E+04  0.7818609E-02  0.8559555E-01
        1   -1    0    0  501    0  0.00000000000E+00  0.00000000000E+00  0.18708783350E+04  0.18708783350E+04  0.50400001928E-02 0.  1.
       -1   -1    0    0    0  501  0.00000000000E+00  0.00000000000E+00 -0.59145121315E+03  0.59145121318E+03  0.50400001928E-02 0. -1.
    10030    2    1    2    0    0  0.00000000000E+00  0.00000000000E+00  0.12794271219E+04  0.24623295482E+04  0.21038376943E+04 0.  0.
        2    1    3    3  502    0 -0.32319590896E+03  0.43962744604E+03  0.16922956089E+04  0.17780867006E+04  0.25500000920E-02 0.  1.
       -2    1    3    3    0  502  0.32319590896E+03 -0.43962744604E+03 -0.41286848706E+03  0.68424284760E+03  0.25500000920E-02 0. -1.
</event>
<event>
 5   0  0.1186038E-04  0.2164893E+04  0.7818609E-02  0.8533184E-01
       -1   -1    0    0    0  501  0.00000000000E+00  0.00000000000E+00  0.98597276521E+03  0.98597276522E+03  0.50400001928E-02 0.  1.
        1   -1    0    0  501    0  0.00000000000E+00  0.00000000000E+00 -0.11883598362E+04  0.11883598362E+04  0.50400001928E-02 0. -1.
    10030    2    1    2    0    0  0.00000000000E+00  0.00000000000E+00 -0.20238707099E+03  0.21743326014E+04  0.21648930078E+04 0.  0.
        4    1    3    3  502    0  0.96469924852E+03  0.14747129819E+03 -0.57152635877E+03  0.11309449215E+04  0.12699999809E+01 0. -1.
       -4    1    3    3    0  502 -0.96469924852E+03 -0.14747129819E+03  0.36913928778E+03  0.10433876799E+04  0.12699999809E+01 0.  1.
</event>
<event>
 5   0  0.1130848E-04  0.1557563E+04  0.7818609E-02  0.8847051E-01
        1   -1    0    0  501    0  0.00000000000E+00  0.00000000000E+00  0.81515810338E+03  0.81515810339E+03  0.50400001928E-02 0.  1.
       -1   -1    0    0    0  501  0.00000000000E+00  0.00000000000E+00 -0.74402808384E+03  0.74402808386E+03  0.50400001928E-02 0. -1.
    10030    2    1    2    0    0  0.00000000000E+00  0.00000000000E+00  0.71130019536E+02  0.15591861873E+04  0.15575628677E+04 0.  0.
        5    1    3    3  502    0  0.55824301694E+03  0.34304401690E+03  0.45691219142E+03  0.79881493737E+03  0.46999998093E+01 0.  1.
       -5    1    3    3    0  502 -0.55824301694E+03 -0.34304401690E+03 -0.38578217189E+03  0.76037124988E+03  0.46999998093E+01 0. -1.
</event>
<event>
 5   0  0.2512839E-04  0.3117729E+04  0.7818609E-02  0.8210889E-01
       -2   -1    0    0    0  501  0.00000000000E+00  0.00000000000E+00  0.16680237606E+04  0.16680237606E+04  0.25500000920E-02 0.  1.
        2   -1    0    0  501    0  0.00000000000E+00  0.00000000000E+00 -0.14568486284E+04  0.14568486284E+04  0.25500000920E-02 0. -1.
    10030    2    1    2    0    0  0.00000000000E+00  0.00000000000E+00  0.21117513219E+03  0.31248723889E+04  0.31177287423E+04 0.  0.
        3    1    3    3  502    0 -0.12493986874E+04 -0.23758155038E+03 -0.79793011615E+03  0.15013775520E+04  0.10100000352E+00 0. -1.
       -3    1    3    3    0  502  0.12493986874E+04  0.23758155038E+03  0.10091052483E+04  0.16234948369E+04  0.10100000352E+00 0.  1.
</event>
<event>
 5   0  0.2512839E-04  0.2062465E+04  0.7818609E-02  0.8577960E-01
       -2   -1    0    0    0  501  0.00000000000E+00  0.00000000000E+00  0.63797521169E+03  0.63797521170E+03  0.25500000920E-02 0. -1.
        2   -1    0    0  501    0  0.00000000000E+00  0.00000000000E+00 -0.16669000922E+04  0.16669000922E+04  0.25500000920E-02 0.  1.
    10030    2    1    2    0    0  0.00000000000E+00  0.00000000000E+00 -0.10289248805E+04  0.23048753039E+04  0.20624654559E+04 0.  0.
        3    1    3    3  502    0  0.21238590309E+03  0.47554197916E+02  0.61201614700E+03  0.64956365967E+03  0.10100000352E+00 0. -1.
       -3    1    3    3    0  502 -0.21238590309E+03 -0.47554197916E+02 -0.16409410275E+04  0.16553116443E+04  0.10100000352E+00 0.  1.
</event>
<event>
 5   0  0.1042395E-04  0.2085230E+04  0.7818609E-02  0.8567778E-01
        1   -1    0    0  501    0  0.00000000000E+00  0.00000000000E+00  0.75556921984E+03  0.75556921985E+03  0.50400001928E-02 0.  1.
       -1   -1    0    0    0  501  0.00000000000E+00  0.00000000000E+00 -0.14387114697E+04  0.14387114697E+04  0.50400001928E-02 0. -1.
    10030    2    1    2    0    0  0.00000000000E+00  0.00000000000E+00 -0.68314224988E+03  0.21942806896E+04  0.20852300619E+04 0.  0.
        3    1    3    3  502    0  0.13449450842E+03 -0.26762858184E+03 -0.13924632504E+04  0.14243130782E+04  0.10100000352E+00 0. -1.
       -3    1    3    3    0  502 -0.13449450842E+03  0.26762858184E+03  0.70932100055E+03  0.76996761142E+03  0.10100000352E+00 0.  1.
</event>
<event>
 5   0  0.1186038E-04  0.2121980E+04  0.7818609E-02  0.8551622E-01
       -1   -1    0    0    0  501  0.00000000000E+00  0.00000000000E+00  0.96056499755E+03  0.96056499757E+03  0.50400001928E-02 0. -1.
        1   -1    0    0  501    0  0.00000000000E+00  0.00000000000E+00 -0.11719141150E+04  0.11719141150E+04  0.50400001928E-02 0.  1.
    10030    2    1    2    0    0  0.00000000000E+00  0.00000000000E+00 -0.21134911745E+03  0.21324791126E+04  0.21219799047E+04 0.  0.
        4    1    3    3  502    0  0.94907076687E+03  0.16740822304E+03 -0.55164639619E+03  0.11104396395E+04  0.12699999809E+01 0.  1.
       -4    1    3    3    0  502 -0.94907076687E+03 -0.16740822304E+03  0.34029727874E+03  0.10220394731E+04  0.12699999809E+01 0. -1.
</event>
<event>
 5   0  0.1130848E-04  0.2074464E+04  0.7818609E-02  0.8572577E-01
       -1   -1    0    0    0  501  0.00000000000E+00  0.00000000000E+00  0.50863103720E+03  0.50863103723E+03  0.50400001928E-02 0. -1.
        1   -1    0    0  501    0  0.00000000000E+00  0.00000000000E+00 -0.21151869217E+04  0.21151869217E+04  0.50400001928E-02 0.  1.
    10030    2    1    2    0    0  0.00000000000E+00  0.00000000000E+00 -0.16065558845E+04  0.26238179590E+04  0.20744635142E+04 0.  0.
        5    1    3    3  502    0 -0.15307390617E+03  0.18360935525E+03 -0.20798565404E+04  0.20935542350E+04  0.46999998093E+01 0.  1.
       -5    1    3    3    0  502  0.15307390617E+03 -0.18360935525E+03  0.47330065590E+03  0.53026372397E+03  0.46999998093E+01 0. -1.
</event>
<event>
 5   0  0.2467483E-04  0.2120031E+04  0.7818609E-02  0.8552471E-01
       -2   -1    0    0    0  501  0.00000000000E+00  0.00000000000E+00  0.71316890149E+03  0.71316890150E+03  0.25500000920E-02 0. -1.
        2   -1    0    0  501    0  0.00000000000E+00  0.00000000000E+00 -0.15755493324E+04  0.15755493324E+04  0.25500000920E-02 0.  1.
    10030    2    1    2    0    0  0.00000000000E+00  0.00000000000E+00 -0.86238043090E+03  0.22887182339E+04  0.21200309306E+04 0.  0.
        4    1    3    3  502    0 -0.61007568168E+03 -0.77429023038E+02  0.50089908483E+03  0.79315137084E+03  0.12699999809E+01 0. -1.
       -4    1    3    3    0  502  0.61007568168E+03  0.77429023038E+02 -0.13632795157E+04  0.14955668631E+04  0.12699999809E+01 0.  1.
</event>
<event>
 5   0  0.2467483E-04  0.2316909E+04  0.7818609E-02  0.8471284E-01
        2   -1    0    0  501    0  0.00000000000E+00  0.00000000000E+00  0.21094705076E+04  0.21094705076E+04  0.25500000920E-02 0. -1.
       -2   -1    0    0    0  501  0.00000000000E+00  0.00000000000E+00 -0.63618654948E+03  0.63618654948E+03  0.25500000920E-02 0.  1.
    10030    2    1    2    0    0  0.00000000000E+00  0.00000000000E+00  0.14732839581E+04  0.27456570571E+04  0.23169089438E+04 0.  0.
        4    1    3    3  502    0 -0.59939253351E+03  0.98973650017E+03  0.80331524521E+03  0.14086045382E+04  0.12699999809E+01 0. -1.
       -4    1    3    3    0  502  0.59939253351E+03 -0.98973650017E+03  0.66996871289E+03  0.13370525188E+04  0.12699999809E+01 0.  1.
</event>
<event>
 5   0  0.2512839E-04  0.2226697E+04  0.7818609E-02  0.8507398E-01
       -2   -1    0    0    0  501  0.00000000000E+00  0.00000000000E+00  0.11533159346E+04  0.11533159346E+04  0.25500000920E-02 0.  1.
        2   -1    0    0  501    0  0.00000000000E+00  0.00000000000E+00 -0.10747662315E+04  0.10747662315E+04  0.25500000920E-02 0. -1.
    10030    2    1    2    0    0  0.00000000000E+00  0.00000000000E+00  0.78549703166E+02  0.22280821661E+04  0.22266971242E+04 0.  0.
        3    1    3    3  502    0  0.46636033332E+03  0.19470289788E+03  0.10319321537E+04  0.11490366221E+04  0.10100000352E+00 0.  1.
       -3    1    3    3    0  502 -0.46636033332E+03 -0.19470289788E+03 -0.95338245050E+03  0.10790455440E+04  0.10100000352E+00 0. -1.
</event>
<event>
 5   0  0.1122711E-04  0.2078647E+04  0.7818609E-02  0.8570708E-01
        1   -1    0    0  501    0  0.00000000000E+00  0.00000000000E+00  0.18972342243E+04  0.18972342243E+04  0.50400001928E-02 0. -1.
       -1   -1    0    0    0  501  0.00000000000E+00  0.00000000000E+00 -0.56935155392E+03  0.56935155395E+03  0.50400001928E-02 0.  1.
    10030    2    1    2    0    0  0.00000000000E+00  0.00000000000E+00  0.13278826703E+04  0.24665857782E+04  0.20786469193E+04 0.  0.
        1    1    3    3  502    0  0.71549457587E+03  0.62860866375E+03  0.17022331862E+03  0.96750055218E+03  0.50400001928E-02 0.  1.
       -1    1    3    3    0  502 -0.71549457587E+03 -0.62860866375E+03  0.11576593517E+04  0.14990852260E+04  0.50400001928E-02 0. -1.
</event>
<event>
 5   0  0.2467483E-04  0.1310143E+04  0.7818609E-02  0.9021560E-01
        2   -1    0    0  501    0  0.00000000000E+00  0.00000000000E+00  0.67603908171E+03  0.67603908172E+03  0.25500000920E-02 0. -1.
       -2   -1    0    0    0  501  0.00000000000E+00  0.00000000000E+00 -0.63475432463E+03  0.63475432464E+03  0.25500000920E-02 0.  1.
    10030    2    1    2    0    0  0.00000000000E+00  0.00000000000E+00  0.41284757078E+02  0.13107934064E+04  0.13101430926E+04 0.  0.
        4    1    3    3  502    0  0.33580443374E+03 -0.19751331536E+03  0.54753552272E+03  0.67199173284E+03  0.12699999809E+01 0. -1.
       -4    1    3    3    0  502 -0.33580443374E+03  0.19751331536E+03 -0.50625076565E+03  0.63880167351E+03  0.12699999809E+01 0.  1.
</event>
<event>
 5   0  0.1186038E-04  0.1471987E+04  0.7818609E-02  0.8903298E-01
        1   -1    0    0  501    0  0.00000000000E+00  0.00000000000E+00  0.14793339752E+04  0.14793339753E+04  0.50400001928E-02 0.  1.
       -1   -1    0    0    0  501  0.00000000000E+00  0.00000000000E+00 -0.36616897781E+03  0.36616897784E+03  0.50400001928E-02 0. -1.
    10030    2    1    2    0    0  0.00000000000E+00  0.00000000000E+00  0.11131649974E+04  0.18455029531E+04  0.14719866978E+04 0.  0.
        4    1    3    3  502    0  0.41972946931E+03 -0.22466070174E+03 -0.14712673961E+03  0.49829022539E+03  0.12699999809E+01 0. -1.
       -4    1    3    3    0  502 -0.41972946931E+03  0.22466070174E+03  0.12602917370E+04  0.13472127277E+04  0.12699999809E+01 0.  1.
</event>
<event>
 5   0  0.2430898E-04  0.2052566E+04  0.7818609E-02  0.8582431E-01
        2   -1    0    0  501    0  0.00000000000E+00  0.00000000000E+00  0.16160857713E+04  0.16160857713E+04  0.25500000920E-02 0.  1.
       -2   -1    0    0    0  501  0.00000000000E+00  0.00000000000E+00 -0.65173352938E+03  0.65173352939E+03  0.25500000920E-02 0. -1.
    10030    2    1    2    0    0  0.00000000000E+00  0.00000000000E+00  0.96435224194E+03  0.22678193007E+04  0.20525664750E+04 0.  0.
        1    1    3    3  502    0  0.52783912247E+03  0.74612440497E+03  0.99797595766E+03  0.13532449072E+04  0.50400001928E-02 0.  1.
       -1    1    3    3    0  502 -0.52783912247E+03 -0.74612440497E+03 -0.33623715719E+02  0.91457439346E+03  0.50400001928E-02 0. -1.
</event>
<event>
 5   0  0.2579241E-04  0.1922998E+04  0.7818609E-02  0.8643493E-01
        2   -1    0    0  501    0  0.00000000000E+00  0.00000000000E+00  0.12108653780E+04  0.12108653780E+04  0.25500000920E-02 0.  1.
       -2   -1    0    0    0  501  0.00000000000E+00  0.00000000000E+00 -0.76348737105E+03  0.76348737106E+03  0.25500000920E-02 0. -1.
    10030    2    1    2    0    0  0.00000000000E+00  0.00000000000E+00  0.44737800693E+03  0.19743527490E+04  0.19229981010E+04 0.  0.
        5    1    3    3  502    0  0.85057673179E+03 -0.33348487805E+03 -0.83920935208E+02  0.91747357124E+03  0.46999998093E+01 0. -1.
       -5    1    3    3    0  502 -0.85057673179E+03  0.33348487805E+03  0.53129894214E+03  0.10568791778E+04  0.46999998093E+01 0.  1.
</event>
<event>
 5   0  0.1122711E-04  0.1183298E+04  0.7818609E-02  0.9127603E-01
        1   -1    0    0  501    0  0.00000000000E+00  0.00000000000E+00  0.90107856710E+03  0.90107856712E+03  0.50400001928E-02 0. -1.
       -1   -1    0    0    0  501  0.00000000000E+00  0.00000000000E+00 -0.38847730047E+03  0.38847730050E+03  0.50400001928E-02 0.  1.
    10030    2    1    2    0    0  0.00000000000E+00  0.00000000000E+00  0.51260126663E+03  0.12895558676E+04  0.11832980509E+04 0.  0.
        1    1    3    3  502    0 -0.28555605620E+03 -0.39228180693E+03  0.62526010390E+03  0.79144012713E+03  0.50400001928E-02 0. -1.
       -1    1    3    3    0  502  0.28555605620E+03  0.39228180693E+03 -0.11265883727E+03  0.49811574049E+03  0.50400001928E-02 0.  1.
</event>
<event>
 5   0  0.1122711E-04  0.2174267E+04  0.7818609E-02  0.8529216E-01
       -1   -1    0    0    0  501  0.00000000000E+00  0.00000000000E+00  0.70592845118E+03  0.70592845120E+03  0.50400001928E-02 0. -1.
        1   -1    0    0  501    0  0.00000000000E+00  0.00000000000E+00 -0.16741910557E+04  0.16741910557E+04  0.50400001928E-02 0.  1.
    10030    2    1    2    0    0  0.00000000000E+00  0.00000000000E+00 -0.96826260447E+03  0.23801195069E+04  0.21742668640E+04 0.  0.
        1    1    3    3  502    0  0.59617668949E+03 -0.49119223164E+03 -0.13215144448E+04  0.15307177667E+04  0.50400001928E-02 0.  1.
       -1    1    3    3    0  502 -0.59617668949E+03  0.49119223164E+03  0.35325184029E+03  0.84940174018E+03  0.50400001928E-02 0. -1.
</event>
<event>
 5   0  0.1186038E-04  0.2100255E+04  0.7818609E-02  0.8561131E-01
       -1   -1    0    0    0  501  0.00000000000E+00  0.00000000000E+00  0.71621202236E+03  0.71621202238E+03  0.50400001928E-02 0. -1.
        1   -1    0    0  501    0  0.00000000000E+00  0.00000000000E+00 -0.15397223377E+04  0.15397223377E+04  0.50400001928E-02 0.  1.
    10030    2    1    2    0    0  0.00000000000E+00  0.00000000000E+00 -0.82351031535E+03  0.22559343601E+04  0.21002548887E+04 0.  0.
        4    1    3    3  502    0  0.65748807335E+03  0.96510553439E+02  0.46163466872E+03  0.80914339507E+03  0.12699999809E+01 0. -1.
       -4    1    3    3    0  502 -0.65748807335E+03 -0.96510553439E+02 -0.12851449841E+04  0.14467909650E+04  0.12699999809E+01 0.  1.
</event>
<event>
 5   0  0.2467483E-04  0.2120306E+04  0.7818609E-02  0.8552351E-01
        2   -1    0    0  501    0  0.00000000000E+00  0.00000000000E+00  0.12622766318E+04  0.12622766318E+04  0.25500000920E-02 0.  1.
       -2   -1    0    0    0  501  0.00000000000E+00  0.00000000000E+00 -0.89039475437E+03  0.89039475438E+03  0.25500000920E-02 0. -1.
    10030    2    1    2    0    0  0.00000000000E+00  0.00000000000E+00  0.37188187741E+03  0.21526713862E+04  0.21203061020E+04 0.  0.
        4    1    3    3  502    0  0.18257266836E+03 -0.23826742434E+03  0.12182301152E+04  0.12546674345E+04  0.12699999809E+01 0.  1.
       -4    1    3    3    0  502 -0.18257266836E+03  0.23826742434E+03 -0.84634823777E+03  0.89800395167E+03  0.12699999809E+01 0. -1.
</event>
<event>
 5   0  0.1122711E-04  0.1273365E+04  0.7818609E-02  0.9050958E-01
        1   -1    0    0  501    0  0.00000000000E+00  0.00000000000E+00  0.88747436115E+03  0.88747436117E+03  0.50400001928E-02 0.  1.
       -1   -1    0    0    0  501  0.00000000000E+00  0.00000000000E+00 -0.45676206516E+03  0.45676206518E+03  0.50400001928E-02 0. -1.
    10030    2    1    2    0    0  0.00000000000E+00  0.00000000000E+00  0.43071229600E+03  0.13442364264E+04  0.12733650254E+04 0.  0.
        1    1    3    3  502    0 -0.63430453051E+03 -0.54644244141E+02  0.20898789146E+03  0.67007773403E+03  0.50400001928E-02 0. -1.
       -1    1    3    3    0  502  0.63430453051E+03  0.54644244141E+02  0.22172440454E+03  0.67415869232E+03  0.50400001928E-02 0.  1.
</event>
<event>
 5   0  0.2430898E-04  0.1965034E+04  0.7818609E-02  0.8623145E-01
       -2   -1    0    0    0  501  0.00000000000E+00  0.00000000000E+00  0.91916495378E+03  0.91916495378E+03  0.25500000920E-02 0.  1.
        2   -1    0    0  501    0  0.00000000000E+00  0.00000000000E+00 -0.10502353658E+04  0.10502353658E+04  0.25500000920E-02 0. -1.
    10030    2    1    2    0    0  0.00000000000E+00  0.00000000000E+00 -0.13107041205E+03  0.19694003196E+04  0.19650338842E+04 0.  0.
        1    1    3    3  502    0 -0.87724709884E+03 -0.39587239356E+03  0.13254535122E+03  0.97151721270E+03  0.50400001928E-02 0.  1.
       -1    1    3    3    0  502  0.87724709884E+03  0.39587239356E+03 -0.26361576328E+03  0.99788310692E+03  0.50400001928E-02 0. -1.
</event>
<event>
 5   0  0.8698750E-05  0.1999725E+04  0.7818609E-02  0.8606749E-01
        3   -1    0    0  501    0  0.00000000000E+00  0.00000000000E+00  0.10564780756E+04  0.10564780804E+04  0.10100000352E+00 0. -1.
       -3   -1    0    0    0  501  0.00000000000E+00  0.00000000000E+00 -0.94628067945E+03  0.94628068484E+03  0.10100000352E+00 0.  1.
    10030    2    1    2    0    0  0.00000000000E+00  0.00000000000E+00  0.11019739611E+03  0.20027587652E+04  0.19997247825E+04 0.  0.
        3    1    3    3  502    0 -0.27006832369E+03  0.35690816705E+03 -0.84035202941E+03  0.95210917583E+03  0.10100000352E+00 0.  1.
       -3    1    3    3    0  502  0.27006832369E+03 -0.35690816705E+03  0.95054942552E+03  0.10506495894E+04  0.10100000352E+00 0. -1.
</event>
<event>
 5   0  0.1130848E-04  0.1944443E+04  0.7818609E-02  0.8633045E-01
       -1   -1    0    0    0  501  0.00000000000E+00  0.00000000000E+00  0.41449150373E+03  0.41449150376E+03  0.50400001928E-02 0.  1.
        1   -1    0    0  501    0  0.00000000000E+00  0.00000000000E+00 -0.22804200630E+04  0.22804200630E+04  0.50400001928E-02 0. -1.
    10030    2    1    2    0    0  0.00000000000E+00  0.00000000000E+00 -0.18659285592E+04  0.26949115667E+04  0.19444430988E+04 0.  0.
        5    1    3    3  502    0  0.61484240014E+03  0.46682720424E+03 -0.17520086631E+04  0.19145535410E+04  0.46999998093E+01 0. -1.
       -5    1    3    3    0  502 -0.61484240014E+03 -0.46682720424E+03 -0.11391989612E+03  0.78035802575E+03  0.46999998093E+01 0.  1.
</event>
<event>
 5   0  0.2512839E-04  0.2159326E+04  0.7818609E-02  0.8535551E-01
       -2   -1    0    0    0  501  0.00000000000E+00  0.00000000000E+00  0.64757026086E+03  0.64757026087E+03  0.25500000920E-02 0.  1.
        2   -1    0    0  501    0  0.00000000000E+00  0.00000000000E+00 -0.18000713081E+04  0.18000713081E+04  0.25500000920E-02 0. -1.
    10030    2    1    2    0    0  0.00000000000E+00  0.00000000000E+00 -0.11525010472E+04  0.24476415689E+04  0.21593264196E+04 0.  0.
        3    1    3    3  502    0  0.19848422931E+03 -0.86533813998E+03 -0.12726665520E+04  0.15517365268E+04  0.10100000352E+00 0. -1.
       -3    1    3    3    0  502 -0.19848422931E+03  0.86533813998E+03  0.12016550481E+03  0.89590504214E+03  0.10100000352E+00 0.  1.
</event>
<event>
 5   0  0.1122711E-04  0.1754342E+04  0.7818609E-02  0.8730964E-01
        1   -1    0    0  501    0  0.00000000000E+00  0.00000000000E+00  0.12825685795E+04  0.12825685795E+04  0.50400001928E-02 0. -1.
       -1   -1    0    0    0  501  0.00000000000E+00  0.00000000000E+00 -0.59991232140E+03  0.59991232143E+03  0.50400001928E-02 0.  1.
    10030    2    1    2    0    0  0.00000000000E+00  0.00000000000E+00  0.68265625812E+03  0.18824809010E+04  0.17543416930E+04 0.  0.
        1    1    3    3  502    0 -0.73909424482E+03 -0.28337111443E+03  0.74691669619E+03  0.10883216631E+04  0.50400001928E-02 0. -1.
       -1    1    3    3    0  502  0.73909424482E+03  0.28337111443E+03 -0.64260438068E+02  0.79415923790E+03  0.50400001928E-02 0.  1.
</event>
<event>
 5   0  0.1130848E-04  0.2095521E+04  0.7818609E-02  0.8563219E-01
        1   -1    0    0  501    0  0.00000000000E+00  0.00000000000E+00  0.96701352435E+03  0.96701352436E+03  0.50400001928E-02 0.  1.
       -1   -1    0    0    0  501  0.00000000000E+00  0.00000000000E+00 -0.11352500492E+04  0.11352500492E+04  0.50400001928E-02 0. -1.
    10030    2    1    2    0    0  0.00000000000E+00  0.00000000000E+00 -0.16823652483E+03  0.21022635735E+04  0.20955210818E+04 0.  0.
        5    1    3    3  502    0 -0.97145951853E+03 -0.16519875744E+03  0.27305514091E+03  0.10225484955E+04  0.46999998093E+01 0.  1.
       -5    1    3    3    0  502  0.97145951853E+03  0.16519875744E+03 -0.44129166574E+03  0.10797150781E+04  0.46999998093E+01 0. -1.
</event>
<event>
 5   0  0.2579241E-04  0.2140278E+04  0.7818609E-02  0.8543705E-01
        2   -1    0    0  501    0  0.00000000000E+00  0.00000000000E+00  0.20381207233E+04  0.20381207233E+04  0.25500000920E-02 0. -1.
       -2   -1    0    0    0  501  0.00000000000E+00  0.00000000000E+00 -0.56188888722E+03  0.56188888723E+03  0.25500000920E-02 0.  1.
    10030    2    1    2    0    0  0.00000000000E+00  0.00000000000E+00  0.14762318361E+04  0.26000096106E+04  0.21402779121E+04 0.  0.
        5    1    3    3  502    0 -0.65101853607E+02 -0.52976584407E+03  0.18648618742E+04  0.19397479220E+04  0.46999998093E+01 0. -1.
       -5    1    3    3    0  502  0.65101853607E+02  0.52976584407E+03 -0.38863003812E+03  0.66026168858E+03  0.46999998093E+01 0.  1.
</event>
<event>
 5   0  0.1122711E-04  0.1985976E+04  0.7818609E-02  0.8613205E-01
       -1   -1    0    0    0  501  0.00000000000E+00  0.00000000000E+00  0.53496154150E+03  0.53496154152E+03  0.50400001928E-02 0. -1.
        1   -1    0    0  501    0  0.00000000000E+00  0.00000000000E+00 -0.18431703527E+04  0.18431703527E+04  0.50400001928E-02 0.  1.
    10030    2    1    2    0    0  0.00000000000E+00  0.00000000000E+00 -0.13082088112E+04  0.23781318942E+04  0.19859760856E+04 0.  0.
        1    1    3    3  502    0  0.72385611619E+03 -0.76049159664E+02  0.15475833799E+03  0.74411107695E+03  0.50400001928E-02 0. -1.
       -1    1    3    3    0  502 -0.72385611619E+03  0.76049159664E+02 -0.14629671492E+04  0.16340208173E+04  0.50400001928E-02 0.  1.
</event>
<event>
 5   0  0.1130848E-04  0.2072297E+04  0.7818609E-02  0.8573546E-01
       -1   -1    0    0    0  501  0.00000000000E+00  0.00000000000E+00  0.88670886059E+03  0.88670886060E+03  0.50400001928E-02 0.  1.
        1   -1    0    0  501    0  0.00000000000E+00  0.00000000000E+00 -0.12107741374E+04  0.12107741374E+04  0.50400001928E-02 0. -1.
    10030    2    1    2    0    0  0.00000000000E+00  0.00000000000E+00 -0.32406527682E+03  0.20974829980E+04  0.20722974264E+04 0.  0.
        5    1    3    3  502    0  0.87541565075E+03  0.52497274543E+03 -0.34205123911E+03  0.10765547293E+04  0.46999998093E+01 0. -1.
       -5    1    3    3    0  502 -0.87541565075E+03 -0.52497274543E+03  0.17985962284E+02  0.10209282687E+04  0.46999998093E+01 0.  1.
</event>
<event>
 5   0  0.1042395E-04  0.2045691E+04  0.7818609E-02  0.8585552E-01
       -1   -1    0    0    0  501  0.00000000000E+00  0.00000000000E+00  0.13032776675E+04  0.13032776675E+04  0.50400001928E-02 0.  1.
        1   -1    0    0  501    0  0.00000000000E+00  0.00000000000E+00 -0.80275521746E+03  0.80275521747E+03  0.50400001928E-02 0. -1.
    10030    2    1    2    0    0  0.00000000000E+00  0.00000000000E+00  0.50052245008E+03  0.21060328850E+04  0.20456910299E+04 0.  0.
        3    1    3    3  502    0 -0.25256536712E+03 -0.38006298969E+03  0.11926733062E+04  0.12769912946E+04  0.10100000352E+00 0.  1.
       -3    1    3    3    0  502  0.25256536712E+03  0.38006298969E+03 -0.69215085616E+03  0.82904159044E+03  0.10100000352E+00 0. -1.
</event>
<event>
 5   0  0.2467483E-04  0.2116417E+04  0.7818609E-02  0.8554046E-01
        2   -1    0    0  501    0  0.00000000000E+00  0.00000000000E+00  0.14688587180E+04  0.14688587180E+04  0.25500000920E-02 0. -1.
       -2   -1    0    0    0  501  0.00000000000E+00  0.00000000000E+00 -0.76236410518E+03  0.76236410518E+03  0.25500000920E-02 0.  1.
    10030    2    1    2    0    0  0.00000000000E+00  0.00000000000E+00  0.70649461279E+03  0.22312228231E+04  0.21164169364E+04 0.  0.
        4    1    3    3  502    0 -0.88671558007E+03 -0.11267676930E+03 -0.24390894445E+03  0.92652779795E+03  0.12699999809E+01 0.  1.
       -4    1    3    3    0  502  0.88671558007E+03  0.11267676930E+03  0.95040355723E+03  0.13046950252E+04  0.12699999809E+01 0. -1.
</event>
<event>
 5   0  0.1156733E-04  0.2061776E+04  0.7818609E-02  0.8578271E-01
        1   -1    0    0  501    0  0.00000000000E+00  0.00000000000E+00  0.11501081913E+04  0.11501081913E+04  0.50400001928E-02 0.  1.
       -1   -1    0    0    0  501  0.00000000000E+00  0.00000000000E+00 -0.92402604857E+03  0.92402604858E+03  0.50400001928E-02 0. -1.
    10030    2    1    2    0    0  0.00000000000E+00  0.00000000000E+00  0.22608214273E+03  0.20741342399E+04  0.20617758631E+04 0.  0.
        2    1    3    3  502    0  0.23499028194E+03 -0.80885535616E+03  0.71096258998E+03  0.11022410009E+04  0.25500000920E-02 0.  1.
       -2    1    3    3    0  502 -0.23499028194E+03  0.80885535616E+03 -0.48488044725E+03  0.97189323896E+03  0.25500000920E-02 0. -1.
</event>
<event>
 5   0  0.8698750E-05  0.2122320E+04  0.7818609E-02  0.8551475E-01
       -3   -1    0    0    0  501  0.00000000000E+00  0.00000000000E+00  0.13215072051E+04  0.13215072089E+04  0.10100000352E+00 0.  1.
        3   -1    0    0  501    0  0.00000000000E+00  0.00000000000E+00 -0.85210310720E+03  0.85210311319E+03  0.10100000352E+00 0. -1.
    10030    2    1    2    0    0  0.00000000000E+00  0.00000000000E+00  0.46940409787E+03  0.21736103221E+04  0.21223198688E+04 0.  0.
        1    1    3    3  502    0 -0.20120774008E+03  0.98568701988E+03 -0.11109196014E+03  0.10121288848E+04  0.50400001928E-02 0. -1.
       -1    1    3    3    0  502  0.20120774008E+03 -0.98568701988E+03  0.58049605802E+03  0.11614814373E+04  0.50400001928E-02 0.  1.
</event>
<event>
 5   0  0.2430898E-04  0.1158823E+04  0.7818609E-02  0.9149682E-01
        2   -1    0    0  501    0  0.00000000000E+00  0.00000000000E+00  0.55241181991E+03  0.55241181992E+03  0.25500000920E-02 0.  1.
       -2   -1    0    0    0  501  0.00000000000E+00  0.00000000000E+00 -0.60773112404E+03  0.60773112405E+03  0.25500000920E-02 0. -1.
    10030    2    1    2    0    0  0.00000000000E+00  0.00000000000E+00 -0.55319304130E+02  0.11601429440E+04  0.11588232933E+04 0.  0.
        1    1    3    3  502    0  0.54050669803E+03 -0.38817300416E+02  0.17766798883E+03  0.57028079724E+03  0.50400001928E-02 0.  1.
       -1    1    3    3    0  502 -0.54050669803E+03  0.38817300416E+02 -0.23298729296E+03  0.58986214672E+03  0.50400001928E-02 0. -1.
</event>
<event>
 5   0  0.2467483E-04  0.1739218E+04  0.7818609E-02  0.8739308E-01
        2   -1    0    0  501    0  0.00000000000E+00  0.00000000000E+00  0.84628823856E+03  0.84628823856E+03  0.25500000920E-02 0.  1.
       -2   -1    0    0    0  501  0.00000000000E+00  0.00000000000E+00 -0.89357201415E+03  0.89357201415E+03  0.25500000920E-02 0. -1.
    10030    2    1    2    0    0  0.00000000000E+00  0.00000000000E+00 -0.47283775593E+02  0.17398602527E+04  0.17392176240E+04 0.  0.
        4    1    3    3  502    0  0.32846388481E+02 -0.59874893634E+02  0.84360056697E+03  0.84636128078E+03  0.12699999809E+01 0.  1.
       -4    1    3    3    0  502 -0.32846388481E+02  0.59874893634E+02 -0.89088434256E+03  0.89349897193E+03  0.12699999809E+01 0. -1.
</event>
<event>
 5   0  0.2467483E-04  0.2085143E+04  0.7818609E-02  0.8567816E-01
        2   -1    0    0  501    0  0.00000000000E+00  0.00000000000E+00  0.23234870041E+04  0.23234870041E+04  0.25500000920E-02 0. -1.
       -2   -1    0    0    0  501  0.00000000000E+00  0.00000000000E+00 -0.46781215515E+03  0.46781215516E+03  0.25500000920E-02 0.  1.
    10030    2    1    2    0    0  0.00000000000E+00  0.00000000000E+00  0.18556748490E+04  0.27912991593E+04  0.20851431250E+04 0.  0.
        4    1    3    3  502    0 -0.95142754672E+03  0.19427023253E+03  0.41985396205E+03  0.10579386855E+04  0.12699999809E+01 0.  1.
       -4    1    3    3    0  502  0.95142754672E+03 -0.19427023253E+03  0.14358208869E+04  0.17333604738E+04  0.12699999809E+01 0. -1.
</event>
<event>
 5   0  0.2448804E-04  0.2110657E+04  0.7818609E-02  0.8556563E-01
       -2   -1    0    0    0  501  0.00000000000E+00  0.00000000000E+00  0.60472989221E+03  0.60472989222E+03  0.25500000920E-02 0.  1.
        2   -1    0    0  501    0  0.00000000000E+00  0.00000000000E+00 -0.18416786067E+04  0.18416786067E+04  0.25500000920E-02 0. -1.
    10030    2    1    2    0    0  0.00000000000E+00  0.00000000000E+00 -0.12369487145E+04  0.24464084989E+04  0.21106568696E+04 0.  0.
        2    1    3    3  502    0  0.35173164847E+03  0.44895679689E+03  0.41071638659E+03  0.70282665589E+03  0.25500000920E-02 0.  1.
       -2    1    3    3    0  502 -0.35173164847E+03 -0.44895679689E+03 -0.16476651011E+04  0.17435818430E+04  0.25500000920E-02 0. -1.
</event>
<event>
 5   0  0.2512839E-04  0.2084293E+04  0.7818609E-02  0.8568194E-01
        2   -1    0    0  501    0  0.00000000000E+00  0.00000000000E+00  0.15430793800E+04  0.15430793800E+04  0.25500000920E-02 0.  1.
       -2   -1    0    0    0  501  0.00000000000E+00  0.00000000000E+00 -0.70383238574E+03  0.70383238575E+03  0.25500000920E-02 0. -1.
    10030    2    1    2    0    0  0.00000000000E+00  0.00000000000E+00  0.83924699423E+03  0.22469117657E+04  0.20842929174E+04 0.  0.
        3    1    3    3  502    0 -0.59324866323E+01  0.85467389531E+03  0.10624410489E+04  0.13635555194E+04  0.10100000352E+00 0.  1.
       -3    1    3    3    0  502  0.59324866323E+01 -0.85467389531E+03 -0.22319405471E+03  0.88335624636E+03  0.10100000352E+00 0. -1.
</event>
<event>
 5   0  0.1042395E-04  0.2126724E+04  0.7818609E-02  0.8549562E-01
       -1   -1    0    0    0  501  0.00000000000E+00  0.00000000000E+00  0.11344248485E+04  0.11344248485E+04  0.50400001928E-02 0. -1.
        1   -1    0    0  501    0  0.00000000000E+00  0.00000000000E+00 -0.99675108042E+03  0.99675108043E+03  0.50400001928E-02 0.  1.
    10030    2    1    2    0    0  0.00000000000E+00  0.00000000000E+00  0.13767376808E+03  0.21311759289E+04  0.21267244235E+04 0.  0.
        3    1    3    3  502    0 -0.80875140815E+03  0.25776444069E+03 -0.57298623011E+03  0.10241262506E+04  0.10100000352E+00 0.  1.
       -3    1    3    3    0  502  0.80875140815E+03 -0.25776444069E+03  0.71065999819E+03  0.11070496783E+04  0.10100000352E+00 0. -1.
</event>
<event>
 5   0  0.1186038E-04  0.2108278E+04  0.7818609E-02  0.8557605E-01
       -1   -1    0    0    0  501  0.00000000000E+00  0.00000000000E+00  0.17469706071E+04  0.17469706071E+04  0.50400001928E-02 0.  1.
        1   -1    0    0  501    0  0.00000000000E+00  0.00000000000E+00 -0.63607782345E+03  0.63607782347E+03  0.50400001928E-02 0. -1.
    10030    2    1    2    0    0  0.00000000000E+00  0.00000000000E+00  0.11108927836E+04  0.23830484305E+04  0.21082782183E+04 0.  0.
        4    1    3    3  502    0  0.82340793442E+02  0.27813381395E+03  0.17009720061E+04  0.17255276883E+04  0.12699999809E+01 0.  1.
       -4    1    3    3    0  502 -0.82340793442E+02 -0.27813381395E+03 -0.59007922249E+03  0.65752074221E+03  0.12699999809E+01 0. -1.
</event>
<event>
 5   0  0.2512839E-04  0.2064058E+04  0.7818609E-02  0.8577243E-01
       -2   -1    0    0    0  501  0.00000000000E+00  0.00000000000E+00  0.57963392216E+03  0.57963392217E+03  0.25500000920E-02 0. -1.
        2   -1    0    0  501    0  0.00000000000E+00  0.00000000000E+00 -0.18375121201E+04  0.18375121201E+04  0.25500000920E-02 0.  1.
    10030    2    1    2    0    0  0.00000000000E+00  0.00000000000E+00 -0.12578781980E+04  0.24171460423E+04  0.20640584848E+04 0.  0.
        3    1    3    3  502    0  0.46429279060E+03  0.78738169327E+03 -0.67870008391E+02  0.91659373473E+03  0.10100000352E+00 0. -1.
       -3    1    3    3    0  502 -0.46429279060E+03 -0.78738169327E+03 -0.11900081896E+04  0.15005523076E+04  0.10100000352E+00 0.  1.
</event>
<event>
 5   0  0.2448804E-04  0.2120359E+04  0.7818609E-02  0.8552328E-01
       -2   -1    0    0    0  501  0.00000000000E+00  0.00000000000E+00  0.15825641455E+04  0.15825641455E+04  0.25500000920E-02 0.  1.
        2   -1    0    0  501    0  0.00000000000E+00  0.00000000000E+00 -0.71022728323E+03  0.71022728324E+03  0.25500000920E-02 0. -1.
    10030    2    1    2    0    0  0.00000000000E+00  0.00000000000E+00  0.87233686226E+03  0.22927914287E+04  0.21203586806E+04 0.  0.
        2    1    3    3  502    0  0.81793562278E+02 -0.36641332183E+03  0.15082773166E+04  0.15543002841E+04  0.25500000920E-02 0.  1.
       -2    1    3    3    0  502 -0.81793562278E+02  0.36641332183E+03 -0.63594045436E+03  0.73849114466E+03  0.25500000920E-02 0. -1.
</event>
<event>
 5   0  0.1122711E-04  0.1450581E+04  0.7818609E-02  0.8917998E-01
       -1   -1    0    0    0  501  0.00000000000E+00  0.00000000000E+00  0.43597519189E+03  0.43597519192E+03  0.50400001928E-02 0. -1.
        1   -1    0    0  501    0  0.00000000000E+00  0.00000000000E+00 -0.12065972552E+04  0.12065972553E+04  0.50400001928E-02 0.  1.
    10030    2    1    2    0    0  0.00000000000E+00  0.00000000000E+00 -0.77062206336E+03  0.16425724472E+04  0.14505812213E+04 0.  0.
        1    1    3    3  502    0  0.71504350886E+03 -0.10955601111E+03 -0.44476483736E+03  0.84917930952E+03  0.50400001928E-02 0. -1.
       -1    1    3    3    0  502 -0.71504350886E+03  0.10955601111E+03 -0.32585722600E+03  0.79339313766E+03  0.50400001928E-02 0.  1.
</event>
<event>
 5   0  0.2430898E-04  0.1304540E+04  0.7818609E-02  0.9025972E-01
       -2   -1    0    0    0  501  0.00000000000E+00  0.00000000000E+00  0.26412166401E+03  0.26412166402E+03  0.25500000920E-02 0.  1.
        2   -1    0    0  501    0  0.00000000000E+00  0.00000000000E+00 -0.16108348618E+04  0.16108348618E+04  0.25500000920E-02 0. -1.
    10030    2    1    2    0    0  0.00000000000E+00  0.00000000000E+00 -0.13467131978E+04  0.18749565258E+04  0.13045403545E+04 0.  0.
        1    1    3    3  502    0  0.29023801075E+03  0.11699217115E+03 -0.14959021634E+04  0.15282828775E+04  0.50400001928E-02 0. -1.
       -1    1    3    3    0  502 -0.29023801075E+03 -0.11699217115E+03  0.14918896561E+03  0.34667364838E+03  0.50400001928E-02 0.  1.
</event>
<event>
 5   0  0.1156733E-04  0.2107004E+04  0.7818609E-02  0.8558164E-01
        1   -1    0    0  501    0  0.00000000000E+00  0.00000000000E+00  0.10599287608E+04  0.10599287608E+04  0.50400001928E-02 0.  1.
       -1   -1    0    0    0  501  0.00000000000E+00  0.00000000000E+00 -0.10471140300E+04  0.10471140300E+04  0.50400001928E-02 0. -1.
    10030    2    1    2    0    0  0.00000000000E+00  0.00000000000E+00  0.12814730777E+02  0.21070427908E+04  0.21070038218E+04 0.  0.
        2    1    3    3  502    0 -0.50138220715E+03 -0.80822688951E+03 -0.44664786963E+03  0.10507659787E+04  0.25500000920E-02 0. -1.
       -2    1    3    3    0  502  0.50138220715E+03  0.80822688951E+03  0.45946260041E+03  0.10562768121E+04  0.25500000920E-02 0.  1.
</event>
<event>
 5   0  0.2579241E-04  0.1976585E+04  0.7818609E-02  0.8617647E-01
        2   -1    0    0  501    0  0.00000000000E+00  0.00000000000E+00  0.66204521185E+03  0.66204521185E+03  0.25500000920E-02 0.  1.
       -2   -1    0    0    0  501  0.00000000000E+00  0.00000000000E+00 -0.14753095864E+04  0.14753095864E+04  0.25500000920E-02 0. -1.
    10030    2    1    2    0    0  0.00000000000E+00  0.00000000000E+00 -0.81326437451E+03  0.21373547982E+04  0.19765845771E+04 0.  0.
        5    1    3    3  502    0  0.13282753516E+02 -0.16419518671E+03 -0.14603470973E+04  0.14696163532E+04  0.46999998093E+01 0. -1.
       -5    1    3    3    0  502 -0.13282753516E+02  0.16419518671E+03  0.64708272279E+03  0.66773844506E+03  0.46999998093E+01 0.  1.
</event>
<event>
 5   0  0.1156733E-04  0.2251565E+04  0.7818609E-02  0.8497267E-01
        1   -1    0    0  501    0  0.00000000000E+00  0.00000000000E+00  0.12312556732E+04  0.12312556732E+04  0.50400001928E-02 0.  1.
       -1   -1    0    0    0  501  0.00000000000E+00  0.00000000000E+00 -0.10293446567E+04  0.10293446567E+04  0.50400001928E-02 0. -1.
    10030    2    1    2    0    0  0.00000000000E+00  0.00000000000E+00  0.20191101655E+03  0.22606003299E+04  0.22515651874E+04 0.  0.
        2    1    3    3  502    0  0.10265494966E+04 -0.46210513741E+03  0.10741726781E+03  0.11308773127E+04  0.25500000920E-02 0.  1.
       -2    1    3    3    0  502 -0.10265494966E+04  0.46210513741E+03  0.94493748740E+02  0.11297230172E+04  0.25500000920E-02 0. -1.
</event>
<event>
 5   0  0.1042395E-04  0.2103250E+04  0.7818609E-02  0.8559813E-01
       -1   -1    0    0    0  501  0.00000000000E+00  0.00000000000E+00  0.54523490290E+03  0.54523490292E+03  0.50400001928E-02 0.  1.
        1   -1    0    0  501    0  0.00000000000E+00  0.00000000000E+00 -0.20283269855E+04  0.20283269855E+04  0.50400001928E-02 0. -1.
    10030    2    1    2    0    0  0.00000000000E+00  0.00000000000E+00 -0.14830920826E+04  0.25735618885E+04  0.21032495497E+04 0.  0.
        3    1    3    3  502    0  0.36798391257E+03  0.55887659598E+03 -0.17342262693E+04  0.18588426433E+04  0.10100000352E+00 0. -1.
       -3    1    3    3    0  502 -0.36798391257E+03 -0.55887659598E+03  0.25113418664E+03  0.71471924512E+03  0.10100000352E+00 0.  1.
</event>
<event>
 5   0  0.1130848E-04  0.1568751E+04  0.7818609E-02  0.8839979E-01
        1   -1    0    0  501    0  0.00000000000E+00  0.00000000000E+00  0.61245690601E+03  0.61245690603E+03  0.50400001928E-02 0. -1.
       -1   -1    0    0    0  501  0.00000000000E+00  0.00000000000E+00 -0.10045523253E+04  0.10045523254E+04  0.50400001928E-02 0.  1.
    10030    2    1    2    0    0  0.00000000000E+00  0.00000000000E+00 -0.39209541933E+03  0.16170092314E+04  0.15687511073E+04 0.  0.
        5    1    3    3  502    0 -0.51487904167E+03  0.29839059769E+03 -0.72273139523E+03  0.93621585972E+03  0.46999998093E+01 0.  1.
       -5    1    3    3    0  502  0.51487904167E+03 -0.29839059769E+03  0.33063597591E+03  0.68079337167E+03  0.46999998093E+01 0. -1.
</event>
<event>
 5   0  0.2430898E-04  0.2056578E+04  0.7818609E-02  0.8580616E-01
        2   -1    0    0  501    0  0.00000000000E+00  0.00000000000E+00  0.85503884616E+03  0.85503884617E+03  0.25500000920E-02 0. -1.
       -2   -1    0    0    0  501  0.00000000000E+00  0.00000000000E+00 -0.12366437770E+04  0.12366437770E+04  0.25500000920E-02 0.  1.
    10030    2    1    2    0    0  0.00000000000E+00  0.00000000000E+00 -0.38160493083E+03  0.20916826232E+04  0.20565781952E+04 0.  0.
        1    1    3    3  502    0  0.77074788671E+03  0.27162207987E+03  0.44398864038E+03  0.93003052206E+03  0.50400001928E-02 0. -1.
       -1    1    3    3    0  502 -0.77074788671E+03 -0.27162207987E+03 -0.82559357121E+03  0.11616521011E+04  0.50400001928E-02 0.  1.
</event>
<event>
 5   0  0.1042395E-04  0.2134613E+04  0.7818609E-02  0.8546147E-01
       -1   -1    0    0    0  501  0.00000000000E+00  0.00000000000E+00  0.66230752085E+03  0.66230752086E+03  0.50400001928E-02 0. -1.
        1   -1    0    0  501    0  0.00000000000E+00  0.00000000000E+00 -0.17199616733E+04  0.17199616733E+04  0.50400001928E-02 0.  1.
    10030    2    1    2    0    0  0.00000000000E+00  0.00000000000E+00 -0.10576541525E+04  0.23822691942E+04  0.21346133625E+04 0.  0.
        3    1    3    3  502    0  0.94125582822E+03 -0.12350196808E+03 -0.10731976431E+04  0.14328183631E+04  0.10100000352E+00 0. -1.
       -3    1    3    3    0  502 -0.94125582822E+03  0.12350196808E+03  0.15543490666E+02  0.94945083105E+03  0.10100000352E+00 0.  1.
</event>
<event>
 5   0  0.2448804E-04  0.2232030E+04  0.7818609E-02  0.8505213E-01
       -2   -1    0    0    0  501  0.00000000000E+00  0.00000000000E+00  0.62348501976E+03  0.62348501977E+03  0.25500000920E-02 0.  1.
        2   -1    0    0  501    0  0.00000000000E+00  0.00000000000E+00 -0.19976260954E+04  0.19976260954E+04  0.25500000920E-02 0. -1.
    10030    2    1    2    0    0  0.00000000000E+00  0.00000000000E+00 -0.13741410757E+04  0.26211111152E+04  0.22320304170E+04 0.  0.
        2    1    3    3  502    0 -0.37971330824E+03 -0.75246478341E+03  0.17195213098E+03  0.86020519767E+03  0.25500000920E-02 0.  1.
       -2    1    3    3    0  502  0.37971330824E+03  0.75246478341E+03 -0.15460932066E+04  0.17609059175E+04  0.25500000920E-02 0. -1.
</event>
<event>
 5   0  0.1186038E-04  0.2019949E+04  0.7818609E-02  0.8597350E-01
        1   -1    0    0  501    0  0.00000000000E+00  0.00000000000E+00  0.15628484855E+04  0.15628484855E+04  0.50400001928E-02 0. -1.
       -1   -1    0    0    0  501  0.00000000000E+00  0.00000000000E+00 -0.65268521606E+03  0.65268521608E+03  0.50400001928E-02 0.  1.
    10030    2    1    2    0    0  0.00000000000E+00  0.00000000000E+00  0.91016326946E+03  0.22155337016E+04  0.20199486147E+04 0.  0.
        4    1    3    3  502    0 -0.50156862031E+03  0.55806393524E+03 -0.28642521851E+03  0.80314846410E+03  0.12699999809E+01 0.  1.
       -4    1    3    3    0  502  0.50156862031E+03 -0.55806393524E+03  0.11965884880E+04  0.14123852375E+04  0.12699999809E+01 0. -1.
</event>
<event>
 5   0  0.1130848E-04  0.2095424E+04  0.7818609E-02  0.8563262E-01
        1   -1    0    0  501    0  0.00000000000E+00  0.00000000000E+00  0.30566389424E+04  0.30566389424E+04  0.50400001928E-02 0. -1.
       -1   -1    0    0    0  501  0.00000000000E+00  0.00000000000E+00 -0.35912001676E+03  0.35912001679E+03  0.50400001928E-02 0.  1.
    10030    2    1    2    0    0  0.00000000000E+00  0.00000000000E+00  0.26975189256E+04  0.34157589592E+04  0.20954238028E+04 0.  0.
        5    1    3    3  502    0 -0.97654133119E+00  0.21525188411E+03  0.30201876598E+04  0.30278523606E+04  0.46999998093E+01 0. -1.
       -5    1    3    3    0  502  0.97654133119E+00 -0.21525188411E+03 -0.32266873414E+03  0.38790659860E+03  0.46999998093E+01 0.  1.
</event>
<event>
 5   0  0.2579241E-04  0.2091351E+04  0.7818609E-02  0.8565063E-01
       -2   -1    0    0    0  501  0.00000000000E+00  0.00000000000E+00  0.17319766959E+04  0.17319766959E+04  0.25500000920E-02 0.  1.
        2   -1    0    0  501    0  0.00000000000E+00  0.00000000000E+00 -0.63132314568E+03  0.63132314569E+03  0.25500000920E-02 0. -1.
    10030    2    1    2    0    0  0.00000000000E+00  0.00000000000E+00  0.11006535503E+04  0.23632998416E+04  0.20913507367E+04 0.  0.
        5    1    3    3  502    0 -0.40735275362E+03  0.72225669676E+02  0.16355501178E+04  0.16870681940E+04  0.46999998093E+01 0.  1.
       -5    1    3    3    0  502  0.40735275362E+03 -0.72225669676E+02 -0.53489656759E+03  0.67623164763E+03  0.46999998093E+01 0. -1.
</event>
<event>
 5   0  0.1130848E-04  0.2115727E+04  0.7818609E-02  0.8554347E-01
       -1   -1    0    0    0  501  0.00000000000E+00  0.00000000000E+00  0.67962504994E+03  0.67962504996E+03  0.50400001928E-02 0.  1.
        1   -1    0    0  501    0  0.00000000000E+00  0.00000000000E+00 -0.16466063384E+04  0.16466063385E+04  0.50400001928E-02 0. -1.
    10030    2    1    2    0    0  0.00000000000E+00  0.00000000000E+00 -0.96698128851E+03  0.23262313884E+04  0.21157267451E+04 0.  0.
        5    1    3    3  502    0 -0.60612392413E+03  0.32841760322E+03  0.39871876544E+03  0.79639379544E+03  0.46999998093E+01 0.  1.
       -5    1    3    3    0  502  0.60612392413E+03 -0.32841760322E+03 -0.13657000539E+04  0.15298375930E+04  0.46999998093E+01 0. -1.
</event>
<event>
 5   0  0.1156733E-04  0.1986733E+04  0.7818609E-02  0.8612848E-01
       -1   -1    0    0    0  501  0.00000000000E+00  0.00000000000E+00  0.86223454538E+03  0.86223454539E+03  0.50400001928E-02 0.  1.
        1   -1    0    0  501    0  0.00000000000E+00  0.00000000000E+00 -0.11444419880E+04  0.11444419880E+04  0.50400001928E-02 0. -1.
    10030    2    1    2    0    0  0.00000000000E+00  0.00000000000E+00 -0.28220744261E+03  0.20066765334E+04  0.19867334167E+04 0.  0.
        2    1    3    3  502    0  0.29112233325E+03 -0.53821352232E+03  0.64928027113E+03  0.89218320933E+03  0.25500000920E-02 0.  1.
       -2    1    3    3    0  502 -0.29112233325E+03  0.53821352232E+03 -0.93148771374E+03  0.11144933241E+04  0.25500000920E-02 0. -1.
</event>
<event>
 5   0  0.2430898E-04  0.2274701E+04  0.7818609E-02  0.8487963E-01
       -2   -1    0    0    0  501  0.00000000000E+00  0.00000000000E+00  0.64373012611E+03  0.64373012612E+03  0.25500000920E-02 0. -1.
        2   -1    0    0  501    0  0.00000000000E+00  0.00000000000E+00 -0.20094858653E+04  0.20094858653E+04  0.25500000920E-02 0.  1.
    10030    2    1    2    0    0  0.00000000000E+00  0.00000000000E+00 -0.13657557392E+04  0.26532159914E+04  0.22747013778E+04 0.  0.
        1    1    3    3  502    0 -0.22589363370E+03 -0.98244786340E+02  0.61224145876E+03  0.65993906964E+03  0.50400001928E-02 0. -1.
       -1    1    3    3    0  502  0.22589363370E+03  0.98244786340E+02 -0.19779971979E+04  0.19932769218E+04  0.50400001928E-02 0.  1.
</event>
<event>
 5   0  0.1122711E-04  0.1589791E+04  0.7818609E-02  0.8826844E-01
       -1   -1    0    0    0  501  0.00000000000E+00  0.00000000000E+00  0.14107628565E+04  0.14107628565E+04  0.50400001928E-02 0. -1.
        1   -1    0    0  501    0  0.00000000000E+00  0.00000000000E+00 -0.44788465931E+03  0.44788465934E+03  0.50400001928E-02 0.  1.
    10030    2    1    2    0    0  0.00000000000E+00  0.00000000000E+00  0.96287819716E+03  0.18586475158E+04  0.15897912333E+04 0.  0.
        1    1    3    3  502    0  0.75923736369E+03  0.24118389926E+02  0.75521152411E+03  0.10711524249E+04  0.50400001928E-02 0. -1.
       -1    1    3    3    0  502 -0.75923736369E+03 -0.24118389926E+02  0.20766667305E+03  0.78749509095E+03  0.50400001928E-02 0.  1.
</event>
<event>
 5   0  0.2430898E-04  0.2101382E+04  0.7818609E-02  0.8560635E-01
       -2   -1    0    0    0  501  0.00000000000E+00  0.00000000000E+00  0.50249245289E+03  0.50249245290E+03  0.25500000920E-02 0.  1.
        2   -1    0    0  501    0  0.00000000000E+00  0.00000000000E+00 -0.21969505460E+04  0.21969505460E+04  0.25500000920E-02 0. -1.
    10030    2    1    2    0    0  0.00000000000E+00  0.00000000000E+00 -0.16944580931E+04  0.26994429989E+04  0.21013815158E+04 0.  0.
        1    1    3    3  502    0  0.96634700888E+03 -0.26679173757E+02 -0.31848888642E+03  0.10178278296E+04  0.50400001928E-02 0.  1.
       -1    1    3    3    0  502 -0.96634700888E+03  0.26679173757E+02 -0.13759692067E+04  0.16816151693E+04  0.50400001928E-02 0. -1.
</event>
<event>
 5   0  0.2430898E-04  0.2071314E+04  0.7818609E-02  0.8573986E-01
        2   -1    0    0  501    0  0.00000000000E+00  0.00000000000E+00  0.15629139433E+04  0.15629139433E+04  0.25500000920E-02 0. -1.
       -2   -1    0    0    0  501  0.00000000000E+00  0.00000000000E+00 -0.68627303375E+03  0.68627303376E+03  0.25500000920E-02 0.  1.
    10030    2    1    2    0    0  0.00000000000E+00  0.00000000000E+00  0.87664090957E+03  0.22491869771E+04  0.20713142624E+04 0.  0.
        1    1    3    3  502    0  0.21613578511E+03  0.73269775881E+03 -0.32103497019E+03  0.82862786308E+03  0.50400001928E-02 0.  1.
       -1    1    3    3    0  502 -0.21613578511E+03 -0.73269775881E+03  0.11976758798E+04  0.14205591140E+04  0.50400001928E-02 0. -1.
</event>
<event>
 5   0  0.1186038E-04  0.1503985E+04  0.7818609E-02  0.8881808E-01
       -1   -1    0    0    0  501  0.00000000000E+00  0.00000000000E+00  0.58353034440E+03  0.58353034442E+03  0.50400001928E-02 0. -1.
        1   -1    0    0  501    0  0.00000000000E+00  0.00000000000E+00 -0.96908833155E+03  0.96908833156E+03  0.50400001928E-02 0.  1.
    10030    2    1    2    0    0  0.00000000000E+00  0.00000000000E+00 -0.38555798715E+03  0.15526186760E+04  0.15039846381E+04 0.  0.
        4    1    3    3  502    0  0.25516563337E+03 -0.91810492876E+02 -0.91685281312E+03  0.95611681341E+03  0.12699999809E+01 0.  1.
       -4    1    3    3    0  502 -0.25516563337E+03  0.91810492876E+02  0.53129482597E+03  0.59650186258E+03  0.12699999809E+01 0. -1.
</event>
<event>
 5   0  0.1042395E-04  0.2113115E+04  0.7818609E-02  0.8555488E-01
       -1   -1    0    0    0  501  0.00000000000E+00  0.00000000000E+00  0.97935792095E+03  0.97935792096E+03  0.50400001928E-02 0.  1.
        1   -1    0    0  501    0  0.00000000000E+00  0.00000000000E+00 -0.11398425520E+04  0.11398425520E+04  0.50400001928E-02 0. -1.
    10030    2    1    2    0    0  0.00000000000E+00  0.00000000000E+00 -0.16048463102E+03  0.21192004729E+04  0.21131150768E+04 0.  0.
        3    1    3    3  502    0 -0.77770135188E+03  0.30626565615E+03 -0.72839740522E+03  0.11086842810E+04  0.10100000352E+00 0. -1.
       -3    1    3    3    0  502  0.77770135188E+03 -0.30626565615E+03  0.56791277419E+03  0.10105161919E+04  0.10100000352E+00 0.  1.
</event>
<event>
 5   0  0.2467483E-04  0.1969954E+04  0.7818609E-02  0.8620798E-01
        2   -1    0    0  501    0  0.00000000000E+00  0.00000000000E+00  0.16366944014E+04  0.16366944014E+04  0.25500000920E-02 0.  1.
       -2   -1    0    0    0  501  0.00000000000E+00  0.00000000000E+00 -0.59276787587E+03  0.59276787587E+03  0.25500000920E-02 0. -1.
    10030    2    1    2    0    0  0.00000000000E+00  0.00000000000E+00  0.10439265255E+04  0.22294622773E+04  0.19699541759E+04 0.  0.
        4    1    3    3  502    0  0.48099162064E+03  0.21293720074E+03 -0.42049458045E+03  0.67343336394E+03  0.12699999809E+01 0. -1.
       -4    1    3    3    0  502 -0.48099162064E+03 -0.21293720074E+03  0.14644211060E+04  0.15560289133E+04  0.12699999809E+01 0.  1.
</event>
<event>
 5   0  0.1186038E-04  0.2106380E+04  0.7818609E-02  0.8558438E-01
       -1   -1    0    0    0  501  0.00000000000E+00  0.00000000000E+00  0.67830587220E+03  0.67830587222E+03  0.50400001928E-02 0.  1.
        1   -1    0    0  501    0  0.00000000000E+00  0.00000000000E+00 -0.16352641802E+04  0.16352641802E+04  0.50400001928E-02 0. -1.
    10030    2    1    2    0    0  0.00000000000E+00  0.00000000000E+00 -0.95695830801E+03  0.23135700524E+04  0.21063801139E+04 0.  0.
        4    1    3    3  502    0 -0.94200299724E+02 -0.18634323634E+03 -0.16123017019E+04  0.16257662468E+04  0.12699999809E+01 0. -1.
       -4    1    3    3    0  502  0.94200299724E+02  0.18634323634E+03  0.65534339393E+03  0.68780380565E+03  0.12699999809E+01 0.  1.
</event>
<event>
 5   0  0.1122711E-04  0.1835735E+04  0.7818609E-02  0.8687524E-01
        1   -1    0    0  501    0  0.00000000000E+00  0.00000000000E+00  0.16214768263E+04  0.16214768263E+04  0.50400001928E-02 0.  1.
       -1   -1    0    0    0  501  0.00000000000E+00  0.00000000000E+00 -0.51957611512E+03  0.51957611515E+03  0.50400001928E-02 0. -1.
    10030    2    1    2    0    0  0.00000000000E+00  0.00000000000E+00  0.11019007112E+04  0.21410529415E+04  0.18357348722E+04 0.  0.
        1    1    3    3  502    0  0.33848830879E+03  0.45615669555E+03  0.13918555145E+04  0.15033013801E+04  0.50400001928E-02 0.  1.
       -1    1    3    3    0  502 -0.33848830879E+03 -0.45615669555E+03 -0.28995480330E+03  0.63775156140E+03  0.50400001928E-02 0. -1.
</event>
<event>
 5   0  0.1130848E-04  0.2140677E+04  0.7818609E-02  0.8543534E-01
       -1   -1    0    0    0  501  0.00000000000E+00  0.00000000000E+00  0.22803863181E+04  0.22803863181E+04  0.50400001928E-02 0.  1.
        1   -1    0    0  501    0  0.00000000000E+00  0.00000000000E+00 -0.50238174877E+03  0.50238174879E+03  0.50400001928E-02 0. -1.
    10030    2    1    2    0    0  0.00000000000E+00  0.00000000000E+00  0.17780045694E+04  0.27827680669E+04  0.21406769643E+04 0.  0.
        5    1    3    3  502    0 -0.31169029941E+03 -0.95271775401E+03  0.13767519676E+04  0.17030237907E+04  0.46999998093E+01 0.  1.
       -5    1    3    3    0  502  0.31169029941E+03  0.95271775401E+03  0.40125260178E+03  0.10797442762E+04  0.46999998093E+01 0. -1.
</event>
<event>
 5   0  0.2467483E-04  0.2082658E+04  0.7818609E-02  0.8568921E-01
       -2   -1    0    0    0  501  0.00000000000E+00  0.00000000000E+00  0.78772795404E+03  0.78772795404E+03  0.25500000920E-02 0. -1.
        2   -1    0    0  501    0  0.00000000000E+00  0.00000000000E+00 -0.13765743118E+04  0.13765743118E+04  0.25500000920E-02 0.  1.
    10030    2    1    2    0    0  0.00000000000E+00  0.00000000000E+00 -0.58884635774E+03  0.21643022658E+04  0.20826579808E+04 0.  0.
        4    1    3    3  502    0 -0.27343602468E+03  0.94606404083E+03  0.57312568000E+02  0.98645363414E+03  0.12699999809E+01 0. -1.
       -4    1    3    3    0  502  0.27343602468E+03 -0.94606404083E+03 -0.64615892574E+03  0.11778486317E+04  0.12699999809E+01 0.  1.
</event>
<event>
 5   0  0.2448804E-04  0.2158348E+04  0.7818609E-02  0.8535967E-01
       -2   -1    0    0    0  501  0.00000000000E+00  0.00000000000E+00  0.66768864576E+03  0.66768864577E+03  0.25500000920E-02 0. -1.
        2   -1    0    0  501    0  0.00000000000E+00  0.00000000000E+00 -0.17442512092E+04  0.17442512092E+04  0.25500000920E-02 0.  1.
    10030    2    1    2    0    0  0.00000000000E+00  0.00000000000E+00 -0.10765625635E+04  0.24119398550E+04  0.21583481904E+04 0.  0.
        2    1    3    3  502    0 -0.39728694276E+03 -0.90447416453E+03 -0.52838369587E+02  0.98929385043E+03  0.25500000920E-02 0. -1.
       -2    1    3    3    0  502  0.39728694276E+03  0.90447416453E+03 -0.10237241939E+04  0.14226460046E+04  0.25500000920E-02 0.  1.
</event>
<event>
 5   0  0.1130848E-04  0.2106292E+04  0.7818609E-02  0.8558477E-01
       -1   -1    0    0    0  501  0.00000000000E+00  0.00000000000E+00  0.64829976821E+03  0.64829976823E+03  0.50400001928E-02 0. -1.
        1   -1    0    0  501    0  0.00000000000E+00  0.00000000000E+00 -0.17108075119E+04  0.17108075119E+04  0.50400001928E-02 0.  1.
    10030    2    1    2    0    0  0.00000000000E+00  0.00000000000E+00 -0.10625077437E+04  0.23591072802E+04  0.21062916355E+04 0.  0.
        5    1    3    3  502    0 -0.91698291089E+03 -0.38445285977E+03 -0.91994156678E+03  0.13546129471E+04  0.46999998093E+01 0.  1.
       -5    1    3    3    0  502  0.91698291089E+03  0.38445285977E+03 -0.14256617692E+03  0.10044943330E+04  0.46999998093E+01 0. -1.
</event>
<event>
 5   0  0.1122711E-04  0.1959346E+04  0.7818609E-02  0.8625867E-01
       -1   -1    0    0    0  501  0.00000000000E+00  0.00000000000E+00  0.64839270578E+03  0.64839270580E+03  0.50400001928E-02 0.  1.
        1   -1    0    0  501    0  0.00000000000E+00  0.00000000000E+00 -0.14802134717E+04  0.14802134717E+04  0.50400001928E-02 0. -1.
    10030    2    1    2    0    0  0.00000000000E+00  0.00000000000E+00 -0.83182076588E+03  0.21286061775E+04  0.19593464401E+04 0.  0.
        1    1    3    3  502    0  0.11129134907E+03  0.38086718370E+03  0.55718695089E+03  0.68403426396E+03  0.50400001928E-02 0.  1.
       -1    1    3    3    0  502 -0.11129134907E+03 -0.38086718370E+03 -0.13890077168E+04  0.14445719135E+04  0.50400001928E-02 0. -1.
</event>
<event>
 5   0  0.2512839E-04  0.2108424E+04  0.7818609E-02  0.8557541E-01
        2   -1    0    0  501    0  0.00000000000E+00  0.00000000000E+00  0.14563477007E+04  0.14563477007E+04  0.25500000920E-02 0. -1.
       -2   -1    0    0    0  501  0.00000000000E+00  0.00000000000E+00 -0.76311677423E+03  0.76311677423E+03  0.25500000920E-02 0.  1.
    10030    2    1    2    0    0  0.00000000000E+00  0.00000000000E+00  0.69323092650E+03  0.22194644750E+04  0.21084243971E+04 0.  0.
        3    1    3    3  502    0  0.12493024278E+03  0.41961930072E+03 -0.66288717039E+03  0.79442264190E+03  0.10100000352E+00 0.  1.
       -3    1    3    3    0  502 -0.12493024278E+03 -0.41961930072E+03  0.13561180969E+04  0.14250418331E+04  0.10100000352E+00 0. -1.
</event>
<event>
 5   0  0.2467483E-04  0.2048774E+04  0.7818609E-02  0.8584151E-01
        2   -1    0    0  501    0  0.00000000000E+00  0.00000000000E+00  0.16700881507E+04  0.16700881507E+04  0.25500000920E-02 0.  1.
       -2   -1    0    0    0  501  0.00000000000E+00  0.00000000000E+00 -0.62833120864E+03  0.62833120865E+03  0.25500000920E-02 0. -1.
    10030    2    1    2    0    0  0.00000000000E+00  0.00000000000E+00  0.10417569421E+04  0.22984193594E+04  0.20487737858E+04 0.  0.
        4    1    3    3  502    0  0.17466012150E+03  0.90187739417E+03  0.10294099281E+04  0.13797012014E+04  0.12699999809E+01 0.  1.
       -4    1    3    3    0  502 -0.17466012150E+03 -0.90187739417E+03  0.12347013989E+02  0.91871815799E+03  0.12699999809E+01 0. -1.
</event>
<event>
 5   0  0.2467483E-04  0.2117396E+04  0.7818609E-02  0.8553619E-01
        2   -1    0    0  501    0  0.00000000000E+00  0.00000000000E+00  0.99618297920E+03  0.99618297920E+03  0.25500000920E-02 0. -1.
       -2   -1    0    0    0  501  0.00000000000E+00  0.00000000000E+00 -0.11251360722E+04  0.11251360722E+04  0.25500000920E-02 0.  1.
    10030    2    1    2    0    0  0.00000000000E+00  0.00000000000E+00 -0.12895309303E+03  0.21213190514E+04  0.21173959520E+04 0.  0.
        4    1    3    3  502    0  0.25772031434E+03 -0.23759563245E+02 -0.10929532294E+04  0.11231797059E+04  0.12699999809E+01 0.  1.
       -4    1    3    3    0  502 -0.25772031434E+03  0.23759563245E+02  0.96400013635E+03  0.99813934551E+03  0.12699999809E+01 0. -1.
</event>
<event>
 5   0  0.1042395E-04  0.2058014E+04  0.7818609E-02  0.8579968E-01
        1   -1    0    0  501    0  0.00000000000E+00  0.00000000000E+00  0.13981544221E+04  0.13981544221E+04  0.50400001928E-02 0. -1.
       -1   -1    0    0    0  501  0.00000000000E+00  0.00000000000E+00 -0.75732339240E+03  0.75732339241E+03  0.50400001928E-02 0.  1.
    10030    2    1    2    0    0  0.00000000000E+00  0.00000000000E+00  0.64083102972E+03  0.21554778145E+04  0.20580136541E+04 0.  0.
        3    1    3    3  502    0 -0.26669218585E+03 -0.69896111256E+03 -0.41957387884E+03  0.85773749415E+03  0.10100000352E+00 0.  1.
       -3    1    3    3    0  502  0.26669218585E+03  0.69896111256E+03  0.10604049086E+04  0.12977403204E+04  0.10100000352E+00 0. -1.
</event>
<event>
 5   0  0.1042395E-04  0.2192163E+04  0.7818609E-02  0.8521697E-01
        1   -1    0    0  501    0  0.00000000000E+00  0.00000000000E+00  0.13935773735E+04  0.13935773735E+04  0.50400001928E-02 0. -1.
       -1   -1    0    0    0  501  0.00000000000E+00  0.00000000000E+00 -0.86209368167E+03  0.86209368169E+03  0.50400001928E-02 0.  1.
    10030    2    1    2    0    0  0.00000000000E+00  0.00000000000E+00  0.53148369187E+03  0.22556710552E+04  0.21921626296E+04 0.  0.
        3    1    3    3  502    0  0.22038803391E+03  0.17108052233E+02 -0.83891971464E+03  0.86755395726E+03  0.10100000352E+00 0.  1.
       -3    1    3    3    0  502 -0.22038803391E+03 -0.17108052233E+02  0.13704034065E+04  0.13881170980E+04  0.10100000352E+00 0. -1.
</event>
<event>
 5   0  0.1042395E-04  0.2113116E+04  0.7818609E-02  0.8555487E-01
        1   -1    0    0  501    0  0.00000000000E+00  0.00000000000E+00  0.10715982096E+04  0.10715982096E+04  0.50400001928E-02 0.  1.
       -1   -1    0    0    0  501  0.00000000000E+00  0.00000000000E+00 -0.10417292391E+04  0.10417292391E+04  0.50400001928E-02 0. -1.
    10030    2    1    2    0    0  0.00000000000E+00  0.00000000000E+00  0.29868970505E+02  0.21133274487E+04  0.21131163598E+04 0.  0.
        3    1    3    3  502    0 -0.24109244364E+03  0.18018487888E+02 -0.10136938760E+04  0.10421254803E+04  0.10100000352E+00 0. -1.
       -3    1    3    3    0  502  0.24109244364E+03 -0.18018487888E+02  0.10435628465E+04  0.10712019684E+04  0.10100000352E+00 0.  1.
</event>
<event>
 5   0  0.1156733E-04  0.2218490E+04  0.7818609E-02  0.8510771E-01
       -1   -1    0    0    0  501  0.00000000000E+00  0.00000000000E+00  0.12608831034E+04  0.12608831034E+04  0.50400001928E-02 0. -1.
        1   -1    0    0  501    0  0.00000000000E+00  0.00000000000E+00 -0.97584331592E+03  0.97584331593E+03  0.50400001928E-02 0.  1.
    10030    2    1    2    0    0  0.00000000000E+00  0.00000000000E+00  0.28503978750E+03  0.22367264194E+04  0.22184898906E+04 0.  0.
        2    1    3    3  502    0 -0.10446796129E+04  0.91521902307E+02  0.50700593987E+03  0.11648119055E+04  0.25500000920E-02 0. -1.
       -2    1    3    3    0  502  0.10446796129E+04 -0.91521902307E+02 -0.22196615238E+03  0.10719145138E+04  0.25500000920E-02 0.  1.
</event>
<event>
 5   0  0.2512839E-04  0.2070348E+04  0.7818609E-02  0.8574419E-01
       -2   -1    0    0    0  501  0.00000000000E+00  0.00000000000E+00  0.27818311829E+04  0.27818311829E+04  0.25500000920E-02 0.  1.
        2   -1    0    0  501    0  0.00000000000E+00  0.00000000000E+00 -0.38520841997E+03  0.38520841998E+03  0.25500000920E-02 0. -1.
    10030    2    1    2    0    0  0.00000000000E+00  0.00000000000E+00  0.23966227629E+04  0.31670396028E+04  0.20703475984E+04 0.  0.
        3    1    3    3  502    0  0.59446973067E+02 -0.10310803802E+04  0.10909684939E+04  0.15022892391E+04  0.10100000352E+00 0.  1.
       -3    1    3    3    0  502 -0.59446973067E+02  0.10310803802E+04  0.13056542690E+04  0.16647503637E+04  0.10100000352E+00 0. -1.
</event>
<event>
 5   0  0.2512839E-04  0.2026341E+04  0.7818609E-02  0.8594403E-01
        2   -1    0    0  501    0  0.00000000000E+00  0.00000000000E+00  0.28750677261E+04  0.28750677261E+04  0.25500000920E-02 0. -1.
       -2   -1    0    0    0  501  0.00000000000E+00  0.00000000000E+00 -0.35704025399E+03  0.35704025400E+03  0.25500000920E-02 0.  1.
    10030    2    1    2    0    0  0.00000000000E+00  0.00000000000E+00  0.25180274722E+04  0.32321079801E+04  0.20263414433E+04 0.  0.
        3    1    3    3  502    0 -0.89541278450E+03 -0.78250616404E+02  0.51320783535E+03  0.10350215003E+04  0.10100000352E+00 0.  1.
       -3    1    3    3    0  502  0.89541278450E+03  0.78250616404E+02  0.20048196368E+04  0.21970864798E+04  0.10100000352E+00 0. -1.
</event>
<event>
 5   0  0.1042395E-04  0.2091747E+04  0.7818609E-02  0.8564887E-01
       -1   -1    0    0    0  501  0.00000000000E+00  0.00000000000E+00  0.16504542763E+04  0.16504542764E+04  0.50400001928E-02 0. -1.
        1   -1    0    0  501    0  0.00000000000E+00  0.00000000000E+00 -0.66275797134E+03  0.66275797136E+03  0.50400001928E-02 0.  1.
    10030    2    1    2    0    0  0.00000000000E+00  0.00000000000E+00  0.98769630501E+03  0.23132122477E+04  0.20917473347E+04 0.  0.
        3    1    3    3  502    0 -0.21156406477E+03 -0.10240422250E+04  0.51677702846E+03  0.11663963046E+04  0.10100000352E+00 0.  1.
       -3    1    3    3    0  502  0.21156406477E+03  0.10240422250E+04  0.47091927655E+03  0.11468159431E+04  0.10100000352E+00 0. -1.
</event>
<event>
 5   0  0.2448804E-04  0.2081940E+04  0.7818609E-02  0.8569241E-01
        2   -1    0    0  501    0  0.00000000000E+00  0.00000000000E+00  0.15326171553E+04  0.15326171553E+04  0.25500000920E-02 0. -1.
       -2   -1    0    0    0  501  0.00000000000E+00  0.00000000000E+00 -0.70703801924E+03  0.70703801925E+03  0.25500000920E-02 0.  1.
    10030    2    1    2    0    0  0.00000000000E+00  0.00000000000E+00  0.82557913609E+03  0.22396551746E+04  0.20819400546E+04 0.  0.
        2    1    3    3  502    0 -0.85485346398E+03  0.56796533215E+03  0.22565929228E+03  0.10508478385E+04  0.25500000920E-02 0. -1.
       -2    1    3    3    0  502  0.85485346398E+03 -0.56796533215E+03  0.59991984381E+03  0.11888073361E+04  0.25500000920E-02 0.  1.
</event>
<event>
 5   0  0.2430898E-04  0.1995628E+04  0.7818609E-02  0.8608668E-01
        2   -1    0    0  501    0  0.00000000000E+00  0.00000000000E+00  0.18634521150E+04  0.18634521150E+04  0.25500000920E-02 0. -1.
       -2   -1    0    0    0  501  0.00000000000E+00  0.00000000000E+00 -0.53429470902E+03  0.53429470902E+03  0.25500000920E-02 0.  1.
    10030    2    1    2    0    0  0.00000000000E+00  0.00000000000E+00  0.13291574060E+04  0.23977468240E+04  0.19956278266E+04 0.  0.
        1    1    3    3  502    0  0.63034198644E+03  0.35852382255E+03 -0.15891983488E+03  0.74237851878E+03  0.50400001928E-02 0.  1.
       -1    1    3    3    0  502 -0.63034198644E+03 -0.35852382255E+03  0.14880772409E+04  0.16553683053E+04  0.50400001928E-02 0. -1.
</event>
<event>
 5   0  0.2467483E-04  0.2092155E+04  0.7818609E-02  0.8564707E-01
        2   -1    0    0  501    0  0.00000000000E+00  0.00000000000E+00  0.13124570062E+04  0.13124570062E+04  0.25500000920E-02 0.  1.
       -2   -1    0    0    0  501  0.00000000000E+00  0.00000000000E+00 -0.83376270256E+03  0.83376270256E+03  0.25500000920E-02 0. -1.
    10030    2    1    2    0    0  0.00000000000E+00  0.00000000000E+00  0.47869430368E+03  0.21462197088E+04  0.20921545837E+04 0.  0.
        4    1    3    3  502    0  0.66404501641E+03  0.46078817405E+03  0.92058226636E+03  0.12250529977E+04  0.12699999809E+01 0.  1.
       -4    1    3    3    0  502 -0.66404501641E+03 -0.46078817405E+03 -0.44188796268E+03  0.92116671109E+03  0.12699999809E+01 0. -1.
</event>
<event>
 5   0  0.1130848E-04  0.2094374E+04  0.7818609E-02  0.8563726E-01
       -1   -1    0    0    0  501  0.00000000000E+00  0.00000000000E+00  0.92461116983E+03  0.92461116985E+03  0.50400001928E-02 0. -1.
        1   -1    0    0  501    0  0.00000000000E+00  0.00000000000E+00 -0.11860126472E+04  0.11860126473E+04  0.50400001928E-02 0.  1.
    10030    2    1    2    0    0  0.00000000000E+00  0.00000000000E+00 -0.26140147741E+03  0.21106238171E+04  0.20943739315E+04 0.  0.
        5    1    3    3  502    0 -0.27340908258E+03  0.80260918664E+03 -0.74999655488E+03  0.11320119060E+04  0.46999998093E+01 0.  1.
       -5    1    3    3    0  502  0.27340908258E+03 -0.80260918664E+03  0.48859507747E+03  0.97861191114E+03  0.46999998093E+01 0. -1.
</event>
<event>
 5   0  0.2430898E-04  0.2274737E+04  0.7818609E-02  0.8487949E-01
       -2   -1    0    0    0  501  0.00000000000E+00  0.00000000000E+00  0.16509878768E+04  0.16509878768E+04  0.25500000920E-02 0. -1.
        2   -1    0    0  501    0  0.00000000000E+00  0.00000000000E+00 -0.78353496906E+03  0.78353496907E+03  0.25500000920E-02 0.  1.
    10030    2    1    2    0    0  0.00000000000E+00  0.00000000000E+00  0.86745290777E+03  0.24345228459E+04  0.22747366749E+04 0.  0.
        1    1    3    3  502    0 -0.58129511563E+03 -0.96102945283E+03  0.62555139154E+03  0.12856112026E+04  0.50400001928E-02 0.  1.
       -1    1    3    3    0  502  0.58129511563E+03  0.96102945283E+03  0.24190151623E+03  0.11489116434E+04  0.50400001928E-02 0. -1.
</event>
<event>
 5   0  0.2512839E-04  0.1301111E+04  0.7818609E-02  0.9028685E-01
       -2   -1    0    0    0  501  0.00000000000E+00  0.00000000000E+00  0.90666818048E+03  0.90666818048E+03  0.25500000920E-02 0.  1.
        2   -1    0    0  501    0  0.00000000000E+00  0.00000000000E+00 -0.46678848984E+03  0.46678848984E+03  0.25500000920E-02 0. -1.
    10030    2    1    2    0    0  0.00000000000E+00  0.00000000000E+00  0.43987969064E+03  0.13734566703E+04  0.13011107113E+04 0.  0.
        3    1    3    3  502    0 -0.47430132159E+03 -0.16086180208E+02  0.68965570803E+03  0.83716516571E+03  0.10100000352E+00 0.  1.
       -3    1    3    3    0  502  0.47430132159E+03  0.16086180208E+02 -0.24977601739E+03  0.53629150461E+03  0.10100000352E+00 0. -1.
</event>
<event>
 5   0  0.1186038E-04  0.2075904E+04  0.7818609E-02  0.8571933E-01
       -1   -1    0    0    0  501  0.00000000000E+00  0.00000000000E+00  0.92453769987E+03  0.92453769989E+03  0.50400001928E-02 0.  1.
        1   -1    0    0  501    0  0.00000000000E+00  0.00000000000E+00 -0.11652787028E+04  0.11652787028E+04  0.50400001928E-02 0. -1.
    10030    2    1    2    0    0  0.00000000000E+00  0.00000000000E+00 -0.24074100294E+03  0.20898164027E+04  0.20759037469E+04 0.  0.
        4    1    3    3  502    0  0.94431833937E+03  0.42247241198E+03 -0.20533050485E+03  0.10546953561E+04  0.12699999809E+01 0.  1.
       -4    1    3    3    0  502 -0.94431833937E+03 -0.42247241198E+03 -0.35410498085E+02  0.10351210467E+04  0.12699999809E+01 0. -1.
</event>
<event>
 5   0  0.2579241E-04  0.2112878E+04  0.7818609E-02  0.8555591E-01
        2   -1    0    0  501    0  0.00000000000E+00  0.00000000000E+00  0.15681285954E+04  0.15681285954E+04  0.25500000920E-02 0. -1.
       -2   -1    0    0    0  501  0.00000000000E+00  0.00000000000E+00 -0.71171703067E+03  0.71171703067E+03  0.25500000920E-02 0.  1.
    10030    2    1    2    0    0  0.00000000000E+00  0.00000000000E+00  0.85641156474E+03  0.22798456261E+04  0.21128784420E+04 0.  0.
        5    1    3    3  502    0  0.63825152841E+03 -0.22426833606E+03  0.13037324686E+04  0.14688096336E+04  0.46999998093E+01 0. -1.
       -5    1    3    3    0  502 -0.63825152841E+03  0.22426833606E+03 -0.44732090386E+03  0.81103599249E+03  0.46999998093E+01 0.  1.
</event>
<event>
 5   0  0.2448804E-04  0.1889654E+04  0.7818609E-02  0.8660024E-01
       -2   -1    0    0    0  501  0.00000000000E+00  0.00000000000E+00  0.10477335547E+04  0.10477335547E+04  0.25500000920E-02 0. -1.
        2   -1    0    0  501    0  0.00000000000E+00  0.00000000000E+00 -0.85202745517E+03  0.85202745517E+03  0.25500000920E-02 0.  1.
    10030    2    1    2    0    0  0.00000000000E+00  0.00000000000E+00  0.19570609953E+03  0.18997610099E+04  0.18896536765E+04 0.  0.
        2    1    3    3  502    0 -0.59880349250E+03  0.31187518498E+03 -0.56664066388E+03  0.88142690883E+03  0.25500000920E-02 0.  1.
       -2    1    3    3    0  502  0.59880349250E+03 -0.31187518498E+03  0.76234676341E+03  0.10183341010E+04  0.25500000920E-02 0. -1.
</event>
<event>
 5   0  0.2448804E-04  0.2088330E+04  0.7818609E-02  0.8566401E-01
        2   -1    0    0  501    0  0.00000000000E+00  0.00000000000E+00  0.11721750224E+04  0.11721750224E+04  0.25500000920E-02 0.  1.
       -2   -1    0    0    0  501  0.00000000000E+00  0.00000000000E+00 -0.93013479823E+03  0.93013479823E+03  0.25500000920E-02 0. -1.
    10030    2    1    2    0    0  0.00000000000E+00  0.00000000000E+00  0.24204022419E+03  0.21023098207E+04  0.20883302210E+04 0.  0.
        2    1    3    3  502    0 -0.17305431417E+03 -0.35442248490E+03  0.10943000590E+04  0.11632092299E+04  0.25500000920E-02 0.  1.
       -2    1    3    3    0  502  0.17305431417E+03  0.35442248490E+03 -0.85225983482E+03  0.93910059073E+03  0.25500000920E-02 0. -1.
</event>
<event>
 5   0  0.1042395E-04  0.1545802E+04  0.7818609E-02  0.8854554E-01
       -1   -1    0    0    0  501  0.00000000000E+00  0.00000000000E+00  0.82523849660E+03  0.82523849662E+03  0.50400001928E-02 0. -1.
        1   -1    0    0  501    0  0.00000000000E+00  0.00000000000E+00 -0.72388259650E+03  0.72388259652E+03  0.50400001928E-02 0.  1.
    10030    2    1    2    0    0  0.00000000000E+00  0.00000000000E+00  0.10135590010E+03  0.15491210931E+04  0.15458017799E+04 0.  0.
        3    1    3    3  502    0  0.64301902000E+03 -0.39994698259E+03 -0.10439516285E+03  0.76441442242E+03  0.10100000352E+00 0.  1.
       -3    1    3    3    0  502 -0.64301902000E+03  0.39994698259E+03  0.20575106295E+03  0.78470667072E+03  0.10100000352E+00 0. -1.
</event>
<event>
 5   0  0.1156733E-04  0.2124860E+04  0.7818609E-02  0.8550371E-01
       -1   -1    0    0    0  501  0.00000000000E+00  0.00000000000E+00  0.13431961746E+04  0.13431961746E+04  0.50400001928E-02 0.  1.
        1   -1    0    0  501    0  0.00000000000E+00  0.00000000000E+00 -0.84035223362E+03  0.84035223364E+03  0.50400001928E-02 0. -1.
    10030    2    1    2    0    0  0.00000000000E+00  0.00000000000E+00  0.50284394101E+03  0.21835484083E+04  0.21248603771E+04 0.  0.
        2    1    3    3  502    0  0.43739677086E+03 -0.89270166094E+03  0.63664330206E+03  0.11804858680E+04  0.25500000920E-02 0.  1.
       -2    1    3    3    0  502 -0.43739677086E+03  0.89270166094E+03 -0.13379936105E+03  0.10030625402E+04  0.25500000920E-02 0. -1.
</event>
<event>
 5   0  0.2430898E-04  0.2077968E+04  0.7818609E-02  0.8571011E-01
       -2   -1    0    0    0  501  0.00000000000E+00  0.00000000000E+00  0.96185736298E+03  0.96185736299E+03  0.25500000920E-02 0.  1.
        2   -1    0    0  501    0  0.00000000000E+00  0.00000000000E+00 -0.11222951903E+04  0.11222951903E+04  0.25500000920E-02 0. -1.
    10030    2    1    2    0    0  0.00000000000E+00  0.00000000000E+00 -0.16043782735E+03  0.20841525533E+04  0.20779681348E+04 0.  0.
        1    1    3    3  502    0  0.47762863902E+03 -0.73795638665E+03 -0.63574382532E+03  0.10848405214E+04  0.50400001928E-02 0. -1.
       -1    1    3    3    0  502 -0.47762863902E+03  0.73795638665E+03  0.47530599798E+03  0.99931203192E+03  0.50400001928E-02 0.  1.
</event>
<event>
 5   0  0.1156733E-04  0.2129030E+04  0.7818609E-02  0.8548562E-01
        1   -1    0    0  501    0  0.00000000000E+00  0.00000000000E+00  0.15963057997E+04  0.15963057997E+04  0.50400001928E-02 0.  1.
       -1   -1    0    0    0  501  0.00000000000E+00  0.00000000000E+00 -0.70988406240E+03  0.70988406242E+03  0.50400001928E-02 0. -1.
    10030    2    1    2    0    0  0.00000000000E+00  0.00000000000E+00  0.88642173731E+03  0.23061898621E+04  0.21290298692E+04 0.  0.
        2    1    3    3  502    0  0.90941731637E+03 -0.51365914734E+03  0.66601164735E+03  0.12387320491E+04  0.25500000920E-02 0.  1.
       -2    1    3    3    0  502 -0.90941731637E+03  0.51365914734E+03  0.22041008996E+03  0.10674578131E+04  0.25500000920E-02 0. -1.
</event>
<event>
 5   0  0.1130848E-04  0.2086212E+04  0.7818609E-02  0.8567341E-01
        1   -1    0    0  501    0  0.00000000000E+00  0.00000000000E+00  0.10501973755E+04  0.10501973755E+04  0.50400001928E-02 0. -1.
       -1   -1    0    0    0  501  0.00000000000E+00  0.00000000000E+00 -0.10360626972E+04  0.10360626972E+04  0.50400001928E-02 0.  1.
    10030    2    1    2    0    0  0.00000000000E+00  0.00000000000E+00  0.14134678273E+02  0.20862600727E+04  0.20862121900E+04 0.  0.
        5    1    3    3  502    0  0.16846258144E+03  0.59680686111E+03 -0.83169511710E+03  0.10374473137E+04  0.46999998093E+01 0.  1.
       -5    1    3    3    0  502 -0.16846258144E+03 -0.59680686111E+03  0.84582979537E+03  0.10488127591E+04  0.46999998093E+01 0. -1.
</event>
<event>
 5   0  0.2579241E-04  0.2121586E+04  0.7818609E-02  0.8551794E-01
        2   -1    0    0  501    0  0.00000000000E+00  0.00000000000E+00  0.13016840966E+04  0.13016840966E+04  0.25500000920E-02 0.  1.
       -2   -1    0    0    0  501  0.00000000000E+00  0.00000000000E+00 -0.86448181571E+03  0.86448181571E+03  0.25500000920E-02 0. -1.
    10030    2    1    2    0    0  0.00000000000E+00  0.00000000000E+00  0.43720228090E+03  0.21661659123E+04  0.21215864171E+04 0.  0.
        5    1    3    3  502    0  0.19516273759E+03 -0.72437029742E+03  0.98433270471E+03  0.12376323305E+04  0.46999998093E+01 0.  1.
       -5    1    3    3    0  502 -0.19516273759E+03  0.72437029742E+03 -0.54713042381E+03  0.92853358183E+03  0.46999998093E+01 0. -1.
</event>
<event>
 5   0  0.1156733E-04  0.2101967E+04  0.7818609E-02  0.8560377E-01
        1   -1    0    0  501    0  0.00000000000E+00  0.00000000000E+00  0.11711087255E+04  0.11711087255E+04  0.50400001928E-02 0. -1.
       -1   -1    0    0    0  501  0.00000000000E+00  0.00000000000E+00 -0.94318000283E+03  0.94318000284E+03  0.50400001928E-02 0.  1.
    10030    2    1    2    0    0  0.00000000000E+00  0.00000000000E+00  0.22792872269E+03  0.21142887284E+04  0.21019670131E+04 0.  0.
        2    1    3    3  502    0 -0.90323074994E+03 -0.76609797554E+02  0.64893873808E+03  0.11148167269E+04  0.25500000920E-02 0. -1.
       -2    1    3    3    0  502  0.90323074994E+03  0.76609797554E+02 -0.42101001539E+03  0.99947200150E+03  0.25500000920E-02 0.  1.
</event>
<event>
 5   0  0.1042395E-04  0.2093228E+04  0.7818609E-02  0.8564233E-01
       -1   -1    0    0    0  501  0.00000000000E+00  0.00000000000E+00  0.58792039776E+03  0.58792039778E+03  0.50400001928E-02 0.  1.
        1   -1    0    0  501    0  0.00000000000E+00  0.00000000000E+00 -0.18631783126E+04  0.18631783126E+04  0.50400001928E-02 0. -1.
    10030    2    1    2    0    0  0.00000000000E+00  0.00000000000E+00 -0.12752579148E+04  0.24510987104E+04  0.20932276844E+04 0.  0.
        3    1    3    3  502    0 -0.40107974866E+03  0.65622695913E+02  0.49174903468E+03  0.63795644546E+03  0.10100000352E+00 0.  1.
       -3    1    3    3    0  502  0.40107974866E+03 -0.65622695913E+02 -0.17670069495E+04  0.18131422649E+04  0.10100000352E+00 0. -1.
</event>
<event>
 5   0  0.1130848E-04  0.2018384E+04  0.7818609E-02  0.8598074E-01
       -1   -1    0    0    0  501  0.00000000000E+00  0.00000000000E+00  0.99148641915E+03  0.99148641916E+03  0.50400001928E-02 0.  1.
        1   -1    0    0  501    0  0.00000000000E+00  0.00000000000E+00 -0.10272133516E+04  0.10272133516E+04  0.50400001928E-02 0. -1.
    10030    2    1    2    0    0  0.00000000000E+00  0.00000000000E+00 -0.35726932458E+02  0.20186997708E+04  0.20183835985E+04 0.  0.
        5    1    3    3  502    0 -0.42686751008E+03 -0.11670424266E+03  0.88925724466E+03  0.99329567028E+03  0.46999998093E+01 0.  1.
       -5    1    3    3    0  502  0.42686751008E+03  0.11670424266E+03 -0.92498417711E+03  0.10254041005E+04  0.46999998093E+01 0. -1.
</event>
<event>
 5   0  0.2448804E-04  0.2166775E+04  0.7818609E-02  0.8532386E-01
       -2   -1    0    0    0  501  0.00000000000E+00  0.00000000000E+00  0.83117146480E+03  0.83117146480E+03  0.25500000920E-02 0.  1.
        2   -1    0    0  501    0  0.00000000000E+00  0.00000000000E+00 -0.14121376289E+04  0.14121376289E+04  0.25500000920E-02 0. -1.
    10030    2    1    2    0    0  0.00000000000E+00  0.00000000000E+00 -0.58096616408E+03  0.22433090937E+04  0.21667750243E+04 0.  0.
        2    1    3    3  502    0 -0.79222292248E+03 -0.10078904132E+03 -0.10484296892E+04  0.13179455235E+04  0.25500000920E-02 0. -1.
       -2    1    3    3    0  502  0.79222292248E+03  0.10078904132E+03  0.46746352508E+03  0.92536357019E+03  0.25500000920E-02 0.  1.
</event>
<event>
 5   0  0.2430898E-04  0.1973056E+04  0.7818609E-02  0.8619322E-01
        2   -1    0    0  501    0  0.00000000000E+00  0.00000000000E+00  0.26034414842E+04  0.26034414842E+04  0.25500000920E-02 0.  1.
       -2   -1    0    0    0  501  0.00000000000E+00  0.00000000000E+00 -0.37382744122E+03  0.37382744123E+03  0.25500000920E-02 0. -1.
    10030    2    1    2    0    0  0.00000000000E+00  0.00000000000E+00  0.22296140430E+04  0.29772689255E+04  0.19730563788E+04 0.  0.
        1    1    3    3  502    0 -0.23213295928E+03 -0.70418923907E+03  0.13285622582E+03  0.75327217655E+03  0.50400001928E-02 0. -1.
       -1    1    3    3    0  502  0.23213295928E+03  0.70418923907E+03  0.20967578172E+04  0.22239967489E+04  0.50400001928E-02 0.  1.
</event>
<event>
 5   0  0.1042395E-04  0.2089648E+04  0.7818609E-02  0.8565817E-01
        1   -1    0    0  501    0  0.00000000000E+00  0.00000000000E+00  0.10784790894E+04  0.10784790894E+04  0.50400001928E-02 0.  1.
       -1   -1    0    0    0  501  0.00000000000E+00  0.00000000000E+00 -0.10122193790E+04  0.10122193790E+04  0.50400001928E-02 0. -1.
    10030    2    1    2    0    0  0.00000000000E+00  0.00000000000E+00  0.66259710451E+02  0.20906984684E+04  0.20896482327E+04 0.  0.
        3    1    3    3  502    0 -0.46627867210E+03  0.11201470640E+03 -0.89561160744E+03  0.10159149847E+04  0.10100000352E+00 0. -1.
       -3    1    3    3    0  502  0.46627867210E+03 -0.11201470640E+03  0.96187131789E+03  0.10747834837E+04  0.10100000352E+00 0.  1.
</event>
<event>
 5   0  0.2430898E-04  0.1915609E+04  0.7818609E-02  0.8647126E-01
        2   -1    0    0  501    0  0.00000000000E+00  0.00000000000E+00  0.23965662929E+04  0.23965662929E+04  0.25500000920E-02 0.  1.
       -2   -1    0    0    0  501  0.00000000000E+00  0.00000000000E+00 -0.38279332449E+03  0.38279332449E+03  0.25500000920E-02 0. -1.
    10030    2    1    2    0    0  0.00000000000E+00  0.00000000000E+00  0.20137729684E+04  0.27793596174E+04  0.19156091236E+04 0.  0.
        1    1    3    3  502    0 -0.43350447593E+03 -0.37987127297E+03 -0.10299250759E+03  0.58552179406E+03  0.50400001928E-02 0. -1.
       -1    1    3    3    0  502  0.43350447593E+03  0.37987127297E+03  0.21167654760E+04  0.21938378233E+04  0.50400001928E-02 0.  1.
</event>
<event>
 5   0  0.2430898E-04  0.2089728E+04  0.7818609E-02  0.8565782E-01
        2   -1    0    0  501    0  0.00000000000E+00  0.00000000000E+00  0.14951228831E+04  0.14951228831E+04  0.25500000920E-02 0. -1.
       -2   -1    0    0    0  501  0.00000000000E+00  0.00000000000E+00 -0.73020102672E+03  0.73020102672E+03  0.25500000920E-02 0.  1.
    10030    2    1    2    0    0  0.00000000000E+00  0.00000000000E+00  0.76492185636E+03  0.22253239098E+04  0.20897275079E+04 0.  0.
        1    1    3    3  502    0  0.45664887136E+03  0.32596505126E+03 -0.55618669726E+03  0.79001585338E+03  0.50400001928E-02 0.  1.
       -1    1    3    3    0  502 -0.45664887136E+03 -0.32596505126E+03  0.13211085536E+04  0.14353080564E+04  0.50400001928E-02 0. -1.
</event>
<event>
 5   0  0.2579241E-04  0.2143462E+04  0.7818609E-02  0.8542336E-01
        2   -1    0    0  501    0  0.00000000000E+00  0.00000000000E+00  0.90199492968E+03  0.90199492968E+03  0.25500000920E-02 0. -1.
       -2   -1    0    0    0  501  0.00000000000E+00  0.00000000000E+00 -0.12734076974E+04  0.12734076974E+04  0.25500000920E-02 0.  1.
    10030    2    1    2    0    0  0.00000000000E+00  0.00000000000E+00 -0.37141276767E+03  0.21754026270E+04  0.21434619534E+04 0.  0.
        5    1    3    3  502    0 -0.51542667946E+03  0.77027178946E+03  0.36045951014E+03  0.99445283447E+03  0.46999998093E+01 0. -1.
       -5    1    3    3    0  502  0.51542667946E+03 -0.77027178946E+03 -0.73187227781E+03  0.11809497926E+04  0.46999998093E+01 0.  1.
</event>
<event>
 5   0  0.2512839E-04  0.2175840E+04  0.7818609E-02  0.8528552E-01
        2   -1    0    0  501    0  0.00000000000E+00  0.00000000000E+00  0.20889270455E+04  0.20889270455E+04  0.25500000920E-02 0.  1.
       -2   -1    0    0    0  501  0.00000000000E+00  0.00000000000E+00 -0.56659235116E+03  0.56659235117E+03  0.25500000920E-02 0. -1.
    10030    2    1    2    0    0  0.00000000000E+00  0.00000000000E+00  0.15223346944E+04  0.26555193967E+04  0.21758401468E+04 0.  0.
        3    1    3    3  502    0  0.84205310906E+03  0.36921107868E+03  0.51411177709E+02  0.92087641869E+03  0.10100000352E+00 0. -1.
       -3    1    3    3    0  502 -0.84205310906E+03 -0.36921107868E+03  0.14709235167E+04  0.17346429780E+04  0.10100000352E+00 0.  1.
</event>
<event>
 5   0  0.1122711E-04  0.2064553E+04  0.7818609E-02  0.8577021E-01
       -1   -1    0    0    0  501  0.00000000000E+00  0.00000000000E+00  0.61405282962E+03  0.61405282964E+03  0.50400001928E-02 0. -1.
        1   -1    0    0  501    0  0.00000000000E+00  0.00000000000E+00 -0.17353472838E+04  0.17353472838E+04  0.50400001928E-02 0.  1.
    10030    2    1    2    0    0  0.00000000000E+00  0.00000000000E+00 -0.11212944542E+04  0.23494001135E+04  0.20645531333E+04 0.  0.
        1    1    3    3  502    0 -0.90878281414E+02 -0.95621091676E+03 -0.13032480554E+03  0.96932075925E+03  0.50400001928E-02 0. -1.
       -1    1    3    3    0  502  0.90878281414E+02  0.95621091676E+03 -0.99096964868E+03  0.13800793542E+04  0.50400001928E-02 0.  1.
</event>
<event>
 5   0  0.1122711E-04  0.2104058E+04  0.7818609E-02  0.8559458E-01
       -1   -1    0    0    0  501  0.00000000000E+00  0.00000000000E+00  0.12723139825E+04  0.12723139825E+04  0.50400001928E-02 0.  1.
        1   -1    0    0  501    0  0.00000000000E+00  0.00000000000E+00 -0.86988338346E+03  0.86988338347E+03  0.50400001928E-02 0. -1.
    10030    2    1    2    0    0  0.00000000000E+00  0.00000000000E+00  0.40243059904E+03  0.21421973660E+04  0.21040577862E+04 0.  0.
        1    1    3    3  502    0  0.47164179386E+03 -0.90500816140E+02 -0.75176889992E+03  0.89207222709E+03  0.50400001928E-02 0. -1.
       -1    1    3    3    0  502 -0.47164179386E+03  0.90500816140E+02  0.11541994990E+04  0.12501251389E+04  0.50400001928E-02 0.  1.
</event>
<event>
 5   0  0.1042395E-04  0.2131613E+04  0.7818609E-02  0.8547444E-01
       -1   -1    0    0    0  501  0.00000000000E+00  0.00000000000E+00  0.95001211663E+03  0.95001211664E+03  0.50400001928E-02 0.  1.
        1   -1    0    0  501    0  0.00000000000E+00  0.00000000000E+00 -0.11957151075E+04  0.11957151075E+04  0.50400001928E-02 0. -1.
    10030    2    1    2    0    0  0.00000000000E+00  0.00000000000E+00 -0.24570299083E+03  0.21457272241E+04  0.21316133234E+04 0.  0.
        3    1    3    3  502    0 -0.63416360009E+03  0.73792669898E+02 -0.98192767189E+03  0.11712347300E+04  0.10100000352E+00 0. -1.
       -3    1    3    3    0  502  0.63416360009E+03 -0.73792669898E+02  0.73622468106E+03  0.97449249408E+03  0.10100000352E+00 0.  1.
</event>
<event>
 5   0  0.2579241E-04  0.2106761E+04  0.7818609E-02  0.8558271E-01
        2   -1    0    0  501    0  0.00000000000E+00  0.00000000000E+00  0.17502983521E+04  0.17502983521E+04  0.25500000920E-02 0. -1.
       -2   -1    0    0    0  501  0.00000000000E+00  0.00000000000E+00 -0.63395496973E+03  0.63395496973E+03  0.25500000920E-02 0.  1.
    10030    2    1    2    0    0  0.00000000000E+00  0.00000000000E+00  0.11163433823E+04  0.23842533218E+04  0.21067608681E+04 0.  0.
        5    1    3    3  502    0  0.84971938234E+03  0.52567653691E+02 -0.14385841298E+03  0.86342557289E+03  0.46999998093E+01 0.  1.
       -5    1    3    3    0  502 -0.84971938234E+03 -0.52567653691E+02  0.12602017953E+04  0.15208277489E+04  0.46999998093E+01 0. -1.
</event>
<event>
 5   0  0.2430898E-04  0.2193862E+04  0.7818609E-02  0.8520987E-01
        2   -1    0    0  501    0  0.00000000000E+00  0.00000000000E+00  0.10339805125E+04  0.10339805126E+04  0.25500000920E-02 0.  1.
       -2   -1    0    0    0  501  0.00000000000E+00  0.00000000000E+00 -0.11637138759E+04  0.11637138759E+04  0.25500000920E-02 0. -1.
    10030    2    1    2    0    0  0.00000000000E+00  0.00000000000E+00 -0.12973336336E+03  0.21976943885E+04  0.21938618643E+04 0.  0.
        1    1    3    3  502    0 -0.10407058265E+04 -0.34218483592E+03 -0.91062527998E+01  0.10955555682E+04  0.50400001928E-02 0. -1.
       -1    1    3    3    0  502  0.10407058265E+04  0.34218483592E+03 -0.12062711056E+03  0.11021388202E+04  0.50400001928E-02 0.  1.
</event>
<event>
 5   0  0.1130848E-04  0.1745246E+04  0.7818609E-02  0.8735971E-01
        1   -1    0    0  501    0  0.00000000000E+00  0.00000000000E+00  0.76191963413E+03  0.76191963414E+03  0.50400001928E-02 0.  1.
       -1   -1    0    0    0  501  0.00000000000E+00  0.00000000000E+00 -0.99941136343E+03  0.99941136345E+03  0.50400001928E-02 0. -1.
    10030    2    1    2    0    0  0.00000000000E+00  0.00000000000E+00 -0.23749172931E+03  0.17613309976E+04  0.17452462753E+04 0.  0.
        5    1    3    3  502    0 -0.32270082901E+03  0.66808536908E+03 -0.58229943035E+03  0.94316944501E+03  0.46999998093E+01 0. -1.
       -5    1    3    3    0  502  0.32270082901E+03 -0.66808536908E+03  0.34480770105E+03  0.81816155258E+03  0.46999998093E+01 0.  1.
</event>
<event>
 5   0  0.1042395E-04  0.2015014E+04  0.7818609E-02  0.8599633E-01
        1   -1    0    0  501    0  0.00000000000E+00  0.00000000000E+00  0.63662459579E+03  0.63662459581E+03  0.50400001928E-02 0.  1.
       -1   -1    0    0    0  501  0.00000000000E+00  0.00000000000E+00 -0.15944567605E+04  0.15944567605E+04  0.50400001928E-02 0. -1.
    10030    2    1    2    0    0  0.00000000000E+00  0.00000000000E+00 -0.95783216473E+03  0.22310813563E+04  0.20150140354E+04 0.  0.
        3    1    3    3  502    0 -0.28745710099E+03 -0.96299116694E+03 -0.39994647030E+03  0.10816379994E+04  0.10100000352E+00 0.  1.
       -3    1    3    3    0  502  0.28745710099E+03  0.96299116694E+03 -0.55788569443E+03  0.11494433569E+04  0.10100000352E+00 0. -1.
</event>
<event>
 5   0  0.2430898E-04  0.2110937E+04  0.7818609E-02  0.8556441E-01
        2   -1    0    0  501    0  0.00000000000E+00  0.00000000000E+00  0.49992219472E+03  0.49992219472E+03  0.25500000920E-02 0. -1.
       -2   -1    0    0    0  501  0.00000000000E+00  0.00000000000E+00 -0.22283732203E+04  0.22283732203E+04  0.25500000920E-02 0.  1.
    10030    2    1    2    0    0  0.00000000000E+00  0.00000000000E+00 -0.17284510256E+04  0.27282954151E+04  0.21109365040E+04 0.  0.
        1    1    3    3  502    0  0.89081792760E+03 -0.55953356497E+03 -0.97524782905E+03  0.14344834327E+04  0.50400001928E-02 0.  1.
       -1    1    3    3    0  502 -0.89081792760E+03  0.55953356497E+03 -0.75320319656E+03  0.12938119824E+04  0.50400001928E-02 0. -1.
</event>
<event>
 5   0  0.1042395E-04  0.2089976E+04  0.7818609E-02  0.8565672E-01
        1   -1    0    0  501    0  0.00000000000E+00  0.00000000000E+00  0.21870295869E+04  0.21870295869E+04  0.50400001928E-02 0.  1.
       -1   -1    0    0    0  501  0.00000000000E+00  0.00000000000E+00 -0.49930747934E+03  0.49930747937E+03  0.50400001928E-02 0. -1.
    10030    2    1    2    0    0  0.00000000000E+00  0.00000000000E+00  0.16877221076E+04  0.26863370663E+04  0.20899762968E+04 0.  0.
        3    1    3    3  502    0 -0.68249749978E+03 -0.77938344164E+03  0.10199053920E+04  0.14537704101E+04  0.10100000352E+00 0.  1.
       -3    1    3    3    0  502  0.68249749978E+03  0.77938344164E+03  0.66781671559E+03  0.12325666563E+04  0.10100000352E+00 0. -1.
</event>
<event>
 5   0  0.1156733E-04  0.2115058E+04  0.7818609E-02  0.8554639E-01
        1   -1    0    0  501    0  0.00000000000E+00  0.00000000000E+00  0.19858752427E+04  0.19858752427E+04  0.50400001928E-02 0.  1.
       -1   -1    0    0    0  501  0.00000000000E+00  0.00000000000E+00 -0.56316100030E+03  0.56316100032E+03  0.50400001928E-02 0. -1.
    10030    2    1    2    0    0  0.00000000000E+00  0.00000000000E+00  0.14227142424E+04  0.25490362430E+04  0.21150579076E+04 0.  0.
        2    1    3    3  502    0 -0.43141323006E+02  0.10514204581E+04  0.83788051805E+03  0.13451356497E+04  0.25500000920E-02 0.  1.
       -2    1    3    3    0  502  0.43141323006E+02 -0.10514204581E+04  0.58483372435E+03  0.12039005933E+04  0.25500000920E-02 0. -1.
</event>
<event>
 5   0  0.1186038E-04  0.2052458E+04  0.7818609E-02  0.8582480E-01
       -1   -1    0    0    0  501  0.00000000000E+00  0.00000000000E+00  0.40451088462E+03  0.40451088465E+03  0.50400001928E-02 0.  1.
        1   -1    0    0  501    0  0.00000000000E+00  0.00000000000E+00 -0.26035041024E+04  0.26035041024E+04  0.50400001928E-02 0. -1.
    10030    2    1    2    0    0  0.00000000000E+00  0.00000000000E+00 -0.21989932178E+04  0.30080149871E+04  0.20524577926E+04 0.  0.
        4    1    3    3  502    0  0.59047647732E+03  0.31021162269E+02  0.12976349013E+03  0.60536349332E+03  0.12699999809E+01 0.  1.
       -4    1    3    3    0  502 -0.59047647732E+03 -0.31021162269E+02 -0.23287567079E+04  0.24026514937E+04  0.12699999809E+01 0. -1.
</event>
<event>
 5   0  0.1186038E-04  0.2082331E+04  0.7818609E-02  0.8569067E-01
       -1   -1    0    0    0  501  0.00000000000E+00  0.00000000000E+00  0.64441417752E+03  0.64441417754E+03  0.50400001928E-02 0. -1.
        1   -1    0    0  501    0  0.00000000000E+00  0.00000000000E+00 -0.16821883989E+04  0.16821883989E+04  0.50400001928E-02 0.  1.
    10030    2    1    2    0    0  0.00000000000E+00  0.00000000000E+00 -0.10377742214E+04  0.23266025765E+04  0.20823314372E+04 0.  0.
        4    1    3    3  502    0 -0.54462946413E+03  0.18807303155E+03 -0.14878127075E+04  0.15954876947E+04  0.12699999809E+01 0.  1.
       -4    1    3    3    0  502  0.54462946413E+03 -0.18807303155E+03  0.45003848614E+03  0.73111488174E+03  0.12699999809E+01 0. -1.
</event>
<event>
 5   0  0.1122711E-04  0.1975229E+04  0.7818609E-02  0.8618290E-01
       -1   -1    0    0    0  501  0.00000000000E+00  0.00000000000E+00  0.94818686908E+03  0.94818686909E+03  0.50400001928E-02 0. -1.
        1   -1    0    0  501    0  0.00000000000E+00  0.00000000000E+00 -0.10286817964E+04  0.10286817964E+04  0.50400001928E-02 0.  1.
    10030    2    1    2    0    0  0.00000000000E+00  0.00000000000E+00 -0.80494927330E+02  0.19768686655E+04  0.19752291734E+04 0.  0.
        1    1    3    3  502    0  0.36296558036E+03 -0.77851570261E+03  0.44755000691E+03  0.96857200066E+03  0.50400001928E-02 0.  1.
       -1    1    3    3    0  502 -0.36296558036E+03  0.77851570261E+03 -0.52804493424E+03  0.10082966649E+04  0.50400001928E-02 0. -1.
</event>
<event>
 5   0  0.1042395E-04  0.2103817E+04  0.7818609E-02  0.8559564E-01
       -1   -1    0    0    0  501  0.00000000000E+00  0.00000000000E+00  0.83487227681E+03  0.83487227683E+03  0.50400001928E-02 0. -1.
        1   -1    0    0  501    0  0.00000000000E+00  0.00000000000E+00 -0.13253664909E+04  0.13253664909E+04  0.50400001928E-02 0.  1.
    10030    2    1    2    0    0  0.00000000000E+00  0.00000000000E+00 -0.49049421405E+03  0.21602387677E+04  0.21038172353E+04 0.  0.
        3    1    3    3  502    0 -0.91897271500E+03  0.19967127204E+03 -0.72919607317E+03  0.11900026853E+04  0.10100000352E+00 0.  1.
       -3    1    3    3    0  502  0.91897271500E+03 -0.19967127204E+03  0.23870185911E+03  0.97023608237E+03  0.10100000352E+00 0. -1.
</event>
<event>
 5   0  0.1186038E-04  0.2170060E+04  0.7818609E-02  0.8530994E-01
       -1   -1    0    0    0  501  0.00000000000E+00  0.00000000000E+00  0.13868931718E+04  0.13868931718E+04  0.50400001928E-02 0. -1.
        1   -1    0    0  501    0  0.00000000000E+00  0.00000000000E+00 -0.84886845559E+03  0.84886845561E+03  0.50400001928E-02 0.  1.
    10030    2    1    2    0    0  0.00000000000E+00  0.00000000000E+00  0.53802471624E+03  0.22357616274E+04  0.21700597825E+04 0.  0.
        4    1    3    3  502    0 -0.40499469381E+03  0.21076537284E+02  0.13058736172E+04  0.13673962262E+04  0.12699999809E+01 0. -1.
       -4    1    3    3    0  502  0.40499469381E+03 -0.21076537284E+02 -0.76784890097E+03  0.86836540123E+03  0.12699999809E+01 0.  1.
</event>
<event>
 5   0  0.2579241E-04  0.2040432E+04  0.7818609E-02  0.8587947E-01
        2   -1    0    0  501    0  0.00000000000E+00  0.00000000000E+00  0.12167690701E+04  0.12167690701E+04  0.25500000920E-02 0. -1.
       -2   -1    0    0    0  501  0.00000000000E+00  0.00000000000E+00 -0.85541360620E+03  0.85541360620E+03  0.25500000920E-02 0.  1.
    10030    2    1    2    0    0  0.00000000000E+00  0.00000000000E+00  0.36135546388E+03  0.20721826763E+04  0.20404321289E+04 0.  0.
        5    1    3    3  502    0  0.66516244128E+03 -0.35286422520E+03 -0.51841207414E+03  0.91418127487E+03  0.46999998093E+01 0.  1.
       -5    1    3    3    0  502 -0.66516244128E+03  0.35286422520E+03  0.87976753802E+03  0.11580014014E+04  0.46999998093E+01 0. -1.
</event>
<event>
 5   0  0.1156733E-04  0.2093638E+04  0.7818609E-02  0.8564051E-01
       -1   -1    0    0    0  501  0.00000000000E+00  0.00000000000E+00  0.20265769664E+04  0.20265769664E+04  0.50400001928E-02 0. -1.
        1   -1    0    0  501    0  0.00000000000E+00  0.00000000000E+00 -0.54072957492E+03  0.54072957494E+03  0.50400001928E-02 0.  1.
    10030    2    1    2    0    0  0.00000000000E+00  0.00000000000E+00  0.14858473915E+04  0.25673065413E+04  0.20936380791E+04 0.  0.
        2    1    3    3  502    0  0.62614719763E+03  0.36178707709E+03  0.16710517730E+04  0.18208141669E+04  0.25500000920E-02 0. -1.
       -2    1    3    3    0  502 -0.62614719763E+03 -0.36178707709E+03 -0.18520438148E+03  0.74649237449E+03  0.25500000920E-02 0.  1.
</event>
<event>
 5   0  0.1042395E-04  0.2094249E+04  0.7818609E-02  0.8563781E-01
       -1   -1    0    0    0  501  0.00000000000E+00  0.00000000000E+00  0.11880624942E+04  0.11880624942E+04  0.50400001928E-02 0.  1.
        1   -1    0    0  501    0  0.00000000000E+00  0.00000000000E+00 -0.92290609297E+03  0.92290609298E+03  0.50400001928E-02 0. -1.
    10030    2    1    2    0    0  0.00000000000E+00  0.00000000000E+00  0.26515640120E+03  0.21109685872E+04  0.20942493784E+04 0.  0.
        3    1    3    3  502    0 -0.76301945569E+03 -0.70380728657E+03  0.27125092016E+03  0.10729028187E+04  0.10100000352E+00 0.  1.
       -3    1    3    3    0  502  0.76301945569E+03  0.70380728657E+03 -0.60945189633E+01  0.10380657685E+04  0.10100000352E+00 0. -1.
</event>
<event>
 5   0  0.1156733E-04  0.2115718E+04  0.7818609E-02  0.8554351E-01
       -1   -1    0    0    0  501  0.00000000000E+00  0.00000000000E+00  0.97926230682E+03  0.97926230683E+03  0.50400001928E-02 0. -1.
        1   -1    0    0  501    0  0.00000000000E+00  0.00000000000E+00 -0.11427644777E+04  0.11427644777E+04  0.50400001928E-02 0.  1.
    10030    2    1    2    0    0  0.00000000000E+00  0.00000000000E+00 -0.16350217090E+03  0.21220267846E+04  0.21157184866E+04 0.  0.
        2    1    3    3  502    0 -0.10256328889E+04  0.84743482417E+02 -0.32735238835E+03  0.10799369735E+04  0.25500000920E-02 0.  1.
       -2    1    3    3    0  502  0.10256328889E+04 -0.84743482417E+02  0.16385021745E+03  0.10420898111E+04  0.25500000920E-02 0. -1.
</event>
<event>
 5   0  0.2430898E-04  0.1542458E+04  0.7818609E-02  0.8856700E-01
        2   -1    0    0  501    0  0.00000000000E+00  0.00000000000E+00  0.12508561570E+04  0.12508561570E+04  0.25500000920E-02 0. -1.
       -2   -1    0    0    0  501  0.00000000000E+00  0.00000000000E+00 -0.47550960135E+03  0.47550960135E+03  0.25500000920E-02 0.  1.
    10030    2    1    2    0    0  0.00000000000E+00  0.00000000000E+00  0.77534655563E+03  0.17263657583E+04  0.15424579249E+04 0.  0.
        1    1    3    3  502    0  0.38463607365E+03  0.54549173884E+03 -0.44772725802E+02  0.66896243788E+03  0.50400001928E-02 0.  1.
       -1    1    3    3    0  502 -0.38463607365E+03 -0.54549173884E+03  0.82011928143E+03  0.10574033205E+04  0.50400001928E-02 0. -1.
</event>
<event>
 5   0  0.1122711E-04  0.1054033E+04  0.7818609E-02  0.9251190E-01
        1   -1    0    0  501    0  0.00000000000E+00  0.00000000000E+00  0.38828257213E+03  0.38828257216E+03  0.50400001928E-02 0. -1.
       -1   -1    0    0    0  501  0.00000000000E+00  0.00000000000E+00 -0.71532092612E+03  0.71532092614E+03  0.50400001928E-02 0.  1.
    10030    2    1    2    0    0  0.00000000000E+00  0.00000000000E+00 -0.32703835399E+03  0.11036034983E+04  0.10540334893E+04 0.  0.
        1    1    3    3  502    0 -0.14907503412E+03  0.32294183857E+03  0.24365506293E+03  0.43114102869E+03  0.50400001928E-02 0. -1.
       -1    1    3    3    0  502  0.14907503412E+03 -0.32294183857E+03 -0.57069341692E+03  0.67246246962E+03  0.50400001928E-02 0.  1.
</event>
<event>
 5   0  0.2448804E-04  0.2028841E+04  0.7818609E-02  0.8593254E-01
        2   -1    0    0  501    0  0.00000000000E+00  0.00000000000E+00  0.22514323314E+04  0.22514323314E+04  0.25500000920E-02 0.  1.
       -2   -1    0    0    0  501  0.00000000000E+00  0.00000000000E+00 -0.45706409873E+03  0.45706409873E+03  0.25500000920E-02 0. -1.
    10030    2    1    2    0    0  0.00000000000E+00  0.00000000000E+00  0.17943682326E+04  0.27084964301E+04  0.20288409394E+04 0.  0.
        2    1    3    3  502    0 -0.56638581961E+02  0.41373428524E+03  0.21313632580E+04  0.21718870425E+04  0.25500000920E-02 0.  1.
       -2    1    3    3    0  502  0.56638581961E+02 -0.41373428524E+03 -0.33699502536E+03  0.53660938762E+03  0.25500000920E-02 0. -1.
</event>
<event>
 5   0  0.1130848E-04  0.2159935E+04  0.7818609E-02  0.8535292E-01
        1   -1    0    0  501    0  0.00000000000E+00  0.00000000000E+00  0.15510743472E+04  0.15510743472E+04  0.50400001928E-02 0.  1.
       -1   -1    0    0    0  501  0.00000000000E+00  0.00000000000E+00 -0.75194945583E+03  0.75194945585E+03  0.50400001928E-02 0. -1.
    10030    2    1    2    0    0  0.00000000000E+00  0.00000000000E+00  0.79912489136E+03  0.23030238031E+04  0.21599347318E+04 0.  0.
        5    1    3    3  502    0  0.12441019709E+03 -0.42500405907E+03  0.14498027339E+04  0.15159341689E+04  0.46999998093E+01 0.  1.
       -5    1    3    3    0  502 -0.12441019709E+03  0.42500405907E+03 -0.65067784253E+03  0.78708963411E+03  0.46999998093E+01 0. -1.
</event>
<event>
 5   0  0.1122711E-04  0.2100158E+04  0.7818609E-02  0.8561174E-01
       -1   -1    0    0    0  501  0.00000000000E+00  0.00000000000E+00  0.85432301978E+03  0.85432301980E+03  0.50400001928E-02 0.  1.
        1   -1    0    0  501    0  0.00000000000E+00  0.00000000000E+00 -0.12906900446E+04  0.12906900446E+04  0.50400001928E-02 0. -1.
    10030    2    1    2    0    0  0.00000000000E+00  0.00000000000E+00 -0.43636702483E+03  0.21450130644E+04  0.21001582955E+04 0.  0.
        1    1    3    3  502    0 -0.23567034863E+03  0.34728632514E+03  0.76493261694E+03  0.87250800188E+03  0.50400001928E-02 0.  1.
       -1    1    3    3    0  502  0.23567034863E+03 -0.34728632514E+03 -0.12012996418E+04  0.12725050625E+04  0.50400001928E-02 0. -1.
</event>
<event>
 5   0  0.1042395E-04  0.2129113E+04  0.7818609E-02  0.8548526E-01
        1   -1    0    0  501    0  0.00000000000E+00  0.00000000000E+00  0.17758096589E+04  0.17758096589E+04  0.50400001928E-02 0. -1.
       -1   -1    0    0    0  501  0.00000000000E+00  0.00000000000E+00 -0.63817670792E+03  0.63817670794E+03  0.50400001928E-02 0.  1.
    10030    2    1    2    0    0  0.00000000000E+00  0.00000000000E+00  0.11376329510E+04  0.24139863668E+04  0.21291128312E+04 0.  0.
        3    1    3    3  502    0  0.11620083683E+03 -0.33889838294E+03  0.17054045408E+04  0.17426300257E+04  0.10100000352E+00 0. -1.
       -3    1    3    3    0  502 -0.11620083683E+03  0.33889838294E+03 -0.56777158981E+03  0.67135634117E+03  0.10100000352E+00 0.  1.
</event>
<event>
 5   0  0.2512839E-04  0.2067281E+04  0.7818609E-02  0.8575795E-01
       -2   -1    0    0    0  501  0.00000000000E+00  0.00000000000E+00  0.23375101675E+04  0.23375101675E+04  0.25500000920E-02 0.  1.
        2   -1    0    0  501    0  0.00000000000E+00  0.00000000000E+00 -0.45707298888E+03  0.45707298889E+03  0.25500000920E-02 0. -1.
    10030    2    1    2    0    0  0.00000000000E+00  0.00000000000E+00  0.18804371786E+04  0.27945831564E+04  0.20672810731E+04 0.  0.
        3    1    3    3  502    0  0.76549822686E+03  0.92369249216E+02  0.18708071666E+04  0.20234720355E+04  0.10100000352E+00 0.  1.
       -3    1    3    3    0  502 -0.76549822686E+03 -0.92369249216E+02  0.96300120537E+01  0.77111112096E+03  0.10100000352E+00 0. -1.
</event>
<event>
 5   0  0.2467483E-04  0.1036093E+04  0.7818609E-02  0.9269821E-01
        2   -1    0    0  501    0  0.00000000000E+00  0.00000000000E+00  0.10411684033E+04  0.10411684033E+04  0.25500000920E-02 0. -1.
       -2   -1    0    0    0  501  0.00000000000E+00  0.00000000000E+00 -0.25776077405E+03  0.25776077406E+03  0.25500000920E-02 0.  1.
    10030    2    1    2    0    0  0.00000000000E+00  0.00000000000E+00  0.78340762929E+03  0.12989291774E+04  0.10360933811E+04 0.  0.
        4    1    3    3  502    0  0.27376371960E+03  0.24604203139E+03  0.84871691278E+03  0.92509743612E+03  0.12699999809E+01 0. -1.
       -4    1    3    3    0  502 -0.27376371960E+03 -0.24604203139E+03 -0.65309283488E+02  0.37383174128E+03  0.12699999809E+01 0.  1.
</event>
<event>
 5   0  0.1122711E-04  0.2173107E+04  0.7818609E-02  0.8529706E-01
       -1   -1    0    0    0  501  0.00000000000E+00  0.00000000000E+00  0.67157335345E+03  0.67157335347E+03  0.50400001928E-02 0. -1.
        1   -1    0    0  501    0  0.00000000000E+00  0.00000000000E+00 -0.17579590607E+04  0.17579590607E+04  0.50400001928E-02 0.  1.
    10030    2    1    2    0    0  0.00000000000E+00  0.00000000000E+00 -0.10863857073E+04  0.24295324142E+04  0.21731069570E+04 0.  0.
        1    1    3    3  502    0  0.85240085178E+01 -0.10528783105E+03 -0.17522048745E+04  0.17553860283E+04  0.50400001928E-02 0.  1.
       -1    1    3    3    0  502 -0.85240085178E+01  0.10528783105E+03  0.66581916725E+03  0.67414638588E+03  0.50400001928E-02 0. -1.
</event>
<event>
 5   0  0.1130848E-04  0.1914408E+04  0.7818609E-02  0.8647718E-01
        1   -1    0    0  501    0  0.00000000000E+00  0.00000000000E+00  0.17388877693E+04  0.17388877693E+04  0.50400001928E-02 0. -1.
       -1   -1    0    0    0  501  0.00000000000E+00  0.00000000000E+00 -0.52691113530E+03  0.52691113532E+03  0.50400001928E-02 0.  1.
    10030    2    1    2    0    0  0.00000000000E+00  0.00000000000E+00  0.12119766340E+04  0.22657989046E+04  0.19144078235E+04 0.  0.
        5    1    3    3  502    0 -0.55993396532E+02 -0.92554610016E+03  0.88718164144E+03  0.12833098608E+04  0.46999998093E+01 0. -1.
       -5    1    3    3    0  502  0.55993396532E+02  0.92554610016E+03  0.32479499254E+03  0.98248904378E+03  0.46999998093E+01 0.  1.
</event>
<event>
 5   0  0.2512839E-04  0.2082607E+04  0.7818609E-02  0.8568944E-01
       -2   -1    0    0    0  501  0.00000000000E+00  0.00000000000E+00  0.87341936448E+03  0.87341936448E+03  0.25500000920E-02 0.  1.
        2   -1    0    0  501    0  0.00000000000E+00  0.00000000000E+00 -0.12414573522E+04  0.12414573522E+04  0.25500000920E-02 0. -1.
    10030    2    1    2    0    0  0.00000000000E+00  0.00000000000E+00 -0.36803798768E+03  0.21148767166E+04  0.20826069159E+04 0.  0.
        3    1    3    3  502    0 -0.96220575373E+01  0.85457872104E+03  0.42010703197E+03  0.95230630732E+03  0.10100000352E+00 0.  1.
       -3    1    3    3    0  502  0.96220575373E+01 -0.85457872104E+03 -0.78814501964E+03  0.11625704093E+04  0.10100000352E+00 0. -1.
</event>
<event>
 5   0  0.1186038E-04  0.2113585E+04  0.7818609E-02  0.8555282E-01
       -1   -1    0    0    0  501  0.00000000000E+00  0.00000000000E+00  0.29917557002E+04  0.29917557002E+04  0.50400001928E-02 0.  1.
        1   -1    0    0  501    0  0.00000000000E+00  0.00000000000E+00 -0.37329605486E+03  0.37329605489E+03  0.50400001928E-02 0. -1.
    10030    2    1    2    0    0  0.00000000000E+00  0.00000000000E+00  0.26184596453E+04  0.33650517551E+04  0.21135852006E+04 0.  0.
        4    1    3    3  502    0 -0.23769066087E+03 -0.99702431036E+03  0.17190376114E+04  0.20014110642E+04  0.12699999809E+01 0.  1.
       -4    1    3    3    0  502  0.23769066087E+03  0.99702431036E+03  0.89942203390E+03  0.13636406908E+04  0.12699999809E+01 0. -1.
</event>
<event>
 5   0  0.2512839E-04  0.1707925E+04  0.7818609E-02  0.8756858E-01
        2   -1    0    0  501    0  0.00000000000E+00  0.00000000000E+00  0.88158348144E+03  0.88158348144E+03  0.25500000920E-02 0. -1.
       -2   -1    0    0    0  501  0.00000000000E+00  0.00000000000E+00 -0.82720644148E+03  0.82720644148E+03  0.25500000920E-02 0.  1.
    10030    2    1    2    0    0  0.00000000000E+00  0.00000000000E+00  0.54377039960E+02  0.17087899229E+04  0.17079245119E+04 0.  0.
        3    1    3    3  502    0 -0.49508134782E+03 -0.24815936817E+03  0.67756629325E+03  0.87509125519E+03  0.10100000352E+00 0. -1.
       -3    1    3    3    0  502  0.49508134782E+03  0.24815936817E+03 -0.62318925329E+03  0.83369866773E+03  0.10100000352E+00 0.  1.
</event>
<event>
 5   0  0.1130848E-04  0.2123177E+04  0.7818609E-02  0.8551102E-01
        1   -1    0    0  501    0  0.00000000000E+00  0.00000000000E+00  0.11604754801E+04  0.11604754801E+04  0.50400001928E-02 0. -1.
       -1   -1    0    0    0  501  0.00000000000E+00  0.00000000000E+00 -0.97112809967E+03  0.97112809968E+03  0.50400001928E-02 0.  1.
    10030    2    1    2    0    0  0.00000000000E+00  0.00000000000E+00  0.18934738038E+03  0.21316035797E+04  0.21231771925E+04 0.  0.
        5    1    3    3  502    0  0.35172357204E+03 -0.35313012858E+03  0.10356971513E+04  0.11493915947E+04  0.46999998093E+01 0. -1.
       -5    1    3    3    0  502 -0.35172357204E+03  0.35313012858E+03 -0.84634977090E+03  0.98221198503E+03  0.46999998093E+01 0.  1.
</event>
<event>
 5   0  0.1156733E-04  0.2097306E+04  0.7818609E-02  0.8562431E-01
        1   -1    0    0  501    0  0.00000000000E+00  0.00000000000E+00  0.17256152545E+04  0.17256152545E+04  0.50400001928E-02 0. -1.
       -1   -1    0    0    0  501  0.00000000000E+00  0.00000000000E+00 -0.63726443292E+03  0.63726443294E+03  0.50400001928E-02 0.  1.
    10030    2    1    2    0    0  0.00000000000E+00  0.00000000000E+00  0.10883508215E+04  0.23628796874E+04  0.20973061070E+04 0.  0.
        2    1    3    3  502    0  0.95204682394E+03 -0.13488322346E+03  0.72757339436E+02  0.96430299668E+03  0.25500000920E-02 0.  1.
       -2    1    3    3    0  502 -0.95204682394E+03  0.13488322346E+03  0.10155934821E+04  0.13985766907E+04  0.25500000920E-02 0. -1.
</event>
<event>
 5   0  0.2579241E-04  0.2035979E+04  0.7818609E-02  0.8589981E-01
        2   -1    0    0  501    0  0.00000000000E+00  0.00000000000E+00  0.72709382739E+03  0.72709382740E+03  0.25500000920E-02 0.  1.
       -2   -1    0    0    0  501  0.00000000000E+00  0.00000000000E+00 -0.14252673177E+04  0.14252673177E+04  0.25500000920E-02 0. -1.
    10030    2    1    2    0    0  0.00000000000E+00  0.00000000000E+00 -0.69817349035E+03  0.21523611451E+04  0.20359794391E+04 0.  0.
        5    1    3    3  502    0  0.23378402926E+03  0.69334846316E+03 -0.10972814559E+04  0.13188766990E+04  0.46999998093E+01 0. -1.
       -5    1    3    3    0  502 -0.23378402926E+03 -0.69334846316E+03  0.39910796559E+03  0.83348444611E+03  0.46999998093E+01 0.  1.
</event>
<event>
 5   0  0.1122711E-04  0.1997311E+04  0.7818609E-02  0.8607879E-01
        1   -1    0    0  501    0  0.00000000000E+00  0.00000000000E+00  0.11492616978E+04  0.11492616978E+04  0.50400001928E-02 0. -1.
       -1   -1    0    0    0  501  0.00000000000E+00  0.00000000000E+00 -0.86778576052E+03  0.86778576053E+03  0.50400001928E-02 0.  1.
    10030    2    1    2    0    0  0.00000000000E+00  0.00000000000E+00  0.28147593724E+03  0.20170474583E+04  0.19973111289E+04 0.  0.
        1    1    3    3  502    0  0.61070418999E+03  0.21608435331E+03  0.90828831837E+03  0.11156342253E+04  0.50400001928E-02 0. -1.
       -1    1    3    3    0  502 -0.61070418999E+03 -0.21608435331E+03 -0.62681238113E+03  0.90141323297E+03  0.50400001928E-02 0.  1.
</event>
<event>
 5   0  0.1122711E-04  0.2113278E+04  0.7818609E-02  0.8555417E-01
        1   -1    0    0  501    0  0.00000000000E+00  0.00000000000E+00  0.12220065631E+04  0.12220065631E+04  0.50400001928E-02 0. -1.
       -1   -1    0    0    0  501  0.00000000000E+00  0.00000000000E+00 -0.91364976453E+03  0.91364976454E+03  0.50400001928E-02 0.  1.
    10030    2    1    2    0    0  0.00000000000E+00  0.00000000000E+00  0.30835679860E+03  0.21356563277E+04  0.21132780306E+04 0.  0.
        1    1    3    3  502    0  0.43919064491E+03  0.96099352990E+03  0.14464336336E+03  0.10664514474E+04  0.50400001928E-02 0. -1.
       -1    1    3    3    0  502 -0.43919064491E+03 -0.96099352990E+03  0.16371343525E+03  0.10692048803E+04  0.50400001928E-02 0.  1.
</event>
<event>
 5   0  0.2512839E-04  0.2028479E+04  0.7818609E-02  0.8593420E-01
        2   -1    0    0  501    0  0.00000000000E+00  0.00000000000E+00  0.14162880334E+04  0.14162880334E+04  0.25500000920E-02 0.  1.
       -2   -1    0    0    0  501  0.00000000000E+00  0.00000000000E+00 -0.72632233747E+03  0.72632233748E+03  0.25500000920E-02 0. -1.
    10030    2    1    2    0    0  0.00000000000E+00  0.00000000000E+00  0.68996569594E+03  0.21426103709E+04  0.20284788734E+04 0.  0.
        3    1    3    3  502    0 -0.37654450323E+03  0.52684031187E+03 -0.47953645740E+03  0.80579259199E+03  0.10100000352E+00 0. -1.
       -3    1    3    3    0  502  0.37654450323E+03 -0.52684031187E+03  0.11695021533E+04  0.13368177789E+04  0.10100000352E+00 0.  1.
</event>
<event>
 5   0  0.1186038E-04  0.2105781E+04  0.7818609E-02  0.8558701E-01
        1   -1    0    0  501    0  0.00000000000E+00  0.00000000000E+00  0.13976558486E+04  0.13976558486E+04  0.50400001928E-02 0. -1.
       -1   -1    0    0    0  501  0.00000000000E+00  0.00000000000E+00 -0.79317006336E+03  0.79317006338E+03  0.50400001928E-02 0.  1.
    10030    2    1    2    0    0  0.00000000000E+00  0.00000000000E+00  0.60448578524E+03  0.21908259120E+04  0.21057813543E+04 0.  0.
        4    1    3    3  502    0 -0.97183396910E+03  0.14378952590E+02 -0.11896469755E+03  0.97919468439E+03  0.12699999809E+01 0. -1.
       -4    1    3    3    0  502  0.97183396910E+03 -0.14378952590E+02  0.72345048279E+03  0.12116312276E+04  0.12699999809E+01 0.  1.
</event>
<event>
 5   0  0.1122711E-04  0.2114465E+04  0.7818609E-02  0.8554898E-01
       -1   -1    0    0    0  501  0.00000000000E+00  0.00000000000E+00  0.11562861102E+04  0.11562861102E+04  0.50400001928E-02 0. -1.
        1   -1    0    0  501    0  0.00000000000E+00  0.00000000000E+00 -0.96666465101E+03  0.96666465102E+03  0.50400001928E-02 0.  1.
    10030    2    1    2    0    0  0.00000000000E+00  0.00000000000E+00  0.18962145921E+03  0.21229507612E+04  0.21144653312E+04 0.  0.
        1    1    3    3  502    0  0.52815273891E+03 -0.87307872823E+03 -0.18293841795E+03  0.10366668925E+04  0.50400001928E-02 0.  1.
       -1    1    3    3    0  502 -0.52815273891E+03  0.87307872823E+03  0.37255987716E+03  0.10862838687E+04  0.50400001928E-02 0. -1.
</event>
<event>
 5   0  0.2579241E-04  0.2014453E+04  0.7818609E-02  0.8599893E-01
        2   -1    0    0  501    0  0.00000000000E+00  0.00000000000E+00  0.16111506767E+04  0.16111506767E+04  0.25500000920E-02 0.  1.
       -2   -1    0    0    0  501  0.00000000000E+00  0.00000000000E+00 -0.62967744121E+03  0.62967744122E+03  0.25500000920E-02 0. -1.
    10030    2    1    2    0    0  0.00000000000E+00  0.00000000000E+00  0.98147323551E+03  0.22408281179E+04  0.20144530131E+04 0.  0.
        5    1    3    3  502    0  0.54721446503E+03 -0.75375890532E+03  0.91706384079E+03  0.13071435790E+04  0.46999998093E+01 0.  1.
       -5    1    3    3    0  502 -0.54721446503E+03  0.75375890532E+03  0.64409394721E+02  0.93368453892E+03  0.46999998093E+01 0. -1.
</event>
<event>
 5   0  0.1130848E-04  0.2121748E+04  0.7818609E-02  0.8551723E-01
        1   -1    0    0  501    0  0.00000000000E+00  0.00000000000E+00  0.85681777687E+03  0.85681777688E+03  0.50400001928E-02 0.  1.
       -1   -1    0    0    0  501  0.00000000000E+00  0.00000000000E+00 -0.13135276277E+04  0.13135276277E+04  0.50400001928E-02 0. -1.
    10030    2    1    2    0    0  0.00000000000E+00  0.00000000000E+00 -0.45670985081E+03  0.21703454046E+04  0.21217481677E+04 0.  0.
        5    1    3    3  502    0 -0.32912235463E+03  0.51363381359E+03 -0.11161572326E+04  0.12719946056E+04  0.46999998093E+01 0. -1.
       -5    1    3    3    0  502  0.32912235463E+03 -0.51363381359E+03  0.65944738175E+03  0.89835079901E+03  0.46999998093E+01 0.  1.
</event>
<event>
 5   0  0.2512839E-04  0.2109402E+04  0.7818609E-02  0.8557113E-01
       -2   -1    0    0    0  501  0.00000000000E+00  0.00000000000E+00  0.19300038910E+04  0.19300038910E+04  0.25500000920E-02 0. -1.
        2   -1    0    0  501    0  0.00000000000E+00  0.00000000000E+00 -0.57636864104E+03  0.57636864104E+03  0.25500000920E-02 0.  1.
    10030    2    1    2    0    0  0.00000000000E+00  0.00000000000E+00  0.13536352500E+04  0.25063725320E+04  0.21094015453E+04 0.  0.
        3    1    3    3  502    0  0.43783672450E+03 -0.63669805085E+03  0.15297604754E+04  0.17138414535E+04  0.10100000352E+00 0. -1.
       -3    1    3    3    0  502 -0.43783672450E+03  0.63669805085E+03 -0.17612522544E+03  0.79253107858E+03  0.10100000352E+00 0.  1.
</event>
<event>
 5   0  0.1156733E-04  0.2093250E+04  0.7818609E-02  0.8564223E-01
        1   -1    0    0  501    0  0.00000000000E+00  0.00000000000E+00  0.10814516479E+04  0.10814516479E+04  0.50400001928E-02 0. -1.
       -1   -1    0    0    0  501  0.00000000000E+00  0.00000000000E+00 -0.10129199157E+04  0.10129199157E+04  0.50400001928E-02 0.  1.
    10030    2    1    2    0    0  0.00000000000E+00  0.00000000000E+00  0.68531732206E+02  0.20943715637E+04  0.20932500205E+04 0.  0.
        2    1    3    3  502    0 -0.85543880958E+03 -0.39476619645E+03  0.49036974463E+03  0.10621103489E+04  0.25500000920E-02 0.  1.
       -2    1    3    3    0  502  0.85543880958E+03  0.39476619645E+03 -0.42183801242E+03  0.10322612148E+04  0.25500000920E-02 0. -1.
</event>
<event>
 5   0  0.1186038E-04  0.2087292E+04  0.7818609E-02  0.8566862E-01
       -1   -1    0    0    0  501  0.00000000000E+00  0.00000000000E+00  0.60602985633E+03  0.60602985635E+03  0.50400001928E-02 0.  1.
        1   -1    0    0  501    0  0.00000000000E+00  0.00000000000E+00 -0.17972658051E+04  0.17972658051E+04  0.50400001928E-02 0. -1.
    10030    2    1    2    0    0  0.00000000000E+00  0.00000000000E+00 -0.11912359488E+04  0.24032956615E+04  0.20872917742E+04 0.  0.
        4    1    3    3  502    0 -0.88696028036E+03  0.17696175588E+03 -0.11952071282E+04  0.14988447866E+04  0.12699999809E+01 0. -1.
       -4    1    3    3    0  502  0.88696028036E+03 -0.17696175588E+03  0.39711794176E+01  0.90445087492E+03  0.12699999809E+01 0.  1.
</event>
<event>
 5   0  0.1122711E-04  0.2027509E+04  0.7818609E-02  0.8593866E-01
        1   -1    0    0  501    0  0.00000000000E+00  0.00000000000E+00  0.18065537840E+04  0.18065537840E+04  0.50400001928E-02 0. -1.
       -1   -1    0    0    0  501  0.00000000000E+00  0.00000000000E+00 -0.56887245778E+03  0.56887245780E+03  0.50400001928E-02 0.  1.
    10030    2    1    2    0    0  0.00000000000E+00  0.00000000000E+00  0.12376813262E+04  0.23754262418E+04  0.20275094981E+04 0.  0.
        1    1    3    3  502    0 -0.41800387727E+03 -0.28537726019E+03  0.16479355457E+04  0.17239080558E+04  0.50400001928E-02 0. -1.
       -1    1    3    3    0  502  0.41800387727E+03  0.28537726019E+03 -0.41025421949E+03  0.65151818600E+03  0.50400001928E-02 0.  1.
</event>
<event>
 5   0  0.1186038E-04  0.2212046E+04  0.7818609E-02  0.8513431E-01
       -1   -1    0    0    0  501  0.00000000000E+00  0.00000000000E+00  0.80855223134E+03  0.80855223136E+03  0.50400001928E-02 0.  1.
        1   -1    0    0  501    0  0.00000000000E+00  0.00000000000E+00 -0.15129351343E+04  0.15129351343E+04  0.50400001928E-02 0. -1.
    10030    2    1    2    0    0  0.00000000000E+00  0.00000000000E+00 -0.70438290293E+03  0.23214873656E+04  0.22120461828E+04 0.  0.
        4    1    3    3  502    0  0.60438062049E+03 -0.96723698284E+00 -0.13243071442E+04  0.14557018565E+04  0.12699999809E+01 0. -1.
       -4    1    3    3    0  502 -0.60438062049E+03  0.96723698284E+00  0.61992424128E+03  0.86578550912E+03  0.12699999809E+01 0.  1.
</event>
<event>
 5   0  0.2448804E-04  0.2106933E+04  0.7818609E-02  0.8558196E-01
       -2   -1    0    0    0  501  0.00000000000E+00  0.00000000000E+00  0.10439282604E+04  0.10439282604E+04  0.25500000920E-02 0.  1.
        2   -1    0    0  501    0  0.00000000000E+00  0.00000000000E+00 -0.10630915848E+04  0.10630915848E+04  0.25500000920E-02 0. -1.
    10030    2    1    2    0    0  0.00000000000E+00  0.00000000000E+00 -0.19163324423E+02  0.21070198452E+04  0.21069326983E+04 0.  0.
        2    1    3    3  502    0  0.13817949769E+03 -0.34159961181E+03  0.97737733181E+03  0.10445335404E+04  0.25500000920E-02 0.  1.
       -2    1    3    3    0  502 -0.13817949769E+03  0.34159961181E+03 -0.99654065623E+03  0.10624863048E+04  0.25500000920E-02 0. -1.
</event>
<event>
 5   0  0.2430898E-04  0.2093929E+04  0.7818609E-02  0.8563922E-01
        2   -1    0    0  501    0  0.00000000000E+00  0.00000000000E+00  0.19966189394E+04  0.19966189394E+04  0.25500000920E-02 0.  1.
       -2   -1    0    0    0  501  0.00000000000E+00  0.00000000000E+00 -0.54899565040E+03  0.54899565040E+03  0.25500000920E-02 0. -1.
    10030    2    1    2    0    0  0.00000000000E+00  0.00000000000E+00  0.14476232890E+04  0.25456145898E+04  0.20939294289E+04 0.  0.
        1    1    3    3  502    0  0.84708267010E+03  0.48627610204E+03  0.26550022448E+03  0.10121777841E+04  0.50400001928E-02 0. -1.
       -1    1    3    3    0  502 -0.84708267010E+03 -0.48627610204E+03  0.11821230645E+04  0.15334368057E+04  0.50400001928E-02 0.  1.
</event>
<event>
 5   0  0.2512839E-04  0.2063656E+04  0.7818609E-02  0.8577424E-01
       -2   -1    0    0    0  501  0.00000000000E+00  0.00000000000E+00  0.56398991792E+03  0.56398991792E+03  0.25500000920E-02 0. -1.
        2   -1    0    0  501    0  0.00000000000E+00  0.00000000000E+00 -0.18877442447E+04  0.18877442447E+04  0.25500000920E-02 0.  1.
    10030    2    1    2    0    0  0.00000000000E+00  0.00000000000E+00 -0.13237543268E+04  0.24517341626E+04  0.20636557093E+04 0.  0.
        3    1    3    3  502    0  0.34944704956E+03  0.26253371775E+03  0.44857609326E+03  0.62630481001E+03  0.10100000352E+00 0. -1.
       -3    1    3    3    0  502 -0.34944704956E+03 -0.26253371775E+03 -0.17723304200E+04  0.18254293526E+04  0.10100000352E+00 0.  1.
</event>
<event>
 5   0  0.2430898E-04  0.2070339E+04  0.7818609E-02  0.8574423E-01
       -2   -1    0    0    0  501  0.00000000000E+00  0.00000000000E+00  0.75831763143E+03  0.75831763143E+03  0.25500000920E-02 0. -1.
        2   -1    0    0  501    0  0.00000000000E+00  0.00000000000E+00 -0.14130957320E+04  0.14130957320E+04  0.25500000920E-02 0.  1.
    10030    2    1    2    0    0  0.00000000000E+00  0.00000000000E+00 -0.65477810054E+03  0.21714133634E+04  0.20703385312E+04 0.  0.
        1    1    3    3  502    0 -0.15638636436E+02  0.43289038090E+03  0.65869001531E+03  0.78835980688E+03  0.50400001928E-02 0. -1.
       -1    1    3    3    0  502  0.15638636436E+02 -0.43289038090E+03 -0.13134681158E+04  0.13830535565E+04  0.50400001928E-02 0.  1.
</event>
<event>
 5   0  0.2467483E-04  0.2059819E+04  0.7818609E-02  0.8579153E-01
        2   -1    0    0  501    0  0.00000000000E+00  0.00000000000E+00  0.18737393168E+04  0.18737393168E+04  0.25500000920E-02 0. -1.
       -2   -1    0    0    0  501  0.00000000000E+00  0.00000000000E+00 -0.56609474856E+03  0.56609474857E+03  0.25500000920E-02 0.  1.
    10030    2    1    2    0    0  0.00000000000E+00  0.00000000000E+00  0.13076445682E+04  0.24398340654E+04  0.20598193974E+04 0.  0.
        4    1    3    3  502    0 -0.12343992573E+03 -0.46423191827E+03 -0.42527523067E+03  0.64156786385E+03  0.12699999809E+01 0.  1.
       -4    1    3    3    0  502  0.12343992573E+03  0.46423191827E+03  0.17329197989E+04  0.17982662015E+04  0.12699999809E+01 0. -1.
</event>
<event>
 5   0  0.1042395E-04  0.2141963E+04  0.7818609E-02  0.8542980E-01
       -1   -1    0    0    0  501  0.00000000000E+00  0.00000000000E+00  0.12475479076E+04  0.12475479076E+04  0.50400001928E-02 0.  1.
        1   -1    0    0  501    0  0.00000000000E+00  0.00000000000E+00 -0.91940443581E+03  0.91940443582E+03  0.50400001928E-02 0. -1.
    10030    2    1    2    0    0  0.00000000000E+00  0.00000000000E+00  0.32814347174E+03  0.21669523434E+04  0.21419627262E+04 0.  0.
        3    1    3    3  502    0  0.34054482663E+03  0.94045908253E+03 -0.22323545286E+03  0.10248259084E+04  0.10100000352E+00 0. -1.
       -3    1    3    3    0  502 -0.34054482663E+03 -0.94045908253E+03  0.55137892460E+03  0.11421264350E+04  0.10100000352E+00 0.  1.
</event>
<event>
 5   0  0.1122711E-04  0.2028843E+04  0.7818609E-02  0.8593253E-01
        1   -1    0    0  501    0  0.00000000000E+00  0.00000000000E+00  0.12571962721E+04  0.12571962721E+04  0.50400001928E-02 0. -1.
       -1   -1    0    0    0  501  0.00000000000E+00  0.00000000000E+00 -0.81852830229E+03  0.81852830230E+03  0.50400001928E-02 0.  1.
    10030    2    1    2    0    0  0.00000000000E+00  0.00000000000E+00  0.43866796980E+03  0.20757245744E+04  0.20288427541E+04 0.  0.
        1    1    3    3  502    0  0.26626834569E+03  0.65228850380E+02  0.12185792565E+04  0.12490352434E+04  0.50400001928E-02 0. -1.
       -1    1    3    3    0  502 -0.26626834569E+03 -0.65228850380E+02 -0.77991128670E+03  0.82668933100E+03  0.50400001928E-02 0.  1.
</event>
<event>
 5   0  0.8698750E-05  0.2089809E+04  0.7818609E-02  0.8565746E-01
       -3   -1    0    0    0  501  0.00000000000E+00  0.00000000000E+00  0.52553764962E+03  0.52553765933E+03  0.10100000352E+00 0. -1.
        3   -1    0    0  501    0  0.00000000000E+00  0.00000000000E+00 -0.20775401881E+04  0.20775401905E+04  0.10100000352E+00 0.  1.
    10030    2    1    2    0    0  0.00000000000E+00  0.00000000000E+00 -0.15520025385E+04  0.26030778499E+04  0.20898091810E+04 0.  0.
        2    1    3    3  502    0 -0.71096882911E+03  0.44838726149E+03 -0.15491780147E+04  0.17625210165E+04  0.25500000920E-02 0.  1.
       -2    1    3    3    0  502  0.71096882911E+03 -0.44838726149E+03 -0.28245237443E+01  0.84055683339E+03  0.25500000920E-02 0. -1.
</event>
<event>
 5   0  0.1122711E-04  0.2119360E+04  0.7818609E-02  0.8552763E-01
        1   -1    0    0  501    0  0.00000000000E+00  0.00000000000E+00  0.11019670296E+04  0.11019670296E+04  0.50400001928E-02 0.  1.
       -1   -1    0    0    0  501  0.00000000000E+00  0.00000000000E+00 -0.10190154242E+04  0.10190154242E+04  0.50400001928E-02 0. -1.
    10030    2    1    2    0    0  0.00000000000E+00  0.00000000000E+00  0.82951605364E+02  0.21209824538E+04  0.21193597147E+04 0.  0.
        1    1    3    3  502    0  0.85580161786E+03 -0.43392027053E+03  0.49152913891E+03  0.10780928090E+04  0.50400001928E-02 0.  1.
       -1    1    3    3    0  502 -0.85580161786E+03  0.43392027053E+03 -0.40857753355E+03  0.10428896448E+04  0.50400001928E-02 0. -1.
</event>
<event>
 5   0  0.1186038E-04  0.2066234E+04  0.7818609E-02  0.8576265E-01
       -1   -1    0    0    0  501  0.00000000000E+00  0.00000000000E+00  0.78010449885E+03  0.78010449887E+03  0.50400001928E-02 0. -1.
        1   -1    0    0  501    0  0.00000000000E+00  0.00000000000E+00 -0.13681888374E+04  0.13681888375E+04  0.50400001928E-02 0.  1.
    10030    2    1    2    0    0  0.00000000000E+00  0.00000000000E+00 -0.58808433859E+03  0.21482933363E+04  0.20662335467E+04 0.  0.
        4    1    3    3  502    0 -0.61716913964E+03  0.41763008416E+03 -0.10380130679E+04  0.12778049053E+04  0.12699999809E+01 0.  1.
       -4    1    3    3    0  502  0.61716913964E+03 -0.41763008416E+03  0.44992872930E+03  0.87048843097E+03  0.12699999809E+01 0. -1.
</event>
<event>
 5   0  0.1042395E-04  0.2058887E+04  0.7818609E-02  0.8579574E-01
        1   -1    0    0  501    0  0.00000000000E+00  0.00000000000E+00  0.11240382661E+04  0.11240382661E+04  0.50400001928E-02 0.  1.
       -1   -1    0    0    0  501  0.00000000000E+00  0.00000000000E+00 -0.94280911426E+03  0.94280911427E+03  0.50400001928E-02 0. -1.
    10030    2    1    2    0    0  0.00000000000E+00  0.00000000000E+00  0.18122915183E+03  0.20668473804E+04  0.20588866138E+04 0.  0.
        3    1    3    3  502    0 -0.24313132701E+03 -0.94757926996E+03  0.41237564318E+03  0.10616369419E+04  0.10100000352E+00 0.  1.
       -3    1    3    3    0  502  0.24313132701E+03  0.94757926996E+03 -0.23114649135E+03  0.10052104385E+04  0.10100000352E+00 0. -1.
</event>
<event>
 5   0  0.2467483E-04  0.2200450E+04  0.7818609E-02  0.8518241E-01
        2   -1    0    0  501    0  0.00000000000E+00  0.00000000000E+00  0.19857656461E+04  0.19857656461E+04  0.25500000920E-02 0. -1.
       -2   -1    0    0    0  501  0.00000000000E+00  0.00000000000E+00 -0.60958612825E+03  0.60958612826E+03  0.25500000920E-02 0.  1.
    10030    2    1    2    0    0  0.00000000000E+00  0.00000000000E+00  0.13761795178E+04  0.25953517743E+04  0.22004501283E+04 0.  0.
        4    1    3    3  502    0 -0.43841567350E+03  0.78881268138E+03  0.14303652120E+04  0.16912657987E+04  0.12699999809E+01 0. -1.
       -4    1    3    3    0  502  0.43841567350E+03 -0.78881268138E+03 -0.54185694167E+02  0.90408597569E+03  0.12699999809E+01 0.  1.
</event>
<event>
 5   0  0.1156733E-04  0.1989373E+04  0.7818609E-02  0.8611605E-01
       -1   -1    0    0    0  501  0.00000000000E+00  0.00000000000E+00  0.13449729406E+04  0.13449729406E+04  0.50400001928E-02 0. -1.
        1   -1    0    0  501    0  0.00000000000E+00  0.00000000000E+00 -0.73562909962E+03  0.73562909964E+03  0.50400001928E-02 0.  1.
    10030    2    1    2    0    0  0.00000000000E+00  0.00000000000E+00  0.60934384095E+03  0.20806020402E+04  0.19893730000E+04 0.  0.
        2    1    3    3  502    0  0.46268898287E+03  0.30747976412E+03 -0.55825700195E+03  0.78757588868E+03  0.25500000920E-02 0.  1.
       -2    1    3    3    0  502 -0.46268898287E+03 -0.30747976412E+03  0.11676008429E+04  0.12930261515E+04  0.25500000920E-02 0. -1.
</event>
<event>
 5   0  0.1042395E-04  0.2142651E+04  0.7818609E-02  0.8542685E-01
        1   -1    0    0  501    0  0.00000000000E+00  0.00000000000E+00  0.11512346463E+04  0.11512346463E+04  0.50400001928E-02 0.  1.
       -1   -1    0    0    0  501  0.00000000000E+00  0.00000000000E+00 -0.99696262426E+03  0.99696262427E+03  0.50400001928E-02 0. -1.
    10030    2    1    2    0    0  0.00000000000E+00  0.00000000000E+00  0.15427202206E+03  0.21481972706E+04  0.21426506147E+04 0.  0.
        3    1    3    3  502    0 -0.42818099915E+03  0.93766970479E+03  0.36973815009E+03  0.10951117537E+04  0.10100000352E+00 0.  1.
       -3    1    3    3    0  502  0.42818099915E+03 -0.93766970479E+03 -0.21546612803E+03  0.10530855169E+04  0.10100000352E+00 0. -1.
</event>
<event>
 5   0  0.2579241E-04  0.2100561E+04  0.7818609E-02  0.8560996E-01
       -2   -1    0    0    0  501  0.00000000000E+00  0.00000000000E+00  0.11398985082E+04  0.11398985083E+04  0.25500000920E-02 0.  1.
        2   -1    0    0  501    0  0.00000000000E+00  0.00000000000E+00 -0.96770779101E+03  0.96770779102E+03  0.25500000920E-02 0. -1.
    10030    2    1    2    0    0  0.00000000000E+00  0.00000000000E+00  0.17219071723E+03  0.21076062993E+04  0.21005605608E+04 0.  0.
        5    1    3    3  502    0  0.95323675496E+03 -0.13490655433E+03  0.50727292268E+03  0.10882132133E+04  0.46999998093E+01 0.  1.
       -5    1    3    3    0  502 -0.95323675496E+03  0.13490655433E+03 -0.33508220545E+03  0.10193930860E+04  0.46999998093E+01 0. -1.
</event>
<event>
 5   0  0.1156733E-04  0.2098824E+04  0.7818609E-02  0.8561762E-01
        1   -1    0    0  501    0  0.00000000000E+00  0.00000000000E+00  0.18543628693E+04  0.18543628693E+04  0.50400001928E-02 0.  1.
       -1   -1    0    0    0  501  0.00000000000E+00  0.00000000000E+00 -0.59387805951E+03  0.59387805953E+03  0.50400001928E-02 0. -1.
    10030    2    1    2    0    0  0.00000000000E+00  0.00000000000E+00  0.12604848098E+04  0.24482409288E+04  0.20988238825E+04 0.  0.
        2    1    3    3  502    0 -0.86548583432E+03  0.29665607470E+03  0.30671784342E+02  0.91542957918E+03  0.25500000920E-02 0.  1.
       -2    1    3    3    0  502  0.86548583432E+03 -0.29665607470E+03  0.12298130254E+04  0.15328113496E+04  0.25500000920E-02 0. -1.
</event>
<event>
 5   0  0.1130848E-04  0.2189059E+04  0.7818609E-02  0.8522996E-01
        1   -1    0    0  501    0  0.00000000000E+00  0.00000000000E+00  0.13503548213E+04  0.13503548213E+04  0.50400001928E-02 0. -1.
       -1   -1    0    0    0  501  0.00000000000E+00  0.00000000000E+00 -0.88717002387E+03  0.88717002388E+03  0.50400001928E-02 0.  1.
    10030    2    1    2    0    0  0.00000000000E+00  0.00000000000E+00  0.46318479744E+03  0.22375248452E+04  0.21890585365E+04 0.  0.
        5    1    3    3  502    0 -0.86909017444E+03  0.65854973703E+03  0.13480299389E+03  0.10987262737E+04  0.46999998093E+01 0. -1.
       -5    1    3    3    0  502  0.86909017444E+03 -0.65854973703E+03  0.32838180355E+03  0.11387985715E+04  0.46999998093E+01 0.  1.
</event>
<event>
 5   0  0.1130848E-04  0.2118070E+04  0.7818609E-02  0.8553325E-01
        1   -1    0    0  501    0  0.00000000000E+00  0.00000000000E+00  0.85695674992E+03  0.85695674994E+03  0.50400001928E-02 0.  1.
       -1   -1    0    0    0  501  0.00000000000E+00  0.00000000000E+00 -0.13087657145E+04  0.13087657145E+04  0.50400001928E-02 0. -1.
    10030    2    1    2    0    0  0.00000000000E+00  0.00000000000E+00 -0.45180896455E+03  0.21657224644E+04  0.21180704550E+04 0.  0.
        5    1    3    3  502    0 -0.87108850458E+03  0.42017782007E+03  0.21529941353E+03  0.99081810175E+03  0.46999998093E+01 0. -1.
       -5    1    3    3    0  502  0.87108850458E+03 -0.42017782007E+03 -0.66710837808E+03  0.11749043627E+04  0.46999998093E+01 0.  1.
</event>
<event>
 5   0  0.2448804E-04  0.2055568E+04  0.7818609E-02  0.8581073E-01
       -2   -1    0    0    0  501  0.00000000000E+00  0.00000000000E+00  0.54342655016E+03  0.54342655016E+03  0.25500000920E-02 0.  1.
        2   -1    0    0  501    0  0.00000000000E+00  0.00000000000E+00 -0.19438505887E+04  0.19438505887E+04  0.25500000920E-02 0. -1.
    10030    2    1    2    0    0  0.00000000000E+00  0.00000000000E+00 -0.14004240385E+04  0.24872771389E+04  0.20555680669E+04 0.  0.
        2    1    3    3  502    0  0.70716292920E+03 -0.13284142846E+03  0.18782493839E+03  0.74364269716E+03  0.25500000920E-02 0.  1.
       -2    1    3    3    0  502 -0.70716292920E+03  0.13284142846E+03 -0.15882489769E+04  0.17436344417E+04  0.25500000920E-02 0. -1.
</event>
<event>
 5   0  0.2448804E-04  0.2066010E+04  0.7818609E-02  0.8576366E-01
        2   -1    0    0  501    0  0.00000000000E+00  0.00000000000E+00  0.82882985856E+03  0.82882985857E+03  0.25500000920E-02 0.  1.
       -2   -1    0    0    0  501  0.00000000000E+00  0.00000000000E+00 -0.12874768027E+04  0.12874768028E+04  0.25500000920E-02 0. -1.
    10030    2    1    2    0    0  0.00000000000E+00  0.00000000000E+00 -0.45864694418E+03  0.21163066613E+04  0.20660098899E+04 0.  0.
        2    1    3    3  502    0 -0.66738940799E+03 -0.38614602731E+03  0.47485819977E+03  0.90554275779E+03  0.25500000920E-02 0.  1.
       -2    1    3    3    0  502  0.66738940799E+03  0.38614602731E+03 -0.93350514395E+03  0.12107639035E+04  0.25500000920E-02 0. -1.
</event>
<event>
 5   0  0.2579241E-04  0.2126666E+04  0.7818609E-02  0.8549587E-01
        2   -1    0    0  501    0  0.00000000000E+00  0.00000000000E+00  0.25542994726E+04  0.25542994726E+04  0.25500000920E-02 0. -1.
       -2   -1    0    0    0  501  0.00000000000E+00  0.00000000000E+00 -0.44265658135E+03  0.44265658135E+03  0.25500000920E-02 0.  1.
    10030    2    1    2    0    0  0.00000000000E+00  0.00000000000E+00  0.21116428913E+04  0.29969560540E+04  0.21266663794E+04 0.  0.
        5    1    3    3  502    0  0.56789603155E+03 -0.52394941298E+02  0.23205227539E+04  0.23895813595E+04  0.46999998093E+01 0. -1.
       -5    1    3    3    0  502 -0.56789603155E+03  0.52394941298E+02 -0.20887986257E+03  0.60737469449E+03  0.46999998093E+01 0.  1.
</event>
<event>
 5   0  0.2467483E-04  0.2126274E+04  0.7818609E-02  0.8549757E-01
        2   -1    0    0  501    0  0.00000000000E+00  0.00000000000E+00  0.10321627227E+04  0.10321627227E+04  0.25500000920E-02 0. -1.
       -2   -1    0    0    0  501  0.00000000000E+00  0.00000000000E+00 -0.10950407801E+04  0.10950407801E+04  0.25500000920E-02 0.  1.
    10030    2    1    2    0    0  0.00000000000E+00  0.00000000000E+00 -0.62878057340E+02  0.21272035028E+04  0.21262739928E+04 0.  0.
        4    1    3    3  502    0  0.69803981391E+03  0.79903134676E+03 -0.98907261746E+02  0.10655960465E+04  0.12699999809E+01 0.  1.
       -4    1    3    3    0  502 -0.69803981391E+03 -0.79903134676E+03  0.36029204406E+02  0.10616074563E+04  0.12699999809E+01 0. -1.
</event>
<event>
 5   0  0.1122711E-04  0.2031062E+04  0.7818609E-02  0.8592234E-01
        1   -1    0    0  501    0  0.00000000000E+00  0.00000000000E+00  0.12162199303E+04  0.12162199304E+04  0.50400001928E-02 0. -1.
       -1   -1    0    0    0  501  0.00000000000E+00  0.00000000000E+00 -0.84795803339E+03  0.84795803341E+03  0.50400001928E-02 0.  1.
    10030    2    1    2    0    0  0.00000000000E+00  0.00000000000E+00  0.36826189695E+03  0.20641779638E+04  0.20310622446E+04 0.  0.
        1    1    3    3  502    0 -0.93269201928E+03  0.30437800874E+03  0.45059486949E+03  0.10796277652E+04  0.50400001928E-02 0. -1.
       -1    1    3    3    0  502  0.93269201928E+03 -0.30437800874E+03 -0.82332972537E+02  0.98455019853E+03  0.50400001928E-02 0.  1.
</event>
<event>
 5   0  0.2467483E-04  0.2001670E+04  0.7818609E-02  0.8605840E-01
       -2   -1    0    0    0  501  0.00000000000E+00  0.00000000000E+00  0.12582510596E+04  0.12582510596E+04  0.25500000920E-02 0.  1.
        2   -1    0    0  501    0  0.00000000000E+00  0.00000000000E+00 -0.79608176067E+03  0.79608176067E+03  0.25500000920E-02 0. -1.
    10030    2    1    2    0    0  0.00000000000E+00  0.00000000000E+00  0.46216929898E+03  0.20543328203E+04  0.20016700217E+04 0.  0.
        4    1    3    3  502    0 -0.48726668412E+03 -0.85813650858E+03  0.59835403296E+02  0.98863996338E+03  0.12699999809E+01 0. -1.
       -4    1    3    3    0  502  0.48726668412E+03  0.85813650858E+03  0.40233389568E+03  0.10656928569E+04  0.12699999809E+01 0.  1.
</event>
<event>
 5   0  0.1186038E-04  0.1815810E+04  0.7818609E-02  0.8697937E-01
       -1   -1    0    0    0  501  0.00000000000E+00  0.00000000000E+00  0.88615851027E+03  0.88615851029E+03  0.50400001928E-02 0. -1.
        1   -1    0    0  501    0  0.00000000000E+00  0.00000000000E+00 -0.93018464431E+03  0.93018464432E+03  0.50400001928E-02 0.  1.
    10030    2    1    2    0    0  0.00000000000E+00  0.00000000000E+00 -0.44026134033E+02  0.18163431546E+04  0.18158095040E+04 0.  0.
        4    1    3    3  502    0  0.79022996764E+03 -0.19699205004E+03  0.37937803282E+03  0.89844230433E+03  0.12699999809E+01 0.  1.
       -4    1    3    3    0  502 -0.79022996764E+03  0.19699205004E+03 -0.42340416685E+03  0.91790085028E+03  0.12699999809E+01 0. -1.
</event>
<event>
 5   0  0.2430898E-04  0.2095991E+04  0.7818609E-02  0.8563012E-01
        2   -1    0    0  501    0  0.00000000000E+00  0.00000000000E+00  0.13658142436E+04  0.13658142436E+04  0.25500000920E-02 0.  1.
       -2   -1    0    0    0  501  0.00000000000E+00  0.00000000000E+00 -0.80413146507E+03  0.80413146507E+03  0.25500000920E-02 0. -1.
    10030    2    1    2    0    0  0.00000000000E+00  0.00000000000E+00  0.56168277856E+03  0.21699457087E+04  0.20959906572E+04 0.  0.
        1    1    3    3  502    0  0.12560387263E+03 -0.37108945642E+03 -0.72546882096E+03  0.82449301252E+03  0.50400001928E-02 0. -1.
       -1    1    3    3    0  502 -0.12560387263E+03  0.37108945642E+03  0.12871515995E+04  0.13454526962E+04  0.50400001928E-02 0.  1.
</event>
<event>
 5   0  0.1042395E-04  0.2118770E+04  0.7818609E-02  0.8553020E-01
        1   -1    0    0  501    0  0.00000000000E+00  0.00000000000E+00  0.11429679855E+04  0.11429679855E+04  0.50400001928E-02 0. -1.
       -1   -1    0    0    0  501  0.00000000000E+00  0.00000000000E+00 -0.98191469903E+03  0.98191469905E+03  0.50400001928E-02 0.  1.
    10030    2    1    2    0    0  0.00000000000E+00  0.00000000000E+00  0.16105328647E+03  0.21248826846E+04  0.21187704600E+04 0.  0.
        3    1    3    3  502    0 -0.75865205096E+03  0.69754742837E+03 -0.16548021284E+03  0.10437955069E+04  0.10100000352E+00 0. -1.
       -3    1    3    3    0  502  0.75865205096E+03 -0.69754742837E+03  0.32653349931E+03  0.10810871776E+04  0.10100000352E+00 0.  1.
</event>
<event>
 5   0  0.2512839E-04  0.2102470E+04  0.7818609E-02  0.8560156E-01
       -2   -1    0    0    0  501  0.00000000000E+00  0.00000000000E+00  0.63332357637E+03  0.63332357638E+03  0.25500000920E-02 0.  1.
        2   -1    0    0  501    0  0.00000000000E+00  0.00000000000E+00 -0.17449130063E+04  0.17449130063E+04  0.25500000920E-02 0. -1.
    10030    2    1    2    0    0  0.00000000000E+00  0.00000000000E+00 -0.11115894300E+04  0.23782365827E+04  0.21024695438E+04 0.  0.
        3    1    3    3  502    0 -0.10661998110E+03 -0.96056584791E+03 -0.10236097160E+04  0.14077753476E+04  0.10100000352E+00 0. -1.
       -3    1    3    3    0  502  0.10661998110E+03  0.96056584791E+03 -0.87979713983E+02  0.97046123509E+03  0.10100000352E+00 0.  1.
</event>
<event>
 5   0  0.1130848E-04  0.2093157E+04  0.7818609E-02  0.8564264E-01
       -1   -1    0    0    0  501  0.00000000000E+00  0.00000000000E+00  0.98670333277E+03  0.98670333278E+03  0.50400001928E-02 0.  1.
        1   -1    0    0  501    0  0.00000000000E+00  0.00000000000E+00 -0.11100874610E+04  0.11100874610E+04  0.50400001928E-02 0. -1.
    10030    2    1    2    0    0  0.00000000000E+00  0.00000000000E+00 -0.12338412825E+03  0.20967907938E+04  0.20931574212E+04 0.  0.
        5    1    3    3  502    0 -0.97589641821E+03 -0.13263663636E+03  0.29295441150E+03  0.10275264832E+04  0.46999998093E+01 0. -1.
       -5    1    3    3    0  502  0.97589641821E+03  0.13263663636E+03 -0.41633853975E+03  0.10692643107E+04  0.46999998093E+01 0.  1.
</event>
<event>
 5   0  0.2430898E-04  0.2112831E+04  0.7818609E-02  0.8555612E-01
        2   -1    0    0  501    0  0.00000000000E+00  0.00000000000E+00  0.16387895029E+04  0.16387895029E+04  0.25500000920E-02 0. -1.
       -2   -1    0    0    0  501  0.00000000000E+00  0.00000000000E+00 -0.68099865621E+03  0.68099865622E+03  0.25500000920E-02 0.  1.
    10030    2    1    2    0    0  0.00000000000E+00  0.00000000000E+00  0.95779084670E+03  0.23197881591E+04  0.21128307545E+04 0.  0.
        1    1    3    3  502    0 -0.71940815010E+03  0.22082593614E+03 -0.33514690379E+03  0.82379343749E+03  0.50400001928E-02 0.  1.
       -1    1    3    3    0  502  0.71940815010E+03 -0.22082593614E+03  0.12929377505E+04  0.14959947216E+04  0.50400001928E-02 0. -1.
</event>
<event>
 5   0  0.2512839E-04  0.2086603E+04  0.7818609E-02  0.8567168E-01
       -2   -1    0    0    0  501  0.00000000000E+00  0.00000000000E+00  0.96484389868E+03  0.96484389869E+03  0.25500000920E-02 0.  1.
        2   -1    0    0  501    0  0.00000000000E+00  0.00000000000E+00 -0.11281385192E+04  0.11281385192E+04  0.25500000920E-02 0. -1.
    10030    2    1    2    0    0  0.00000000000E+00  0.00000000000E+00 -0.16329462056E+03  0.20929824179E+04  0.20866025661E+04 0.  0.
        3    1    3    3  502    0  0.14818170020E+03 -0.78169240768E+03  0.59530634162E+03  0.99367524225E+03  0.10100000352E+00 0.  1.
       -3    1    3    3    0  502 -0.14818170020E+03  0.78169240768E+03 -0.75860096217E+03  0.10993071757E+04  0.10100000352E+00 0. -1.
</event>
<event>
 5   0  0.8698750E-05  0.2100152E+04  0.7818609E-02  0.8561176E-01
       -3   -1    0    0    0  501  0.00000000000E+00  0.00000000000E+00  0.52602351616E+03  0.52602352586E+03  0.10100000352E+00 0. -1.
        3   -1    0    0  501    0  0.00000000000E+00  0.00000000000E+00 -0.20962177986E+04  0.20962178010E+04  0.10100000352E+00 0.  1.
    10030    2    1    2    0    0  0.00000000000E+00  0.00000000000E+00 -0.15701942824E+04  0.26222413269E+04  0.21001522544E+04 0.  0.
        2    1    3    3  502    0  0.64555432759E+03 -0.71900822761E+03 -0.27188529628E+03  0.10038101591E+04  0.25500000920E-02 0. -1.
       -2    1    3    3    0  502 -0.64555432759E+03  0.71900822761E+03 -0.12983089861E+04  0.16184311677E+04  0.25500000920E-02 0.  1.
</event>
<event>
 5   0  0.1186038E-04  0.2098881E+04  0.7818609E-02  0.8561736E-01
       -1   -1    0    0    0  501  0.00000000000E+00  0.00000000000E+00  0.52664834125E+03  0.52664834127E+03  0.50400001928E-02 0.  1.
        1   -1    0    0  501    0  0.00000000000E+00  0.00000000000E+00 -0.20911975238E+04  0.20911975238E+04  0.50400001928E-02 0. -1.
    10030    2    1    2    0    0  0.00000000000E+00  0.00000000000E+00 -0.15645491825E+04  0.26178458651E+04  0.20988813279E+04 0.  0.
        4    1    3    3  502    0 -0.42053373119E+03  0.81213590261E+03 -0.14031753017E+03  0.92525886408E+03  0.12699999809E+01 0.  1.
       -4    1    3    3    0  502  0.42053373119E+03 -0.81213590261E+03 -0.14242316524E+04  0.16925870010E+04  0.12699999809E+01 0. -1.
</event>
<event>
 5   0  0.1156733E-04  0.2130853E+04  0.7818609E-02  0.8547773E-01
        1   -1    0    0  501    0  0.00000000000E+00  0.00000000000E+00  0.97235199874E+03  0.97235199876E+03  0.50400001928E-02 0.  1.
       -1   -1    0    0    0  501  0.00000000000E+00  0.00000000000E+00 -0.11674098533E+04  0.11674098533E+04  0.50400001928E-02 0. -1.
    10030    2    1    2    0    0  0.00000000000E+00  0.00000000000E+00 -0.19505785454E+03  0.21397618521E+04  0.21308526971E+04 0.  0.
        2    1    3    3  502    0 -0.70090896352E+03  0.67455950133E+03 -0.53389083128E+03  0.11096590989E+04  0.25500000920E-02 0. -1.
       -2    1    3    3    0  502  0.70090896352E+03 -0.67455950133E+03  0.33883297674E+03  0.10301027532E+04  0.25500000920E-02 0.  1.
</event>
<event>
 5   0  0.2467483E-04  0.2006995E+04  0.7818609E-02  0.8603357E-01
        2   -1    0    0  501    0  0.00000000000E+00  0.00000000000E+00  0.76192852672E+03  0.76192852673E+03  0.25500000920E-02 0. -1.
       -2   -1    0    0    0  501  0.00000000000E+00  0.00000000000E+00 -0.13216562532E+04  0.13216562532E+04  0.25500000920E-02 0.  1.
    10030    2    1    2    0    0  0.00000000000E+00  0.00000000000E+00 -0.55972772648E+03  0.20835847799E+04  0.20069953680E+04 0.  0.
        4    1    3    3  502    0  0.39325309872E+03  0.12909908224E+03  0.66918325953E+03  0.78684332647E+03  0.12699999809E+01 0. -1.
       -4    1    3    3    0  502 -0.39325309872E+03 -0.12909908224E+03 -0.12289109860E+04  0.12967414535E+04  0.12699999809E+01 0.  1.
</event>
<event>
 5   0  0.2430898E-04  0.2093172E+04  0.7818609E-02  0.8564257E-01
       -2   -1    0    0    0  501  0.00000000000E+00  0.00000000000E+00  0.15805543094E+04  0.15805543094E+04  0.25500000920E-02 0. -1.
        2   -1    0    0  501    0  0.00000000000E+00  0.00000000000E+00 -0.69301163924E+03  0.69301163924E+03  0.25500000920E-02 0.  1.
    10030    2    1    2    0    0  0.00000000000E+00  0.00000000000E+00  0.88754267019E+03  0.22735659487E+04  0.20931722651E+04 0.  0.
        1    1    3    3  502    0 -0.68941108741E+03 -0.78517699943E+03  0.37903666743E+03  0.11115121966E+04  0.50400001928E-02 0.  1.
       -1    1    3    3    0  502  0.68941108741E+03  0.78517699943E+03  0.50850600276E+03  0.11620537521E+04  0.50400001928E-02 0. -1.
</event>
<event>
 5   0  0.1122711E-04  0.2097824E+04  0.7818609E-02  0.8562202E-01
        1   -1    0    0  501    0  0.00000000000E+00  0.00000000000E+00  0.25626338664E+04  0.25626338664E+04  0.50400001928E-02 0.  1.
       -1   -1    0    0    0  501  0.00000000000E+00  0.00000000000E+00 -0.42933041348E+03  0.42933041351E+03  0.50400001928E-02 0. -1.
    10030    2    1    2    0    0  0.00000000000E+00  0.00000000000E+00  0.21333034530E+04  0.29919642800E+04  0.20978242610E+04 0.  0.
        1    1    3    3  502    0  0.19000763147E+03 -0.62659843287E+03  0.22353609750E+04  0.23292846938E+04  0.50400001928E-02 0.  1.
       -1    1    3    3    0  502 -0.19000763147E+03  0.62659843287E+03 -0.10205752204E+03  0.66267958617E+03  0.50400001928E-02 0. -1.
</event>
<event>
 5   0  0.2579241E-04  0.1696426E+04  0.7818609E-02  0.8763406E-01
       -2   -1    0    0    0  501  0.00000000000E+00  0.00000000000E+00  0.44542718936E+03  0.44542718936E+03  0.25500000920E-02 0.  1.
        2   -1    0    0  501    0  0.00000000000E+00  0.00000000000E+00 -0.16152248227E+04  0.16152248227E+04  0.25500000920E-02 0. -1.
    10030    2    1    2    0    0  0.00000000000E+00  0.00000000000E+00 -0.11697976334E+04  0.20606520121E+04  0.16964257166E+04 0.  0.
        5    1    3    3  502    0  0.29820472328E+02 -0.41937179905E+03 -0.14797320746E+04  0.15383078590E+04  0.46999998093E+01 0. -1.
       -5    1    3    3    0  502 -0.29820472328E+02  0.41937179905E+03  0.30993444124E+03  0.52234415310E+03  0.46999998093E+01 0.  1.
</event>
<event>
 5   0  0.1186038E-04  0.2083734E+04  0.7818609E-02  0.8568443E-01
       -1   -1    0    0    0  501  0.00000000000E+00  0.00000000000E+00  0.79210987167E+03  0.79210987168E+03  0.50400001928E-02 0.  1.
        1   -1    0    0  501    0  0.00000000000E+00  0.00000000000E+00 -0.13703742707E+04  0.13703742707E+04  0.50400001928E-02 0. -1.
    10030    2    1    2    0    0  0.00000000000E+00  0.00000000000E+00 -0.57826439901E+03  0.21624841424E+04  0.20837341363E+04 0.  0.
        4    1    3    3  502    0  0.74692458930E+03  0.55791577000E+03  0.19354633405E+03  0.95217022892E+03  0.12699999809E+01 0.  1.
       -4    1    3    3    0  502 -0.74692458930E+03 -0.55791577000E+03 -0.77181073307E+03  0.12103139135E+04  0.12699999809E+01 0. -1.
</event>
<event>
 5   0  0.1042395E-04  0.2071110E+04  0.7818609E-02  0.8574077E-01
        1   -1    0    0  501    0  0.00000000000E+00  0.00000000000E+00  0.12750157073E+04  0.12750157073E+04  0.50400001928E-02 0.  1.
       -1   -1    0    0    0  501  0.00000000000E+00  0.00000000000E+00 -0.84106760782E+03  0.84106760783E+03  0.50400001928E-02 0. -1.
    10030    2    1    2    0    0  0.00000000000E+00  0.00000000000E+00  0.43394809951E+03  0.21160833152E+04  0.20711102442E+04 0.  0.
        3    1    3    3  502    0  0.77709913660E+03 -0.65318580808E+03  0.79850256694E+01  0.10151839926E+04  0.10100000352E+00 0.  1.
       -3    1    3    3    0  502 -0.77709913660E+03  0.65318580808E+03  0.42596307384E+03  0.11008993226E+04  0.10100000352E+00 0. -1.
</event>
<event>
 5   0  0.1156733E-04  0.1914860E+04  0.7818609E-02  0.8647495E-01
       -1   -1    0    0    0  501  0.00000000000E+00  0.00000000000E+00  0.68288114703E+03  0.68288114705E+03  0.50400001928E-02 0. -1.
        1   -1    0    0  501    0  0.00000000000E+00  0.00000000000E+00 -0.13423592363E+04  0.13423592363E+04  0.50400001928E-02 0.  1.
    10030    2    1    2    0    0  0.00000000000E+00  0.00000000000E+00 -0.65947808922E+03  0.20252403833E+04  0.19148595928E+04 0.  0.
        2    1    3    3  502    0 -0.64223777869E+03 -0.68421956420E+03 -0.53054122098E+03  0.10780073115E+04  0.25500000920E-02 0.  1.
       -2    1    3    3    0  502  0.64223777869E+03  0.68421956420E+03 -0.12893686824E+03  0.94723307185E+03  0.25500000920E-02 0. -1.
</event>
<event>
 5   0  0.2467483E-04  0.2111547E+04  0.7818609E-02  0.8556174E-01
       -2   -1    0    0    0  501  0.00000000000E+00  0.00000000000E+00  0.63732364337E+03  0.63732364338E+03  0.25500000920E-02 0. -1.
        2   -1    0    0  501    0  0.00000000000E+00  0.00000000000E+00 -0.17489666830E+04  0.17489666830E+04  0.25500000920E-02 0.  1.
    10030    2    1    2    0    0  0.00000000000E+00  0.00000000000E+00 -0.11116430396E+04  0.23862903264E+04  0.21115471281E+04 0.  0.
        4    1    3    3  502    0 -0.97105744577E+02 -0.58169921124E+01 -0.17438901627E+04  0.17466018079E+04  0.12699999809E+01 0.  1.
       -4    1    3    3    0  502  0.97105744577E+02  0.58169921124E+01  0.63224712310E+03  0.63968851842E+03  0.12699999809E+01 0. -1.
</event>
<event>
 5   0  0.1122711E-04  0.2098719E+04  0.7818609E-02  0.8561808E-01
        1   -1    0    0  501    0  0.00000000000E+00  0.00000000000E+00  0.13507292751E+04  0.13507292751E+04  0.50400001928E-02 0.  1.
       -1   -1    0    0    0  501  0.00000000000E+00  0.00000000000E+00 -0.81522989436E+03  0.81522989438E+03  0.50400001928E-02 0. -1.
    10030    2    1    2    0    0  0.00000000000E+00  0.00000000000E+00  0.53549938078E+03  0.21659591695E+04  0.20987185465E+04 0.  0.
        1    1    3    3  502    0  0.33262003630E+03  0.48399620515E+03 -0.62974830607E+03  0.86108730345E+03  0.50400001928E-02 0. -1.
       -1    1    3    3    0  502 -0.33262003630E+03 -0.48399620515E+03  0.11652476868E+04  0.13048718661E+04  0.50400001928E-02 0.  1.
</event>
<event>
 5   0  0.1042395E-04  0.2128449E+04  0.7818609E-02  0.8548814E-01
        1   -1    0    0  501    0  0.00000000000E+00  0.00000000000E+00  0.72062384132E+03  0.72062384134E+03  0.50400001928E-02 0.  1.
       -1   -1    0    0    0  501  0.00000000000E+00  0.00000000000E+00 -0.15716570344E+04  0.15716570344E+04  0.50400001928E-02 0. -1.
    10030    2    1    2    0    0  0.00000000000E+00  0.00000000000E+00 -0.85103319310E+03  0.22922808758E+04  0.21284487585E+04 0.  0.
        3    1    3    3  502    0 -0.65584795099E+03  0.19153379818E+03 -0.13042574202E+04  0.14723821376E+04  0.10100000352E+00 0. -1.
       -3    1    3    3    0  502  0.65584795099E+03 -0.19153379818E+03  0.45322422710E+03  0.81989873820E+03  0.10100000352E+00 0.  1.
</event>
<event>
 5   0  0.2448804E-04  0.2097385E+04  0.7818609E-02  0.8562396E-01
       -2   -1    0    0    0  501  0.00000000000E+00  0.00000000000E+00  0.70550165926E+03  0.70550165926E+03  0.25500000920E-02 0. -1.
        2   -1    0    0  501    0  0.00000000000E+00  0.00000000000E+00 -0.15588283588E+04  0.15588283588E+04  0.25500000920E-02 0.  1.
    10030    2    1    2    0    0  0.00000000000E+00  0.00000000000E+00 -0.85332669957E+03  0.22643300181E+04  0.20973850325E+04 0.  0.
        2    1    3    3  502    0  0.69670400539E+03  0.38966484589E+03  0.30755833659E+03  0.85546904892E+03  0.25500000920E-02 0. -1.
       -2    1    3    3    0  502 -0.69670400539E+03 -0.38966484589E+03 -0.11608850362E+04  0.14088609692E+04  0.25500000920E-02 0.  1.
</event>
<event>
 5   0  0.2467483E-04  0.2106992E+04  0.7818609E-02  0.8558170E-01
       -2   -1    0    0    0  501  0.00000000000E+00  0.00000000000E+00  0.13655455634E+04  0.13655455634E+04  0.25500000920E-02 0. -1.
        2   -1    0    0  501    0  0.00000000000E+00  0.00000000000E+00 -0.81275458732E+03  0.81275458733E+03  0.25500000920E-02 0.  1.
    10030    2    1    2    0    0  0.00000000000E+00  0.00000000000E+00  0.55279097608E+03  0.21783001507E+04  0.21069916192E+04 0.  0.
        4    1    3    3  502    0 -0.59150534805E+03 -0.90807682827E+01 -0.62482384215E+03  0.86044609578E+03  0.12699999809E+01 0.  1.
       -4    1    3    3    0  502  0.59150534805E+03  0.90807682827E+01  0.11776148182E+04  0.13178540550E+04  0.12699999809E+01 0. -1.
</event>
<event>
 5   0  0.1130848E-04  0.1960933E+04  0.7818609E-02  0.8625107E-01
       -1   -1    0    0    0  501  0.00000000000E+00  0.00000000000E+00  0.13002123242E+04  0.13002123242E+04  0.50400001928E-02 0.  1.
        1   -1    0    0  501    0  0.00000000000E+00  0.00000000000E+00 -0.73935227339E+03  0.73935227341E+03  0.50400001928E-02 0. -1.
    10030    2    1    2    0    0  0.00000000000E+00  0.00000000000E+00  0.56086005078E+03  0.20395645976E+04  0.19609333878E+04 0.  0.
        5    1    3    3  502    0 -0.66597894920E+03 -0.71092787003E+03  0.39600017783E+03  0.10515629453E+04  0.46999998093E+01 0.  1.
       -5    1    3    3    0  502  0.66597894920E+03  0.71092787003E+03  0.16485987295E+03  0.98800165226E+03  0.46999998093E+01 0. -1.
</event>
<event>
 5   0  0.2467483E-04  0.2133131E+04  0.7818609E-02  0.8546788E-01
       -2   -1    0    0    0  501  0.00000000000E+00  0.00000000000E+00  0.50820690952E+03  0.50820690952E+03  0.25500000920E-02 0. -1.
        2   -1    0    0  501    0  0.00000000000E+00  0.00000000000E+00 -0.22383837708E+04  0.22383837708E+04  0.25500000920E-02 0.  1.
    10030    2    1    2    0    0  0.00000000000E+00  0.00000000000E+00 -0.17301768613E+04  0.27465906803E+04  0.21331311244E+04 0.  0.
        4    1    3    3  502    0 -0.87314376281E+02 -0.46112925868E+03 -0.20982820129E+04  0.21501286036E+04  0.12699999809E+01 0.  1.
       -4    1    3    3    0  502  0.87314376281E+02  0.46112925868E+03  0.36810515156E+03  0.59646207677E+03  0.12699999809E+01 0. -1.
</event>
<event>
 5   0  0.1156733E-04  0.1764449E+04  0.7818609E-02  0.8725437E-01
        1   -1    0    0  501    0  0.00000000000E+00  0.00000000000E+00  0.78575115374E+03  0.78575115376E+03  0.50400001928E-02 0. -1.
       -1   -1    0    0    0  501  0.00000000000E+00  0.00000000000E+00 -0.99054317720E+03  0.99054317721E+03  0.50400001928E-02 0.  1.
    10030    2    1    2    0    0  0.00000000000E+00  0.00000000000E+00 -0.20479202346E+03  0.17762943310E+04  0.17644494261E+04 0.  0.
        2    1    3    3  502    0  0.16896469894E+03  0.34140448479E+03  0.69869358159E+03  0.79578817074E+03  0.25500000920E-02 0. -1.
       -2    1    3    3    0  502 -0.16896469894E+03 -0.34140448479E+03 -0.90348560505E+03  0.98050616023E+03  0.25500000920E-02 0.  1.
</event>
<event>
 5   0  0.2579241E-04  0.1668882E+04  0.7818609E-02  0.8779314E-01
       -2   -1    0    0    0  501  0.00000000000E+00  0.00000000000E+00  0.30679731377E+03  0.30679731378E+03  0.25500000920E-02 0. -1.
        2   -1    0    0  501    0  0.00000000000E+00  0.00000000000E+00 -0.22695504433E+04  0.22695504433E+04  0.25500000920E-02 0.  1.
    10030    2    1    2    0    0  0.00000000000E+00  0.00000000000E+00 -0.19627531295E+04  0.25763477571E+04  0.16688822361E+04 0.  0.
        5    1    3    3  502    0  0.21547899121E+02 -0.34901015830E+03  0.18821381524E+03  0.39713843028E+03  0.46999998093E+01 0. -1.
       -5    1    3    3    0  502 -0.21547899121E+02  0.34901015830E+03 -0.21509669448E+04  0.21792093268E+04  0.46999998093E+01 0.  1.
</event>
<event>
 5   0  0.1186038E-04  0.2110489E+04  0.7818609E-02  0.8556637E-01
       -1   -1    0    0    0  501  0.00000000000E+00  0.00000000000E+00  0.98011605606E+03  0.98011605607E+03  0.50400001928E-02 0. -1.
        1   -1    0    0  501    0  0.00000000000E+00  0.00000000000E+00 -0.11361317120E+04  0.11361317120E+04  0.50400001928E-02 0.  1.
    10030    2    1    2    0    0  0.00000000000E+00  0.00000000000E+00 -0.15601565594E+03  0.21162477681E+04  0.21104889791E+04 0.  0.
        4    1    3    3  502    0  0.12678113715E+03 -0.44317564283E+03  0.87382476534E+03  0.98795214487E+03  0.12699999809E+01 0. -1.
       -4    1    3    3    0  502 -0.12678113715E+03  0.44317564283E+03 -0.10298404213E+04  0.11282956232E+04  0.12699999809E+01 0.  1.
</event>
<event>
 5   0  0.2512839E-04  0.2148388E+04  0.7818609E-02  0.8540223E-01
       -2   -1    0    0    0  501  0.00000000000E+00  0.00000000000E+00  0.92390373657E+03  0.92390373657E+03  0.25500000920E-02 0. -1.
        2   -1    0    0  501    0  0.00000000000E+00  0.00000000000E+00 -0.12489319915E+04  0.12489319915E+04  0.25500000920E-02 0.  1.
    10030    2    1    2    0    0  0.00000000000E+00  0.00000000000E+00 -0.32502825489E+03  0.21728357280E+04  0.21483881713E+04 0.  0.
        3    1    3    3  502    0  0.22291027622E+03  0.91143094594E+03  0.36640694721E+03  0.10072980798E+04  0.10100000352E+00 0. -1.
       -3    1    3    3    0  502 -0.22291027622E+03 -0.91143094594E+03 -0.69143520210E+03  0.11655376482E+04  0.10100000352E+00 0.  1.
</event>
<event>
 5   0  0.1156733E-04  0.2226551E+04  0.7818609E-02  0.8507457E-01
       -1   -1    0    0    0  501  0.00000000000E+00  0.00000000000E+00  0.13105751454E+04  0.13105751454E+04  0.50400001928E-02 0.  1.
        1   -1    0    0  501    0  0.00000000000E+00  0.00000000000E+00 -0.94567856919E+03  0.94567856920E+03  0.50400001928E-02 0. -1.
    10030    2    1    2    0    0  0.00000000000E+00  0.00000000000E+00  0.36489657618E+03  0.22562537146E+04  0.22265514396E+04 0.  0.
        2    1    3    3  502    0  0.27283889186E+03 -0.10733570480E+04  0.67594274827E+02  0.11095518912E+04  0.25500000920E-02 0. -1.
       -2    1    3    3    0  502 -0.27283889186E+03  0.10733570480E+04  0.29730230135E+03  0.11467018234E+04  0.25500000920E-02 0.  1.
</event>
<event>
 5   0  0.2448804E-04  0.2101041E+04  0.7818609E-02  0.8560785E-01
        2   -1    0    0  501    0  0.00000000000E+00  0.00000000000E+00  0.13104750184E+04  0.13104750184E+04  0.25500000920E-02 0.  1.
       -2   -1    0    0    0  501  0.00000000000E+00  0.00000000000E+00 -0.84213194653E+03  0.84213194654E+03  0.25500000920E-02 0. -1.
    10030    2    1    2    0    0  0.00000000000E+00  0.00000000000E+00  0.46834307187E+03  0.21526069649E+04  0.21010405785E+04 0.  0.
        2    1    3    3  502    0  0.10427293211E+04  0.11265903967E+03  0.29578383934E+03  0.10897084820E+04  0.25500000920E-02 0.  1.
       -2    1    3    3    0  502 -0.10427293211E+04 -0.11265903967E+03  0.17255923253E+03  0.10628984829E+04  0.25500000920E-02 0. -1.
</event>
<event>
 5   0  0.8698750E-05  0.2074150E+04  0.7818609E-02  0.8572717E-01
       -3   -1    0    0    0  501  0.00000000000E+00  0.00000000000E+00  0.99414784921E+03  0.99414785434E+03  0.10100000352E+00 0. -1.
        3   -1    0    0  501    0  0.00000000000E+00  0.00000000000E+00 -0.10818561839E+04  0.10818561886E+04  0.10100000352E+00 0.  1.
    10030    2    1    2    0    0  0.00000000000E+00  0.00000000000E+00 -0.87708334651E+02  0.20760040429E+04  0.20741504367E+04 0.  0.
        1    1    3    3  502    0 -0.62065301422E+03 -0.82982697426E+03 -0.85146790731E+02  0.10397465784E+04  0.50400001928E-02 0. -1.
       -1    1    3    3    0  502  0.62065301422E+03  0.82982697426E+03 -0.25615439200E+01  0.10362574645E+04  0.50400001928E-02 0.  1.
</event>
<event>
 5   0  0.2467483E-04  0.2073126E+04  0.7818609E-02  0.8573175E-01
       -2   -1    0    0    0  501  0.00000000000E+00  0.00000000000E+00  0.12326369444E+04  0.12326369444E+04  0.25500000920E-02 0.  1.
        2   -1    0    0  501    0  0.00000000000E+00  0.00000000000E+00 -0.87167818551E+03  0.87167818551E+03  0.25500000920E-02 0. -1.
    10030    2    1    2    0    0  0.00000000000E+00  0.00000000000E+00  0.36095875885E+03  0.21043151299E+04  0.20731258862E+04 0.  0.
        4    1    3    3  502    0  0.30835785116E+03 -0.34274893472E+03 -0.76187331017E+03  0.89051330719E+03  0.12699999809E+01 0. -1.
       -4    1    3    3    0  502 -0.30835785116E+03  0.34274893472E+03  0.11228320690E+04  0.12138018227E+04  0.12699999809E+01 0.  1.
</event>
<event>
 5   0  0.2579241E-04  0.1441462E+04  0.7818609E-02  0.8924341E-01
       -2   -1    0    0    0  501  0.00000000000E+00  0.00000000000E+00  0.65011334902E+03  0.65011334902E+03  0.25500000920E-02 0.  1.
        2   -1    0    0  501    0  0.00000000000E+00  0.00000000000E+00 -0.79901935447E+03  0.79901935447E+03  0.25500000920E-02 0. -1.
    10030    2    1    2    0    0  0.00000000000E+00  0.00000000000E+00 -0.14890600545E+03  0.14491327035E+04  0.14414619641E+04 0.  0.
        5    1    3    3  502    0 -0.46386677942E+02 -0.34916099064E+03  0.55767436794E+03  0.65961194041E+03  0.46999998093E+01 0.  1.
       -5    1    3    3    0  502  0.46386677942E+02  0.34916099064E+03 -0.70658037339E+03  0.78952076308E+03  0.46999998093E+01 0. -1.
</event>
<event>
 5   0  0.1122711E-04  0.1952482E+04  0.7818609E-02  0.8629165E-01
        1   -1    0    0  501    0  0.00000000000E+00  0.00000000000E+00  0.92342766690E+03  0.92342766691E+03  0.50400001928E-02 0.  1.
       -1   -1    0    0    0  501  0.00000000000E+00  0.00000000000E+00 -0.10320744307E+04  0.10320744307E+04  0.50400001928E-02 0. -1.
    10030    2    1    2    0    0  0.00000000000E+00  0.00000000000E+00 -0.10864676378E+03  0.19555020976E+04  0.19524815836E+04 0.  0.
        1    1    3    3  502    0  0.73689075982E+03 -0.43914777340E+03  0.41243118713E+03  0.95181838758E+03  0.50400001928E-02 0.  1.
       -1    1    3    3    0  502 -0.73689075982E+03  0.43914777340E+03 -0.52107795091E+03  0.10036837100E+04  0.50400001928E-02 0. -1.
</event>
<event>
 5   0  0.1156733E-04  0.1211015E+04  0.7818609E-02  0.9103269E-01
       -1   -1    0    0    0  501  0.00000000000E+00  0.00000000000E+00  0.55064846856E+03  0.55064846858E+03  0.50400001928E-02 0.  1.
        1   -1    0    0  501    0  0.00000000000E+00  0.00000000000E+00 -0.66583194368E+03  0.66583194370E+03  0.50400001928E-02 0. -1.
    10030    2    1    2    0    0  0.00000000000E+00  0.00000000000E+00 -0.11518347512E+03  0.12164804123E+04  0.12110150125E+04 0.  0.
        2    1    3    3  502    0  0.40300013832E+03  0.41482993200E+03  0.12251147908E+03  0.59118698098E+03  0.25500000920E-02 0.  1.
       -2    1    3    3    0  502 -0.40300013832E+03 -0.41482993200E+03 -0.23769495420E+03  0.62529343130E+03  0.25500000920E-02 0. -1.
</event>
<event>
 5   0  0.2579241E-04  0.2208991E+04  0.7818609E-02  0.8514695E-01
        2   -1    0    0  501    0  0.00000000000E+00  0.00000000000E+00  0.15884837473E+04  0.15884837473E+04  0.25500000920E-02 0. -1.
       -2   -1    0    0    0  501  0.00000000000E+00  0.00000000000E+00 -0.76797141684E+03  0.76797141684E+03  0.25500000920E-02 0.  1.
    10030    2    1    2    0    0  0.00000000000E+00  0.00000000000E+00  0.82051233050E+03  0.23564551642E+04  0.22089908230E+04 0.  0.
        5    1    3    3  502    0 -0.50240349249E+02 -0.99819881986E+02 -0.76191447998E+03  0.77008042849E+03  0.46999998093E+01 0.  1.
       -5    1    3    3    0  502  0.50240349249E+02  0.99819881986E+02  0.15824268105E+04  0.15863747357E+04  0.46999998093E+01 0. -1.
</event>
<event>
 5   0  0.1042395E-04  0.1992911E+04  0.7818609E-02  0.8609942E-01
        1   -1    0    0  501    0  0.00000000000E+00  0.00000000000E+00  0.74636477408E+03  0.74636477409E+03  0.50400001928E-02 0. -1.
       -1   -1    0    0    0  501  0.00000000000E+00  0.00000000000E+00 -0.13303456737E+04  0.13303456737E+04  0.50400001928E-02 0.  1.
    10030    2    1    2    0    0  0.00000000000E+00  0.00000000000E+00 -0.58398089965E+03  0.20767104478E+04  0.19929105833E+04 0.  0.
        3    1    3    3  502    0  0.14020614797E+03 -0.97629219168E+03 -0.43979594486E+03  0.10799188353E+04  0.10100000352E+00 0.  1.
       -3    1    3    3    0  502 -0.14020614797E+03  0.97629219168E+03 -0.14418495480E+03  0.99679161255E+03  0.10100000352E+00 0. -1.
</event>
<event>
 5   0  0.2430898E-04  0.2117246E+04  0.7818609E-02  0.8553684E-01
        2   -1    0    0  501    0  0.00000000000E+00  0.00000000000E+00  0.27547574818E+04  0.27547574818E+04  0.25500000920E-02 0. -1.
       -2   -1    0    0    0  501  0.00000000000E+00  0.00000000000E+00 -0.40681700246E+03  0.40681700247E+03  0.25500000920E-02 0.  1.
    10030    2    1    2    0    0  0.00000000000E+00  0.00000000000E+00  0.23479404793E+04  0.31615744842E+04  0.21172455514E+04 0.  0.
        1    1    3    3  502    0 -0.11356912082E+03 -0.22959093343E+03  0.27077863215E+04  0.27198743913E+04  0.50400001928E-02 0. -1.
       -1    1    3    3    0  502  0.11356912082E+03  0.22959093343E+03 -0.35984584217E+03  0.44170009290E+03  0.50400001928E-02 0.  1.
</event>
<event>
 5   0  0.1122711E-04  0.1127455E+04  0.7818609E-02  0.9178838E-01
        1   -1    0    0  501    0  0.00000000000E+00  0.00000000000E+00  0.55556622674E+03  0.55556622676E+03  0.50400001928E-02 0. -1.
       -1   -1    0    0    0  501  0.00000000000E+00  0.00000000000E+00 -0.57200903257E+03  0.57200903260E+03  0.50400001928E-02 0.  1.
    10030    2    1    2    0    0  0.00000000000E+00  0.00000000000E+00 -0.16442805832E+02  0.11275752594E+04  0.11274553648E+04 0.  0.
        1    1    3    3  502    0 -0.16017357456E+03  0.48424659494E+03 -0.24832725562E+03  0.56728896042E+03  0.50400001928E-02 0.  1.
       -1    1    3    3    0  502  0.16017357456E+03 -0.48424659494E+03  0.23188444979E+03  0.56028629894E+03  0.50400001928E-02 0. -1.
</event>
<event>
 5   0  0.2430898E-04  0.2095861E+04  0.7818609E-02  0.8563069E-01
        2   -1    0    0  501    0  0.00000000000E+00  0.00000000000E+00  0.21612872214E+04  0.21612872214E+04  0.25500000920E-02 0.  1.
       -2   -1    0    0    0  501  0.00000000000E+00  0.00000000000E+00 -0.50810363812E+03  0.50810363813E+03  0.25500000920E-02 0. -1.
    10030    2    1    2    0    0  0.00000000000E+00  0.00000000000E+00  0.16531835833E+04  0.26693908595E+04  0.20958605872E+04 0.  0.
        1    1    3    3  502    0  0.69169057431E+03 -0.69239623956E+03  0.34950948299E+03  0.10392330258E+04  0.50400001928E-02 0. -1.
       -1    1    3    3    0  502 -0.69169057431E+03  0.69239623956E+03  0.13036741003E+04  0.16301578337E+04  0.50400001928E-02 0.  1.
</event>
<event>
 5   0  0.2430898E-04  0.1977097E+04  0.7818609E-02  0.8617404E-01
       -2   -1    0    0    0  501  0.00000000000E+00  0.00000000000E+00  0.74985822975E+03  0.74985822976E+03  0.25500000920E-02 0. -1.
        2   -1    0    0  501    0  0.00000000000E+00  0.00000000000E+00 -0.13032169241E+04  0.13032169241E+04  0.25500000920E-02 0.  1.
    10030    2    1    2    0    0  0.00000000000E+00  0.00000000000E+00 -0.55335869435E+03  0.20530751539E+04  0.19770967965E+04 0.  0.
        1    1    3    3  502    0 -0.88530694310E+03 -0.14121001741E+03 -0.70924376017E+03  0.11431252617E+04  0.50400001928E-02 0.  1.
       -1    1    3    3    0  502  0.88530694310E+03  0.14121001741E+03  0.15588506583E+03  0.90994989218E+03  0.50400001928E-02 0. -1.
</event>
<event>
 5   0  0.2579241E-04  0.2084506E+04  0.7818609E-02  0.8568100E-01
       -2   -1    0    0    0  501  0.00000000000E+00  0.00000000000E+00  0.91632274678E+03  0.91632274678E+03  0.25500000920E-02 0. -1.
        2   -1    0    0  501    0  0.00000000000E+00  0.00000000000E+00 -0.11854895065E+04  0.11854895065E+04  0.25500000920E-02 0.  1.
    10030    2    1    2    0    0  0.00000000000E+00  0.00000000000E+00 -0.26916675970E+03  0.21018122533E+04  0.20845056976E+04 0.  0.
        5    1    3    3  502    0  0.18987783819E+03  0.34918226823E+03  0.83689240901E+03  0.92649492396E+03  0.46999998093E+01 0. -1.
       -5    1    3    3    0  502 -0.18987783819E+03 -0.34918226823E+03 -0.11060591687E+04  0.11753173293E+04  0.46999998093E+01 0.  1.
</event>
<event>
 5   0  0.2512839E-04  0.2172719E+04  0.7818609E-02  0.8529869E-01
        2   -1    0    0  501    0  0.00000000000E+00  0.00000000000E+00  0.67998546844E+03  0.67998546845E+03  0.25500000920E-02 0. -1.
       -2   -1    0    0    0  501  0.00000000000E+00  0.00000000000E+00 -0.17355921777E+04  0.17355921777E+04  0.25500000920E-02 0.  1.
    10030    2    1    2    0    0  0.00000000000E+00  0.00000000000E+00 -0.10556067092E+04  0.24155776461E+04  0.21727194572E+04 0.  0.
        3    1    3    3  502    0  0.13986027951E+03 -0.10689093122E+04 -0.37843825070E+03  0.11425163173E+04  0.10100000352E+00 0.  1.
       -3    1    3    3    0  502 -0.13986027951E+03  0.10689093122E+04 -0.67716845852E+03  0.12730613288E+04  0.10100000352E+00 0. -1.
</event>
<event>
 5   0  0.1186038E-04  0.2108576E+04  0.7818609E-02  0.8557475E-01
        1   -1    0    0  501    0  0.00000000000E+00  0.00000000000E+00  0.10302641220E+04  0.10302641220E+04  0.50400001928E-02 0. -1.
       -1   -1    0    0    0  501  0.00000000000E+00  0.00000000000E+00 -0.10788718560E+04  0.10788718560E+04  0.50400001928E-02 0.  1.
    10030    2    1    2    0    0  0.00000000000E+00  0.00000000000E+00 -0.48607734053E+02  0.21091359780E+04  0.21085757899E+04 0.  0.
        4    1    3    3  502    0  0.74691582767E+03  0.56764912472E+03 -0.50548527341E+03  0.10656574295E+04  0.12699999809E+01 0.  1.
       -4    1    3    3    0  502 -0.74691582767E+03 -0.56764912472E+03  0.45687753935E+03  0.10434785486E+04  0.12699999809E+01 0. -1.
</event>
<event>
 5   0  0.1042395E-04  0.2047644E+04  0.7818609E-02  0.8584664E-01
       -1   -1    0    0    0  501  0.00000000000E+00  0.00000000000E+00  0.80450982906E+03  0.80450982907E+03  0.50400001928E-02 0. -1.
        1   -1    0    0  501    0  0.00000000000E+00  0.00000000000E+00 -0.13029193784E+04  0.13029193784E+04  0.50400001928E-02 0.  1.
    10030    2    1    2    0    0  0.00000000000E+00  0.00000000000E+00 -0.49840954931E+03  0.21074292075E+04  0.20476439597E+04 0.  0.
        3    1    3    3  502    0 -0.31342001851E+03  0.65245631848E+03  0.49600789339E+03  0.87747090894E+03  0.10100000352E+00 0. -1.
       -3    1    3    3    0  502  0.31342001851E+03 -0.65245631848E+03 -0.99441744270E+03  0.12299582985E+04  0.10100000352E+00 0.  1.
</event>
<event>
 5   0  0.8698750E-05  0.2173883E+04  0.7818609E-02  0.8529378E-01
       -3   -1    0    0    0  501  0.00000000000E+00  0.00000000000E+00  0.10058973801E+04  0.10058973851E+04  0.10100000352E+00 0.  1.
        3   -1    0    0  501    0  0.00000000000E+00  0.00000000000E+00 -0.11745147863E+04  0.11745147907E+04  0.10100000352E+00 0. -1.
    10030    2    1    2    0    0  0.00000000000E+00  0.00000000000E+00 -0.16861740629E+03  0.21804121758E+04  0.21738825697E+04 0.  0.
        3    1    3    3  502    0 -0.55814911444E+03 -0.29972695621E+03 -0.97017994754E+03  0.11587130029E+04  0.10100000352E+00 0. -1.
       -3    1    3    3    0  502  0.55814911444E+03  0.29972695621E+03  0.80156254125E+03  0.10216991729E+04  0.10100000352E+00 0.  1.
</event>
<event>
 5   0  0.1156733E-04  0.1679945E+04  0.7818609E-02  0.8772886E-01
        1   -1    0    0  501    0  0.00000000000E+00  0.00000000000E+00  0.10069049871E+04  0.10069049872E+04  0.50400001928E-02 0. -1.
       -1   -1    0    0    0  501  0.00000000000E+00  0.00000000000E+00 -0.70071522964E+03  0.70071522966E+03  0.50400001928E-02 0.  1.
    10030    2    1    2    0    0  0.00000000000E+00  0.00000000000E+00  0.30618975750E+03  0.17076202168E+04  0.16799448316E+04 0.  0.
        2    1    3    3  502    0  0.12475997594E+03  0.61713043526E+03  0.71825682152E+03  0.95514809709E+03  0.25500000920E-02 0. -1.
       -2    1    3    3    0  502 -0.12475997594E+03 -0.61713043526E+03 -0.41206706401E+03  0.75247211973E+03  0.25500000920E-02 0.  1.
</event>
<event>
 5   0  0.1122711E-04  0.2082951E+04  0.7818609E-02  0.8568791E-01
       -1   -1    0    0    0  501  0.00000000000E+00  0.00000000000E+00  0.59779245124E+03  0.59779245126E+03  0.50400001928E-02 0.  1.
        1   -1    0    0  501    0  0.00000000000E+00  0.00000000000E+00 -0.18144608980E+04  0.18144608980E+04  0.50400001928E-02 0. -1.
    10030    2    1    2    0    0  0.00000000000E+00  0.00000000000E+00 -0.12166684467E+04  0.24122533493E+04  0.20829508184E+04 0.  0.
        1    1    3    3  502    0  0.44979361945E+03 -0.74834057287E+03 -0.12658453423E+04  0.15377556190E+04  0.50400001928E-02 0.  1.
       -1    1    3    3    0  502 -0.44979361945E+03  0.74834057287E+03  0.49176895578E+02  0.87449773024E+03  0.50400001928E-02 0. -1.
</event>
<event>
 5   0  0.2430898E-04  0.1911878E+04  0.7818609E-02  0.8648966E-01
       -2   -1    0    0    0  501  0.00000000000E+00  0.00000000000E+00  0.99764603833E+03  0.99764603833E+03  0.25500000920E-02 0. -1.
        2   -1    0    0  501    0  0.00000000000E+00  0.00000000000E+00 -0.91597586730E+03  0.91597586731E+03  0.25500000920E-02 0.  1.
    10030    2    1    2    0    0  0.00000000000E+00  0.00000000000E+00  0.81670171027E+02  0.19136219056E+04  0.19118783384E+04 0.  0.
        1    1    3    3  502    0  0.24415247263E+02 -0.34964547084E+02 -0.91502330201E+03  0.91601652119E+03  0.50400001928E-02 0.  1.
       -1    1    3    3    0  502 -0.24415247263E+02  0.34964547084E+02  0.99669347304E+03  0.99760538445E+03  0.50400001928E-02 0. -1.
</event>
<event>
 5   0  0.1042395E-04  0.2086104E+04  0.7818609E-02  0.8567390E-01
        1   -1    0    0  501    0  0.00000000000E+00  0.00000000000E+00  0.10918133930E+04  0.10918133931E+04  0.50400001928E-02 0.  1.
       -1   -1    0    0    0  501  0.00000000000E+00  0.00000000000E+00 -0.99646824469E+03  0.99646824470E+03  0.50400001928E-02 0. -1.
    10030    2    1    2    0    0  0.00000000000E+00  0.00000000000E+00  0.95345148349E+02  0.20882816378E+04  0.20861039047E+04 0.  0.
        3    1    3    3  502    0  0.61863295568E+03 -0.32130588144E+03  0.82437762073E+03  0.10796030173E+04  0.10100000352E+00 0.  1.
       -3    1    3    3    0  502 -0.61863295568E+03  0.32130588144E+03 -0.72903247238E+03  0.10086786204E+04  0.10100000352E+00 0. -1.
</event>
<event>
 5   0  0.2448804E-04  0.1617720E+04  0.7818609E-02  0.8809735E-01
        2   -1    0    0  501    0  0.00000000000E+00  0.00000000000E+00  0.11292386658E+04  0.11292386658E+04  0.25500000920E-02 0. -1.
       -2   -1    0    0    0  501  0.00000000000E+00  0.00000000000E+00 -0.57937665346E+03  0.57937665347E+03  0.25500000920E-02 0.  1.
    10030    2    1    2    0    0  0.00000000000E+00  0.00000000000E+00  0.54986201232E+03  0.17086153193E+04  0.16177200242E+04 0.  0.
        2    1    3    3  502    0 -0.23777697173E+03 -0.58421920305E+03 -0.25988426735E+03  0.68219483868E+03  0.25500000920E-02 0.  1.
       -2    1    3    3    0  502  0.23777697173E+03  0.58421920305E+03  0.80974627967E+03  0.10264204806E+04  0.25500000920E-02 0. -1.
</event>
<event>
 5   0  0.1130848E-04  0.2100636E+04  0.7818609E-02  0.8560963E-01
        1   -1    0    0  501    0  0.00000000000E+00  0.00000000000E+00  0.11126937016E+04  0.11126937016E+04  0.50400001928E-02 0.  1.
       -1   -1    0    0    0  501  0.00000000000E+00  0.00000000000E+00 -0.99143937804E+03  0.99143937805E+03  0.50400001928E-02 0. -1.
    10030    2    1    2    0    0  0.00000000000E+00  0.00000000000E+00  0.12125432353E+03  0.21041330796E+04  0.21006364288E+04 0.  0.
        5    1    3    3  502    0 -0.81163705951E+03  0.62568504578E+03 -0.16977695913E+03  0.10387891021E+04  0.46999998093E+01 0. -1.
       -5    1    3    3    0  502  0.81163705951E+03 -0.62568504578E+03  0.29103128266E+03  0.10653439775E+04  0.46999998093E+01 0.  1.
</event>
<event>
 5   0  0.2467483E-04  0.2023770E+04  0.7818609E-02  0.8595587E-01
       -2   -1    0    0    0  501  0.00000000000E+00  0.00000000000E+00  0.77949297038E+03  0.77949297038E+03  0.25500000920E-02 0.  1.
        2   -1    0    0  501    0  0.00000000000E+00  0.00000000000E+00 -0.13135610329E+04  0.13135610329E+04  0.25500000920E-02 0. -1.
    10030    2    1    2    0    0  0.00000000000E+00  0.00000000000E+00 -0.53406806249E+03  0.20930540033E+04  0.20237703341E+04 0.  0.
        4    1    3    3  502    0  0.21552371659E+03  0.27530360463E+03 -0.12491039302E+04  0.12971140230E+04  0.12699999809E+01 0. -1.
       -4    1    3    3    0  502 -0.21552371659E+03 -0.27530360463E+03  0.71503586776E+03  0.79593998028E+03  0.12699999809E+01 0.  1.
</event>
<event>
 5   0  0.2430898E-04  0.2185134E+04  0.7818609E-02  0.8524641E-01
        2   -1    0    0  501    0  0.00000000000E+00  0.00000000000E+00  0.16053477721E+04  0.16053477721E+04  0.25500000920E-02 0. -1.
       -2   -1    0    0    0  501  0.00000000000E+00  0.00000000000E+00 -0.74357908458E+03  0.74357908459E+03  0.25500000920E-02 0.  1.
    10030    2    1    2    0    0  0.00000000000E+00  0.00000000000E+00  0.86176868756E+03  0.23489268567E+04  0.21851343454E+04 0.  0.
        1    1    3    3  502    0 -0.94084832619E+03  0.51801878502E+03  0.64631613275E+03  0.12535005297E+04  0.50400001928E-02 0.  1.
       -1    1    3    3    0  502  0.94084832619E+03 -0.51801878502E+03  0.21545255481E+03  0.10954263270E+04  0.50400001928E-02 0. -1.
</event>
<event>
 5   0  0.2430898E-04  0.2255627E+04  0.7818609E-02  0.8495625E-01
        2   -1    0    0  501    0  0.00000000000E+00  0.00000000000E+00  0.17541198489E+04  0.17541198489E+04  0.25500000920E-02 0.  1.
       -2   -1    0    0    0  501  0.00000000000E+00  0.00000000000E+00 -0.72512899058E+03  0.72512899058E+03  0.25500000920E-02 0. -1.
    10030    2    1    2    0    0  0.00000000000E+00  0.00000000000E+00  0.10289908584E+04  0.24792488395E+04  0.22556268800E+04 0.  0.
        1    1    3    3  502    0  0.39301511626E+03 -0.10169255975E+04  0.83184922733E+03  0.13713393779E+04  0.50400001928E-02 0. -1.
       -1    1    3    3    0  502 -0.39301511626E+03  0.10169255975E+04  0.19714163103E+03  0.11079094616E+04  0.50400001928E-02 0.  1.
</event>
<event>
 5   0  0.1186038E-04  0.2080495E+04  0.7818609E-02  0.8569884E-01
        1   -1    0    0  501    0  0.00000000000E+00  0.00000000000E+00  0.14690593347E+04  0.14690593347E+04  0.50400001928E-02 0.  1.
       -1   -1    0    0    0  501  0.00000000000E+00  0.00000000000E+00 -0.73660391816E+03  0.73660391818E+03  0.50400001928E-02 0. -1.
    10030    2    1    2    0    0  0.00000000000E+00  0.00000000000E+00  0.73245541653E+03  0.22056632529E+04  0.20804950007E+04 0.  0.
        4    1    3    3  502    0 -0.81336630289E+03 -0.58877532831E+03  0.65441285431E+03  0.11985319882E+04  0.12699999809E+01 0.  1.
       -4    1    3    3    0  502  0.81336630289E+03  0.58877532831E+03  0.78042562215E+02  0.10071312647E+04  0.12699999809E+01 0. -1.
</event>
<event>
 5   0  0.2467483E-04  0.2153711E+04  0.7818609E-02  0.8537945E-01
       -2   -1    0    0    0  501  0.00000000000E+00  0.00000000000E+00  0.55384172418E+03  0.55384172418E+03  0.25500000920E-02 0. -1.
        2   -1    0    0  501    0  0.00000000000E+00  0.00000000000E+00 -0.20937710009E+04  0.20937710009E+04  0.25500000920E-02 0.  1.
    10030    2    1    2    0    0  0.00000000000E+00  0.00000000000E+00 -0.15399292767E+04  0.26476127251E+04  0.21537109752E+04 0.  0.
        4    1    3    3  502    0  0.13315812467E+03  0.29409967194E+03 -0.20328781608E+04  0.20583539377E+04  0.12699999809E+01 0.  1.
       -4    1    3    3    0  502 -0.13315812467E+03 -0.29409967194E+03  0.49294888414E+03  0.58925878735E+03  0.12699999809E+01 0. -1.
</event>
<event>
 5   0  0.2467483E-04  0.2086720E+04  0.7818609E-02  0.8567116E-01
       -2   -1    0    0    0  501  0.00000000000E+00  0.00000000000E+00  0.17891084155E+04  0.17891084155E+04  0.25500000920E-02 0. -1.
        2   -1    0    0  501    0  0.00000000000E+00  0.00000000000E+00 -0.60845962546E+03  0.60845962547E+03  0.25500000920E-02 0.  1.
    10030    2    1    2    0    0  0.00000000000E+00  0.00000000000E+00  0.11806487900E+04  0.23975680409E+04  0.20867201407E+04 0.  0.
        4    1    3    3  502    0  0.19925377335E+03 -0.23212220239E+03 -0.55577354112E+03  0.63440414953E+03  0.12699999809E+01 0.  1.
       -4    1    3    3    0  502 -0.19925377335E+03  0.23212220239E+03  0.17364223311E+04  0.17631638914E+04  0.12699999809E+01 0. -1.
</event>
<event>
 5   0  0.1156733E-04  0.2003099E+04  0.7818609E-02  0.8605173E-01
        1   -1    0    0  501    0  0.00000000000E+00  0.00000000000E+00  0.93282932219E+03  0.93282932220E+03  0.50400001928E-02 0. -1.
       -1   -1    0    0    0  501  0.00000000000E+00  0.00000000000E+00 -0.10753319839E+04  0.10753319839E+04  0.50400001928E-02 0.  1.
    10030    2    1    2    0    0  0.00000000000E+00  0.00000000000E+00 -0.14250266168E+03  0.20081613061E+04  0.20030988050E+04 0.  0.
        2    1    3    3  502    0  0.81671799555E+02  0.20848892242E+03 -0.10499168985E+04  0.10735284847E+04  0.25500000920E-02 0.  1.
       -2    1    3    3    0  502 -0.81671799555E+02 -0.20848892242E+03  0.90741423684E+03  0.93463282140E+03  0.25500000920E-02 0. -1.
</event>
<event>
 5   0  0.2430898E-04  0.2117359E+04  0.7818609E-02  0.8553635E-01
       -2   -1    0    0    0  501  0.00000000000E+00  0.00000000000E+00  0.48059647058E+03  0.48059647059E+03  0.25500000920E-02 0.  1.
        2   -1    0    0  501    0  0.00000000000E+00  0.00000000000E+00 -0.23321073476E+04  0.23321073476E+04  0.25500000920E-02 0. -1.
    10030    2    1    2    0    0  0.00000000000E+00  0.00000000000E+00 -0.18515108770E+04  0.28127038182E+04  0.21173592612E+04 0.  0.
        1    1    3    3  502    0  0.72989553968E+03  0.75649556583E+03 -0.75893905914E+03  0.12965421457E+04  0.50400001928E-02 0.  1.
       -1    1    3    3    0  502 -0.72989553968E+03 -0.75649556583E+03 -0.10925718178E+04  0.15161616725E+04  0.50400001928E-02 0. -1.
</event>
<event>
 5   0  0.1130848E-04  0.2078933E+04  0.7818609E-02  0.8570581E-01
        1   -1    0    0  501    0  0.00000000000E+00  0.00000000000E+00  0.14065219341E+04  0.14065219341E+04  0.50400001928E-02 0.  1.
       -1   -1    0    0    0  501  0.00000000000E+00  0.00000000000E+00 -0.76820031163E+03  0.76820031165E+03  0.50400001928E-02 0. -1.
    10030    2    1    2    0    0  0.00000000000E+00  0.00000000000E+00  0.63832162242E+03  0.21747222457E+04  0.20789329841E+04 0.  0.
        5    1    3    3  502    0  0.36219944495E+03 -0.77413448906E+03 -0.29970252827E+03  0.90571316680E+03  0.46999998093E+01 0. -1.
       -5    1    3    3    0  502 -0.36219944495E+03  0.77413448906E+03  0.93802415069E+03  0.12690090789E+04  0.46999998093E+01 0.  1.
</event>
<event>
 5   0  0.1130848E-04  0.2110641E+04  0.7818609E-02  0.8556570E-01
        1   -1    0    0  501    0  0.00000000000E+00  0.00000000000E+00  0.14867045050E+04  0.14867045050E+04  0.50400001928E-02 0.  1.
       -1   -1    0    0    0  501  0.00000000000E+00  0.00000000000E+00 -0.74910769754E+03  0.74910769755E+03  0.50400001928E-02 0. -1.
    10030    2    1    2    0    0  0.00000000000E+00  0.00000000000E+00  0.73759680742E+03  0.22358122025E+04  0.21106414083E+04 0.  0.
        5    1    3    3  502    0 -0.91047025654E+03 -0.66785944923E+02 -0.19199635164E+03  0.93289931907E+03  0.46999998093E+01 0. -1.
       -5    1    3    3    0  502  0.91047025654E+03  0.66785944923E+02  0.92959315906E+03  0.13029128834E+04  0.46999998093E+01 0.  1.
</event>
<event>
 5   0  0.1130848E-04  0.2117081E+04  0.7818609E-02  0.8553756E-01
        1   -1    0    0  501    0  0.00000000000E+00  0.00000000000E+00  0.11426199965E+04  0.11426199965E+04  0.50400001928E-02 0.  1.
       -1   -1    0    0    0  501  0.00000000000E+00  0.00000000000E+00 -0.98064777901E+03  0.98064777902E+03  0.50400001928E-02 0. -1.
    10030    2    1    2    0    0  0.00000000000E+00  0.00000000000E+00  0.16197221747E+03  0.21232677755E+04  0.21170807843E+04 0.  0.
        5    1    3    3  502    0  0.91141046238E+03  0.37221966790E+03  0.47105609545E+03  0.10913901443E+04  0.46999998093E+01 0.  1.
       -5    1    3    3    0  502 -0.91141046238E+03 -0.37221966790E+03 -0.30908387798E+03  0.10318776312E+04  0.46999998093E+01 0. -1.
</event>
<event>
 5   0  0.1156733E-04  0.2104916E+04  0.7818609E-02  0.8559081E-01
       -1   -1    0    0    0  501  0.00000000000E+00  0.00000000000E+00  0.46514531167E+03  0.46514531170E+03  0.50400001928E-02 0. -1.
        1   -1    0    0  501    0  0.00000000000E+00  0.00000000000E+00 -0.23813380005E+04  0.23813380005E+04  0.50400001928E-02 0.  1.
    10030    2    1    2    0    0  0.00000000000E+00  0.00000000000E+00 -0.19161926888E+04  0.28464833122E+04  0.21049163465E+04 0.  0.
        2    1    3    3  502    0 -0.21998057564E+03  0.62123255232E+03 -0.20677647568E+04  0.21702470890E+04  0.25500000920E-02 0.  1.
       -2    1    3    3    0  502  0.21998057564E+03 -0.62123255232E+03  0.15157206803E+03  0.67623622317E+03  0.25500000920E-02 0. -1.
</event>
<event>
 5   0  0.2512839E-04  0.2234143E+04  0.7818609E-02  0.8504350E-01
        2   -1    0    0  501    0  0.00000000000E+00  0.00000000000E+00  0.61157744003E+03  0.61157744004E+03  0.25500000920E-02 0.  1.
       -2   -1    0    0    0  501  0.00000000000E+00  0.00000000000E+00 -0.20403766942E+04  0.20403766942E+04  0.25500000920E-02 0. -1.
    10030    2    1    2    0    0  0.00000000000E+00  0.00000000000E+00 -0.14287992542E+04  0.26519541343E+04  0.22341426592E+04 0.  0.
        3    1    3    3  502    0 -0.49656514573E+03 -0.20519838936E+03  0.44812396188E+03  0.69964163567E+03  0.10100000352E+00 0.  1.
       -3    1    3    3    0  502  0.49656514573E+03  0.20519838936E+03 -0.18769232161E+04  0.19523124986E+04  0.10100000352E+00 0. -1.
</event>
<event>
 5   0  0.2579241E-04  0.2078719E+04  0.7818609E-02  0.8570676E-01
        2   -1    0    0  501    0  0.00000000000E+00  0.00000000000E+00  0.10697257963E+04  0.10697257963E+04  0.25500000920E-02 0.  1.
       -2   -1    0    0    0  501  0.00000000000E+00  0.00000000000E+00 -0.10098550604E+04  0.10098550604E+04  0.25500000920E-02 0. -1.
    10030    2    1    2    0    0  0.00000000000E+00  0.00000000000E+00  0.59870735936E+02  0.20795808567E+04  0.20787188446E+04 0.  0.
        5    1    3    3  502    0  0.46039129032E+03  0.51039033611E+03 -0.74999518517E+03  0.10173363766E+04  0.46999998093E+01 0. -1.
       -5    1    3    3    0  502 -0.46039129032E+03 -0.51039033611E+03  0.80986592111E+03  0.10622444801E+04  0.46999998093E+01 0.  1.
</event>
<event>
 5   0  0.2448804E-04  0.1988330E+04  0.7818609E-02  0.8612096E-01
        2   -1    0    0  501    0  0.00000000000E+00  0.00000000000E+00  0.16683724186E+04  0.16683724186E+04  0.25500000920E-02 0. -1.
       -2   -1    0    0    0  501  0.00000000000E+00  0.00000000000E+00 -0.59241208440E+03  0.59241208441E+03  0.25500000920E-02 0.  1.
    10030    2    1    2    0    0  0.00000000000E+00  0.00000000000E+00  0.10759603342E+04  0.22607845030E+04  0.19883299345E+04 0.  0.
        2    1    3    3  502    0 -0.54057395251E+03 -0.23102372847E+03  0.14495692829E+04  0.15642388779E+04  0.25500000920E-02 0. -1.
       -2    1    3    3    0  502  0.54057395251E+03  0.23102372847E+03 -0.37360894872E+03  0.69654562508E+03  0.25500000920E-02 0.  1.
</event>
<event>
 5   0  0.1186038E-04  0.2091892E+04  0.7818609E-02  0.8564823E-01
       -1   -1    0    0    0  501  0.00000000000E+00  0.00000000000E+00  0.55538497302E+03  0.55538497304E+03  0.50400001928E-02 0.  1.
        1   -1    0    0  501    0  0.00000000000E+00  0.00000000000E+00 -0.19698111136E+04  0.19698111136E+04  0.50400001928E-02 0. -1.
    10030    2    1    2    0    0  0.00000000000E+00  0.00000000000E+00 -0.14144261406E+04  0.25251960866E+04  0.20918924372E+04 0.  0.
        4    1    3    3  502    0  0.37047033165E+03  0.90803271378E+03 -0.26825696813E+03  0.10167276380E+04  0.12699999809E+01 0. -1.
       -4    1    3    3    0  502 -0.37047033165E+03 -0.90803271378E+03 -0.11461691724E+04  0.15084684487E+04  0.12699999809E+01 0.  1.
</event>
<event>
 5   0  0.2430898E-04  0.2027872E+04  0.7818609E-02  0.8593699E-01
       -2   -1    0    0    0  501  0.00000000000E+00  0.00000000000E+00  0.14306511252E+04  0.14306511252E+04  0.25500000920E-02 0.  1.
        2   -1    0    0  501    0  0.00000000000E+00  0.00000000000E+00 -0.71860008671E+03  0.71860008671E+03  0.25500000920E-02 0. -1.
    10030    2    1    2    0    0  0.00000000000E+00  0.00000000000E+00  0.71205103845E+03  0.21492512119E+04  0.20278718131E+04 0.  0.
        1    1    3    3  502    0 -0.68695314194E+03 -0.72770751563E+03  0.18315799283E+03  0.10173542637E+04  0.50400001928E-02 0. -1.
       -1    1    3    3    0  502  0.68695314194E+03  0.72770751563E+03  0.52889304562E+03  0.11318969482E+04  0.50400001928E-02 0.  1.
</event>
<event>
 5   0  0.8698750E-05  0.2098952E+04  0.7818609E-02  0.8561705E-01
        3   -1    0    0  501    0  0.00000000000E+00  0.00000000000E+00  0.72316004819E+03  0.72316005525E+03  0.10100000352E+00 0.  1.
       -3   -1    0    0    0  501  0.00000000000E+00  0.00000000000E+00 -0.15230378691E+04  0.15230378725E+04  0.10100000352E+00 0. -1.
    10030    2    1    2    0    0  0.00000000000E+00  0.00000000000E+00 -0.79987782093E+03  0.22461979277E+04  0.20989522629E+04 0.  0.
        5    1    3    3  502    0 -0.31691766899E+03 -0.39455280596E+03 -0.13838209159E+04  0.14734622978E+04  0.46999998093E+01 0. -1.
       -5    1    3    3    0  502  0.31691766899E+03  0.39455280596E+03  0.58394309499E+03  0.77273562995E+03  0.46999998093E+01 0.  1.
</event>
<event>
 5   0  0.1156733E-04  0.2041625E+04  0.7818609E-02  0.8587403E-01
        1   -1    0    0  501    0  0.00000000000E+00  0.00000000000E+00  0.14609108630E+04  0.14609108630E+04  0.50400001928E-02 0.  1.
       -1   -1    0    0    0  501  0.00000000000E+00  0.00000000000E+00 -0.71329323517E+03  0.71329323519E+03  0.50400001928E-02 0. -1.
    10030    2    1    2    0    0  0.00000000000E+00  0.00000000000E+00  0.74761762784E+03  0.21742040982E+04  0.20416246823E+04 0.  0.
        2    1    3    3  502    0  0.55776041426E+03 -0.35141917330E+03  0.12038225705E+04  0.13725089786E+04  0.25500000920E-02 0.  1.
       -2    1    3    3    0  502 -0.55776041426E+03  0.35141917330E+03 -0.45620494267E+03  0.80169511961E+03  0.25500000920E-02 0. -1.
</event>
<event>
 5   0  0.1122711E-04  0.2115867E+04  0.7818609E-02  0.8554286E-01
       -1   -1    0    0    0  501  0.00000000000E+00  0.00000000000E+00  0.86025172439E+03  0.86025172440E+03  0.50400001928E-02 0. -1.
        1   -1    0    0  501    0  0.00000000000E+00  0.00000000000E+00 -0.13010411787E+04  0.13010411787E+04  0.50400001928E-02 0.  1.
    10030    2    1    2    0    0  0.00000000000E+00  0.00000000000E+00 -0.44078945433E+03  0.21612929031E+04  0.21158666475E+04 0.  0.
        1    1    3    3  502    0 -0.46841609031E+02 -0.63750108210E+03 -0.10814765066E+04  0.12562615971E+04  0.50400001928E-02 0.  1.
       -1    1    3    3    0  502  0.46841609031E+02  0.63750108210E+03  0.64068705223E+03  0.90503130605E+03  0.50400001928E-02 0. -1.
</event>
<event>
 5   0  0.1042395E-04  0.2123755E+04  0.7818609E-02  0.8550851E-01
       -1   -1    0    0    0  501  0.00000000000E+00  0.00000000000E+00  0.10274248859E+04  0.10274248859E+04  0.50400001928E-02 0.  1.
        1   -1    0    0  501    0  0.00000000000E+00  0.00000000000E+00 -0.10974852310E+04  0.10974852310E+04  0.50400001928E-02 0. -1.
    10030    2    1    2    0    0  0.00000000000E+00  0.00000000000E+00 -0.70060345068E+02  0.21249101169E+04  0.21237548241E+04 0.  0.
        3    1    3    3  502    0  0.43723036346E+03 -0.96048980593E+03 -0.15287611896E+03  0.10663405535E+04  0.10100000352E+00 0. -1.
       -3    1    3    3    0  502 -0.43723036346E+03  0.96048980593E+03  0.82815773897E+02  0.10585695634E+04  0.10100000352E+00 0.  1.
</event>
<event>
 5   0  0.1156733E-04  0.2126067E+04  0.7818609E-02  0.8549847E-01
       -1   -1    0    0    0  501  0.00000000000E+00  0.00000000000E+00  0.72228271466E+03  0.72228271468E+03  0.50400001928E-02 0.  1.
        1   -1    0    0  501    0  0.00000000000E+00  0.00000000000E+00 -0.15645402537E+04  0.15645402537E+04  0.50400001928E-02 0. -1.
    10030    2    1    2    0    0  0.00000000000E+00  0.00000000000E+00 -0.84225753899E+03  0.22868229683E+04  0.21260671501E+04 0.  0.
        2    1    3    3  502    0  0.41106850209E+03  0.51182062319E+03 -0.13204732291E+04  0.14746481657E+04  0.25500000920E-02 0. -1.
       -2    1    3    3    0  502 -0.41106850209E+03 -0.51182062319E+03  0.47821569015E+03  0.81217480264E+03  0.25500000920E-02 0.  1.
</event>
<event>
 5   0  0.1042395E-04  0.2119733E+04  0.7818609E-02  0.8552600E-01
       -1   -1    0    0    0  501  0.00000000000E+00  0.00000000000E+00  0.67066535088E+03  0.67066535090E+03  0.50400001928E-02 0. -1.
        1   -1    0    0  501    0  0.00000000000E+00  0.00000000000E+00 -0.16749286246E+04  0.16749286246E+04  0.50400001928E-02 0.  1.
    10030    2    1    2    0    0  0.00000000000E+00  0.00000000000E+00 -0.10042632737E+04  0.23455939755E+04  0.21197326187E+04 0.  0.
        3    1    3    3  502    0  0.10425596568E+04  0.13566229613E+03 -0.65051560182E+03  0.12363274061E+04  0.10100000352E+00 0.  1.
       -3    1    3    3    0  502 -0.10425596568E+04 -0.13566229613E+03 -0.35374767191E+03  0.11092665695E+04  0.10100000352E+00 0. -1.
</event>
<event>
 5   0  0.1122711E-04  0.1978337E+04  0.7818609E-02  0.8616816E-01
        1   -1    0    0  501    0  0.00000000000E+00  0.00000000000E+00  0.14417934075E+04  0.14417934075E+04  0.50400001928E-02 0. -1.
       -1   -1    0    0    0  501  0.00000000000E+00  0.00000000000E+00 -0.67863669661E+03  0.67863669663E+03  0.50400001928E-02 0.  1.
    10030    2    1    2    0    0  0.00000000000E+00  0.00000000000E+00  0.76315671087E+03  0.21204301041E+04  0.19783365894E+04 0.  0.
        1    1    3    3  502    0  0.22249122416E+03 -0.59265094865E+03 -0.43309053995E+03  0.76701036994E+03  0.50400001928E-02 0.  1.
       -1    1    3    3    0  502 -0.22249122416E+03  0.59265094865E+03  0.11962472508E+04  0.13534197342E+04  0.50400001928E-02 0. -1.
</event>
<event>
 5   0  0.1156733E-04  0.1478321E+04  0.7818609E-02  0.8898998E-01
        1   -1    0    0  501    0  0.00000000000E+00  0.00000000000E+00  0.12015654393E+04  0.12015654393E+04  0.50400001928E-02 0.  1.
       -1   -1    0    0    0  501  0.00000000000E+00  0.00000000000E+00 -0.45470559462E+03  0.45470559465E+03  0.50400001928E-02 0. -1.
    10030    2    1    2    0    0  0.00000000000E+00  0.00000000000E+00  0.74685984469E+03  0.16562710340E+04  0.14783213826E+04 0.  0.
        2    1    3    3  502    0 -0.22762360042E+03 -0.61072613782E+03  0.76405236799E+03  0.10042783180E+04  0.25500000920E-02 0.  1.
       -2    1    3    3    0  502  0.22762360042E+03  0.61072613782E+03 -0.17192523302E+02  0.65199271602E+03  0.25500000920E-02 0. -1.
</event>
<event>
 5   0  0.2448804E-04  0.2027859E+04  0.7818609E-02  0.8593705E-01
        2   -1    0    0  501    0  0.00000000000E+00  0.00000000000E+00  0.13398004813E+04  0.13398004813E+04  0.25500000920E-02 0.  1.
       -2   -1    0    0    0  501  0.00000000000E+00  0.00000000000E+00 -0.76731773725E+03  0.76731773725E+03  0.25500000920E-02 0. -1.
    10030    2    1    2    0    0  0.00000000000E+00  0.00000000000E+00  0.57248274405E+03  0.21071182186E+04  0.20278586476E+04 0.  0.
        2    1    3    3  502    0 -0.55255879859E+03  0.39872301780E+02  0.11686332700E+04  0.12932960783E+04  0.25500000920E-02 0.  1.
       -2    1    3    3    0  502  0.55255879859E+03 -0.39872301780E+02 -0.59615052597E+03  0.81382214025E+03  0.25500000920E-02 0. -1.
</event>
<event>
 5   0  0.1156733E-04  0.2040981E+04  0.7818609E-02  0.8587697E-01
        1   -1    0    0  501    0  0.00000000000E+00  0.00000000000E+00  0.66653840308E+03  0.66653840310E+03  0.50400001928E-02 0.  1.
       -1   -1    0    0    0  501  0.00000000000E+00  0.00000000000E+00 -0.15624011585E+04  0.15624011585E+04  0.50400001928E-02 0. -1.
    10030    2    1    2    0    0  0.00000000000E+00  0.00000000000E+00 -0.89586275537E+03  0.22289395616E+04  0.20409805224E+04 0.  0.
        2    1    3    3  502    0  0.79372837166E+03  0.54220541640E+03 -0.82213673475E+03  0.12648716347E+04  0.25500000920E-02 0. -1.
       -2    1    3    3    0  502 -0.79372837166E+03 -0.54220541640E+03 -0.73726020622E+02  0.96406792690E+03  0.25500000920E-02 0.  1.
</event>
<event>
 5   0  0.1130848E-04  0.2077033E+04  0.7818609E-02  0.8571429E-01
        1   -1    0    0  501    0  0.00000000000E+00  0.00000000000E+00  0.22184634379E+04  0.22184634379E+04  0.50400001928E-02 0.  1.
       -1   -1    0    0    0  501  0.00000000000E+00  0.00000000000E+00 -0.48615451111E+03  0.48615451114E+03  0.50400001928E-02 0. -1.
    10030    2    1    2    0    0  0.00000000000E+00  0.00000000000E+00  0.17323089268E+04  0.27046179490E+04  0.20770325064E+04 0.  0.
        5    1    3    3  502    0 -0.18663602675E+03 -0.72348119923E+03  0.18053646135E+04  0.19538734682E+04  0.46999998093E+01 0.  1.
       -5    1    3    3    0  502  0.18663602675E+03  0.72348119923E+03 -0.73055686716E+02  0.75074448082E+03  0.46999998093E+01 0. -1.
</event>
<event>
 5   0  0.8698750E-05  0.2154027E+04  0.7818609E-02  0.8537810E-01
       -3   -1    0    0    0  501  0.00000000000E+00  0.00000000000E+00  0.24170206702E+04  0.24170206723E+04  0.10100000352E+00 0. -1.
        3   -1    0    0  501    0  0.00000000000E+00  0.00000000000E+00 -0.47991245986E+03  0.47991247049E+03  0.10100000352E+00 0.  1.
    10030    2    1    2    0    0  0.00000000000E+00  0.00000000000E+00  0.19371082103E+04  0.28969331427E+04  0.21540272550E+04 0.  0.
        3    1    3    3  502    0  0.23018676308E+03  0.25816795626E+03  0.23402919099E+04  0.23657140303E+04  0.10100000352E+00 0. -1.
       -3    1    3    3    0  502 -0.23018676308E+03 -0.25816795626E+03 -0.40318369963E+03  0.53121911240E+03  0.10100000352E+00 0.  1.
</event>
<event>
 5   0  0.2512839E-04  0.2139224E+04  0.7818609E-02  0.8544159E-01
       -2   -1    0    0    0  501  0.00000000000E+00  0.00000000000E+00  0.79154351239E+03  0.79154351239E+03  0.25500000920E-02 0. -1.
        2   -1    0    0  501    0  0.00000000000E+00  0.00000000000E+00 -0.14453662762E+04  0.14453662762E+04  0.25500000920E-02 0.  1.
    10030    2    1    2    0    0  0.00000000000E+00  0.00000000000E+00 -0.65382276384E+03  0.22369097886E+04  0.21392244380E+04 0.  0.
        3    1    3    3  502    0  0.22436993362E+03 -0.27081930826E+03 -0.13831796194E+04  0.14271898384E+04  0.10100000352E+00 0.  1.
       -3    1    3    3    0  502 -0.22436993362E+03  0.27081930826E+03  0.72935685561E+03  0.80971995027E+03  0.10100000352E+00 0. -1.
</event>
<event>
 5   0  0.2512839E-04  0.2030844E+04  0.7818609E-02  0.8592335E-01
        2   -1    0    0  501    0  0.00000000000E+00  0.00000000000E+00  0.10072342659E+04  0.10072342659E+04  0.25500000920E-02 0. -1.
       -2   -1    0    0    0  501  0.00000000000E+00  0.00000000000E+00 -0.10236759681E+04  0.10236759681E+04  0.25500000920E-02 0.  1.
    10030    2    1    2    0    0  0.00000000000E+00  0.00000000000E+00 -0.16441702231E+02  0.20309102340E+04  0.20308436792E+04 0.  0.
        3    1    3    3  502    0 -0.87269121834E+03  0.21648926922E+02 -0.52691198911E+03  0.10196543008E+04  0.10100000352E+00 0.  1.
       -3    1    3    3    0  502  0.87269121834E+03 -0.21648926922E+02  0.51047028688E+03  0.10112559333E+04  0.10100000352E+00 0. -1.
</event>
<event>
 5   0  0.2467483E-04  0.2119865E+04  0.7818609E-02  0.8552543E-01
        2   -1    0    0  501    0  0.00000000000E+00  0.00000000000E+00  0.20540116722E+04  0.20540116722E+04  0.25500000920E-02 0.  1.
       -2   -1    0    0    0  501  0.00000000000E+00  0.00000000000E+00 -0.54695749759E+03  0.54695749760E+03  0.25500000920E-02 0. -1.
    10030    2    1    2    0    0  0.00000000000E+00  0.00000000000E+00  0.15070541746E+04  0.26009691698E+04  0.21198651695E+04 0.  0.
        4    1    3    3  502    0  0.39449331692E+02  0.16693385556E+03  0.20368679982E+04  0.20440782805E+04  0.12699999809E+01 0.  1.
       -4    1    3    3    0  502 -0.39449331692E+02 -0.16693385556E+03 -0.52981382363E+03  0.55689088924E+03  0.12699999809E+01 0. -1.
</event>
<event>
 5   0  0.2512839E-04  0.2125935E+04  0.7818609E-02  0.8549904E-01
        2   -1    0    0  501    0  0.00000000000E+00  0.00000000000E+00  0.13538965992E+04  0.13538965992E+04  0.25500000920E-02 0.  1.
       -2   -1    0    0    0  501  0.00000000000E+00  0.00000000000E+00 -0.83455372340E+03  0.83455372341E+03  0.25500000920E-02 0. -1.
    10030    2    1    2    0    0  0.00000000000E+00  0.00000000000E+00  0.51934287576E+03  0.21884503226E+04  0.21259345690E+04 0.  0.
        3    1    3    3  502    0  0.48048351713E+03 -0.93439656194E+03  0.93882398000E+02  0.10548816332E+04  0.10100000352E+00 0.  1.
       -3    1    3    3    0  502 -0.48048351713E+03  0.93439656194E+03  0.42546047776E+03  0.11335686894E+04  0.10100000352E+00 0. -1.
</event>
<event>
 5   0  0.2430898E-04  0.2121997E+04  0.7818609E-02  0.8551615E-01
        2   -1    0    0  501    0  0.00000000000E+00  0.00000000000E+00  0.11810954253E+04  0.11810954253E+04  0.25500000920E-02 0. -1.
       -2   -1    0    0    0  501  0.00000000000E+00  0.00000000000E+00 -0.95311311298E+03  0.95311311298E+03  0.25500000920E-02 0.  1.
    10030    2    1    2    0    0  0.00000000000E+00  0.00000000000E+00  0.22798231233E+03  0.21342085383E+04  0.21219967366E+04 0.  0.
        1    1    3    3  502    0 -0.59310609949E+02  0.96153478518E+03  0.56112882718E+03  0.11148688050E+04  0.50400001928E-02 0.  1.
       -1    1    3    3    0  502  0.59310609949E+02 -0.96153478518E+03 -0.33314651485E+03  0.10193397333E+04  0.50400001928E-02 0. -1.
</event>
<event>
 5   0  0.2579241E-04  0.2081544E+04  0.7818609E-02  0.8569417E-01
        2   -1    0    0  501    0  0.00000000000E+00  0.00000000000E+00  0.15664993646E+04  0.15664993646E+04  0.25500000920E-02 0.  1.
       -2   -1    0    0    0  501  0.00000000000E+00  0.00000000000E+00 -0.69148228938E+03  0.69148228938E+03  0.25500000920E-02 0. -1.
    10030    2    1    2    0    0  0.00000000000E+00  0.00000000000E+00  0.87501707527E+03  0.22579816540E+04  0.20815442027E+04 0.  0.
        5    1    3    3  502    0 -0.30699324728E+03  0.96196185544E+03  0.16400843019E+03  0.10230035779E+04  0.46999998093E+01 0. -1.
       -5    1    3    3    0  502  0.30699324728E+03 -0.96196185544E+03  0.71100864508E+03  0.12349780761E+04  0.46999998093E+01 0.  1.
</event>
<event>
 5   0  0.2579241E-04  0.2078541E+04  0.7818609E-02  0.8570755E-01
       -2   -1    0    0    0  501  0.00000000000E+00  0.00000000000E+00  0.33919642690E+03  0.33919642691E+03  0.25500000920E-02 0. -1.
        2   -1    0    0  501    0  0.00000000000E+00  0.00000000000E+00 -0.31842420962E+04  0.31842420962E+04  0.25500000920E-02 0.  1.
    10030    2    1    2    0    0  0.00000000000E+00  0.00000000000E+00 -0.28450456693E+04  0.35234385231E+04  0.20785413553E+04 0.  0.
        5    1    3    3  502    0 -0.62517019864E+03 -0.22901781863E+03 -0.27752208870E+04  0.28539726698E+04  0.46999998093E+01 0.  1.
       -5    1    3    3    0  502  0.62517019864E+03  0.22901781863E+03 -0.69824782331E+02  0.66946585331E+03  0.46999998093E+01 0. -1.
</event>
<event>
 5   0  0.1042395E-04  0.1945642E+04  0.7818609E-02  0.8632465E-01
       -1   -1    0    0    0  501  0.00000000000E+00  0.00000000000E+00  0.27755072423E+04  0.27755072423E+04  0.50400001928E-02 0. -1.
        1   -1    0    0  501    0  0.00000000000E+00  0.00000000000E+00 -0.34097579876E+03  0.34097579880E+03  0.50400001928E-02 0.  1.
    10030    2    1    2    0    0  0.00000000000E+00  0.00000000000E+00  0.24345314436E+04  0.31164830411E+04  0.19456421038E+04 0.  0.
        3    1    3    3  502    0 -0.68398673837E+02 -0.88862940123E+03  0.18418355847E+04  0.20461424493E+04  0.10100000352E+00 0. -1.
       -3    1    3    3    0  502  0.68398673837E+02  0.88862940123E+03  0.59269585885E+03  0.10703405919E+04  0.10100000352E+00 0.  1.
</event>
<event>
 5   0  0.1122711E-04  0.2077397E+04  0.7818609E-02  0.8571266E-01
        1   -1    0    0  501    0  0.00000000000E+00  0.00000000000E+00  0.16390948464E+04  0.16390948464E+04  0.50400001928E-02 0. -1.
       -1   -1    0    0    0  501  0.00000000000E+00  0.00000000000E+00 -0.65822598791E+03  0.65822598793E+03  0.50400001928E-02 0.  1.
    10030    2    1    2    0    0  0.00000000000E+00  0.00000000000E+00  0.98086885849E+03  0.22973208343E+04  0.20773972413E+04 0.  0.
        1    1    3    3  502    0 -0.98799196886E+03  0.28721595310E+03  0.33297506097E+03  0.10814312394E+04  0.50400001928E-02 0.  1.
       -1    1    3    3    0  502  0.98799196886E+03 -0.28721595310E+03  0.64789379752E+03  0.12158895950E+04  0.50400001928E-02 0. -1.
</event>
<event>
 5   0  0.1042395E-04  0.2125002E+04  0.7818609E-02  0.8550309E-01
        1   -1    0    0  501    0  0.00000000000E+00  0.00000000000E+00  0.19694236858E+04  0.19694236858E+04  0.50400001928E-02 0.  1.
       -1   -1    0    0    0  501  0.00000000000E+00  0.00000000000E+00 -0.57321772170E+03  0.57321772172E+03  0.50400001928E-02 0. -1.
    10030    2    1    2    0    0  0.00000000000E+00  0.00000000000E+00  0.13962059641E+04  0.25426414075E+04  0.21250021725E+04 0.  0.
        3    1    3    3  502    0  0.11877116397E+03 -0.54256725794E+03  0.17818915827E+04  0.18664467422E+04  0.10100000352E+00 0.  1.
       -3    1    3    3    0  502 -0.11877116397E+03  0.54256725794E+03 -0.38568561862E+03  0.67619466531E+03  0.10100000352E+00 0. -1.
</event>
<event>
 5   0  0.1122711E-04  0.2053273E+04  0.7818609E-02  0.8582111E-01
       -1   -1    0    0    0  501  0.00000000000E+00  0.00000000000E+00  0.53659044295E+03  0.53659044297E+03  0.50400001928E-02 0. -1.
        1   -1    0    0  501    0  0.00000000000E+00  0.00000000000E+00 -0.19642215644E+04  0.19642215644E+04  0.50400001928E-02 0.  1.
    10030    2    1    2    0    0  0.00000000000E+00  0.00000000000E+00 -0.14276311215E+04  0.25008120074E+04  0.20532730158E+04 0.  0.
        1    1    3    3  502    0 -0.18563310525E+03 -0.94177700527E+03 -0.11572930913E+04  0.15035727041E+04  0.50400001928E-02 0.  1.
       -1    1    3    3    0  502  0.18563310525E+03  0.94177700527E+03 -0.27033803018E+03  0.99723930328E+03  0.50400001928E-02 0. -1.
</event>
<event>
 5   0  0.1186038E-04  0.2192045E+04  0.7818609E-02  0.8521747E-01
        1   -1    0    0  501    0  0.00000000000E+00  0.00000000000E+00  0.12807545212E+04  0.12807545212E+04  0.50400001928E-02 0.  1.
       -1   -1    0    0    0  501  0.00000000000E+00  0.00000000000E+00 -0.93793550675E+03  0.93793550676E+03  0.50400001928E-02 0. -1.
    10030    2    1    2    0    0  0.00000000000E+00  0.00000000000E+00  0.34281901445E+03  0.22186900280E+04  0.21920448361E+04 0.  0.
        4    1    3    3  502    0  0.22625353253E+03  0.10622545412E+04  0.22350398707E+02  0.10863132718E+04  0.12699999809E+01 0. -1.
       -4    1    3    3    0  502 -0.22625353253E+03 -0.10622545412E+04  0.32046861574E+03  0.11323767562E+04  0.12699999809E+01 0.  1.
</event>
<event>
 5   0  0.2467483E-04  0.2139829E+04  0.7818609E-02  0.8543898E-01
        2   -1    0    0  501    0  0.00000000000E+00  0.00000000000E+00  0.12750320953E+04  0.12750320953E+04  0.25500000920E-02 0.  1.
       -2   -1    0    0    0  501  0.00000000000E+00  0.00000000000E+00 -0.89779500414E+03  0.89779500414E+03  0.25500000920E-02 0. -1.
    10030    2    1    2    0    0  0.00000000000E+00  0.00000000000E+00  0.37723709116E+03  0.21728270994E+04  0.21398293813E+04 0.  0.
        4    1    3    3  502    0  0.86556693077E+02 -0.40757932021E+03  0.11892603469E+04  0.12601407655E+04  0.12699999809E+01 0.  1.
       -4    1    3    3    0  502 -0.86556693077E+02  0.40757932021E+03 -0.81202325572E+03  0.91268633391E+03  0.12699999809E+01 0. -1.
</event>
<event>
 5   0  0.2579241E-04  0.1972481E+04  0.7818609E-02  0.8619596E-01
        2   -1    0    0  501    0  0.00000000000E+00  0.00000000000E+00  0.19079466369E+04  0.19079466369E+04  0.25500000920E-02 0.  1.
       -2   -1    0    0    0  501  0.00000000000E+00  0.00000000000E+00 -0.50979967846E+03  0.50979967847E+03  0.25500000920E-02 0. -1.
    10030    2    1    2    0    0  0.00000000000E+00  0.00000000000E+00  0.13981469584E+04  0.24177463153E+04  0.19724812618E+04 0.  0.
        5    1    3    3  502    0  0.77853915335E+03 -0.77962091799E+02 -0.36826289760E+02  0.78331319832E+03  0.46999998093E+01 0. -1.
       -5    1    3    3    0  502 -0.77853915335E+03  0.77962091799E+02  0.14349732482E+04  0.16344331170E+04  0.46999998093E+01 0.  1.
</event>
<event>
 5   0  0.1122711E-04  0.2076505E+04  0.7818609E-02  0.8571664E-01
       -1   -1    0    0    0  501  0.00000000000E+00  0.00000000000E+00  0.49459484318E+03  0.49459484321E+03  0.50400001928E-02 0.  1.
        1   -1    0    0  501    0  0.00000000000E+00  0.00000000000E+00 -0.21794984212E+04  0.21794984212E+04  0.50400001928E-02 0. -1.
    10030    2    1    2    0    0  0.00000000000E+00  0.00000000000E+00 -0.16849035780E+04  0.26740932644E+04  0.20765054104E+04 0.  0.
        1    1    3    3  502    0  0.11366960170E+03 -0.10278679437E+04 -0.72347692556E+03  0.12620824655E+04  0.50400001928E-02 0.  1.
       -1    1    3    3    0  502 -0.11366960170E+03  0.10278679437E+04 -0.96142665244E+03  0.14120107988E+04  0.50400001928E-02 0. -1.
</event>
<event>
 5   0  0.2512839E-04  0.1997969E+04  0.7818609E-02  0.8607571E-01
       -2   -1    0    0    0  501  0.00000000000E+00  0.00000000000E+00  0.12809788947E+04  0.12809788947E+04  0.25500000920E-02 0. -1.
        2   -1    0    0  501    0  0.00000000000E+00  0.00000000000E+00 -0.77906801752E+03  0.77906801753E+03  0.25500000920E-02 0.  1.
    10030    2    1    2    0    0  0.00000000000E+00  0.00000000000E+00  0.50191087721E+03  0.20600469123E+04  0.19979686564E+04 0.  0.
        3    1    3    3  502    0  0.67607549613E+02  0.32526897764E+03 -0.72044174296E+03  0.79335175287E+03  0.10100000352E+00 0.  1.
       -3    1    3    3    0  502 -0.67607549613E+02 -0.32526897764E+03  0.12223526202E+04  0.12666951594E+04  0.10100000352E+00 0. -1.
</event>
<event>
 5   0  0.2430898E-04  0.2134500E+04  0.7818609E-02  0.8546196E-01
        2   -1    0    0  501    0  0.00000000000E+00  0.00000000000E+00  0.78448787850E+03  0.78448787851E+03  0.25500000920E-02 0.  1.
       -2   -1    0    0    0  501  0.00000000000E+00  0.00000000000E+00 -0.14519307382E+04  0.14519307382E+04  0.25500000920E-02 0. -1.
    10030    2    1    2    0    0  0.00000000000E+00  0.00000000000E+00 -0.66744285969E+03  0.22364186167E+04  0.21344995334E+04 0.  0.
        1    1    3    3  502    0 -0.38762894282E+03 -0.13746906674E+03 -0.13655638478E+04  0.14261551683E+04  0.50400001928E-02 0. -1.
       -1    1    3    3    0  502  0.38762894282E+03  0.13746906674E+03  0.69812098816E+03  0.81026344836E+03  0.50400001928E-02 0.  1.
</event>
<event>
 5   0  0.2448804E-04  0.2108731E+04  0.7818609E-02  0.8557407E-01
       -2   -1    0    0    0  501  0.00000000000E+00  0.00000000000E+00  0.18179733024E+04  0.18179733024E+04  0.25500000920E-02 0.  1.
        2   -1    0    0  501    0  0.00000000000E+00  0.00000000000E+00 -0.61149756217E+03  0.61149756217E+03  0.25500000920E-02 0. -1.
    10030    2    1    2    0    0  0.00000000000E+00  0.00000000000E+00  0.12064757402E+04  0.24294708646E+04  0.21087306537E+04 0.  0.
        2    1    3    3  502    0  0.53711392519E+02  0.51537705827E+03 -0.45468192944E+03  0.68937223823E+03  0.25500000920E-02 0. -1.
       -2    1    3    3    0  502 -0.53711392519E+02 -0.51537705827E+03  0.16611576697E+04  0.17400986263E+04  0.25500000920E-02 0.  1.
</event>
<event>
 5   0  0.1156733E-04  0.2093856E+04  0.7818609E-02  0.8563955E-01
        1   -1    0    0  501    0  0.00000000000E+00  0.00000000000E+00  0.17837093572E+04  0.17837093572E+04  0.50400001928E-02 0.  1.
       -1   -1    0    0    0  501  0.00000000000E+00  0.00000000000E+00 -0.61448250770E+03  0.61448250772E+03  0.50400001928E-02 0. -1.
    10030    2    1    2    0    0  0.00000000000E+00  0.00000000000E+00  0.11692268495E+04  0.23981918649E+04  0.20938559634E+04 0.  0.
        2    1    3    3  502    0  0.25392196690E+03 -0.56617501287E+03 -0.38117140372E+03  0.72823220850E+03  0.25500000920E-02 0. -1.
       -2    1    3    3    0  502 -0.25392196690E+03  0.56617501287E+03  0.15503982532E+04  0.16699596564E+04  0.25500000920E-02 0.  1.
</event>
<event>
 5   0  0.1186038E-04  0.2085254E+04  0.7818609E-02  0.8567767E-01
       -1   -1    0    0    0  501  0.00000000000E+00  0.00000000000E+00  0.18136374875E+04  0.18136374875E+04  0.50400001928E-02 0. -1.
        1   -1    0    0  501    0  0.00000000000E+00  0.00000000000E+00 -0.59938743881E+03  0.59938743883E+03  0.50400001928E-02 0.  1.
    10030    2    1    2    0    0  0.00000000000E+00  0.00000000000E+00  0.12142500487E+04  0.24130249263E+04  0.20852544483E+04 0.  0.
        4    1    3    3  502    0  0.45486326377E+03  0.76972307569E+03  0.12278074484E+04  0.15188439502E+04  0.12699999809E+01 0. -1.
       -4    1    3    3    0  502 -0.45486326377E+03 -0.76972307569E+03 -0.13557399726E+02  0.89418097607E+03  0.12699999809E+01 0.  1.
</event>
<event>
 5   0  0.2579241E-04  0.2319643E+04  0.7818609E-02  0.8470216E-01
       -2   -1    0    0    0  501  0.00000000000E+00  0.00000000000E+00  0.68014704866E+03  0.68014704866E+03  0.25500000920E-02 0. -1.
        2   -1    0    0  501    0  0.00000000000E+00  0.00000000000E+00 -0.19777868859E+04  0.19777868859E+04  0.25500000920E-02 0.  1.
    10030    2    1    2    0    0  0.00000000000E+00  0.00000000000E+00 -0.12976398372E+04  0.26579339345E+04  0.23196430013E+04 0.  0.
        5    1    3    3  502    0  0.21002140822E+03  0.49147511256E+03 -0.18282574820E+04  0.19047845781E+04  0.46999998093E+01 0.  1.
       -5    1    3    3    0  502 -0.21002140822E+03 -0.49147511256E+03  0.53061764482E+03  0.75314935648E+03  0.46999998093E+01 0. -1.
</event>
<event>
 5   0  0.1156733E-04  0.2120974E+04  0.7818609E-02  0.8552060E-01
       -1   -1    0    0    0  501  0.00000000000E+00  0.00000000000E+00  0.91181677483E+03  0.91181677484E+03  0.50400001928E-02 0. -1.
        1   -1    0    0  501    0  0.00000000000E+00  0.00000000000E+00 -0.12333972732E+04  0.12333972732E+04  0.50400001928E-02 0.  1.
    10030    2    1    2    0    0  0.00000000000E+00  0.00000000000E+00 -0.32158049837E+03  0.21452140481E+04  0.21209736667E+04 0.  0.
        2    1    3    3  502    0  0.24596835694E+03  0.91548107355E+03  0.32006552888E+03  0.10005238485E+04  0.25500000920E-02 0. -1.
       -2    1    3    3    0  502 -0.24596835694E+03 -0.91548107355E+03 -0.64164602725E+03  0.11446901995E+04  0.25500000920E-02 0.  1.
</event>
<event>
 5   0  0.1130848E-04  0.2116522E+04  0.7818609E-02  0.8554000E-01
       -1   -1    0    0    0  501  0.00000000000E+00  0.00000000000E+00  0.63371112571E+03  0.63371112573E+03  0.50400001928E-02 0.  1.
        1   -1    0    0  501    0  0.00000000000E+00  0.00000000000E+00 -0.17672341446E+04  0.17672341446E+04  0.50400001928E-02 0. -1.
    10030    2    1    2    0    0  0.00000000000E+00  0.00000000000E+00 -0.11335230189E+04  0.24009452704E+04  0.21165216174E+04 0.  0.
        5    1    3    3  502    0  0.39858876276E+03 -0.62017737345E+03 -0.14279968978E+04  0.16070750469E+04  0.46999998093E+01 0. -1.
       -5    1    3    3    0  502 -0.39858876276E+03  0.62017737345E+03  0.29447387888E+03  0.79387022345E+03  0.46999998093E+01 0.  1.
</event>
<event>
 5   0  0.1186038E-04  0.1832954E+04  0.7818609E-02  0.8688969E-01
       -1   -1    0    0    0  501  0.00000000000E+00  0.00000000000E+00  0.28763829011E+03  0.28763829016E+03  0.50400001928E-02 0.  1.
        1   -1    0    0  501    0  0.00000000000E+00  0.00000000000E+00 -0.29200904484E+04  0.29200904484E+04  0.50400001928E-02 0. -1.
    10030    2    1    2    0    0  0.00000000000E+00  0.00000000000E+00 -0.26324521583E+04  0.32077287385E+04  0.18329537077E+04 0.  0.
        4    1    3    3  502    0  0.32173982214E+03  0.81564449209E+03 -0.84946984576E+03  0.12208165638E+04  0.12699999809E+01 0.  1.
       -4    1    3    3    0  502 -0.32173982214E+03 -0.81564449209E+03 -0.17829823125E+04  0.19869121748E+04  0.12699999809E+01 0. -1.
</event>
<event>
 5   0  0.1042395E-04  0.2204164E+04  0.7818609E-02  0.8516697E-01
        1   -1    0    0  501    0  0.00000000000E+00  0.00000000000E+00  0.10796931824E+04  0.10796931824E+04  0.50400001928E-02 0.  1.
       -1   -1    0    0    0  501  0.00000000000E+00  0.00000000000E+00 -0.11249346789E+04  0.11249346789E+04  0.50400001928E-02 0. -1.
    10030    2    1    2    0    0  0.00000000000E+00  0.00000000000E+00 -0.45241496496E+02  0.22046278613E+04  0.22041636087E+04 0.  0.
        3    1    3    3  502    0 -0.52637559641E+03  0.72557734262E+03 -0.66388802339E+03  0.11154734719E+04  0.10100000352E+00 0. -1.
       -3    1    3    3    0  502  0.52637559641E+03 -0.72557734262E+03  0.61864652689E+03  0.10891543894E+04  0.10100000352E+00 0.  1.
</event>
<event>
 5   0  0.1130848E-04  0.2051938E+04  0.7818609E-02  0.8582716E-01
       -1   -1    0    0    0  501  0.00000000000E+00  0.00000000000E+00  0.45556888599E+03  0.45556888601E+03  0.50400001928E-02 0.  1.
        1   -1    0    0  501    0  0.00000000000E+00  0.00000000000E+00 -0.23105446345E+04  0.23105446345E+04  0.50400001928E-02 0. -1.
    10030    2    1    2    0    0  0.00000000000E+00  0.00000000000E+00 -0.18549757485E+04  0.27661135205E+04  0.20519378599E+04 0.  0.
        5    1    3    3  502    0 -0.13699673937E+03  0.93399900530E+03 -0.14691754846E+04  0.17463163926E+04  0.46999998093E+01 0. -1.
       -5    1    3    3    0  502  0.13699673937E+03 -0.93399900530E+03 -0.38580026393E+03  0.10197971279E+04  0.46999998093E+01 0.  1.
</event>
<event>
 5   0  0.1122711E-04  0.2137642E+04  0.7818609E-02  0.8544841E-01
        1   -1    0    0  501    0  0.00000000000E+00  0.00000000000E+00  0.15369374878E+04  0.15369374878E+04  0.50400001928E-02 0.  1.
       -1   -1    0    0    0  501  0.00000000000E+00  0.00000000000E+00 -0.74328236748E+03  0.74328236750E+03  0.50400001928E-02 0. -1.
    10030    2    1    2    0    0  0.00000000000E+00  0.00000000000E+00  0.79365512031E+03  0.22802198553E+04  0.21376421914E+04 0.  0.
        1    1    3    3  502    0  0.84579425867E+03 -0.64074227019E+03  0.53368107730E+03  0.11877432707E+04  0.50400001928E-02 0.  1.
       -1    1    3    3    0  502 -0.84579425867E+03  0.64074227019E+03  0.25997404301E+03  0.10924765846E+04  0.50400001928E-02 0. -1.
</event>
<event>
 5   0  0.8698750E-05  0.2148875E+04  0.7818609E-02  0.8540014E-01
       -3   -1    0    0    0  501  0.00000000000E+00  0.00000000000E+00  0.84600368080E+03  0.84600368683E+03  0.10100000352E+00 0.  1.
        3   -1    0    0  501    0  0.00000000000E+00  0.00000000000E+00 -0.13645523034E+04  0.13645523071E+04  0.10100000352E+00 0. -1.
    10030    2    1    2    0    0  0.00000000000E+00  0.00000000000E+00 -0.51854862257E+03  0.22105559939E+04  0.21488753171E+04 0.  0.
        3    1    3    3  502    0 -0.61162416627E+03  0.74747396435E+03  0.22499807541E+03  0.99167816971E+03  0.10100000352E+00 0.  1.
       -3    1    3    3    0  502  0.61162416627E+03 -0.74747396435E+03 -0.74354669797E+03  0.12188778242E+04  0.10100000352E+00 0. -1.
</event>
<event>
 5   0  0.2430898E-04  0.2088505E+04  0.7818609E-02  0.8566324E-01
       -2   -1    0    0    0  501  0.00000000000E+00  0.00000000000E+00  0.78944249344E+03  0.78944249345E+03  0.25500000920E-02 0. -1.
        2   -1    0    0  501    0  0.00000000000E+00  0.00000000000E+00 -0.13813078911E+04  0.13813078911E+04  0.25500000920E-02 0.  1.
    10030    2    1    2    0    0  0.00000000000E+00  0.00000000000E+00 -0.59186539765E+03  0.21707503845E+04  0.20885048678E+04 0.  0.
        1    1    3    3  502    0 -0.91960948767E+03  0.30534914367E+03 -0.70054861303E+03  0.11956956421E+04  0.50400001928E-02 0.  1.
       -1    1    3    3    0  502  0.91960948767E+03 -0.30534914367E+03  0.10868321539E+03  0.97505474241E+03  0.50400001928E-02 0. -1.
</event>
<event>
 5   0  0.1122711E-04  0.2069110E+04  0.7818609E-02  0.8574974E-01
       -1   -1    0    0    0  501  0.00000000000E+00  0.00000000000E+00  0.66358102316E+03  0.66358102318E+03  0.50400001928E-02 0.  1.
        1   -1    0    0  501    0  0.00000000000E+00  0.00000000000E+00 -0.16129208911E+04  0.16129208912E+04  0.50400001928E-02 0. -1.
    10030    2    1    2    0    0  0.00000000000E+00  0.00000000000E+00 -0.94933986798E+03  0.22765019143E+04  0.20691096590E+04 0.  0.
        1    1    3    3  502    0 -0.82892661970E+03  0.34006658438E+03  0.94416352529E+02  0.90093233392E+03  0.50400001928E-02 0.  1.
       -1    1    3    3    0  502  0.82892661970E+03 -0.34006658438E+03 -0.10437562205E+04  0.13755695804E+04  0.50400001928E-02 0. -1.
</event>
<event>
 5   0  0.2467483E-04  0.1645505E+04  0.7818609E-02  0.8793070E-01
        2   -1    0    0  501    0  0.00000000000E+00  0.00000000000E+00  0.12294614578E+04  0.12294614578E+04  0.25500000920E-02 0.  1.
       -2   -1    0    0    0  501  0.00000000000E+00  0.00000000000E+00 -0.55058412793E+03  0.55058412793E+03  0.25500000920E-02 0. -1.
    10030    2    1    2    0    0  0.00000000000E+00  0.00000000000E+00  0.67887732983E+03  0.17800455857E+04  0.16455053504E+04 0.  0.
        4    1    3    3  502    0  0.38719594813E+02 -0.11184753105E+03  0.12202026105E+04  0.12259303002E+04  0.12699999809E+01 0.  1.
       -4    1    3    3    0  502 -0.38719594813E+02  0.11184753105E+03 -0.54132528070E+03  0.55411528553E+03  0.12699999809E+01 0. -1.
</event>
<event>
 5   0  0.2579241E-04  0.2374345E+04  0.7818609E-02  0.8449171E-01
        2   -1    0    0  501    0  0.00000000000E+00  0.00000000000E+00  0.16840346018E+04  0.16840346018E+04  0.25500000920E-02 0.  1.
       -2   -1    0    0    0  501  0.00000000000E+00  0.00000000000E+00 -0.83690575018E+03  0.83690575019E+03  0.25500000920E-02 0. -1.
    10030    2    1    2    0    0  0.00000000000E+00  0.00000000000E+00  0.84712885162E+03  0.25209403520E+04  0.23743447448E+04 0.  0.
        5    1    3    3  502    0 -0.13148663500E+03  0.32461343475E+03 -0.78079565567E+03  0.85576080953E+03  0.46999998093E+01 0. -1.
       -5    1    3    3    0  502  0.13148663500E+03 -0.32461343475E+03  0.16279245073E+04  0.16651795425E+04  0.46999998093E+01 0.  1.
</event>
<event>
 5   0  0.1156733E-04  0.2000839E+04  0.7818609E-02  0.8606228E-01
       -1   -1    0    0    0  501  0.00000000000E+00  0.00000000000E+00  0.11770636668E+04  0.11770636668E+04  0.50400001928E-02 0. -1.
        1   -1    0    0  501    0  0.00000000000E+00  0.00000000000E+00 -0.85028474428E+03  0.85028474430E+03  0.50400001928E-02 0.  1.
    10030    2    1    2    0    0  0.00000000000E+00  0.00000000000E+00  0.32677892249E+03  0.20273484111E+04  0.20008391029E+04 0.  0.
        2    1    3    3  502    0 -0.81944529969E+03 -0.35602639837E+03 -0.29267831642E+03  0.94016274784E+03  0.25500000920E-02 0. -1.
       -2    1    3    3    0  502  0.81944529969E+03  0.35602639837E+03  0.61945723892E+03  0.10871856632E+04  0.25500000920E-02 0.  1.
</event>
<event>
 5   0  0.1122711E-04  0.2153174E+04  0.7818609E-02  0.8538175E-01
       -1   -1    0    0    0  501  0.00000000000E+00  0.00000000000E+00  0.58302149191E+03  0.58302149193E+03  0.50400001928E-02 0. -1.
        1   -1    0    0  501    0  0.00000000000E+00  0.00000000000E+00 -0.19879881475E+04  0.19879881475E+04  0.50400001928E-02 0.  1.
    10030    2    1    2    0    0  0.00000000000E+00  0.00000000000E+00 -0.14049666556E+04  0.25710096394E+04  0.21531742295E+04 0.  0.
        1    1    3    3  502    0  0.18666382301E+03 -0.37497921329E+03  0.48173267789E+03  0.63837227868E+03  0.50400001928E-02 0. -1.
       -1    1    3    3    0  502 -0.18666382301E+03  0.37497921329E+03 -0.18866993334E+04  0.19326373607E+04  0.50400001928E-02 0.  1.
</event>
<event>
 5   0  0.2448804E-04  0.1887199E+04  0.7818609E-02  0.8661255E-01
        2   -1    0    0  501    0  0.00000000000E+00  0.00000000000E+00  0.82734513602E+03  0.82734513602E+03  0.25500000920E-02 0. -1.
       -2   -1    0    0    0  501  0.00000000000E+00  0.00000000000E+00 -0.10761887723E+04  0.10761887723E+04  0.25500000920E-02 0.  1.
    10030    2    1    2    0    0  0.00000000000E+00  0.00000000000E+00 -0.24884363629E+03  0.19035339083E+04  0.18871985017E+04 0.  0.
        2    1    3    3  502    0  0.11262049892E+03  0.90411437384E+03 -0.37205324836E+03  0.98413911485E+03  0.25500000920E-02 0. -1.
       -2    1    3    3    0  502 -0.11262049892E+03 -0.90411437384E+03  0.12320961207E+03  0.91939479348E+03  0.25500000920E-02 0.  1.
</event>
<event>
 5   0  0.1042395E-04  0.2073131E+04  0.7818609E-02  0.8573173E-01
        1   -1    0    0  501    0  0.00000000000E+00  0.00000000000E+00  0.66581721549E+03  0.66581721551E+03  0.50400001928E-02 0.  1.
       -1   -1    0    0    0  501  0.00000000000E+00  0.00000000000E+00 -0.16137578064E+04  0.16137578064E+04  0.50400001928E-02 0. -1.
    10030    2    1    2    0    0  0.00000000000E+00  0.00000000000E+00 -0.94794059087E+03  0.22795750219E+04  0.20731307042E+04 0.  0.
        3    1    3    3  502    0  0.60284068857E+03  0.84273805862E+03 -0.44203721336E+03  0.11265084285E+04  0.10100000352E+00 0.  1.
       -3    1    3    3    0  502 -0.60284068857E+03 -0.84273805862E+03 -0.50590337750E+03  0.11530665934E+04  0.10100000352E+00 0. -1.
</event>
<event>
 5   0  0.1042395E-04  0.2099038E+04  0.7818609E-02  0.8561667E-01
        1   -1    0    0  501    0  0.00000000000E+00  0.00000000000E+00  0.10553447467E+04  0.10553447467E+04  0.50400001928E-02 0.  1.
       -1   -1    0    0    0  501  0.00000000000E+00  0.00000000000E+00 -0.10437258368E+04  0.10437258368E+04  0.50400001928E-02 0. -1.
    10030    2    1    2    0    0  0.00000000000E+00  0.00000000000E+00  0.11618909832E+02  0.20990705835E+04  0.20990384264E+04 0.  0.
        3    1    3    3  502    0  0.55047222911E+03 -0.24180618663E+03  0.86605554496E+03  0.10542969810E+04  0.10100000352E+00 0.  1.
       -3    1    3    3    0  502 -0.55047222911E+03  0.24180618663E+03 -0.85443663513E+03  0.10447736025E+04  0.10100000352E+00 0. -1.
</event>
<event>
 5   0  0.2448804E-04  0.1152677E+04  0.7818609E-02  0.9155317E-01
       -2   -1    0    0    0  501  0.00000000000E+00  0.00000000000E+00  0.33688327536E+03  0.33688327537E+03  0.25500000920E-02 0. -1.
        2   -1    0    0  501    0  0.00000000000E+00  0.00000000000E+00 -0.98599825228E+03  0.98599825228E+03  0.25500000920E-02 0.  1.
    10030    2    1    2    0    0  0.00000000000E+00  0.00000000000E+00 -0.64911497691E+03  0.13228815277E+04  0.11526774410E+04 0.  0.
        2    1    3    3  502    0  0.77559207687E+02  0.34391049261E+03 -0.84781541739E+03  0.91819433651E+03  0.25500000920E-02 0.  1.
       -2    1    3    3    0  502 -0.77559207687E+02 -0.34391049261E+03  0.19870044047E+03  0.40468719115E+03  0.25500000920E-02 0. -1.
</event>
<event>
 5   0  0.1130848E-04  0.2093224E+04  0.7818609E-02  0.8564234E-01
        1   -1    0    0  501    0  0.00000000000E+00  0.00000000000E+00  0.26573411492E+04  0.26573411492E+04  0.50400001928E-02 0. -1.
       -1   -1    0    0    0  501  0.00000000000E+00  0.00000000000E+00 -0.41221529836E+03  0.41221529839E+03  0.50400001928E-02 0.  1.
    10030    2    1    2    0    0  0.00000000000E+00  0.00000000000E+00  0.22451258509E+04  0.30695564476E+04  0.20932239963E+04 0.  0.
        5    1    3    3  502    0  0.43482541293E+03  0.83348649705E+03  0.17971212405E+04  0.20281616611E+04  0.46999998093E+01 0. -1.
       -5    1    3    3    0  502 -0.43482541293E+03 -0.83348649705E+03  0.44800461039E+03  0.10413947865E+04  0.46999998093E+01 0.  1.
</event>
<event>
 5   0  0.2512839E-04  0.1711033E+04  0.7818609E-02  0.8755097E-01
        2   -1    0    0  501    0  0.00000000000E+00  0.00000000000E+00  0.16705386586E+04  0.16705386586E+04  0.25500000920E-02 0.  1.
       -2   -1    0    0    0  501  0.00000000000E+00  0.00000000000E+00 -0.43812740574E+03  0.43812740575E+03  0.25500000920E-02 0. -1.
    10030    2    1    2    0    0  0.00000000000E+00  0.00000000000E+00  0.12324112528E+04  0.21086660643E+04  0.17110333354E+04 0.  0.
        3    1    3    3  502    0 -0.31474767612E+03  0.40576247206E+03 -0.22706077954E+03  0.56148543272E+03  0.10100000352E+00 0. -1.
       -3    1    3    3    0  502  0.31474767612E+03 -0.40576247206E+03  0.14594720324E+04  0.15471806316E+04  0.10100000352E+00 0.  1.
</event>
<event>
 5   0  0.2512839E-04  0.2083563E+04  0.7818609E-02  0.8568519E-01
        2   -1    0    0  501    0  0.00000000000E+00  0.00000000000E+00  0.19879637350E+04  0.19879637350E+04  0.25500000920E-02 0. -1.
       -2   -1    0    0    0  501  0.00000000000E+00  0.00000000000E+00 -0.54593968213E+03  0.54593968213E+03  0.25500000920E-02 0.  1.
    10030    2    1    2    0    0  0.00000000000E+00  0.00000000000E+00  0.14420240529E+04  0.25339034172E+04  0.20835626121E+04 0.  0.
        3    1    3    3  502    0 -0.54378331529E+03 -0.41965907746E+03 -0.23154009301E+03  0.72486195938E+03  0.10100000352E+00 0.  1.
       -3    1    3    3    0  502  0.54378331529E+03  0.41965907746E+03  0.16735641459E+04  0.18090414578E+04  0.10100000352E+00 0. -1.
</event>
<event>
 5   0  0.2448804E-04  0.1959298E+04  0.7818609E-02  0.8625890E-01
       -2   -1    0    0    0  501  0.00000000000E+00  0.00000000000E+00  0.57734585993E+03  0.57734585994E+03  0.25500000920E-02 0.  1.
        2   -1    0    0  501    0  0.00000000000E+00  0.00000000000E+00 -0.16622827556E+04  0.16622827556E+04  0.25500000920E-02 0. -1.
    10030    2    1    2    0    0  0.00000000000E+00  0.00000000000E+00 -0.10849368957E+04  0.22396286155E+04  0.19592979018E+04 0.  0.
        2    1    3    3  502    0 -0.44573573798E+03  0.97200906627E+02  0.44851000490E+03  0.63975744534E+03  0.25500000920E-02 0.  1.
       -2    1    3    3    0  502  0.44573573798E+03 -0.97200906627E+02 -0.15334469006E+04  0.15998711702E+04  0.25500000920E-02 0. -1.
</event>
<event>
 5   0  0.1186038E-04  0.2008536E+04  0.7818609E-02  0.8602640E-01
        1   -1    0    0  501    0  0.00000000000E+00  0.00000000000E+00  0.96307259269E+03  0.96307259271E+03  0.50400001928E-02 0.  1.
       -1   -1    0    0    0  501  0.00000000000E+00  0.00000000000E+00 -0.10472250853E+04  0.10472250853E+04  0.50400001928E-02 0. -1.
    10030    2    1    2    0    0  0.00000000000E+00  0.00000000000E+00 -0.84152492644E+02  0.20102976781E+04  0.20085355641E+04 0.  0.
        4    1    3    3  502    0 -0.83229083868E+02 -0.98243608798E+03  0.14899544753E+03  0.99715044183E+03  0.12699999809E+01 0. -1.
       -4    1    3    3    0  502  0.83229083868E+02  0.98243608798E+03 -0.23314794017E+03  0.10131472362E+04  0.12699999809E+01 0.  1.
</event>
<event>
 5   0  0.2430898E-04  0.2089303E+04  0.7818609E-02  0.8565970E-01
        2   -1    0    0  501    0  0.00000000000E+00  0.00000000000E+00  0.10974690349E+04  0.10974690349E+04  0.25500000920E-02 0.  1.
       -2   -1    0    0    0  501  0.00000000000E+00  0.00000000000E+00 -0.99437588213E+03  0.99437588213E+03  0.25500000920E-02 0. -1.
    10030    2    1    2    0    0  0.00000000000E+00  0.00000000000E+00  0.10309315274E+03  0.20918449170E+04  0.20893029839E+04 0.  0.
        1    1    3    3  502    0  0.31883938294E+03  0.86988018090E+03 -0.43168610923E+03  0.10221071266E+04  0.50400001928E-02 0. -1.
       -1    1    3    3    0  502 -0.31883938294E+03 -0.86988018090E+03  0.53477926196E+03  0.10697377904E+04  0.50400001928E-02 0.  1.
</event>
<event>
 5   0  0.2448804E-04  0.2161300E+04  0.7818609E-02  0.8534711E-01
        2   -1    0    0  501    0  0.00000000000E+00  0.00000000000E+00  0.10151094611E+04  0.10151094611E+04  0.25500000920E-02 0.  1.
       -2   -1    0    0    0  501  0.00000000000E+00  0.00000000000E+00 -0.11504225957E+04  0.11504225957E+04  0.25500000920E-02 0. -1.
    10030    2    1    2    0    0  0.00000000000E+00  0.00000000000E+00 -0.13531313461E+03  0.21655320568E+04  0.21613004060E+04 0.  0.
        2    1    3    3  502    0 -0.39038138396E+03 -0.99003083800E+03 -0.25576379595E+03  0.10945198968E+04  0.25500000920E-02 0.  1.
       -2    1    3    3    0  502  0.39038138396E+03  0.99003083800E+03  0.12045066134E+03  0.10710121600E+04  0.25500000920E-02 0. -1.
</event>
<event>
 5   0  0.2430898E-04  0.2133200E+04  0.7818609E-02  0.8546758E-01
        2   -1    0    0  501    0  0.00000000000E+00  0.00000000000E+00  0.25863528704E+04  0.25863528704E+04  0.25500000920E-02 0. -1.
       -2   -1    0    0    0  501  0.00000000000E+00  0.00000000000E+00 -0.43986098241E+03  0.43986098242E+03  0.25500000920E-02 0.  1.
    10030    2    1    2    0    0  0.00000000000E+00  0.00000000000E+00  0.21464918879E+04  0.30262138528E+04  0.21332001448E+04 0.  0.
        1    1    3    3  502    0  0.31368376483E+03 -0.10194296722E+04  0.10715955588E+04  0.15119363090E+04  0.50400001928E-02 0. -1.
       -1    1    3    3    0  502 -0.31368376483E+03  0.10194296722E+04  0.10748963292E+04  0.15142775437E+04  0.50400001928E-02 0.  1.
</event>
<event>
 5   0  0.2512839E-04  0.2082380E+04  0.7818609E-02  0.8569045E-01
        2   -1    0    0  501    0  0.00000000000E+00  0.00000000000E+00  0.20802570850E+04  0.20802570850E+04  0.25500000920E-02 0.  1.
       -2   -1    0    0    0  501  0.00000000000E+00  0.00000000000E+00 -0.52112640797E+03  0.52112640797E+03  0.25500000920E-02 0. -1.
    10030    2    1    2    0    0  0.00000000000E+00  0.00000000000E+00  0.15591306770E+04  0.26013834929E+04  0.20823802749E+04 0.  0.
        3    1    3    3  502    0  0.57193453426E+03 -0.44936845405E+03 -0.15112418748E+03  0.74288602707E+03  0.10100000352E+00 0. -1.
       -3    1    3    3    0  502 -0.57193453426E+03  0.44936845405E+03  0.17102548645E+04  0.18584974659E+04  0.10100000352E+00 0.  1.
</event>
<event>
 5   0  0.1156733E-04  0.2007533E+04  0.7818609E-02  0.8603107E-01
        1   -1    0    0  501    0  0.00000000000E+00  0.00000000000E+00  0.14423234053E+04  0.14423234053E+04  0.50400001928E-02 0.  1.
       -1   -1    0    0    0  501  0.00000000000E+00  0.00000000000E+00 -0.69855821786E+03  0.69855821788E+03  0.50400001928E-02 0. -1.
    10030    2    1    2    0    0  0.00000000000E+00  0.00000000000E+00  0.74376518746E+03  0.21408816232E+04  0.20075326823E+04 0.  0.
        2    1    3    3  502    0  0.56446581228E+03  0.46631496696E+03 -0.36036781929E+03  0.81604918163E+03  0.25500000920E-02 0. -1.
       -2    1    3    3    0  502 -0.56446581228E+03 -0.46631496696E+03  0.11041330068E+04  0.13248324416E+04  0.25500000920E-02 0.  1.
</event>
<event>
 5   0  0.2430898E-04  0.2074460E+04  0.7818609E-02  0.8572578E-01
       -2   -1    0    0    0  501  0.00000000000E+00  0.00000000000E+00  0.63037842995E+03  0.63037842996E+03  0.25500000920E-02 0.  1.
        2   -1    0    0  501    0  0.00000000000E+00  0.00000000000E+00 -0.17066668516E+04  0.17066668516E+04  0.25500000920E-02 0. -1.
    10030    2    1    2    0    0  0.00000000000E+00  0.00000000000E+00 -0.10762884217E+04  0.23370452816E+04  0.20744599012E+04 0.  0.
        1    1    3    3  502    0 -0.40245790438E+03 -0.40869548539E+03  0.43544630540E+03  0.72015126847E+03  0.50400001928E-02 0.  1.
       -1    1    3    3    0  502  0.40245790438E+03  0.40869548539E+03 -0.15117347270E+04  0.16168940131E+04  0.50400001928E-02 0. -1.
</event>
<event>
 5   0  0.2467483E-04  0.2068847E+04  0.7818609E-02  0.8575092E-01
       -2   -1    0    0    0  501  0.00000000000E+00  0.00000000000E+00  0.10104500121E+04  0.10104500121E+04  0.25500000920E-02 0.  1.
        2   -1    0    0  501    0  0.00000000000E+00  0.00000000000E+00 -0.10589653551E+04  0.10589653551E+04  0.25500000920E-02 0. -1.
    10030    2    1    2    0    0  0.00000000000E+00  0.00000000000E+00 -0.48515343016E+02  0.20694153673E+04  0.20688465926E+04 0.  0.
        4    1    3    3  502    0 -0.39725118050E+03  0.78772942156E+03 -0.56450226019E+03  0.10473731697E+04  0.12699999809E+01 0. -1.
       -4    1    3    3    0  502  0.39725118050E+03 -0.78772942156E+03  0.51598691717E+03  0.10220421976E+04  0.12699999809E+01 0.  1.
</event>
<event>
 5   0  0.1122711E-04  0.2060423E+04  0.7818609E-02  0.8578880E-01
        1   -1    0    0  501    0  0.00000000000E+00  0.00000000000E+00  0.18230023579E+04  0.18230023579E+04  0.50400001928E-02 0. -1.
       -1   -1    0    0    0  501  0.00000000000E+00  0.00000000000E+00 -0.58219127308E+03  0.58219127310E+03  0.50400001928E-02 0.  1.
    10030    2    1    2    0    0  0.00000000000E+00  0.00000000000E+00  0.12408110848E+04  0.24051936310E+04  0.20604233192E+04 0.  0.
        1    1    3    3  502    0 -0.21296196840E+03 -0.30670468292E+03 -0.50042291074E+03  0.62437460881E+03  0.50400001928E-02 0.  1.
       -1    1    3    3    0  502  0.21296196840E+03  0.30670468292E+03  0.17412339956E+04  0.17808190222E+04  0.50400001928E-02 0. -1.
</event>
<event>
 5   0  0.1156733E-04  0.2080436E+04  0.7818609E-02  0.8569911E-01
       -1   -1    0    0    0  501  0.00000000000E+00  0.00000000000E+00  0.48730796680E+03  0.48730796683E+03  0.50400001928E-02 0. -1.
        1   -1    0    0  501    0  0.00000000000E+00  0.00000000000E+00 -0.22204719323E+04  0.22204719323E+04  0.50400001928E-02 0.  1.
    10030    2    1    2    0    0  0.00000000000E+00  0.00000000000E+00 -0.17331639655E+04  0.27077798991E+04  0.20804361684E+04 0.  0.
        2    1    3    3  502    0  0.34201911483E+03  0.90456385929E+03 -0.36783262012E+03  0.10346563134E+04  0.25500000920E-02 0. -1.
       -2    1    3    3    0  502 -0.34201911483E+03 -0.90456385929E+03 -0.13653313454E+04  0.16731235857E+04  0.25500000920E-02 0.  1.
</event>
<event>
 5   0  0.1130848E-04  0.2113518E+04  0.7818609E-02  0.8555312E-01
       -1   -1    0    0    0  501  0.00000000000E+00  0.00000000000E+00  0.55003570340E+03  0.55003570342E+03  0.50400001928E-02 0. -1.
        1   -1    0    0  501    0  0.00000000000E+00  0.00000000000E+00 -0.20303033660E+04  0.20303033660E+04  0.50400001928E-02 0.  1.
    10030    2    1    2    0    0  0.00000000000E+00  0.00000000000E+00 -0.14802676626E+04  0.25803390694E+04  0.21135177691E+04 0.  0.
        5    1    3    3  502    0  0.61386197439E+03 -0.85039028020E+03 -0.58223417919E+03  0.11995869629E+04  0.46999998093E+01 0.  1.
       -5    1    3    3    0  502 -0.61386197439E+03  0.85039028020E+03 -0.89803348342E+03  0.13807521065E+04  0.46999998093E+01 0. -1.
</event>
<event>
 5   0  0.8698750E-05  0.2106292E+04  0.7818609E-02  0.8558477E-01
       -3   -1    0    0    0  501  0.00000000000E+00  0.00000000000E+00  0.21055537665E+04  0.21055537690E+04  0.10100000352E+00 0.  1.
        3   -1    0    0  501    0  0.00000000000E+00  0.00000000000E+00 -0.52675765711E+03  0.52675766679E+03  0.10100000352E+00 0. -1.
    10030    2    1    2    0    0  0.00000000000E+00  0.00000000000E+00  0.15787961094E+04  0.26323114358E+04  0.21062920832E+04 0.  0.
        1    1    3    3  502    0 -0.95516433766E+03 -0.40251380976E+03  0.55639561419E+03  0.11764065447E+04  0.50400001928E-02 0. -1.
       -1    1    3    3    0  502  0.95516433766E+03  0.40251380976E+03  0.10224004952E+04  0.14559048910E+04  0.50400001928E-02 0.  1.
</event>
<event>
 5   0  0.1042395E-04  0.2050627E+04  0.7818609E-02  0.8583310E-01
        1   -1    0    0  501    0  0.00000000000E+00  0.00000000000E+00  0.13455204178E+04  0.13455204178E+04  0.50400001928E-02 0. -1.
       -1   -1    0    0    0  501  0.00000000000E+00  0.00000000000E+00 -0.78130967979E+03  0.78130967981E+03  0.50400001928E-02 0.  1.
    10030    2    1    2    0    0  0.00000000000E+00  0.00000000000E+00  0.56421073805E+03  0.21268300977E+04  0.20506273448E+04 0.  0.
        3    1    3    3  502    0  0.72244615284E+02 -0.13769405393E+03  0.13332201185E+04  0.13422573641E+04  0.10100000352E+00 0. -1.
       -3    1    3    3    0  502 -0.72244615284E+02  0.13769405393E+03 -0.76900938042E+03  0.78457273359E+03  0.10100000352E+00 0.  1.
</event>
<event>
 5   0  0.2467483E-04  0.2156005E+04  0.7818609E-02  0.8536966E-01
       -2   -1    0    0    0  501  0.00000000000E+00  0.00000000000E+00  0.71595471888E+03  0.71595471889E+03  0.25500000920E-02 0.  1.
        2   -1    0    0  501    0  0.00000000000E+00  0.00000000000E+00 -0.16231318861E+04  0.16231318861E+04  0.25500000920E-02 0. -1.
    10030    2    1    2    0    0  0.00000000000E+00  0.00000000000E+00 -0.90717716726E+03  0.23390866050E+04  0.21560045763E+04 0.  0.
        4    1    3    3  502    0  0.95232595616E+03 -0.48594248606E+03 -0.30395456163E+03  0.11115101506E+04  0.12699999809E+01 0. -1.
       -4    1    3    3    0  502 -0.95232595616E+03  0.48594248606E+03 -0.60322260563E+03  0.12275764544E+04  0.12699999809E+01 0.  1.
</event>
<event>
 5   0  0.1122711E-04  0.1821302E+04  0.7818609E-02  0.8695053E-01
        1   -1    0    0  501    0  0.00000000000E+00  0.00000000000E+00  0.13788912201E+04  0.13788912201E+04  0.50400001928E-02 0. -1.
       -1   -1    0    0    0  501  0.00000000000E+00  0.00000000000E+00 -0.60141448298E+03  0.60141448300E+03  0.50400001928E-02 0.  1.
    10030    2    1    2    0    0  0.00000000000E+00  0.00000000000E+00  0.77747673711E+03  0.19803057031E+04  0.18213018973E+04 0.  0.
        1    1    3    3  502    0 -0.26218473342E+03  0.20635291596E+03 -0.53256204570E+03  0.62844625299E+03  0.50400001928E-02 0.  1.
       -1    1    3    3    0  502  0.26218473342E+03 -0.20635291596E+03  0.13100387828E+04  0.13518594501E+04  0.50400001928E-02 0. -1.
</event>
<event>
 5   0  0.2579241E-04  0.2177508E+04  0.7818609E-02  0.8527848E-01
       -2   -1    0    0    0  501  0.00000000000E+00  0.00000000000E+00  0.14860648704E+04  0.14860648704E+04  0.25500000920E-02 0. -1.
        2   -1    0    0  501    0  0.00000000000E+00  0.00000000000E+00 -0.79766741582E+03  0.79766741582E+03  0.25500000920E-02 0.  1.
    10030    2    1    2    0    0  0.00000000000E+00  0.00000000000E+00  0.68839745457E+03  0.22837322862E+04  0.21775082318E+04 0.  0.
        5    1    3    3  502    0  0.56597236248E+03  0.20755056654E+03 -0.60664932140E+03  0.85524700638E+03  0.46999998093E+01 0.  1.
       -5    1    3    3    0  502 -0.56597236248E+03 -0.20755056654E+03  0.12950467760E+04  0.14284852798E+04  0.46999998093E+01 0. -1.
</event>
<event>
 5   0  0.2579241E-04  0.1810778E+04  0.7818609E-02  0.8700589E-01
       -2   -1    0    0    0  501  0.00000000000E+00  0.00000000000E+00  0.36197707089E+03  0.36197707090E+03  0.25500000920E-02 0. -1.
        2   -1    0    0  501    0  0.00000000000E+00  0.00000000000E+00 -0.22645895152E+04  0.22645895152E+04  0.25500000920E-02 0.  1.
    10030    2    1    2    0    0  0.00000000000E+00  0.00000000000E+00 -0.19026124443E+04  0.26265665861E+04  0.18107782631E+04 0.  0.
        5    1    3    3  502    0 -0.67074522069E+02 -0.11220599706E+03 -0.22508103029E+04  0.22546082335E+04  0.46999998093E+01 0.  1.
       -5    1    3    3    0  502  0.67074522069E+02  0.11220599706E+03  0.34819785859E+03  0.37195835253E+03  0.46999998093E+01 0. -1.
</event>
<event>
 5   0  0.2579241E-04  0.2096621E+04  0.7818609E-02  0.8562733E-01
       -2   -1    0    0    0  501  0.00000000000E+00  0.00000000000E+00  0.11424282569E+04  0.11424282569E+04  0.25500000920E-02 0.  1.
        2   -1    0    0  501    0  0.00000000000E+00  0.00000000000E+00 -0.96194658293E+03  0.96194658294E+03  0.25500000920E-02 0. -1.
    10030    2    1    2    0    0  0.00000000000E+00  0.00000000000E+00  0.18048167395E+03  0.21043748398E+04  0.20966210511E+04 0.  0.
        5    1    3    3  502    0  0.55500712121E+03  0.73338528038E+03 -0.41465628107E+03  0.10088849268E+04  0.46999998093E+01 0. -1.
       -5    1    3    3    0  502 -0.55500712121E+03 -0.73338528038E+03  0.59513795502E+03  0.10954899130E+04  0.46999998093E+01 0.  1.
</event>
<event>
 5   0  0.2448804E-04  0.1874889E+04  0.7818609E-02  0.8667457E-01
        2   -1    0    0  501    0  0.00000000000E+00  0.00000000000E+00  0.17776222186E+04  0.17776222186E+04  0.25500000920E-02 0.  1.
       -2   -1    0    0    0  501  0.00000000000E+00  0.00000000000E+00 -0.49436969290E+03  0.49436969291E+03  0.25500000920E-02 0. -1.
    10030    2    1    2    0    0  0.00000000000E+00  0.00000000000E+00  0.12832525256E+04  0.22719919115E+04  0.18748893837E+04 0.  0.
        2    1    3    3  502    0 -0.15189891462E+03  0.55954386368E+03  0.15342881791E+04  0.16401837800E+04  0.25500000920E-02 0.  1.
       -2    1    3    3    0  502  0.15189891462E+03 -0.55954386368E+03 -0.25103565347E+03  0.63180813145E+03  0.25500000920E-02 0. -1.
</event>
<event>
 5   0  0.1186038E-04  0.2086537E+04  0.7818609E-02  0.8567197E-01
        1   -1    0    0  501    0  0.00000000000E+00  0.00000000000E+00  0.14761212575E+04  0.14761212575E+04  0.50400001928E-02 0.  1.
       -1   -1    0    0    0  501  0.00000000000E+00  0.00000000000E+00 -0.73734409978E+03  0.73734409980E+03  0.50400001928E-02 0. -1.
    10030    2    1    2    0    0  0.00000000000E+00  0.00000000000E+00  0.73877715769E+03  0.22134653573E+04  0.20865371310E+04 0.  0.
        4    1    3    3  502    0 -0.78435297670E+03 -0.68765519542E+03  0.38861356656E+03  0.11131493057E+04  0.12699999809E+01 0.  1.
       -4    1    3    3    0  502  0.78435297670E+03  0.68765519542E+03  0.35016359113E+03  0.11003160515E+04  0.12699999809E+01 0. -1.
</event>
<event>
 5   0  0.2430898E-04  0.2208530E+04  0.7818609E-02  0.8514886E-01
        2   -1    0    0  501    0  0.00000000000E+00  0.00000000000E+00  0.22775450699E+04  0.22775450699E+04  0.25500000920E-02 0.  1.
       -2   -1    0    0    0  501  0.00000000000E+00  0.00000000000E+00 -0.53540145376E+03  0.53540145377E+03  0.25500000920E-02 0. -1.
    10030    2    1    2    0    0  0.00000000000E+00  0.00000000000E+00  0.17421436162E+04  0.28129465237E+04  0.22085297747E+04 0.  0.
        1    1    3    3  502    0  0.55739032786E+03 -0.73374679504E+02 -0.33947666475E+03  0.65674365404E+03  0.50400001928E-02 0. -1.
       -1    1    3    3    0  502 -0.55739032786E+03  0.73374679504E+02  0.20816202809E+04  0.21562028697E+04  0.50400001928E-02 0.  1.
</event>
<event>
 5   0  0.2579241E-04  0.2103256E+04  0.7818609E-02  0.8559810E-01
       -2   -1    0    0    0  501  0.00000000000E+00  0.00000000000E+00  0.12108432116E+04  0.12108432116E+04  0.25500000920E-02 0.  1.
        2   -1    0    0  501    0  0.00000000000E+00  0.00000000000E+00 -0.91334818843E+03  0.91334818844E+03  0.25500000920E-02 0. -1.
    10030    2    1    2    0    0  0.00000000000E+00  0.00000000000E+00  0.29749502319E+03  0.21241914001E+04  0.21032560033E+04 0.  0.
        5    1    3    3  502    0  0.29291346404E+03 -0.19932544307E+03  0.11487397099E+04  0.12021455572E+04  0.46999998093E+01 0.  1.
       -5    1    3    3    0  502 -0.29291346404E+03  0.19932544307E+03 -0.85124468670E+03  0.92204584284E+03  0.46999998093E+01 0. -1.
</event>
<event>
 5   0  0.2467483E-04  0.2085224E+04  0.7818609E-02  0.8567780E-01
        2   -1    0    0  501    0  0.00000000000E+00  0.00000000000E+00  0.22732713207E+04  0.22732713207E+04  0.25500000920E-02 0.  1.
       -2   -1    0    0    0  501  0.00000000000E+00  0.00000000000E+00 -0.47818297902E+03  0.47818297903E+03  0.25500000920E-02 0. -1.
    10030    2    1    2    0    0  0.00000000000E+00  0.00000000000E+00  0.17950883417E+04  0.27514542998E+04  0.20852238751E+04 0.  0.
        4    1    3    3  502    0  0.25140285274E+03  0.52085977217E+03  0.20421984477E+04  0.21225160564E+04  0.12699999809E+01 0.  1.
       -4    1    3    3    0  502 -0.25140285274E+03 -0.52085977217E+03 -0.24711010602E+03  0.62893824342E+03  0.12699999809E+01 0. -1.
</event>
<event>
 5   0  0.2512839E-04  0.2145052E+04  0.7818609E-02  0.8541653E-01
       -2   -1    0    0    0  501  0.00000000000E+00  0.00000000000E+00  0.67443476622E+03  0.67443476623E+03  0.25500000920E-02 0. -1.
        2   -1    0    0  501    0  0.00000000000E+00  0.00000000000E+00 -0.17055948372E+04  0.17055948372E+04  0.25500000920E-02 0.  1.
    10030    2    1    2    0    0  0.00000000000E+00  0.00000000000E+00 -0.10311600710E+04  0.23800296034E+04  0.21450524052E+04 0.  0.
        3    1    3    3  502    0 -0.10186385390E+04  0.27169706533E+03 -0.29683191532E+03  0.10952410532E+04  0.10100000352E+00 0.  1.
       -3    1    3    3    0  502  0.10186385390E+04 -0.27169706533E+03 -0.73432815566E+03  0.12847885502E+04  0.10100000352E+00 0. -1.
</event>
<event>
 5   0  0.2579241E-04  0.2335707E+04  0.7818609E-02  0.8463974E-01
       -2   -1    0    0    0  501  0.00000000000E+00  0.00000000000E+00  0.12728666891E+04  0.12728666891E+04  0.25500000920E-02 0. -1.
        2   -1    0    0  501    0  0.00000000000E+00  0.00000000000E+00 -0.10715044620E+04  0.10715044620E+04  0.25500000920E-02 0.  1.
    10030    2    1    2    0    0  0.00000000000E+00  0.00000000000E+00  0.20136222711E+03  0.23443711512E+04  0.23357074620E+04 0.  0.
        5    1    3    3  502    0 -0.70246812045E+02 -0.52637382353E+03  0.11446623558E+04  0.12618549899E+04  0.46999998093E+01 0. -1.
       -5    1    3    3    0  502  0.70246812045E+02  0.52637382353E+03 -0.94330012869E+03  0.10825161613E+04  0.46999998093E+01 0.  1.
</event>
<event>
 5   0  0.1186038E-04  0.2229124E+04  0.7818609E-02  0.8506403E-01
       -1   -1    0    0    0  501  0.00000000000E+00  0.00000000000E+00  0.78403943256E+03  0.78403943257E+03  0.50400001928E-02 0. -1.
        1   -1    0    0  501    0  0.00000000000E+00  0.00000000000E+00 -0.15844208701E+04  0.15844208702E+04  0.50400001928E-02 0.  1.
    10030    2    1    2    0    0  0.00000000000E+00  0.00000000000E+00 -0.80038143759E+03  0.23684603027E+04  0.22291239894E+04 0.  0.
        4    1    3    3  502    0  0.90997691823E+03 -0.63149336414E+03 -0.26831578266E+03  0.11396652284E+04  0.12699999809E+01 0.  1.
       -4    1    3    3    0  502 -0.90997691823E+03  0.63149336414E+03 -0.53206565493E+03  0.12287950743E+04  0.12699999809E+01 0. -1.
</event>
<event>
 5   0  0.1042395E-04  0.2098000E+04  0.7818609E-02  0.8562125E-01
       -1   -1    0    0    0  501  0.00000000000E+00  0.00000000000E+00  0.81086696411E+03  0.81086696413E+03  0.50400001928E-02 0. -1.
        1   -1    0    0  501    0  0.00000000000E+00  0.00000000000E+00 -0.13570676494E+04  0.13570676495E+04  0.50400001928E-02 0.  1.
    10030    2    1    2    0    0  0.00000000000E+00  0.00000000000E+00 -0.54620068533E+03  0.21679346136E+04  0.20980003098E+04 0.  0.
        3    1    3    3  502    0  0.98758517966E+03 -0.25823561138E+03 -0.23402770512E+02  0.10210572060E+04  0.10100000352E+00 0. -1.
       -3    1    3    3    0  502 -0.98758517966E+03  0.25823561138E+03 -0.52279791482E+03  0.11468774076E+04  0.10100000352E+00 0.  1.
</event>
<event>
 5   0  0.1130848E-04  0.2118950E+04  0.7818609E-02  0.8552941E-01
        1   -1    0    0  501    0  0.00000000000E+00  0.00000000000E+00  0.28646851982E+04  0.28646851982E+04  0.50400001928E-02 0.  1.
       -1   -1    0    0    0  501  0.00000000000E+00  0.00000000000E+00 -0.39183619377E+03  0.39183619380E+03  0.50400001928E-02 0. -1.
    10030    2    1    2    0    0  0.00000000000E+00  0.00000000000E+00  0.24728490045E+04  0.32565213920E+04  0.21189500650E+04 0.  0.
        5    1    3    3  502    0 -0.24181357626E+03  0.11194636622E+03  0.28123274920E+04  0.28249272215E+04  0.46999998093E+01 0.  1.
       -5    1    3    3    0  502  0.24181357626E+03 -0.11194636622E+03 -0.33947848751E+03  0.43159417055E+03  0.46999998093E+01 0. -1.
</event>
<event>
 5   0  0.2430898E-04  0.1930388E+04  0.7818609E-02  0.8639876E-01
       -2   -1    0    0    0  501  0.00000000000E+00  0.00000000000E+00  0.91587577027E+03  0.91587577027E+03  0.25500000920E-02 0.  1.
        2   -1    0    0  501    0  0.00000000000E+00  0.00000000000E+00 -0.10171678988E+04  0.10171678988E+04  0.25500000920E-02 0. -1.
    10030    2    1    2    0    0  0.00000000000E+00  0.00000000000E+00 -0.10129212853E+03  0.19330436691E+04  0.19303879743E+04 0.  0.
        1    1    3    3  502    0  0.58046324247E+03 -0.77090887832E+03 -0.69681641248E+02  0.96751930507E+03  0.50400001928E-02 0. -1.
       -1    1    3    3    0  502 -0.58046324247E+03  0.77090887832E+03 -0.31610487280E+02  0.96552436399E+03  0.50400001928E-02 0.  1.
</event>
<event>
 5   0  0.2579241E-04  0.2106753E+04  0.7818609E-02  0.8558274E-01
       -2   -1    0    0    0  501  0.00000000000E+00  0.00000000000E+00  0.12609185165E+04  0.12609185165E+04  0.25500000920E-02 0.  1.
        2   -1    0    0  501    0  0.00000000000E+00  0.00000000000E+00 -0.87999502786E+03  0.87999502786E+03  0.25500000920E-02 0. -1.
    10030    2    1    2    0    0  0.00000000000E+00  0.00000000000E+00  0.38092348863E+03  0.21409135443E+04  0.21067529756E+04 0.  0.
        5    1    3    3  502    0  0.27223360253E+03 -0.26145297247E+03  0.11898257597E+04  0.12482692897E+04  0.46999998093E+01 0.  1.
       -5    1    3    3    0  502 -0.27223360253E+03  0.26145297247E+03 -0.80890227109E+03  0.89264425463E+03  0.46999998093E+01 0. -1.
</event>
<event>
 5   0  0.1130848E-04  0.2074974E+04  0.7818609E-02  0.8572348E-01
       -1   -1    0    0    0  501  0.00000000000E+00  0.00000000000E+00  0.11364052634E+04  0.11364052634E+04  0.50400001928E-02 0. -1.
        1   -1    0    0  501    0  0.00000000000E+00  0.00000000000E+00 -0.94717927153E+03  0.94717927154E+03  0.50400001928E-02 0.  1.
    10030    2    1    2    0    0  0.00000000000E+00  0.00000000000E+00  0.18922599190E+03  0.20835845350E+04  0.20749742260E+04 0.  0.
        5    1    3    3  502    0  0.24409619387E+03 -0.53858337689E+03 -0.76139282934E+03  0.96405193652E+03  0.46999998093E+01 0.  1.
       -5    1    3    3    0  502 -0.24409619387E+03  0.53858337689E+03  0.95061882124E+03  0.11195325985E+04  0.46999998093E+01 0. -1.
</event>
<event>
 5   0  0.1122711E-04  0.2119009E+04  0.7818609E-02  0.8552915E-01
       -1   -1    0    0    0  501  0.00000000000E+00  0.00000000000E+00  0.11054407086E+04  0.11054407086E+04  0.50400001928E-02 0. -1.
        1   -1    0    0  501    0  0.00000000000E+00  0.00000000000E+00 -0.10154776225E+04  0.10154776225E+04  0.50400001928E-02 0.  1.
    10030    2    1    2    0    0  0.00000000000E+00  0.00000000000E+00  0.89963086086E+02  0.21209183311E+04  0.21190094880E+04 0.  0.
        1    1    3    3  502    0 -0.81268053865E+03 -0.41196105912E+03  0.58619845528E+03  0.10834159871E+04  0.50400001928E-02 0. -1.
       -1    1    3    3    0  502  0.81268053865E+03  0.41196105912E+03 -0.49623536920E+03  0.10375023440E+04  0.50400001928E-02 0.  1.
</event>
<event>
 5   0  0.2467483E-04  0.2184610E+04  0.7818609E-02  0.8524861E-01
       -2   -1    0    0    0  501  0.00000000000E+00  0.00000000000E+00  0.24153418430E+04  0.24153418430E+04  0.25500000920E-02 0. -1.
        2   -1    0    0  501    0  0.00000000000E+00  0.00000000000E+00 -0.49398003319E+03  0.49398003320E+03  0.25500000920E-02 0.  1.
    10030    2    1    2    0    0  0.00000000000E+00  0.00000000000E+00  0.19213618098E+04  0.29093218762E+04  0.21846103944E+04 0.  0.
        4    1    3    3  502    0 -0.86605174545E+03 -0.22695287137E+02  0.18466283148E+04  0.20397545068E+04  0.12699999809E+01 0. -1.
       -4    1    3    3    0  502  0.86605174545E+03  0.22695287137E+02  0.74733495019E+02  0.86956736946E+03  0.12699999809E+01 0.  1.
</event>
<event>
 5   0  0.1122711E-04  0.2052585E+04  0.7818609E-02  0.8582423E-01
        1   -1    0    0  501    0  0.00000000000E+00  0.00000000000E+00  0.11532820496E+04  0.11532820496E+04  0.50400001928E-02 0.  1.
       -1   -1    0    0    0  501  0.00000000000E+00  0.00000000000E+00 -0.91328587608E+03  0.91328587609E+03  0.50400001928E-02 0. -1.
    10030    2    1    2    0    0  0.00000000000E+00  0.00000000000E+00  0.23999617354E+03  0.20665679257E+04  0.20525849138E+04 0.  0.
        1    1    3    3  502    0 -0.65309865342E+03  0.64541066346E+03  0.58157894578E+03  0.10868886078E+04  0.50400001928E-02 0.  1.
       -1    1    3    3    0  502  0.65309865342E+03 -0.64541066346E+03 -0.34158277224E+03  0.97967931790E+03  0.50400001928E-02 0. -1.
</event>
<event>
 5   0  0.2467483E-04  0.1178589E+04  0.7818609E-02  0.9131807E-01
        2   -1    0    0  501    0  0.00000000000E+00  0.00000000000E+00  0.25007449800E+03  0.25007449802E+03  0.25500000920E-02 0. -1.
       -2   -1    0    0    0  501  0.00000000000E+00  0.00000000000E+00 -0.13886584211E+04  0.13886584211E+04  0.25500000920E-02 0.  1.
    10030    2    1    2    0    0  0.00000000000E+00  0.00000000000E+00 -0.11385839231E+04  0.16387329192E+04  0.11785890846E+04 0.  0.
        4    1    3    3  502    0  0.12680802617E+00  0.55593448144E+03 -0.84105856998E+03  0.10081886206E+04  0.12699999809E+01 0.  1.
       -4    1    3    3    0  502 -0.12680802617E+00 -0.55593448144E+03 -0.29752535315E+03  0.63054429852E+03  0.12699999809E+01 0. -1.
</event>
<event>
 5   0  0.2430898E-04  0.2075143E+04  0.7818609E-02  0.8572273E-01
        2   -1    0    0  501    0  0.00000000000E+00  0.00000000000E+00  0.31678503422E+04  0.31678503422E+04  0.25500000920E-02 0. -1.
       -2   -1    0    0    0  501  0.00000000000E+00  0.00000000000E+00 -0.33983751855E+03  0.33983751855E+03  0.25500000920E-02 0.  1.
    10030    2    1    2    0    0  0.00000000000E+00  0.00000000000E+00  0.28280128236E+04  0.35076878607E+04  0.20751427897E+04 0.  0.
        1    1    3    3  502    0  0.73319037810E+03  0.38763280589E+03  0.36011625026E+03  0.90416316916E+03  0.50400001928E-02 0.  1.
       -1    1    3    3    0  502 -0.73319037810E+03 -0.38763280589E+03  0.24678965734E+04  0.26035246916E+04  0.50400001928E-02 0. -1.
</event>
<event>
 5   0  0.1156733E-04  0.2066296E+04  0.7818609E-02  0.8576237E-01
        1   -1    0    0  501    0  0.00000000000E+00  0.00000000000E+00  0.15053250748E+04  0.15053250748E+04  0.50400001928E-02 0.  1.
       -1   -1    0    0    0  501  0.00000000000E+00  0.00000000000E+00 -0.70907911086E+03  0.70907911087E+03  0.50400001928E-02 0. -1.
    10030    2    1    2    0    0  0.00000000000E+00  0.00000000000E+00  0.79624596397E+03  0.22144041857E+04  0.20662957829E+04 0.  0.
        2    1    3    3  502    0  0.50945798093E+03  0.47369695332E+02 -0.56376612671E+03  0.76133013076E+03  0.25500000920E-02 0. -1.
       -2    1    3    3    0  502 -0.50945798093E+03 -0.47369695332E+02  0.13600120907E+04  0.14530740549E+04  0.25500000920E-02 0.  1.
</event>
<event>
 5   0  0.1122711E-04  0.2093548E+04  0.7818609E-02  0.8564091E-01
        1   -1    0    0  501    0  0.00000000000E+00  0.00000000000E+00  0.15725508477E+04  0.15725508477E+04  0.50400001928E-02 0. -1.
       -1   -1    0    0    0  501  0.00000000000E+00  0.00000000000E+00 -0.69678911947E+03  0.69678911948E+03  0.50400001928E-02 0.  1.
    10030    2    1    2    0    0  0.00000000000E+00  0.00000000000E+00  0.87576172824E+03  0.22693399672E+04  0.20935484905E+04 0.  0.
        1    1    3    3  502    0 -0.34495924082E+03 -0.60000484095E+03  0.12891469942E+04  0.14631823740E+04  0.50400001928E-02 0. -1.
       -1    1    3    3    0  502  0.34495924082E+03  0.60000484095E+03 -0.41338526592E+03  0.80615759321E+03  0.50400001928E-02 0.  1.
</event>
<event>
 5   0  0.8698750E-05  0.2105549E+04  0.7818609E-02  0.8558803E-01
       -3   -1    0    0    0  501  0.00000000000E+00  0.00000000000E+00  0.72092918604E+03  0.72092919312E+03  0.10100000352E+00 0. -1.
        3   -1    0    0  501    0  0.00000000000E+00  0.00000000000E+00 -0.15373694490E+04  0.15373694523E+04  0.10100000352E+00 0.  1.
    10030    2    1    2    0    0  0.00000000000E+00  0.00000000000E+00 -0.81644026291E+03  0.22582986454E+04  0.21055493508E+04 0.  0.
        4    1    3    3  502    0  0.82744631068E+03  0.34956972521E+03 -0.99711190671E+03  0.13420507283E+04  0.12699999809E+01 0.  1.
       -4    1    3    3    0  502 -0.82744631068E+03 -0.34956972521E+03  0.18067164380E+03  0.91624791711E+03  0.12699999809E+01 0. -1.
</event>
<event>
 5   0  0.2467483E-04  0.2076364E+04  0.7818609E-02  0.8571727E-01
       -2   -1    0    0    0  501  0.00000000000E+00  0.00000000000E+00  0.73030178074E+03  0.73030178074E+03  0.25500000920E-02 0.  1.
        2   -1    0    0  501    0  0.00000000000E+00  0.00000000000E+00 -0.14758584006E+04  0.14758584006E+04  0.25500000920E-02 0. -1.
    10030    2    1    2    0    0  0.00000000000E+00  0.00000000000E+00 -0.74555661990E+03  0.22061601814E+04  0.20763641474E+04 0.  0.
        4    1    3    3  502    0 -0.57826782127E+03 -0.80148978926E+03 -0.71051793401E+03  0.12172168676E+04  0.12699999809E+01 0. -1.
       -4    1    3    3    0  502  0.57826782127E+03  0.80148978926E+03 -0.35038685885E+02  0.98894331375E+03  0.12699999809E+01 0.  1.
</event>
<event>
 5   0  0.1186038E-04  0.2143263E+04  0.7818609E-02  0.8542421E-01
        1   -1    0    0  501    0  0.00000000000E+00  0.00000000000E+00  0.20780026431E+04  0.20780026431E+04  0.50400001928E-02 0. -1.
       -1   -1    0    0    0  501  0.00000000000E+00  0.00000000000E+00 -0.55264327539E+03  0.55264327542E+03  0.50400001928E-02 0.  1.
    10030    2    1    2    0    0  0.00000000000E+00  0.00000000000E+00  0.15253593677E+04  0.26306459186E+04  0.21432631075E+04 0.  0.
        4    1    3    3  502    0  0.15382249749E+03  0.69270055232E+03  0.17483510484E+04  0.18868567559E+04  0.12699999809E+01 0. -1.
       -4    1    3    3    0  502 -0.15382249749E+03 -0.69270055232E+03 -0.22299168068E+03  0.74378916264E+03  0.12699999809E+01 0.  1.
</event>
<event>
 5   0  0.2467483E-04  0.2134867E+04  0.7818609E-02  0.8546038E-01
        2   -1    0    0  501    0  0.00000000000E+00  0.00000000000E+00  0.18150536540E+04  0.18150536540E+04  0.25500000920E-02 0.  1.
       -2   -1    0    0    0  501  0.00000000000E+00  0.00000000000E+00 -0.62775774454E+03  0.62775774454E+03  0.25500000920E-02 0. -1.
    10030    2    1    2    0    0  0.00000000000E+00  0.00000000000E+00  0.11872959094E+04  0.24428113985E+04  0.21348667294E+04 0.  0.
        4    1    3    3  502    0 -0.97933912217E+03 -0.12600414155E+03  0.12965650093E+03  0.99588883970E+03  0.12699999809E+01 0. -1.
       -4    1    3    3    0  502  0.97933912217E+03  0.12600414155E+03  0.10576394085E+04  0.14469225588E+04  0.12699999809E+01 0.  1.
</event>
<event>
 5   0  0.1156733E-04  0.2112628E+04  0.7818609E-02  0.8555701E-01
       -1   -1    0    0    0  501  0.00000000000E+00  0.00000000000E+00  0.86445433229E+03  0.86445433231E+03  0.50400001928E-02 0.  1.
        1   -1    0    0  501    0  0.00000000000E+00  0.00000000000E+00 -0.12907551804E+04  0.12907551804E+04  0.50400001928E-02 0. -1.
    10030    2    1    2    0    0  0.00000000000E+00  0.00000000000E+00 -0.42630084812E+03  0.21552095127E+04  0.21126276602E+04 0.  0.
        2    1    3    3  502    0 -0.50579809447E+03 -0.38159977009E+03 -0.10753775796E+04  0.12481534504E+04  0.25500000920E-02 0. -1.
       -2    1    3    3    0  502  0.50579809447E+03  0.38159977009E+03  0.64907673150E+03  0.90705606237E+03  0.25500000920E-02 0.  1.
</event>
<event>
 5   0  0.2430898E-04  0.1470339E+04  0.7818609E-02  0.8904421E-01
       -2   -1    0    0    0  501  0.00000000000E+00  0.00000000000E+00  0.47973899897E+03  0.47973899897E+03  0.25500000920E-02 0.  1.
        2   -1    0    0  501    0  0.00000000000E+00  0.00000000000E+00 -0.11265999524E+04  0.11265999524E+04  0.25500000920E-02 0. -1.
    10030    2    1    2    0    0  0.00000000000E+00  0.00000000000E+00 -0.64686095341E+03  0.16063389514E+04  0.14703386459E+04 0.  0.
        1    1    3    3  502    0  0.14759072300E+03  0.31952589018E+03  0.38171120131E+03  0.51921407651E+03  0.50400001928E-02 0.  1.
       -1    1    3    3    0  502 -0.14759072300E+03 -0.31952589018E+03 -0.10285721547E+04  0.10871248748E+04  0.50400001928E-02 0. -1.
</event>
<event>
 5   0  0.1042395E-04  0.2045226E+04  0.7818609E-02  0.8585763E-01
       -1   -1    0    0    0  501  0.00000000000E+00  0.00000000000E+00  0.73377177526E+03  0.73377177528E+03  0.50400001928E-02 0. -1.
        1   -1    0    0  501    0  0.00000000000E+00  0.00000000000E+00 -0.14251531528E+04  0.14251531528E+04  0.50400001928E-02 0.  1.
    10030    2    1    2    0    0  0.00000000000E+00  0.00000000000E+00 -0.69138137751E+03  0.21589249281E+04  0.20452258154E+04 0.  0.
        3    1    3    3  502    0  0.80269356707E+03  0.63345689659E+03 -0.33265310495E+03  0.10752872644E+04  0.10100000352E+00 0. -1.
       -3    1    3    3    0  502 -0.80269356707E+03 -0.63345689659E+03 -0.35872827256E+03  0.10836376637E+04  0.10100000352E+00 0.  1.
</event>
<event>
 5   0  0.1122711E-04  0.2093201E+04  0.7818609E-02  0.8564245E-01
       -1   -1    0    0    0  501  0.00000000000E+00  0.00000000000E+00  0.59012751952E+03  0.59012751954E+03  0.50400001928E-02 0.  1.
        1   -1    0    0  501    0  0.00000000000E+00  0.00000000000E+00 -0.18561617620E+04  0.18561617620E+04  0.50400001928E-02 0. -1.
    10030    2    1    2    0    0  0.00000000000E+00  0.00000000000E+00 -0.12660342425E+04  0.24462892816E+04  0.20932005508E+04 0.  0.
        1    1    3    3  502    0  0.10225180002E+04 -0.12952924176E+03 -0.84548384690E+03  0.13331030795E+04  0.50400001928E-02 0.  1.
       -1    1    3    3    0  502 -0.10225180002E+04  0.12952924176E+03 -0.42055039559E+03  0.11131862021E+04  0.50400001928E-02 0. -1.
</event>
<event>
 5   0  0.1042395E-04  0.2037530E+04  0.7818609E-02  0.8589273E-01
       -1   -1    0    0    0  501  0.00000000000E+00  0.00000000000E+00  0.49519374114E+03  0.49519374116E+03  0.50400001928E-02 0. -1.
        1   -1    0    0  501    0  0.00000000000E+00  0.00000000000E+00 -0.20959102780E+04  0.20959102780E+04  0.50400001928E-02 0.  1.
    10030    2    1    2    0    0  0.00000000000E+00  0.00000000000E+00 -0.16007165369E+04  0.25911040192E+04  0.20375295352E+04 0.  0.
        3    1    3    3  502    0  0.98460208380E+02 -0.10138205710E+04 -0.82432138257E+03  0.13103557970E+04  0.10100000352E+00 0.  1.
       -3    1    3    3    0  502 -0.98460208380E+02  0.10138205710E+04 -0.77639515433E+03  0.12807482222E+04  0.10100000352E+00 0. -1.
</event>
<event>
 5   0  0.2512839E-04  0.2102967E+04  0.7818609E-02  0.8559937E-01
        2   -1    0    0  501    0  0.00000000000E+00  0.00000000000E+00  0.12205148814E+04  0.12205148814E+04  0.25500000920E-02 0. -1.
       -2   -1    0    0    0  501  0.00000000000E+00  0.00000000000E+00 -0.90586176548E+03  0.90586176549E+03  0.25500000920E-02 0.  1.
    10030    2    1    2    0    0  0.00000000000E+00  0.00000000000E+00  0.31465311590E+03  0.21263766469E+04  0.21029672040E+04 0.  0.
        3    1    3    3  502    0 -0.31568759574E+03 -0.71157521706E+02  0.11689109192E+04  0.12128787236E+04  0.10100000352E+00 0. -1.
       -3    1    3    3    0  502  0.31568759574E+03  0.71157521706E+02 -0.85425780332E+03  0.91349792323E+03  0.10100000352E+00 0.  1.
</event>
<event>
 5   0  0.2448804E-04  0.1972821E+04  0.7818609E-02  0.8619434E-01
        2   -1    0    0  501    0  0.00000000000E+00  0.00000000000E+00  0.17988737976E+04  0.17988737976E+04  0.25500000920E-02 0. -1.
       -2   -1    0    0    0  501  0.00000000000E+00  0.00000000000E+00 -0.54089717034E+03  0.54089717034E+03  0.25500000920E-02 0.  1.
    10030    2    1    2    0    0  0.00000000000E+00  0.00000000000E+00  0.12579766272E+04  0.23397709679E+04  0.19728210734E+04 0.  0.
        2    1    3    3  502    0 -0.91055612829E+03 -0.11172715087E+02  0.10786826850E+04  0.14116634256E+04  0.25500000920E-02 0. -1.
       -2    1    3    3    0  502  0.91055612829E+03  0.11172715087E+02  0.17929394224E+03  0.92810754229E+03  0.25500000920E-02 0.  1.
</event>
<event>
 5   0  0.1186038E-04  0.1228618E+04  0.7818609E-02  0.9088170E-01
       -1   -1    0    0    0  501  0.00000000000E+00  0.00000000000E+00  0.70806108943E+03  0.70806108945E+03  0.50400001928E-02 0.  1.
        1   -1    0    0  501    0  0.00000000000E+00  0.00000000000E+00 -0.53297010429E+03  0.53297010431E+03  0.50400001928E-02 0. -1.
    10030    2    1    2    0    0  0.00000000000E+00  0.00000000000E+00  0.17509098514E+03  0.12410311938E+04  0.12286177480E+04 0.  0.
        4    1    3    3  502    0  0.16265130345E+03 -0.51895924195E+03 -0.20099716700E+03  0.57980653270E+03  0.12699999809E+01 0. -1.
       -4    1    3    3    0  502 -0.16265130345E+03  0.51895924195E+03  0.37608815214E+03  0.66122466106E+03  0.12699999809E+01 0.  1.
</event>
<event>
 5   0  0.2430898E-04  0.2137903E+04  0.7818609E-02  0.8544728E-01
       -2   -1    0    0    0  501  0.00000000000E+00  0.00000000000E+00  0.85140564770E+03  0.85140564770E+03  0.25500000920E-02 0. -1.
        2   -1    0    0  501    0  0.00000000000E+00  0.00000000000E+00 -0.13420835136E+04  0.13420835136E+04  0.25500000920E-02 0.  1.
    10030    2    1    2    0    0  0.00000000000E+00  0.00000000000E+00 -0.49067786594E+03  0.21934891613E+04  0.21379031626E+04 0.  0.
        1    1    3    3  502    0 -0.68213525205E+03  0.77192860153E+03  0.47521177051E+02  0.10312325297E+04  0.50400001928E-02 0. -1.
       -1    1    3    3    0  502  0.68213525205E+03 -0.77192860153E+03 -0.53819904300E+03  0.11622566317E+04  0.50400001928E-02 0.  1.
</event>
<event>
 5   0  0.8698750E-05  0.2108524E+04  0.7818609E-02  0.8557498E-01
        4   -1    0    0  501    0  0.00000000000E+00  0.00000000000E+00  0.12401409388E+04  0.12401415891E+04  0.12699999809E+01 0.  1.
       -4   -1    0    0    0  501  0.00000000000E+00  0.00000000000E+00 -0.89624224267E+03  0.89624314248E+03  0.12699999809E+01 0. -1.
    10030    2    1    2    0    0  0.00000000000E+00  0.00000000000E+00  0.34389869612E+03  0.21363847316E+04  0.21085239880E+04 0.  0.
        2    1    3    3  502    0  0.68468441792E+03  0.31658382547E+03 -0.57429471436E+03  0.94806776637E+03  0.25500000920E-02 0. -1.
       -2    1    3    3    0  502 -0.68468441792E+03 -0.31658382547E+03  0.91819341048E+03  0.11883169652E+04  0.25500000920E-02 0.  1.
</event>
<event>
 5   0  0.1186038E-04  0.2140202E+04  0.7818609E-02  0.8543738E-01
       -1   -1    0    0    0  501  0.00000000000E+00  0.00000000000E+00  0.14997212794E+04  0.14997212794E+04  0.50400001928E-02 0.  1.
        1   -1    0    0  501    0  0.00000000000E+00  0.00000000000E+00 -0.76355265473E+03  0.76355265475E+03  0.50400001928E-02 0. -1.
    10030    2    1    2    0    0  0.00000000000E+00  0.00000000000E+00  0.73616862464E+03  0.22632739341E+04  0.21402020131E+04 0.  0.
        4    1    3    3  502    0  0.59564830588E+03  0.65380787526E+03  0.10050963778E+04  0.13388360555E+04  0.12699999809E+01 0. -1.
       -4    1    3    3    0  502 -0.59564830588E+03 -0.65380787526E+03 -0.26892775315E+03  0.92443787859E+03  0.12699999809E+01 0.  1.
</event>
<event>
 5   0  0.2430898E-04  0.2144828E+04  0.7818609E-02  0.8541749E-01
        2   -1    0    0  501    0  0.00000000000E+00  0.00000000000E+00  0.10041305940E+04  0.10041305940E+04  0.25500000920E-02 0. -1.
       -2   -1    0    0    0  501  0.00000000000E+00  0.00000000000E+00 -0.11453408618E+04  0.11453408618E+04  0.25500000920E-02 0.  1.
    10030    2    1    2    0    0  0.00000000000E+00  0.00000000000E+00 -0.14121026783E+03  0.21494714558E+04  0.21448280116E+04 0.  0.
        1    1    3    3  502    0 -0.67753048992E+03  0.82762324379E+03  0.74351527720E+01  0.10696088444E+04  0.50400001928E-02 0.  1.
       -1    1    3    3    0  502  0.67753048992E+03 -0.82762324379E+03 -0.14864542060E+03  0.10798626114E+04  0.50400001928E-02 0. -1.
</event>
<event>
 5   0  0.1122711E-04  0.2080997E+04  0.7818609E-02  0.8569661E-01
       -1   -1    0    0    0  501  0.00000000000E+00  0.00000000000E+00  0.10193060312E+04  0.10193060313E+04  0.50400001928E-02 0. -1.
        1   -1    0    0  501    0  0.00000000000E+00  0.00000000000E+00 -0.10621315026E+04  0.10621315026E+04  0.50400001928E-02 0.  1.
    10030    2    1    2    0    0  0.00000000000E+00  0.00000000000E+00 -0.42825471315E+02  0.20814375338E+04  0.20809969212E+04 0.  0.
        1    1    3    3  502    0 -0.26138384452E+03 -0.97418791462E+03  0.23412803048E+03  0.10354610287E+04  0.50400001928E-02 0. -1.
       -1    1    3    3    0  502  0.26138384452E+03  0.97418791462E+03 -0.27695350180E+03  0.10459765052E+04  0.50400001928E-02 0.  1.
</event>
<event>
 5   0  0.2430898E-04  0.1989644E+04  0.7818609E-02  0.8611478E-01
        2   -1    0    0  501    0  0.00000000000E+00  0.00000000000E+00  0.62506480219E+03  0.62506480219E+03  0.25500000920E-02 0. -1.
       -2   -1    0    0    0  501  0.00000000000E+00  0.00000000000E+00 -0.15833090510E+04  0.15833090510E+04  0.25500000920E-02 0.  1.
    10030    2    1    2    0    0  0.00000000000E+00  0.00000000000E+00 -0.95824424879E+03  0.22083738532E+04  0.19896439468E+04 0.  0.
        1    1    3    3  502    0 -0.60954522541E+03  0.11332039303E+03  0.38440658362E+03  0.72948976336E+03  0.50400001928E-02 0. -1.
       -1    1    3    3    0  502  0.60954522541E+03 -0.11332039303E+03 -0.13426508324E+04  0.14788840898E+04  0.50400001928E-02 0.  1.
</event>
<event>
 5   0  0.1186038E-04  0.2020109E+04  0.7818609E-02  0.8597276E-01
        1   -1    0    0  501    0  0.00000000000E+00  0.00000000000E+00  0.63128116072E+03  0.63128116074E+03  0.50400001928E-02 0.  1.
       -1   -1    0    0    0  501  0.00000000000E+00  0.00000000000E+00 -0.16160947383E+04  0.16160947383E+04  0.50400001928E-02 0. -1.
    10030    2    1    2    0    0  0.00000000000E+00  0.00000000000E+00 -0.98481357759E+03  0.22473758991E+04  0.20201090686E+04 0.  0.
        4    1    3    3  502    0  0.68103095655E+03  0.19446909312E+03 -0.12935529935E+04  0.14747550142E+04  0.12699999809E+01 0. -1.
       -4    1    3    3    0  502 -0.68103095655E+03 -0.19446909312E+03  0.30873941588E+03  0.77262088490E+03  0.12699999809E+01 0.  1.
</event>
<event>
 5   0  0.2448804E-04  0.1412988E+04  0.7818609E-02  0.8944471E-01
       -2   -1    0    0    0  501  0.00000000000E+00  0.00000000000E+00  0.31920988633E+03  0.31920988634E+03  0.25500000920E-02 0.  1.
        2   -1    0    0  501    0  0.00000000000E+00  0.00000000000E+00 -0.15636536994E+04  0.15636536994E+04  0.25500000920E-02 0. -1.
    10030    2    1    2    0    0  0.00000000000E+00  0.00000000000E+00 -0.12444438131E+04  0.18828635858E+04  0.14129879259E+04 0.  0.
        2    1    3    3  502    0  0.47313817203E+03  0.52463191584E+03 -0.61429998806E+03  0.93619594759E+03  0.25500000920E-02 0.  1.
       -2    1    3    3    0  502 -0.47313817203E+03 -0.52463191584E+03 -0.63014382503E+03  0.94666763818E+03  0.25500000920E-02 0. -1.
</event>
<event>
 5   0  0.2448804E-04  0.2092000E+04  0.7818609E-02  0.8564775E-01
        2   -1    0    0  501    0  0.00000000000E+00  0.00000000000E+00  0.17353144002E+04  0.17353144002E+04  0.25500000920E-02 0. -1.
       -2   -1    0    0    0  501  0.00000000000E+00  0.00000000000E+00 -0.63050039843E+03  0.63050039844E+03  0.25500000920E-02 0.  1.
    10030    2    1    2    0    0  0.00000000000E+00  0.00000000000E+00  0.11048140018E+04  0.23658147987E+04  0.20920004023E+04 0.  0.
        2    1    3    3  502    0 -0.15742596418E+03  0.67712369108E+03  0.14362632683E+04  0.15956602405E+04  0.25500000920E-02 0. -1.
       -2    1    3    3    0  502  0.15742596418E+03 -0.67712369108E+03 -0.33144926650E+03  0.77015455818E+03  0.25500000920E-02 0.  1.
</event>
<event>
 5   0  0.1186038E-04  0.2071191E+04  0.7818609E-02  0.8574041E-01
       -1   -1    0    0    0  501  0.00000000000E+00  0.00000000000E+00  0.49738989110E+03  0.49738989112E+03  0.50400001928E-02 0. -1.
        1   -1    0    0  501    0  0.00000000000E+00  0.00000000000E+00 -0.21561720197E+04  0.21561720197E+04  0.50400001928E-02 0.  1.
    10030    2    1    2    0    0  0.00000000000E+00  0.00000000000E+00 -0.16587821286E+04  0.26535619108E+04  0.20711911221E+04 0.  0.
        4    1    3    3  502    0 -0.57727531741E+03  0.20680034362E+03 -0.18985738450E+04  0.19951434616E+04  0.12699999809E+01 0.  1.
       -4    1    3    3    0  502  0.57727531741E+03 -0.20680034362E+03  0.23979171642E+03  0.65841844929E+03  0.12699999809E+01 0. -1.
</event>
<event>
 5   0  0.1130848E-04  0.2156514E+04  0.7818609E-02  0.8536749E-01
       -1   -1    0    0    0  501  0.00000000000E+00  0.00000000000E+00  0.89340734514E+03  0.89340734515E+03  0.50400001928E-02 0.  1.
        1   -1    0    0  501    0  0.00000000000E+00  0.00000000000E+00 -0.13013532627E+04  0.13013532627E+04  0.50400001928E-02 0. -1.
    10030    2    1    2    0    0  0.00000000000E+00  0.00000000000E+00 -0.40794591755E+03  0.21947606079E+04  0.21565143761E+04 0.  0.
        5    1    3    3  502    0 -0.72919316141E+03 -0.14712642677E+03 -0.99835921228E+03  0.12450349629E+04  0.46999998093E+01 0. -1.
       -5    1    3    3    0  502  0.72919316141E+03  0.14712642677E+03  0.59041329472E+03  0.94972564496E+03  0.46999998093E+01 0.  1.
</event>
<event>
 5   0  0.1156733E-04  0.2127519E+04  0.7818609E-02  0.8549217E-01
        1   -1    0    0  501    0  0.00000000000E+00  0.00000000000E+00  0.17730715195E+04  0.17730715195E+04  0.50400001928E-02 0. -1.
       -1   -1    0    0    0  501  0.00000000000E+00  0.00000000000E+00 -0.63820547760E+03  0.63820547762E+03  0.50400001928E-02 0.  1.
    10030    2    1    2    0    0  0.00000000000E+00  0.00000000000E+00  0.11348660419E+04  0.24112769972E+04  0.21275187012E+04 0.  0.
        2    1    3    3  502    0  0.19555507469E+03  0.76181488772E+03  0.13791862735E+04  0.15876896697E+04  0.25500000920E-02 0. -1.
       -2    1    3    3    0  502 -0.19555507469E+03 -0.76181488772E+03 -0.24432023154E+03  0.82358732745E+03  0.25500000920E-02 0.  1.
</event>
<event>
 5   0  0.2512839E-04  0.2125971E+04  0.7818609E-02  0.8549888E-01
       -2   -1    0    0    0  501  0.00000000000E+00  0.00000000000E+00  0.72985695354E+03  0.72985695355E+03  0.25500000920E-02 0. -1.
        2   -1    0    0  501    0  0.00000000000E+00  0.00000000000E+00 -0.15481644101E+04  0.15481644101E+04  0.25500000920E-02 0.  1.
    10030    2    1    2    0    0  0.00000000000E+00  0.00000000000E+00 -0.81830745659E+03  0.22780213637E+04  0.21259713638E+04 0.  0.
        3    1    3    3  502    0  0.61683040513E+03 -0.86459416807E+03 -0.36201017848E+03  0.11220758458E+04  0.10100000352E+00 0.  1.
       -3    1    3    3    0  502 -0.61683040513E+03  0.86459416807E+03 -0.45629727811E+03  0.11559455179E+04  0.10100000352E+00 0. -1.
</event>
<event>
 5   0  0.1156733E-04  0.2101993E+04  0.7818609E-02  0.8560366E-01
        1   -1    0    0  501    0  0.00000000000E+00  0.00000000000E+00  0.18926569923E+04  0.18926569923E+04  0.50400001928E-02 0.  1.
       -1   -1    0    0    0  501  0.00000000000E+00  0.00000000000E+00 -0.58362060997E+03  0.58362060999E+03  0.50400001928E-02 0. -1.
    10030    2    1    2    0    0  0.00000000000E+00  0.00000000000E+00  0.13090363823E+04  0.24762776023E+04  0.21019929860E+04 0.  0.
        2    1    3    3  502    0  0.85112877251E+03 -0.43512775242E+03  0.11691536142E+04  0.15101908892E+04  0.25500000920E-02 0.  1.
       -2    1    3    3    0  502 -0.85112877251E+03  0.43512775242E+03  0.13988276812E+03  0.96608671305E+03  0.25500000920E-02 0. -1.
</event>
<event>
 5   0  0.1122711E-04  0.2088202E+04  0.7818609E-02  0.8566458E-01
        1   -1    0    0  501    0  0.00000000000E+00  0.00000000000E+00  0.92288102548E+03  0.92288102549E+03  0.50400001928E-02 0.  1.
       -1   -1    0    0    0  501  0.00000000000E+00  0.00000000000E+00 -0.11812432205E+04  0.11812432205E+04  0.50400001928E-02 0. -1.
    10030    2    1    2    0    0  0.00000000000E+00  0.00000000000E+00 -0.25836219502E+03  0.21041242460E+04  0.20882020541E+04 0.  0.
        1    1    3    3  502    0 -0.96101237339E+03  0.40715997831E+03 -0.15808649639E+03  0.10556113727E+04  0.50400001928E-02 0.  1.
       -1    1    3    3    0  502  0.96101237339E+03 -0.40715997831E+03 -0.10027569863E+03  0.10485128733E+04  0.50400001928E-02 0. -1.
</event>
<event>
 5   0  0.2430898E-04  0.2151837E+04  0.7818609E-02  0.8538746E-01
       -2   -1    0    0    0  501  0.00000000000E+00  0.00000000000E+00  0.70292323968E+03  0.70292323968E+03  0.25500000920E-02 0.  1.
        2   -1    0    0  501    0  0.00000000000E+00  0.00000000000E+00 -0.16468378522E+04  0.16468378522E+04  0.25500000920E-02 0. -1.
    10030    2    1    2    0    0  0.00000000000E+00  0.00000000000E+00 -0.94391461248E+03  0.23497610918E+04  0.21518369811E+04 0.  0.
        1    1    3    3  502    0  0.49269874556E+03 -0.50091791589E+02 -0.15149770907E+04  0.15938685099E+04  0.50400001928E-02 0. -1.
       -1    1    3    3    0  502 -0.49269874556E+03  0.50091791589E+02  0.57106247819E+03  0.75589258197E+03  0.50400001928E-02 0.  1.
</event>
<event>
 5   0  0.1130848E-04  0.2095772E+04  0.7818609E-02  0.8563108E-01
       -1   -1    0    0    0  501  0.00000000000E+00  0.00000000000E+00  0.10907873115E+04  0.10907873115E+04  0.50400001928E-02 0.  1.
        1   -1    0    0  501    0  0.00000000000E+00  0.00000000000E+00 -0.10066715493E+04  0.10066715493E+04  0.50400001928E-02 0. -1.
    10030    2    1    2    0    0  0.00000000000E+00  0.00000000000E+00  0.84115762234E+02  0.20974588608E+04  0.20957715074E+04 0.  0.
        5    1    3    3  502    0  0.89178926827E+03  0.38755819053E+03  0.43295270000E+03  0.10644057405E+04  0.46999998093E+01 0.  1.
       -5    1    3    3    0  502 -0.89178926827E+03 -0.38755819053E+03 -0.34883693776E+03  0.10330531202E+04  0.46999998093E+01 0. -1.
</event>
<event>
 5   0  0.1130848E-04  0.2076460E+04  0.7818609E-02  0.8571684E-01
       -1   -1    0    0    0  501  0.00000000000E+00  0.00000000000E+00  0.60551958781E+03  0.60551958783E+03  0.50400001928E-02 0.  1.
        1   -1    0    0  501    0  0.00000000000E+00  0.00000000000E+00 -0.17801604644E+04  0.17801604644E+04  0.50400001928E-02 0. -1.
    10030    2    1    2    0    0  0.00000000000E+00  0.00000000000E+00 -0.11746408766E+04  0.23856800522E+04  0.20764604794E+04 0.  0.
        5    1    3    3  502    0  0.58818147476E+03 -0.76421157079E+03 -0.14543811385E+03  0.97526976121E+03  0.46999998093E+01 0.  1.
       -5    1    3    3    0  502 -0.58818147476E+03  0.76421157079E+03 -0.10292027627E+04  0.14104102910E+04  0.46999998093E+01 0. -1.
</event>
<event>
 5   0  0.2448804E-04  0.1884027E+04  0.7818609E-02  0.8662848E-01
        2   -1    0    0  501    0  0.00000000000E+00  0.00000000000E+00  0.17422154411E+04  0.17422154411E+04  0.25500000920E-02 0. -1.
       -2   -1    0    0    0  501  0.00000000000E+00  0.00000000000E+00 -0.50934558445E+03  0.50934558446E+03  0.25500000920E-02 0.  1.
    10030    2    1    2    0    0  0.00000000000E+00  0.00000000000E+00  0.12328698566E+04  0.22515610255E+04  0.18840273268E+04 0.  0.
        2    1    3    3  502    0 -0.40625523615E+03  0.37460464195E+03  0.15281615866E+04  0.16250076275E+04  0.25500000920E-02 0. -1.
       -2    1    3    3    0  502  0.40625523615E+03 -0.37460464195E+03 -0.29529173004E+03  0.62655339797E+03  0.25500000920E-02 0.  1.
</event>
<event>
 5   0  0.2448804E-04  0.2210647E+04  0.7818609E-02  0.8514009E-01
        2   -1    0    0  501    0  0.00000000000E+00  0.00000000000E+00  0.10349621277E+04  0.10349621277E+04  0.25500000920E-02 0. -1.
       -2   -1    0    0    0  501  0.00000000000E+00  0.00000000000E+00 -0.11804687525E+04  0.11804687525E+04  0.25500000920E-02 0.  1.
    10030    2    1    2    0    0  0.00000000000E+00  0.00000000000E+00 -0.14550662479E+03  0.22154308802E+04  0.22106473728E+04 0.  0.
        2    1    3    3  502    0  0.66716382326E+03 -0.55779935404E+03 -0.75649994462E+03  0.11526230315E+04  0.25500000920E-02 0.  1.
       -2    1    3    3    0  502 -0.66716382326E+03  0.55779935404E+03  0.61099331983E+03  0.10628078487E+04  0.25500000920E-02 0. -1.
</event>
<event>
 5   0  0.1042395E-04  0.2112219E+04  0.7818609E-02  0.8555880E-01
       -1   -1    0    0    0  501  0.00000000000E+00  0.00000000000E+00  0.50511034376E+03  0.50511034379E+03  0.50400001928E-02 0.  1.
        1   -1    0    0  501    0  0.00000000000E+00  0.00000000000E+00 -0.22081661566E+04  0.22081661566E+04  0.50400001928E-02 0. -1.
    10030    2    1    2    0    0  0.00000000000E+00  0.00000000000E+00 -0.17030558128E+04  0.27132765004E+04  0.21122192751E+04 0.  0.
        3    1    3    3  502    0  0.60737273738E+03 -0.79816198533E+03 -0.42664390273E+03  0.10899491855E+04  0.10100000352E+00 0.  1.
       -3    1    3    3    0  502 -0.60737273738E+03  0.79816198533E+03 -0.12764119101E+04  0.16233273149E+04  0.10100000352E+00 0. -1.
</event>
<event>
 5   0  0.2579241E-04  0.2095520E+04  0.7818609E-02  0.8563219E-01
       -2   -1    0    0    0  501  0.00000000000E+00  0.00000000000E+00  0.63829897622E+03  0.63829897623E+03  0.25500000920E-02 0.  1.
        2   -1    0    0  501    0  0.00000000000E+00  0.00000000000E+00 -0.17198858726E+04  0.17198858726E+04  0.25500000920E-02 0. -1.
    10030    2    1    2    0    0  0.00000000000E+00  0.00000000000E+00 -0.10815868963E+04  0.23581848488E+04  0.20955203570E+04 0.  0.
        5    1    3    3  502    0 -0.65060971914E+03 -0.75781966243E+03 -0.89700697176E+03  0.13424705750E+04  0.46999998093E+01 0. -1.
       -5    1    3    3    0  502  0.65060971914E+03  0.75781966243E+03 -0.18457992458E+03  0.10157142738E+04  0.46999998093E+01 0.  1.
</event>
<event>
 5   0  0.1186038E-04  0.2019451E+04  0.7818609E-02  0.8597580E-01
        1   -1    0    0  501    0  0.00000000000E+00  0.00000000000E+00  0.13487796992E+04  0.13487796992E+04  0.50400001928E-02 0.  1.
       -1   -1    0    0    0  501  0.00000000000E+00  0.00000000000E+00 -0.75590223731E+03  0.75590223732E+03  0.50400001928E-02 0. -1.
    10030    2    1    2    0    0  0.00000000000E+00  0.00000000000E+00  0.59287746188E+03  0.21046819365E+04  0.20194510069E+04 0.  0.
        4    1    3    3  502    0  0.86479454070E+03 -0.38569033375E+03  0.66183132742E+03  0.11552700767E+04  0.12699999809E+01 0.  1.
       -4    1    3    3    0  502 -0.86479454070E+03  0.38569033375E+03 -0.68953865538E+02  0.94941185986E+03  0.12699999809E+01 0. -1.
</event>
<event>
 5   0  0.2448804E-04  0.2108012E+04  0.7818609E-02  0.8557722E-01
       -2   -1    0    0    0  501  0.00000000000E+00  0.00000000000E+00  0.17112365645E+04  0.17112365645E+04  0.25500000920E-02 0. -1.
        2   -1    0    0  501    0  0.00000000000E+00  0.00000000000E+00 -0.64919666274E+03  0.64919666275E+03  0.25500000920E-02 0.  1.
    10030    2    1    2    0    0  0.00000000000E+00  0.00000000000E+00  0.10620399018E+04  0.23604332273E+04  0.21080123974E+04 0.  0.
        2    1    3    3  502    0 -0.59393280139E+03  0.79221453799E+03  0.12640806992E+03  0.99816784506E+03  0.25500000920E-02 0.  1.
       -2    1    3    3    0  502  0.59393280139E+03 -0.79221453799E+03  0.93563183186E+03  0.13622653822E+04  0.25500000920E-02 0. -1.
</event>
<event>
 5   0  0.1130848E-04  0.1775057E+04  0.7818609E-02  0.8719677E-01
        1   -1    0    0  501    0  0.00000000000E+00  0.00000000000E+00  0.97278641708E+03  0.97278641709E+03  0.50400001928E-02 0. -1.
       -1   -1    0    0    0  501  0.00000000000E+00  0.00000000000E+00 -0.80974306863E+03  0.80974306864E+03  0.50400001928E-02 0.  1.
    10030    2    1    2    0    0  0.00000000000E+00  0.00000000000E+00  0.16304334845E+03  0.17825294857E+04  0.17750572481E+04 0.  0.
        5    1    3    3  502    0  0.12880648335E+03 -0.22657517165E+03 -0.77043492797E+03  0.81333848231E+03  0.46999998093E+01 0.  1.
       -5    1    3    3    0  502 -0.12880648335E+03  0.22657517165E+03  0.93347827642E+03  0.96919100342E+03  0.46999998093E+01 0. -1.
</event>
<event>
 5   0  0.1130848E-04  0.1323049E+04  0.7818609E-02  0.9011484E-01
        1   -1    0    0  501    0  0.00000000000E+00  0.00000000000E+00  0.11374150538E+04  0.11374150538E+04  0.50400001928E-02 0.  1.
       -1   -1    0    0    0  501  0.00000000000E+00  0.00000000000E+00 -0.38474482821E+03  0.38474482825E+03  0.50400001928E-02 0. -1.
    10030    2    1    2    0    0  0.00000000000E+00  0.00000000000E+00  0.75267022555E+03  0.15221598820E+04  0.13230488419E+04 0.  0.
        5    1    3    3  502    0  0.14350147948E+03 -0.20445639610E+03  0.10810513714E+04  0.11095446139E+04  0.46999998093E+01 0.  1.
       -5    1    3    3    0  502 -0.14350147948E+03  0.20445639610E+03 -0.32838114589E+03  0.41261526813E+03  0.46999998093E+01 0. -1.
</event>
<event>
 5   0  0.1156733E-04  0.2116130E+04  0.7818609E-02  0.8554171E-01
        1   -1    0    0  501    0  0.00000000000E+00  0.00000000000E+00  0.10585435145E+04  0.10585435145E+04  0.50400001928E-02 0. -1.
       -1   -1    0    0    0  501  0.00000000000E+00  0.00000000000E+00 -0.10575864659E+04  0.10575864659E+04  0.50400001928E-02 0.  1.
    10030    2    1    2    0    0  0.00000000000E+00  0.00000000000E+00  0.95704861556E+00  0.21161299805E+04  0.21161297640E+04 0.  0.
        2    1    3    3  502    0 -0.66197030477E+03  0.66967530455E+03  0.48300483888E+03  0.10582832193E+04  0.25500000920E-02 0.  1.
       -2    1    3    3    0  502  0.66197030477E+03 -0.66967530455E+03 -0.48204779027E+03  0.10578467611E+04  0.25500000920E-02 0. -1.
</event>
<event>
 5   0  0.1130848E-04  0.2097835E+04  0.7818609E-02  0.8562198E-01
        1   -1    0    0  501    0  0.00000000000E+00  0.00000000000E+00  0.17615545548E+04  0.17615545548E+04  0.50400001928E-02 0. -1.
       -1   -1    0    0    0  501  0.00000000000E+00  0.00000000000E+00 -0.62457767300E+03  0.62457767302E+03  0.50400001928E-02 0.  1.
    10030    2    1    2    0    0  0.00000000000E+00  0.00000000000E+00  0.11369768818E+04  0.23861322278E+04  0.20978347358E+04 0.  0.
        5    1    3    3  502    0 -0.34414421812E+03 -0.15337999460E+03 -0.54493789666E+03  0.66252552164E+03  0.46999998093E+01 0.  1.
       -5    1    3    3    0  502  0.34414421812E+03  0.15337999460E+03  0.16819147784E+04  0.17236067062E+04  0.46999998093E+01 0. -1.
</event>
<event>
 5   0  0.2448804E-04  0.2015590E+04  0.7818609E-02  0.8599367E-01
        2   -1    0    0  501    0  0.00000000000E+00  0.00000000000E+00  0.10081297641E+04  0.10081297641E+04  0.25500000920E-02 0.  1.
       -2   -1    0    0    0  501  0.00000000000E+00  0.00000000000E+00 -0.10074599338E+04  0.10074599338E+04  0.25500000920E-02 0. -1.
    10030    2    1    2    0    0  0.00000000000E+00  0.00000000000E+00  0.66983029188E+00  0.20155896979E+04  0.20155895866E+04 0.  0.
        2    1    3    3  502    0 -0.74858443643E+03  0.37717434228E+03 -0.55913915665E+03  0.10076089219E+04  0.25500000920E-02 0. -1.
       -2    1    3    3    0  502  0.74858443643E+03 -0.37717434228E+03  0.55980898694E+03  0.10079807760E+04  0.25500000920E-02 0.  1.
</event>
<event>
 5   0  0.2448804E-04  0.2065437E+04  0.7818609E-02  0.8576623E-01
        2   -1    0    0  501    0  0.00000000000E+00  0.00000000000E+00  0.18612573919E+04  0.18612573919E+04  0.25500000920E-02 0.  1.
       -2   -1    0    0    0  501  0.00000000000E+00  0.00000000000E+00 -0.57300374392E+03  0.57300374393E+03  0.25500000920E-02 0. -1.
    10030    2    1    2    0    0  0.00000000000E+00  0.00000000000E+00  0.12882536480E+04  0.24342611358E+04  0.20654369552E+04 0.  0.
        2    1    3    3  502    0 -0.89722900584E+03  0.43864071401E+03  0.95389537526E+03  0.13810655132E+04  0.25500000920E-02 0.  1.
       -2    1    3    3    0  502  0.89722900584E+03 -0.43864071401E+03  0.33435827271E+03  0.10531956226E+04  0.25500000920E-02 0. -1.
</event>
<event>
 5   0  0.1186038E-04  0.2081160E+04  0.7818609E-02  0.8569588E-01
       -1   -1    0    0    0  501  0.00000000000E+00  0.00000000000E+00  0.93569014383E+03  0.93569014385E+03  0.50400001928E-02 0.  1.
        1   -1    0    0  501    0  0.00000000000E+00  0.00000000000E+00 -0.11572276486E+04  0.11572276486E+04  0.50400001928E-02 0. -1.
    10030    2    1    2    0    0  0.00000000000E+00  0.00000000000E+00 -0.22153750477E+03  0.20929177925E+04  0.20811597776E+04 0.  0.
        4    1    3    3  502    0 -0.87938962644E+02 -0.71459726867E+03  0.64475627814E+03  0.96648579330E+03  0.12699999809E+01 0.  1.
       -4    1    3    3    0  502  0.87938962644E+02  0.71459726867E+03 -0.86629378291E+03  0.11264319992E+04  0.12699999809E+01 0. -1.
</event>
<event>
 5   0  0.2467483E-04  0.2328379E+04  0.7818609E-02  0.8466815E-01
       -2   -1    0    0    0  501  0.00000000000E+00  0.00000000000E+00  0.11873772082E+04  0.11873772082E+04  0.25500000920E-02 0. -1.
        2   -1    0    0  501    0  0.00000000000E+00  0.00000000000E+00 -0.11414546223E+04  0.11414546223E+04  0.25500000920E-02 0.  1.
    10030    2    1    2    0    0  0.00000000000E+00  0.00000000000E+00  0.45922585948E+02  0.23288318305E+04  0.23283790093E+04 0.  0.
        4    1    3    3  502    0  0.27438978927E+03 -0.45373052823E+01 -0.11086407445E+04  0.11421016841E+04  0.12699999809E+01 0.  1.
       -4    1    3    3    0  502 -0.27438978927E+03  0.45373052823E+01  0.11545633304E+04  0.11867301464E+04  0.12699999809E+01 0. -1.
</event>
<event>
 5   0  0.8698750E-05  0.1050682E+04  0.7818609E-02  0.9254640E-01
        3   -1    0    0  501    0  0.00000000000E+00  0.00000000000E+00  0.77030831820E+03  0.77030832482E+03  0.10100000352E+00 0.  1.
       -3   -1    0    0    0  501  0.00000000000E+00  0.00000000000E+00 -0.35827610820E+03  0.35827612244E+03  0.10100000352E+00 0. -1.
    10030    2    1    2    0    0  0.00000000000E+00  0.00000000000E+00  0.41203221000E+03  0.11285844473E+04  0.10506818322E+04 0.  0.
        4    1    3    3  502    0 -0.34540710479E+03  0.20261538136E+03  0.57126073258E+03  0.69763851549E+03  0.12699999809E+01 0.  1.
       -4    1    3    3    0  502  0.34540710479E+03 -0.20261538136E+03 -0.15922852258E+03  0.43094593177E+03  0.12699999809E+01 0. -1.
</event>
<event>
 5   0  0.1130848E-04  0.1908584E+04  0.7818609E-02  0.8650595E-01
        1   -1    0    0  501    0  0.00000000000E+00  0.00000000000E+00  0.67428800445E+03  0.67428800446E+03  0.50400001928E-02 0. -1.
       -1   -1    0    0    0  501  0.00000000000E+00  0.00000000000E+00 -0.13505699271E+04  0.13505699271E+04  0.50400001928E-02 0.  1.
    10030    2    1    2    0    0  0.00000000000E+00  0.00000000000E+00 -0.67628192267E+03  0.20248579316E+04  0.19085838740E+04 0.  0.
        5    1    3    3  502    0  0.80072656115E+03 -0.39820899856E+03  0.15191466773E+02  0.89441953407E+03  0.46999998093E+01 0. -1.
       -5    1    3    3    0  502 -0.80072656115E+03  0.39820899856E+03 -0.69147338944E+03  0.11304383975E+04  0.46999998093E+01 0.  1.
</event>
<event>
 5   0  0.1042395E-04  0.2058841E+04  0.7818609E-02  0.8579594E-01
       -1   -1    0    0    0  501  0.00000000000E+00  0.00000000000E+00  0.80688887004E+03  0.80688887005E+03  0.50400001928E-02 0. -1.
        1   -1    0    0  501    0  0.00000000000E+00  0.00000000000E+00 -0.13133240806E+04  0.13133240806E+04  0.50400001928E-02 0.  1.
    10030    2    1    2    0    0  0.00000000000E+00  0.00000000000E+00 -0.50643521054E+03  0.21202129506E+04  0.20588410171E+04 0.  0.
        3    1    3    3  502    0 -0.80326536916E+03 -0.80370337721E+01  0.40971605211E+03  0.90175778386E+03  0.10100000352E+00 0. -1.
       -3    1    3    3    0  502  0.80326536916E+03  0.80370337721E+01 -0.91615126265E+03  0.12184551668E+04  0.10100000352E+00 0.  1.
</event>
<event>
 5   0  0.2448804E-04  0.2110096E+04  0.7818609E-02  0.8556809E-01
       -2   -1    0    0    0  501  0.00000000000E+00  0.00000000000E+00  0.73852258643E+03  0.73852258644E+03  0.25500000920E-02 0.  1.
        2   -1    0    0  501    0  0.00000000000E+00  0.00000000000E+00 -0.15072345530E+04  0.15072345530E+04  0.25500000920E-02 0. -1.
    10030    2    1    2    0    0  0.00000000000E+00  0.00000000000E+00 -0.76871196653E+03  0.22457571394E+04  0.21100964532E+04 0.  0.
        2    1    3    3  502    0 -0.61527687874E+02 -0.77453354769E+03  0.37528174827E+03  0.86285819429E+03  0.25500000920E-02 0. -1.
       -2    1    3    3    0  502  0.61527687874E+02  0.77453354769E+03 -0.11439937148E+04  0.13828989451E+04  0.25500000920E-02 0.  1.
</event>
<event>
 5   0  0.1122711E-04  0.1940959E+04  0.7818609E-02  0.8634733E-01
       -1   -1    0    0    0  501  0.00000000000E+00  0.00000000000E+00  0.81415608822E+03  0.81415608824E+03  0.50400001928E-02 0.  1.
        1   -1    0    0  501    0  0.00000000000E+00  0.00000000000E+00 -0.11568185246E+04  0.11568185246E+04  0.50400001928E-02 0. -1.
    10030    2    1    2    0    0  0.00000000000E+00  0.00000000000E+00 -0.34266243634E+03  0.19709746128E+04  0.19409593966E+04 0.  0.
        1    1    3    3  502    0 -0.26153693549E+03 -0.56429024561E+03  0.58517645752E+03  0.85396518452E+03  0.50400001928E-02 0.  1.
       -1    1    3    3    0  502  0.26153693549E+03  0.56429024561E+03 -0.92783889386E+03  0.11170094283E+04  0.50400001928E-02 0. -1.
</event>
<event>
 5   0  0.2448804E-04  0.2098273E+04  0.7818609E-02  0.8562005E-01
       -2   -1    0    0    0  501  0.00000000000E+00  0.00000000000E+00  0.95458215785E+03  0.95458215786E+03  0.25500000920E-02 0. -1.
        2   -1    0    0  501    0  0.00000000000E+00  0.00000000000E+00 -0.11530567712E+04  0.11530567712E+04  0.25500000920E-02 0.  1.
    10030    2    1    2    0    0  0.00000000000E+00  0.00000000000E+00 -0.19847461335E+03  0.21076389291E+04  0.20982730240E+04 0.  0.
        2    1    3    3  502    0 -0.75085267884E+03 -0.71887613067E+03 -0.24173237388E+03  0.10672381071E+04  0.25500000920E-02 0.  1.
       -2    1    3    3    0  502  0.75085267884E+03  0.71887613067E+03  0.43257760533E+02  0.10404008220E+04  0.25500000920E-02 0. -1.
</event>
<event>
 5   0  0.2448804E-04  0.1071117E+04  0.7818609E-02  0.9233810E-01
       -2   -1    0    0    0  501  0.00000000000E+00  0.00000000000E+00  0.18085614402E+03  0.18085614404E+03  0.25500000920E-02 0.  1.
        2   -1    0    0  501    0  0.00000000000E+00  0.00000000000E+00 -0.15859175438E+04  0.15859175438E+04  0.25500000920E-02 0. -1.
    10030    2    1    2    0    0  0.00000000000E+00  0.00000000000E+00 -0.14050613998E+04  0.17667736878E+04  0.10711170463E+04 0.  0.
        2    1    3    3  502    0  0.54311098464E+02 -0.24150360031E+03 -0.14858966363E+04  0.15063739569E+04  0.25500000920E-02 0. -1.
       -2    1    3    3    0  502 -0.54311098464E+02  0.24150360031E+03  0.80835236523E+02  0.26039973089E+03  0.25500000920E-02 0.  1.
</event>
<event>
 5   0  0.1042395E-04  0.2087855E+04  0.7818609E-02  0.8566612E-01
        1   -1    0    0  501    0  0.00000000000E+00  0.00000000000E+00  0.69247813648E+03  0.69247813650E+03  0.50400001928E-02 0. -1.
       -1   -1    0    0    0  501  0.00000000000E+00  0.00000000000E+00 -0.15737457377E+04  0.15737457377E+04  0.50400001928E-02 0.  1.
    10030    2    1    2    0    0  0.00000000000E+00  0.00000000000E+00 -0.88126760119E+03  0.22662238742E+04  0.20878548951E+04 0.  0.
        3    1    3    3  502    0 -0.20884357260E+03 -0.75544081675E+03 -0.11890923099E+04  0.14241653686E+04  0.10100000352E+00 0.  1.
       -3    1    3    3    0  502  0.20884357260E+03  0.75544081675E+03  0.30782470867E+03  0.84205850563E+03  0.10100000352E+00 0. -1.
</event>
<event>
 5   0  0.1122711E-04  0.2075494E+04  0.7818609E-02  0.8572116E-01
        1   -1    0    0  501    0  0.00000000000E+00  0.00000000000E+00  0.15644155602E+04  0.15644155602E+04  0.50400001928E-02 0. -1.
       -1   -1    0    0    0  501  0.00000000000E+00  0.00000000000E+00 -0.68838420740E+03  0.68838420742E+03  0.50400001928E-02 0.  1.
    10030    2    1    2    0    0  0.00000000000E+00  0.00000000000E+00  0.87603135278E+03  0.22527997676E+04  0.20754941248E+04 0.  0.
        1    1    3    3  502    0  0.26225757121E+03 -0.38071060810E+03  0.14464709475E+04  0.15185512184E+04  0.50400001928E-02 0. -1.
       -1    1    3    3    0  502 -0.26225757121E+03  0.38071060810E+03 -0.57043959474E+03  0.73424854924E+03  0.50400001928E-02 0.  1.
</event>
<event>
 5   0  0.1042395E-04  0.2117595E+04  0.7818609E-02  0.8553532E-01
        1   -1    0    0  501    0  0.00000000000E+00  0.00000000000E+00  0.16327063667E+04  0.16327063667E+04  0.50400001928E-02 0.  1.
       -1   -1    0    0    0  501  0.00000000000E+00  0.00000000000E+00 -0.68662176365E+03  0.68662176367E+03  0.50400001928E-02 0. -1.
    10030    2    1    2    0    0  0.00000000000E+00  0.00000000000E+00  0.94608460304E+03  0.23193281304E+04  0.21175946024E+04 0.  0.
        3    1    3    3  502    0  0.24196911866E+03 -0.38749293378E+03  0.15192082048E+04  0.15864089662E+04  0.10100000352E+00 0.  1.
       -3    1    3    3    0  502 -0.24196911866E+03  0.38749293378E+03 -0.57312360179E+03  0.73291916419E+03  0.10100000352E+00 0. -1.
</event>
<event>
 5   0  0.8698750E-05  0.1630178E+04  0.7818609E-02  0.8802220E-01
       -3   -1    0    0    0  501  0.00000000000E+00  0.00000000000E+00  0.43611961430E+03  0.43611962600E+03  0.10100000352E+00 0.  1.
        3   -1    0    0  501    0  0.00000000000E+00  0.00000000000E+00 -0.15233664976E+04  0.15233665009E+04  0.10100000352E+00 0. -1.
    10030    2    1    2    0    0  0.00000000000E+00  0.00000000000E+00 -0.10872468833E+04  0.19594861269E+04  0.16301779340E+04 0.  0.
        4    1    3    3  502    0 -0.34934005080E+03  0.61749848810E+03 -0.10259648957E+04  0.12473766207E+04  0.12699999809E+01 0. -1.
       -4    1    3    3    0  502  0.34934005080E+03 -0.61749848810E+03 -0.61281987599E+02  0.71210950619E+03  0.12699999809E+01 0.  1.
</event>
<event>
 5   0  0.1186038E-04  0.1167948E+04  0.7818609E-02  0.9141384E-01
        1   -1    0    0  501    0  0.00000000000E+00  0.00000000000E+00  0.10675984627E+04  0.10675984627E+04  0.50400001928E-02 0.  1.
       -1   -1    0    0    0  501  0.00000000000E+00  0.00000000000E+00 -0.31943225695E+03  0.31943225699E+03  0.50400001928E-02 0. -1.
    10030    2    1    2    0    0  0.00000000000E+00  0.00000000000E+00  0.74816620571E+03  0.13870307197E+04  0.11679475784E+04 0.  0.
        4    1    3    3  502    0 -0.41905476872E+03  0.14567011938E+03  0.82504617292E+03  0.93676543660E+03  0.12699999809E+01 0.  1.
       -4    1    3    3    0  502  0.41905476872E+03 -0.14567011938E+03 -0.76879967211E+02  0.45026528306E+03  0.12699999809E+01 0. -1.
</event>
<event>
 5   0  0.1186038E-04  0.2101542E+04  0.7818609E-02  0.8560564E-01
       -1   -1    0    0    0  501  0.00000000000E+00  0.00000000000E+00  0.83430538758E+03  0.83430538760E+03  0.50400001928E-02 0. -1.
        1   -1    0    0  501    0  0.00000000000E+00  0.00000000000E+00 -0.13233999950E+04  0.13233999950E+04  0.50400001928E-02 0.  1.
    10030    2    1    2    0    0  0.00000000000E+00  0.00000000000E+00 -0.48909460743E+03  0.21577053826E+04  0.21015420489E+04 0.  0.
        4    1    3    3  502    0 -0.66486033200E+03  0.55460260431E+03  0.36675919056E+03  0.94028571537E+03  0.12699999809E+01 0. -1.
       -4    1    3    3    0  502  0.66486033200E+03 -0.55460260431E+03 -0.85585379798E+03  0.12174196672E+04  0.12699999809E+01 0.  1.
</event>
<event>
 5   0  0.2430898E-04  0.2121337E+04  0.7818609E-02  0.8551902E-01
        2   -1    0    0  501    0  0.00000000000E+00  0.00000000000E+00  0.23953944797E+04  0.23953944797E+04  0.25500000920E-02 0.  1.
       -2   -1    0    0    0  501  0.00000000000E+00  0.00000000000E+00 -0.46965846090E+03  0.46965846090E+03  0.25500000920E-02 0. -1.
    10030    2    1    2    0    0  0.00000000000E+00  0.00000000000E+00  0.19257360188E+04  0.28650529406E+04  0.21213366396E+04 0.  0.
        1    1    3    3  502    0 -0.28744465712E+03  0.51348383591E+03  0.21547019020E+04  0.22336137462E+04  0.50400001928E-02 0.  1.
       -1    1    3    3    0  502  0.28744465712E+03 -0.51348383591E+03 -0.22896588315E+03  0.63143919447E+03  0.50400001928E-02 0. -1.
</event>
<event>
 5   0  0.2512839E-04  0.2123898E+04  0.7818609E-02  0.8550789E-01
        2   -1    0    0  501    0  0.00000000000E+00  0.00000000000E+00  0.86973265254E+03  0.86973265255E+03  0.25500000920E-02 0.  1.
       -2   -1    0    0    0  501  0.00000000000E+00  0.00000000000E+00 -0.12966459842E+04  0.12966459842E+04  0.25500000920E-02 0. -1.
    10030    2    1    2    0    0  0.00000000000E+00  0.00000000000E+00 -0.42691333162E+03  0.21663786367E+04  0.21238976917E+04 0.  0.
        3    1    3    3  502    0  0.54142708721E+03  0.80235758591E+03  0.23210343420E+03  0.99538585524E+03  0.10100000352E+00 0.  1.
       -3    1    3    3    0  502 -0.54142708721E+03 -0.80235758591E+03 -0.65901676583E+03  0.11709927815E+04  0.10100000352E+00 0. -1.
</event>
<event>
 5   0  0.1130848E-04  0.2077650E+04  0.7818609E-02  0.8571153E-01
        1   -1    0    0  501    0  0.00000000000E+00  0.00000000000E+00  0.16345746651E+04  0.16345746651E+04  0.50400001928E-02 0. -1.
       -1   -1    0    0    0  501  0.00000000000E+00  0.00000000000E+00 -0.66020701191E+03  0.66020701192E+03  0.50400001928E-02 0.  1.
    10030    2    1    2    0    0  0.00000000000E+00  0.00000000000E+00  0.97436765317E+03  0.22947816770E+04  0.20776502645E+04 0.  0.
        5    1    3    3  502    0  0.56524844535E+03 -0.67501405795E+03  0.10961533601E+04  0.14059601922E+04  0.46999998093E+01 0.  1.
       -5    1    3    3    0  502 -0.56524844535E+03  0.67501405795E+03 -0.12178570688E+03  0.88882148477E+03  0.46999998093E+01 0. -1.
</event>
<event>
 5   0  0.2448804E-04  0.1852587E+04  0.7818609E-02  0.8678824E-01
        2   -1    0    0  501    0  0.00000000000E+00  0.00000000000E+00  0.14308506661E+04  0.14308506661E+04  0.25500000920E-02 0.  1.
       -2   -1    0    0    0  501  0.00000000000E+00  0.00000000000E+00 -0.59965689630E+03  0.59965689630E+03  0.25500000920E-02 0. -1.
    10030    2    1    2    0    0  0.00000000000E+00  0.00000000000E+00  0.83119376980E+03  0.20305075624E+04  0.18525868071E+04 0.  0.
        2    1    3    3  502    0  0.73086135621E+03 -0.58769599972E+02 -0.20481089184E+03  0.76128817757E+03  0.25500000920E-02 0. -1.
       -2    1    3    3    0  502 -0.73086135621E+03  0.58769599972E+02  0.10360046616E+04  0.12692193848E+04  0.25500000920E-02 0.  1.
</event>
<event>
 5   0  0.2467483E-04  0.2135805E+04  0.7818609E-02  0.8545633E-01
       -2   -1    0    0    0  501  0.00000000000E+00  0.00000000000E+00  0.41553476241E+03  0.41553476242E+03  0.25500000920E-02 0.  1.
        2   -1    0    0  501    0  0.00000000000E+00  0.00000000000E+00 -0.27444527900E+04  0.27444527900E+04  0.25500000920E-02 0. -1.
    10030    2    1    2    0    0  0.00000000000E+00  0.00000000000E+00 -0.23289180276E+04  0.31599875524E+04  0.21358048020E+04 0.  0.
        4    1    3    3  502    0 -0.69958534437E+02 -0.49364131187E+03 -0.25616854557E+04  0.26097528481E+04  0.12699999809E+01 0. -1.
       -4    1    3    3    0  502  0.69958534437E+02  0.49364131187E+03  0.23276742812E+03  0.55023470430E+03  0.12699999809E+01 0.  1.
</event>
<event>
 5   0  0.1186038E-04  0.2431464E+04  0.7818609E-02  0.8427817E-01
        1   -1    0    0  501    0  0.00000000000E+00  0.00000000000E+00  0.12871821040E+04  0.12871821040E+04  0.50400001928E-02 0.  1.
       -1   -1    0    0    0  501  0.00000000000E+00  0.00000000000E+00 -0.11482477066E+04  0.11482477066E+04  0.50400001928E-02 0. -1.
    10030    2    1    2    0    0  0.00000000000E+00  0.00000000000E+00  0.13893439741E+03  0.24354298106E+04  0.24314636735E+04 0.  0.
        4    1    3    3  502    0  0.30404036050E+03  0.55286213147E+02 -0.11082505381E+04  0.11505294322E+04  0.12699999809E+01 0. -1.
       -4    1    3    3    0  502 -0.30404036050E+03 -0.55286213147E+02  0.12471849355E+04  0.12849003784E+04  0.12699999809E+01 0.  1.
</event>
<event>
 5   0  0.2579241E-04  0.1657681E+04  0.7818609E-02  0.8785876E-01
        2   -1    0    0  501    0  0.00000000000E+00  0.00000000000E+00  0.12066355762E+04  0.12066355762E+04  0.25500000920E-02 0. -1.
       -2   -1    0    0    0  501  0.00000000000E+00  0.00000000000E+00 -0.56933212241E+03  0.56933212242E+03  0.25500000920E-02 0.  1.
    10030    2    1    2    0    0  0.00000000000E+00  0.00000000000E+00  0.63730345375E+03  0.17759676986E+04  0.16576807818E+04 0.  0.
        5    1    3    3  502    0 -0.14275756004E+03 -0.71552031021E+02  0.11899849539E+04  0.12006605243E+04  0.46999998093E+01 0. -1.
       -5    1    3    3    0  502  0.14275756004E+03  0.71552031021E+02 -0.55268150019E+03  0.57530717425E+03  0.46999998093E+01 0.  1.
</event>
<event>
 5   0  0.2512839E-04  0.2126302E+04  0.7818609E-02  0.8549745E-01
       -2   -1    0    0    0  501  0.00000000000E+00  0.00000000000E+00  0.87595124176E+03  0.87595124176E+03  0.25500000920E-02 0. -1.
        2   -1    0    0  501    0  0.00000000000E+00  0.00000000000E+00 -0.12903576279E+04  0.12903576279E+04  0.25500000920E-02 0.  1.
    10030    2    1    2    0    0  0.00000000000E+00  0.00000000000E+00 -0.41440638616E+03  0.21663088697E+04  0.21263022988E+04 0.  0.
        3    1    3    3  502    0  0.70933273439E+03 -0.40865651517E+03  0.48389392195E+03  0.95095026861E+03  0.10100000352E+00 0. -1.
       -3    1    3    3    0  502 -0.70933273439E+03  0.40865651517E+03 -0.89830030811E+03  0.12153586011E+04  0.10100000352E+00 0.  1.
</event>
<event>
 5   0  0.1186038E-04  0.2123512E+04  0.7818609E-02  0.8550956E-01
       -1   -1    0    0    0  501  0.00000000000E+00  0.00000000000E+00  0.99998006232E+03  0.99998006233E+03  0.50400001928E-02 0. -1.
        1   -1    0    0  501    0  0.00000000000E+00  0.00000000000E+00 -0.11273483873E+04  0.11273483873E+04  0.50400001928E-02 0.  1.
    10030    2    1    2    0    0  0.00000000000E+00  0.00000000000E+00 -0.12736832498E+03  0.21273284496E+04  0.21235121008E+04 0.  0.
        4    1    3    3  502    0 -0.35148955055E+03 -0.84929124754E+03  0.46876305110E+03  0.10317853160E+04  0.12699999809E+01 0. -1.
       -4    1    3    3    0  502  0.35148955055E+03  0.84929124754E+03 -0.59613137607E+03  0.10955431337E+04  0.12699999809E+01 0.  1.
</event>
<event>
 5   0  0.1042395E-04  0.2021828E+04  0.7818609E-02  0.8596483E-01
        1   -1    0    0  501    0  0.00000000000E+00  0.00000000000E+00  0.16350310569E+04  0.16350310569E+04  0.50400001928E-02 0.  1.
       -1   -1    0    0    0  501  0.00000000000E+00  0.00000000000E+00 -0.62503213731E+03  0.62503213733E+03  0.50400001928E-02 0. -1.
    10030    2    1    2    0    0  0.00000000000E+00  0.00000000000E+00  0.10099989196E+04  0.22600631943E+04  0.20218278424E+04 0.  0.
        3    1    3    3  502    0  0.66918764705E+03  0.66176761243E+02  0.13487628219E+04  0.15071007368E+04  0.10100000352E+00 0.  1.
       -3    1    3    3    0  502 -0.66918764705E+03 -0.66176761243E+02 -0.33876390232E+03  0.75296245751E+03  0.10100000352E+00 0. -1.
</event>
<event>
 5   0  0.2467483E-04  0.2080846E+04  0.7818609E-02  0.8569728E-01
        2   -1    0    0  501    0  0.00000000000E+00  0.00000000000E+00  0.17487854971E+04  0.17487854971E+04  0.25500000920E-02 0. -1.
       -2   -1    0    0    0  501  0.00000000000E+00  0.00000000000E+00 -0.61898954830E+03  0.61898954831E+03  0.25500000920E-02 0.  1.
    10030    2    1    2    0    0  0.00000000000E+00  0.00000000000E+00  0.11297959488E+04  0.23677750454E+04  0.20808459289E+04 0.  0.
        4    1    3    3  502    0  0.54608056029E+03 -0.88408917906E+03  0.50620358278E+03  0.11558811941E+04  0.12699999809E+01 0. -1.
       -4    1    3    3    0  502 -0.54608056029E+03  0.88408917906E+03  0.62359236600E+03  0.12118938512E+04  0.12699999809E+01 0.  1.
</event>
<event>
 5   0  0.2512839E-04  0.1996923E+04  0.7818609E-02  0.8608061E-01
        2   -1    0    0  501    0  0.00000000000E+00  0.00000000000E+00  0.90929450000E+03  0.90929450001E+03  0.25500000920E-02 0. -1.
       -2   -1    0    0    0  501  0.00000000000E+00  0.00000000000E+00 -0.10963724377E+04  0.10963724377E+04  0.25500000920E-02 0.  1.
    10030    2    1    2    0    0  0.00000000000E+00  0.00000000000E+00 -0.18707793773E+03  0.20056669377E+04  0.19969230607E+04 0.  0.
        3    1    3    3  502    0  0.95079609982E+03  0.30072662679E+03 -0.43564797061E+02  0.99817214409E+03  0.10100000352E+00 0.  1.
       -3    1    3    3    0  502 -0.95079609982E+03 -0.30072662679E+03 -0.14351314067E+03  0.10074947937E+04  0.10100000352E+00 0. -1.
</event>
<event>
 5   0  0.2448804E-04  0.1265367E+04  0.7818609E-02  0.9057490E-01
       -2   -1    0    0    0  501  0.00000000000E+00  0.00000000000E+00  0.54064262778E+03  0.54064262779E+03  0.25500000920E-02 0. -1.
        2   -1    0    0  501    0  0.00000000000E+00  0.00000000000E+00 -0.74039323965E+03  0.74039323966E+03  0.25500000920E-02 0.  1.
    10030    2    1    2    0    0  0.00000000000E+00  0.00000000000E+00 -0.19975061187E+03  0.12810358674E+04  0.12653665820E+04 0.  0.
        2    1    3    3  502    0 -0.12358765797E+03 -0.57342299675E+03 -0.33987697524E+03  0.67794114841E+03  0.25500000920E-02 0.  1.
       -2    1    3    3    0  502  0.12358765797E+03  0.57342299675E+03  0.14012636337E+03  0.60309471903E+03  0.25500000920E-02 0. -1.
</event>
<event>
 5   0  0.2448804E-04  0.1140665E+04  0.7818609E-02  0.9166439E-01
        2   -1    0    0  501    0  0.00000000000E+00  0.00000000000E+00  0.73139068827E+03  0.73139068828E+03  0.25500000920E-02 0. -1.
       -2   -1    0    0    0  501  0.00000000000E+00  0.00000000000E+00 -0.44474071154E+03  0.44474071154E+03  0.25500000920E-02 0.  1.
    10030    2    1    2    0    0  0.00000000000E+00  0.00000000000E+00  0.28664997674E+03  0.11761313998E+04  0.11406650957E+04 0.  0.
        2    1    3    3  502    0 -0.35387567516E+03 -0.40279931590E+03  0.34380274015E+03  0.63692668848E+03  0.25500000920E-02 0. -1.
       -2    1    3    3    0  502  0.35387567516E+03  0.40279931590E+03 -0.57152763411E+02  0.53920471134E+03  0.25500000920E-02 0.  1.
</event>
<event>
 5   0  0.2467483E-04  0.2080440E+04  0.7818609E-02  0.8569909E-01
       -2   -1    0    0    0  501  0.00000000000E+00  0.00000000000E+00  0.46277042752E+03  0.46277042753E+03  0.25500000920E-02 0.  1.
        2   -1    0    0  501    0  0.00000000000E+00  0.00000000000E+00 -0.23382175401E+04  0.23382175401E+04  0.25500000920E-02 0. -1.
    10030    2    1    2    0    0  0.00000000000E+00  0.00000000000E+00 -0.18754471126E+04  0.28009879676E+04  0.20804402714E+04 0.  0.
        4    1    3    3  502    0 -0.22611178727E+03 -0.86547003551E+02 -0.22997547564E+04  0.23124641568E+04  0.12699999809E+01 0. -1.
       -4    1    3    3    0  502  0.22611178727E+03  0.86547003551E+02  0.42430764384E+03  0.48852381077E+03  0.12699999809E+01 0.  1.
</event>
<event>
 5   0  0.2579241E-04  0.2105993E+04  0.7818609E-02  0.8558608E-01
       -2   -1    0    0    0  501  0.00000000000E+00  0.00000000000E+00  0.42865136440E+03  0.42865136441E+03  0.25500000920E-02 0.  1.
        2   -1    0    0  501    0  0.00000000000E+00  0.00000000000E+00 -0.25867215350E+04  0.25867215350E+04  0.25500000920E-02 0. -1.
    10030    2    1    2    0    0  0.00000000000E+00  0.00000000000E+00 -0.21580701706E+04  0.30153728994E+04  0.21059930820E+04 0.  0.
        5    1    3    3  502    0  0.17293117694E+03  0.87041230976E+03 -0.26749442944E+03  0.92687547207E+03  0.46999998093E+01 0.  1.
       -5    1    3    3    0  502 -0.17293117694E+03 -0.87041230976E+03 -0.18905757411E+04  0.20884974273E+04  0.46999998093E+01 0. -1.
</event>
<event>
 5   0  0.2579241E-04  0.1739513E+04  0.7818609E-02  0.8739144E-01
       -2   -1    0    0    0  501  0.00000000000E+00  0.00000000000E+00  0.67875398517E+03  0.67875398517E+03  0.25500000920E-02 0. -1.
        2   -1    0    0  501    0  0.00000000000E+00  0.00000000000E+00 -0.11145080452E+04  0.11145080452E+04  0.25500000920E-02 0.  1.
    10030    2    1    2    0    0  0.00000000000E+00  0.00000000000E+00 -0.43575406003E+03  0.17932620304E+04  0.17395134690E+04 0.  0.
        5    1    3    3  502    0 -0.88633212119E+02  0.72955672394E+03 -0.69737880488E+03  0.10131476433E+04  0.46999998093E+01 0.  1.
       -5    1    3    3    0  502  0.88633212119E+02 -0.72955672394E+03  0.26162474485E+03  0.78011438703E+03  0.46999998093E+01 0. -1.
</event>
<event>
 5   0  0.2512839E-04  0.1772525E+04  0.7818609E-02  0.8721049E-01
        2   -1    0    0  501    0  0.00000000000E+00  0.00000000000E+00  0.17245917911E+04  0.17245917911E+04  0.25500000920E-02 0. -1.
       -2   -1    0    0    0  501  0.00000000000E+00  0.00000000000E+00 -0.45544741812E+03  0.45544741813E+03  0.25500000920E-02 0.  1.
    10030    2    1    2    0    0  0.00000000000E+00  0.00000000000E+00  0.12691443730E+04  0.21800392093E+04  0.17725246160E+04 0.  0.
        3    1    3    3  502    0 -0.71997953881E+03 -0.51652607978E+03  0.65555789833E+03  0.11022367693E+04  0.10100000352E+00 0.  1.
       -3    1    3    3    0  502  0.71997953881E+03  0.51652607978E+03  0.61358647467E+03  0.10778024399E+04  0.10100000352E+00 0. -1.
</event>
<event>
 5   0  0.1122711E-04  0.2088838E+04  0.7818609E-02  0.8566176E-01
       -1   -1    0    0    0  501  0.00000000000E+00  0.00000000000E+00  0.10977283678E+04  0.10977283679E+04  0.50400001928E-02 0. -1.
        1   -1    0    0  501    0  0.00000000000E+00  0.00000000000E+00 -0.99369842968E+03  0.99369842969E+03  0.50400001928E-02 0.  1.
    10030    2    1    2    0    0  0.00000000000E+00  0.00000000000E+00  0.10402993817E+03  0.20914267975E+04  0.20888379117E+04 0.  0.
        1    1    3    3  502    0  0.19205025344E+03  0.99428465660E+03 -0.20389068839E+03  0.10329843615E+04  0.50400001928E-02 0.  1.
       -1    1    3    3    0  502 -0.19205025344E+03 -0.99428465660E+03  0.30792062656E+03  0.10584424361E+04  0.50400001928E-02 0. -1.
</event>
<event>
 5   0  0.1122711E-04  0.2041514E+04  0.7818609E-02  0.8587454E-01
       -1   -1    0    0    0  501  0.00000000000E+00  0.00000000000E+00  0.10569083393E+04  0.10569083393E+04  0.50400001928E-02 0.  1.
        1   -1    0    0  501    0  0.00000000000E+00  0.00000000000E+00 -0.98584208650E+03  0.98584208652E+03  0.50400001928E-02 0. -1.
    10030    2    1    2    0    0  0.00000000000E+00  0.00000000000E+00  0.71066252785E+02  0.20427504258E+04  0.20415138721E+04 0.  0.
        1    1    3    3  502    0 -0.61775407883E+03  0.50005464976E+03 -0.60537803974E+03  0.99907823802E+03  0.50400001928E-02 0. -1.
       -1    1    3    3    0  502  0.61775407883E+03 -0.50005464976E+03  0.67644429253E+03  0.10436721878E+04  0.50400001928E-02 0.  1.
</event>
<event>
 5   0  0.2448804E-04  0.2123226E+04  0.7818609E-02  0.8551080E-01
        2   -1    0    0  501    0  0.00000000000E+00  0.00000000000E+00  0.17582729284E+04  0.17582729284E+04  0.25500000920E-02 0.  1.
       -2   -1    0    0    0  501  0.00000000000E+00  0.00000000000E+00 -0.64098273424E+03  0.64098273424E+03  0.25500000920E-02 0. -1.
    10030    2    1    2    0    0  0.00000000000E+00  0.00000000000E+00  0.11172901942E+04  0.23992556627E+04  0.21232264026E+04 0.  0.
        2    1    3    3  502    0 -0.34389104275E+03 -0.78645245646E+02 -0.57281430396E+03  0.67272754572E+03  0.25500000920E-02 0. -1.
       -2    1    3    3    0  502  0.34389104275E+03  0.78645245646E+02  0.16901044981E+04  0.17265281169E+04  0.25500000920E-02 0.  1.
</event>
<event>
 5   0  0.2467483E-04  0.2123946E+04  0.7818609E-02  0.8550768E-01
        2   -1    0    0  501    0  0.00000000000E+00  0.00000000000E+00  0.10838802088E+04  0.10838802088E+04  0.25500000920E-02 0.  1.
       -2   -1    0    0    0  501  0.00000000000E+00  0.00000000000E+00 -0.10405089098E+04  0.10405089098E+04  0.25500000920E-02 0. -1.
    10030    2    1    2    0    0  0.00000000000E+00  0.00000000000E+00  0.43371298961E+02  0.21243891186E+04  0.21239463405E+04 0.  0.
        4    1    3    3  502    0  0.75611159714E+03 -0.23578300468E+03 -0.68591291126E+03  0.10477483034E+04  0.12699999809E+01 0. -1.
       -4    1    3    3    0  502 -0.75611159714E+03  0.23578300468E+03  0.72928421022E+03  0.10766408151E+04  0.12699999809E+01 0.  1.
</event>
<event>
 5   0  0.1130848E-04  0.1995334E+04  0.7818609E-02  0.8608805E-01
       -1   -1    0    0    0  501  0.00000000000E+00  0.00000000000E+00  0.66190826036E+03  0.66190826038E+03  0.50400001928E-02 0.  1.
        1   -1    0    0  501    0  0.00000000000E+00  0.00000000000E+00 -0.15037427598E+04  0.15037427598E+04  0.50400001928E-02 0. -1.
    10030    2    1    2    0    0  0.00000000000E+00  0.00000000000E+00 -0.84183449942E+03  0.21656510202E+04  0.19953343120E+04 0.  0.
        5    1    3    3  502    0  0.17977243743E+03 -0.15220071344E+02 -0.14858779976E+04  0.14967983477E+04  0.46999998093E+01 0. -1.
       -5    1    3    3    0  502 -0.17977243743E+03  0.15220071344E+02  0.64404349823E+03  0.66885267245E+03  0.46999998093E+01 0.  1.
</event>
<event>
 5   0  0.2430898E-04  0.2101151E+04  0.7818609E-02  0.8560737E-01
        2   -1    0    0  501    0  0.00000000000E+00  0.00000000000E+00  0.65344229207E+03  0.65344229207E+03  0.25500000920E-02 0.  1.
       -2   -1    0    0    0  501  0.00000000000E+00  0.00000000000E+00 -0.16890684857E+04  0.16890684857E+04  0.25500000920E-02 0. -1.
    10030    2    1    2    0    0  0.00000000000E+00  0.00000000000E+00 -0.10356261937E+04  0.23425107778E+04  0.21011509063E+04 0.  0.
        1    1    3    3  502    0 -0.82274520225E+03  0.45831024526E+03 -0.10368577737E+04  0.14007255233E+04  0.50400001928E-02 0. -1.
       -1    1    3    3    0  502  0.82274520225E+03 -0.45831024526E+03  0.12315800462E+01  0.94178525448E+03  0.50400001928E-02 0.  1.
</event>
<event>
 5   0  0.1130848E-04  0.1041090E+04  0.7818609E-02  0.9264592E-01
        1   -1    0    0  501    0  0.00000000000E+00  0.00000000000E+00  0.59355526563E+03  0.59355526565E+03  0.50400001928E-02 0. -1.
       -1   -1    0    0    0  501  0.00000000000E+00  0.00000000000E+00 -0.45651497718E+03  0.45651497720E+03  0.50400001928E-02 0.  1.
    10030    2    1    2    0    0  0.00000000000E+00  0.00000000000E+00  0.13704028845E+03  0.10500702429E+04  0.10410895611E+04 0.  0.
        5    1    3    3  502    0  0.45367862086E+03  0.24786209646E+03  0.72933857397E+01  0.51704467250E+03  0.46999998093E+01 0. -1.
       -5    1    3    3    0  502 -0.45367862086E+03 -0.24786209646E+03  0.12974690271E+03  0.53302557035E+03  0.46999998093E+01 0.  1.
</event>
<event>
 5   0  0.1186038E-04  0.2093348E+04  0.7818609E-02  0.8564180E-01
        1   -1    0    0  501    0  0.00000000000E+00  0.00000000000E+00  0.15990487822E+04  0.15990487822E+04  0.50400001928E-02 0. -1.
       -1   -1    0    0    0  501  0.00000000000E+00  0.00000000000E+00 -0.68511103827E+03  0.68511103829E+03  0.50400001928E-02 0.  1.
    10030    2    1    2    0    0  0.00000000000E+00  0.00000000000E+00  0.91393774397E+03  0.22841598205E+04  0.20933475311E+04 0.  0.
        4    1    3    3  502    0 -0.65496886151E+03 -0.37535457194E+03 -0.33413427753E+03  0.82554381625E+03  0.12699999809E+01 0. -1.
       -4    1    3    3    0  502  0.65496886151E+03  0.37535457194E+03  0.12480720215E+04  0.14586160043E+04  0.12699999809E+01 0.  1.
</event>
<event>
 5   0  0.1122711E-04  0.1866435E+04  0.7818609E-02  0.8671746E-01
       -1   -1    0    0    0  501  0.00000000000E+00  0.00000000000E+00  0.11398379438E+04  0.11398379438E+04  0.50400001928E-02 0.  1.
        1   -1    0    0  501    0  0.00000000000E+00  0.00000000000E+00 -0.76405166030E+03  0.76405166032E+03  0.50400001928E-02 0. -1.
    10030    2    1    2    0    0  0.00000000000E+00  0.00000000000E+00  0.37578628346E+03  0.19038896041E+04  0.18664351834E+04 0.  0.
        1    1    3    3  502    0 -0.10298151357E+03  0.91122730877E+03  0.36444046667E+03  0.98679139344E+03  0.50400001928E-02 0.  1.
       -1    1    3    3    0  502  0.10298151357E+03 -0.91122730877E+03  0.11345816788E+02  0.91709821065E+03  0.50400001928E-02 0. -1.
</event>
<event>
 5   0  0.1122711E-04  0.2108614E+04  0.7818609E-02  0.8557458E-01
       -1   -1    0    0    0  501  0.00000000000E+00  0.00000000000E+00  0.59739812783E+03  0.59739812785E+03  0.50400001928E-02 0.  1.
        1   -1    0    0  501    0  0.00000000000E+00  0.00000000000E+00 -0.18606743662E+04  0.18606743663E+04  0.50400001928E-02 0. -1.
    10030    2    1    2    0    0  0.00000000000E+00  0.00000000000E+00 -0.12632762384E+04  0.24580724941E+04  0.21086141258E+04 0.  0.
        1    1    3    3  502    0  0.58411582266E+03 -0.11878220397E+03 -0.16453953540E+04  0.17500361075E+04  0.50400001928E-02 0. -1.
       -1    1    3    3    0  502 -0.58411582266E+03  0.11878220397E+03  0.38211911563E+03  0.70803638665E+03  0.50400001928E-02 0.  1.
</event>
<event>
 5   0  0.1122711E-04  0.2095934E+04  0.7818609E-02  0.8563036E-01
       -1   -1    0    0    0  501  0.00000000000E+00  0.00000000000E+00  0.95367729609E+03  0.95367729610E+03  0.50400001928E-02 0.  1.
        1   -1    0    0  501    0  0.00000000000E+00  0.00000000000E+00 -0.11515796256E+04  0.11515796256E+04  0.50400001928E-02 0. -1.
    10030    2    1    2    0    0  0.00000000000E+00  0.00000000000E+00 -0.19790232953E+03  0.21052569217E+04  0.20959344872E+04 0.  0.
        1    1    3    3  502    0  0.81437587369E+03  0.60073774890E+03 -0.37245152318E+03  0.10783385571E+04  0.50400001928E-02 0. -1.
       -1    1    3    3    0  502 -0.81437587369E+03 -0.60073774890E+03  0.17454919365E+03  0.10269183646E+04  0.50400001928E-02 0.  1.
</event>
<event>
 5   0  0.1156733E-04  0.2101435E+04  0.7818609E-02  0.8560612E-01
       -1   -1    0    0    0  501  0.00000000000E+00  0.00000000000E+00  0.83936362944E+03  0.83936362946E+03  0.50400001928E-02 0. -1.
        1   -1    0    0  501    0  0.00000000000E+00  0.00000000000E+00 -0.13152903565E+04  0.13152903565E+04  0.50400001928E-02 0.  1.
    10030    2    1    2    0    0  0.00000000000E+00  0.00000000000E+00 -0.47592672706E+03  0.21546539860E+04  0.21014346408E+04 0.  0.
        2    1    3    3  502    0 -0.68071084354E+02 -0.93368877320E+02 -0.13087561590E+04  0.13138470625E+04  0.25500000920E-02 0.  1.
       -2    1    3    3    0  502  0.68071084354E+02  0.93368877320E+02  0.83282943198E+03  0.84080692347E+03  0.25500000920E-02 0. -1.
</event>
<event>
 5   0  0.1130848E-04  0.2099011E+04  0.7818609E-02  0.8561679E-01
       -1   -1    0    0    0  501  0.00000000000E+00  0.00000000000E+00  0.72580551985E+03  0.72580551987E+03  0.50400001928E-02 0.  1.
        1   -1    0    0  501    0  0.00000000000E+00  0.00000000000E+00 -0.15175721054E+04  0.15175721054E+04  0.50400001928E-02 0. -1.
    10030    2    1    2    0    0  0.00000000000E+00  0.00000000000E+00 -0.79176658555E+03  0.22433776253E+04  0.20990113967E+04 0.  0.
        5    1    3    3  502    0  0.24076876213E+02 -0.71801224101E+03 -0.12135641706E+04  0.14102770509E+04  0.46999998093E+01 0. -1.
       -5    1    3    3    0  502 -0.24076876213E+02  0.71801224101E+03  0.42179758506E+03  0.83310057434E+03  0.46999998093E+01 0.  1.
</event>
<event>
 5   0  0.2512839E-04  0.2104266E+04  0.7818609E-02  0.8559366E-01
        2   -1    0    0  501    0  0.00000000000E+00  0.00000000000E+00  0.18436995126E+04  0.18436995126E+04  0.25500000920E-02 0. -1.
       -2   -1    0    0    0  501  0.00000000000E+00  0.00000000000E+00 -0.60041467227E+03  0.60041467227E+03  0.25500000920E-02 0.  1.
    10030    2    1    2    0    0  0.00000000000E+00  0.00000000000E+00  0.12432848403E+04  0.24441141849E+04  0.21042663697E+04 0.  0.
        3    1    3    3  502    0 -0.14166372684E+03  0.36569081186E+03 -0.51234848081E+03  0.64521264508E+03  0.10100000352E+00 0.  1.
       -3    1    3    3    0  502  0.14166372684E+03 -0.36569081186E+03  0.17556333211E+04  0.17989015398E+04  0.10100000352E+00 0. -1.
</event>
<event>
 5   0  0.1042395E-04  0.2116039E+04  0.7818609E-02  0.8554211E-01
        1   -1    0    0  501    0  0.00000000000E+00  0.00000000000E+00  0.87229036936E+03  0.87229036937E+03  0.50400001928E-02 0.  1.
       -1   -1    0    0    0  501  0.00000000000E+00  0.00000000000E+00 -0.12832943929E+04  0.12832943929E+04  0.50400001928E-02 0. -1.
    10030    2    1    2    0    0  0.00000000000E+00  0.00000000000E+00 -0.41100402357E+03  0.21555847623E+04  0.21160390734E+04 0.  0.
        3    1    3    3  502    0 -0.23018369189E+03  0.62184612619E+03  0.63436217747E+03  0.91765599168E+03  0.10100000352E+00 0.  1.
       -3    1    3    3    0  502  0.23018369189E+03 -0.62184612619E+03 -0.10453662010E+04  0.12379287706E+04  0.10100000352E+00 0. -1.
</event>
<event>
 5   0  0.1156733E-04  0.2072044E+04  0.7818609E-02  0.8573659E-01
        1   -1    0    0  501    0  0.00000000000E+00  0.00000000000E+00  0.20459301003E+04  0.20459301003E+04  0.50400001928E-02 0.  1.
       -1   -1    0    0    0  501  0.00000000000E+00  0.00000000000E+00 -0.52462287963E+03  0.52462287965E+03  0.50400001928E-02 0. -1.
    10030    2    1    2    0    0  0.00000000000E+00  0.00000000000E+00  0.15213072207E+04  0.25705529800E+04  0.20720441509E+04 0.  0.
        2    1    3    3  502    0  0.27691449836E+03 -0.89203623443E+03  0.13167518519E+04  0.16143871043E+04  0.25500000920E-02 0.  1.
       -2    1    3    3    0  502 -0.27691449836E+03  0.89203623443E+03  0.20455536876E+03  0.95616587569E+03  0.25500000920E-02 0. -1.
</event>
<event>
 5   0  0.2579241E-04  0.2165436E+04  0.7818609E-02  0.8532954E-01
       -2   -1    0    0    0  501  0.00000000000E+00  0.00000000000E+00  0.13927464157E+04  0.13927464157E+04  0.25500000920E-02 0.  1.
        2   -1    0    0  501    0  0.00000000000E+00  0.00000000000E+00 -0.84170277102E+03  0.84170277103E+03  0.25500000920E-02 0. -1.
    10030    2    1    2    0    0  0.00000000000E+00  0.00000000000E+00  0.55104364469E+03  0.22344491867E+04  0.21654362308E+04 0.  0.
        5    1    3    3  502    0 -0.39913884263E+03  0.96992829005E+03  0.55275469536E+03  0.11855937528E+04  0.46999998093E+01 0. -1.
       -5    1    3    3    0  502  0.39913884263E+03 -0.96992829005E+03 -0.17110506669E+01  0.10488554339E+04  0.46999998093E+01 0.  1.
</event>
<event>
 5   0  0.2512839E-04  0.2066646E+04  0.7818609E-02  0.8576080E-01
        2   -1    0    0  501    0  0.00000000000E+00  0.00000000000E+00  0.12578754143E+04  0.12578754143E+04  0.25500000920E-02 0.  1.
       -2   -1    0    0    0  501  0.00000000000E+00  0.00000000000E+00 -0.84885664796E+03  0.84885664796E+03  0.25500000920E-02 0. -1.
    10030    2    1    2    0    0  0.00000000000E+00  0.00000000000E+00  0.40901876636E+03  0.21067320623E+04  0.20666455020E+04 0.  0.
        3    1    3    3  502    0 -0.17040830136E+03  0.76465621750E+03  0.89138760497E+03  0.11867223739E+04  0.10100000352E+00 0.  1.
       -3    1    3    3    0  502  0.17040830136E+03 -0.76465621750E+03 -0.48236883860E+03  0.92000968842E+03  0.10100000352E+00 0. -1.
</event>
<event>
 5   0  0.1122711E-04  0.2270390E+04  0.7818609E-02  0.8489688E-01
       -1   -1    0    0    0  501  0.00000000000E+00  0.00000000000E+00  0.10532612135E+04  0.10532612135E+04  0.50400001928E-02 0.  1.
        1   -1    0    0  501    0  0.00000000000E+00  0.00000000000E+00 -0.12235025213E+04  0.12235025213E+04  0.50400001928E-02 0. -1.
    10030    2    1    2    0    0  0.00000000000E+00  0.00000000000E+00 -0.17024130788E+03  0.22767637348E+04  0.22703900549E+04 0.  0.
        1    1    3    3  502    0  0.83409466014E+03  0.66150979208E+03 -0.48038277724E+03  0.11679369503E+04  0.50400001928E-02 0.  1.
       -1    1    3    3    0  502 -0.83409466014E+03 -0.66150979208E+03  0.31014146936E+03  0.11088267846E+04  0.50400001928E-02 0. -1.
</event>
<event>
 5   0  0.2467483E-04  0.1737618E+04  0.7818609E-02  0.8740196E-01
        2   -1    0    0  501    0  0.00000000000E+00  0.00000000000E+00  0.10984452828E+04  0.10984452828E+04  0.25500000920E-02 0.  1.
       -2   -1    0    0    0  501  0.00000000000E+00  0.00000000000E+00 -0.68717918467E+03  0.68717918467E+03  0.25500000920E-02 0. -1.
    10030    2    1    2    0    0  0.00000000000E+00  0.00000000000E+00  0.41126609810E+03  0.17856244674E+04  0.17376176033E+04 0.  0.
        4    1    3    3  502    0 -0.16921799234E+03  0.61117239860E+03  0.81589240693E+03  0.10333675350E+04  0.12699999809E+01 0.  1.
       -4    1    3    3    0  502  0.16921799234E+03 -0.61117239860E+03 -0.40462630884E+03  0.75225693246E+03  0.12699999809E+01 0. -1.
</event>
<event>
 5   0  0.2430898E-04  0.2134120E+04  0.7818609E-02  0.8546361E-01
       -2   -1    0    0    0  501  0.00000000000E+00  0.00000000000E+00  0.60659606194E+03  0.60659606195E+03  0.25500000920E-02 0.  1.
        2   -1    0    0  501    0  0.00000000000E+00  0.00000000000E+00 -0.18770591691E+04  0.18770591691E+04  0.25500000920E-02 0. -1.
    10030    2    1    2    0    0  0.00000000000E+00  0.00000000000E+00 -0.12704631072E+04  0.24836552311E+04  0.21341196780E+04 0.  0.
        1    1    3    3  502    0 -0.10305622447E+04 -0.23111304989E+03 -0.81228335968E+03  0.13323948508E+04  0.50400001928E-02 0.  1.
       -1    1    3    3    0  502  0.10305622447E+04  0.23111304989E+03 -0.45817974749E+03  0.11512603802E+04  0.50400001928E-02 0. -1.
</event>
<event>
 5   0  0.2512839E-04  0.2096842E+04  0.7818609E-02  0.8562636E-01
       -2   -1    0    0    0  501  0.00000000000E+00  0.00000000000E+00  0.67613119915E+03  0.67613119915E+03  0.25500000920E-02 0. -1.
        2   -1    0    0  501    0  0.00000000000E+00  0.00000000000E+00 -0.16257008845E+04  0.16257008845E+04  0.25500000920E-02 0.  1.
    10030    2    1    2    0    0  0.00000000000E+00  0.00000000000E+00 -0.94956968534E+03  0.23018320836E+04  0.20968424724E+04 0.  0.
        3    1    3    3  502    0 -0.68352760852E+03 -0.30174228621E+03  0.33259488050E+03  0.81784947492E+03  0.10100000352E+00 0. -1.
       -3    1    3    3    0  502  0.68352760852E+03  0.30174228621E+03 -0.12821645658E+04  0.14839826087E+04  0.10100000352E+00 0.  1.
</event>
<event>
 5   0  0.1130848E-04  0.2376441E+04  0.7818609E-02  0.8448377E-01
       -1   -1    0    0    0  501  0.00000000000E+00  0.00000000000E+00  0.96081908647E+03  0.96081908648E+03  0.50400001928E-02 0. -1.
        1   -1    0    0  501    0  0.00000000000E+00  0.00000000000E+00 -0.14694415566E+04  0.14694415566E+04  0.50400001928E-02 0.  1.
    10030    2    1    2    0    0  0.00000000000E+00  0.00000000000E+00 -0.50862247011E+03  0.24302606431E+04  0.23764406107E+04 0.  0.
        5    1    3    3  502    0  0.50198147400E+03  0.77251073226E+03 -0.10216969409E+04  0.13757343351E+04  0.46999998093E+01 0.  1.
       -5    1    3    3    0  502 -0.50198147400E+03 -0.77251073226E+03  0.51307447077E+03  0.10545263080E+04  0.46999998093E+01 0. -1.
</event>
<event>
 5   0  0.1156733E-04  0.2073295E+04  0.7818609E-02  0.8573099E-01
       -1   -1    0    0    0  501  0.00000000000E+00  0.00000000000E+00  0.61220706266E+03  0.61220706268E+03  0.50400001928E-02 0.  1.
        1   -1    0    0  501    0  0.00000000000E+00  0.00000000000E+00 -0.17553512162E+04  0.17553512162E+04  0.50400001928E-02 0. -1.
    10030    2    1    2    0    0  0.00000000000E+00  0.00000000000E+00 -0.11431441535E+04  0.23675582789E+04  0.20732953596E+04 0.  0.
        2    1    3    3  502    0 -0.30644126507E+03  0.81326179204E+03  0.73732000509E+02  0.87220261363E+03  0.25500000920E-02 0.  1.
       -2    1    3    3    0  502  0.30644126507E+03 -0.81326179204E+03 -0.12168761541E+04  0.14953556653E+04  0.25500000920E-02 0. -1.
</event>
<event>
 5   0  0.1042395E-04  0.2083496E+04  0.7818609E-02  0.8568549E-01
        1   -1    0    0  501    0  0.00000000000E+00  0.00000000000E+00  0.13431152497E+04  0.13431152497E+04  0.50400001928E-02 0.  1.
       -1   -1    0    0    0  501  0.00000000000E+00  0.00000000000E+00 -0.80800100895E+03  0.80800100897E+03  0.50400001928E-02 0. -1.
    10030    2    1    2    0    0  0.00000000000E+00  0.00000000000E+00  0.53511424078E+03  0.21511162587E+04  0.20834955982E+04 0.  0.
        3    1    3    3  502    0 -0.17897170095E+03  0.97834010257E+03  0.58754874379E+03  0.11551596264E+04  0.10100000352E+00 0. -1.
       -3    1    3    3    0  502  0.17897170095E+03 -0.97834010257E+03 -0.52434503006E+02  0.99595663227E+03  0.10100000352E+00 0.  1.
</event>
<event>
 5   0  0.2448804E-04  0.2114661E+04  0.7818609E-02  0.8554812E-01
        2   -1    0    0  501    0  0.00000000000E+00  0.00000000000E+00  0.91524419964E+03  0.91524419964E+03  0.25500000920E-02 0. -1.
       -2   -1    0    0    0  501  0.00000000000E+00  0.00000000000E+00 -0.12214753084E+04  0.12214753084E+04  0.25500000920E-02 0.  1.
    10030    2    1    2    0    0  0.00000000000E+00  0.00000000000E+00 -0.30623110877E+03  0.21367195081E+04  0.21146613829E+04 0.  0.
        2    1    3    3  502    0  0.10265935179E+04 -0.57759941043E+01  0.10254661866E+03  0.10317186739E+04  0.25500000920E-02 0. -1.
       -2    1    3    3    0  502 -0.10265935179E+04  0.57759941043E+01 -0.40877772742E+03  0.11050008342E+04  0.25500000920E-02 0.  1.
</event>
<event>
 5   0  0.2467483E-04  0.1529233E+04  0.7818609E-02  0.8865243E-01
       -2   -1    0    0    0  501  0.00000000000E+00  0.00000000000E+00  0.29538823858E+03  0.29538823859E+03  0.25500000920E-02 0. -1.
        2   -1    0    0  501    0  0.00000000000E+00  0.00000000000E+00 -0.19792210385E+04  0.19792210385E+04  0.25500000920E-02 0.  1.
    10030    2    1    2    0    0  0.00000000000E+00  0.00000000000E+00 -0.16838327999E+04  0.22746092771E+04  0.15292332933E+04 0.  0.
        4    1    3    3  502    0  0.70336059560E+03 -0.56127170329E+02 -0.40376984256E+03  0.81295638588E+03  0.12699999809E+01 0. -1.
       -4    1    3    3    0  502 -0.70336059560E+03  0.56127170329E+02 -0.12800629574E+04  0.14616528912E+04  0.12699999809E+01 0.  1.
</event>
<event>
 5   0  0.1156733E-04  0.1916332E+04  0.7818609E-02  0.8646769E-01
        1   -1    0    0  501    0  0.00000000000E+00  0.00000000000E+00  0.27829476919E+04  0.27829476919E+04  0.50400001928E-02 0.  1.
       -1   -1    0    0    0  501  0.00000000000E+00  0.00000000000E+00 -0.32989572511E+03  0.32989572515E+03  0.50400001928E-02 0. -1.
    10030    2    1    2    0    0  0.00000000000E+00  0.00000000000E+00  0.24530519667E+04  0.31128434170E+04  0.19163324835E+04 0.  0.
        2    1    3    3  502    0  0.76925744020E+03  0.25362620377E+03  0.39507535087E+03  0.90120352497E+03  0.25500000920E-02 0. -1.
       -2    1    3    3    0  502 -0.76925744020E+03 -0.25362620377E+03  0.20579766159E+04  0.22116398920E+04  0.25500000920E-02 0.  1.
</event>
<event>
 5   0  0.1130848E-04  0.2095242E+04  0.7818609E-02  0.8563342E-01
        1   -1    0    0  501    0  0.00000000000E+00  0.00000000000E+00  0.13988227217E+04  0.13988227217E+04  0.50400001928E-02 0.  1.
       -1   -1    0    0    0  501  0.00000000000E+00  0.00000000000E+00 -0.78459517340E+03  0.78459517341E+03  0.50400001928E-02 0. -1.
    10030    2    1    2    0    0  0.00000000000E+00  0.00000000000E+00  0.61422754831E+03  0.21834178951E+04  0.20952418055E+04 0.  0.
        5    1    3    3  502    0 -0.33878195209E+03 -0.34759341583E+03  0.12745657358E+04  0.13638674051E+04  0.46999998093E+01 0.  1.
       -5    1    3    3    0  502  0.33878195209E+03  0.34759341583E+03 -0.66033818752E+03  0.81955049001E+03  0.46999998093E+01 0. -1.
</event>
<event>
 5   0  0.1156733E-04  0.2095918E+04  0.7818609E-02  0.8563044E-01
       -1   -1    0    0    0  501  0.00000000000E+00  0.00000000000E+00  0.99902990985E+03  0.99902990986E+03  0.50400001928E-02 0.  1.
        1   -1    0    0  501    0  0.00000000000E+00  0.00000000000E+00 -0.10992841471E+04  0.10992841472E+04  0.50400001928E-02 0. -1.
    10030    2    1    2    0    0  0.00000000000E+00  0.00000000000E+00 -0.10025423729E+03  0.20983140570E+04  0.20959176915E+04 0.  0.
        2    1    3    3  502    0 -0.10760872781E+03  0.16967589443E+03  0.97956631013E+03  0.99995985089E+03  0.25500000920E-02 0.  1.
       -2    1    3    3    0  502  0.10760872781E+03 -0.16967589443E+03 -0.10798205474E+04  0.10983542061E+04  0.25500000920E-02 0. -1.
</event>
<event>
 5   0  0.8698750E-05  0.1142586E+04  0.7818609E-02  0.9164651E-01
        3   -1    0    0  501    0  0.00000000000E+00  0.00000000000E+00  0.43287763361E+03  0.43287764539E+03  0.10100000352E+00 0.  1.
       -3   -1    0    0    0  501  0.00000000000E+00  0.00000000000E+00 -0.75396711713E+03  0.75396712390E+03  0.10100000352E+00 0. -1.
    10030    2    1    2    0    0  0.00000000000E+00  0.00000000000E+00 -0.32108948352E+03  0.11868447693E+04  0.11425856860E+04 0.  0.
        5    1    3    3  502    0 -0.33814219050E+03  0.37152475362E+02  0.31618069139E+03  0.46444888527E+03  0.46999998093E+01 0.  1.
       -5    1    3    3    0  502  0.33814219050E+03 -0.37152475362E+02 -0.63727017491E+03  0.72239588402E+03  0.46999998093E+01 0. -1.
</event>
<event>
 5   0  0.2448804E-04  0.1606262E+04  0.7818609E-02  0.8816710E-01
        2   -1    0    0  501    0  0.00000000000E+00  0.00000000000E+00  0.97856424142E+03  0.97856424142E+03  0.25500000920E-02 0. -1.
       -2   -1    0    0    0  501  0.00000000000E+00  0.00000000000E+00 -0.65914881582E+03  0.65914881582E+03  0.25500000920E-02 0.  1.
    10030    2    1    2    0    0  0.00000000000E+00  0.00000000000E+00  0.31941542560E+03  0.16377130572E+04  0.16062620719E+04 0.  0.
        2    1    3    3  502    0  0.32609107558E+03  0.56233935032E+03 -0.32118249639E+03  0.72506491467E+03  0.25500000920E-02 0.  1.
       -2    1    3    3    0  502 -0.32609107558E+03 -0.56233935032E+03  0.64059792199E+03  0.91264814258E+03  0.25500000920E-02 0. -1.
</event>
<event>
 5   0  0.2512839E-04  0.2093396E+04  0.7818609E-02  0.8564158E-01
        2   -1    0    0  501    0  0.00000000000E+00  0.00000000000E+00  0.25797333637E+04  0.25797333637E+04  0.25500000920E-02 0.  1.
       -2   -1    0    0    0  501  0.00000000000E+00  0.00000000000E+00 -0.42468600019E+03  0.42468600020E+03  0.25500000920E-02 0. -1.
    10030    2    1    2    0    0  0.00000000000E+00  0.00000000000E+00  0.21550473635E+04  0.30044193639E+04  0.20933959433E+04 0.  0.
        3    1    3    3  502    0 -0.72890645568E+02 -0.88674926046E+02 -0.41562527501E+03  0.43118519008E+03  0.10100000352E+00 0. -1.
       -3    1    3    3    0  502  0.72890645568E+02  0.88674926046E+02  0.25706726385E+04  0.25732341738E+04  0.10100000352E+00 0.  1.
</event>
<event>
 5   0  0.2448804E-04  0.2129953E+04  0.7818609E-02  0.8548163E-01
        2   -1    0    0  501    0  0.00000000000E+00  0.00000000000E+00  0.10203069930E+04  0.10203069930E+04  0.25500000920E-02 0.  1.
       -2   -1    0    0    0  501  0.00000000000E+00  0.00000000000E+00 -0.11116011582E+04  0.11116011582E+04  0.25500000920E-02 0. -1.
    10030    2    1    2    0    0  0.00000000000E+00  0.00000000000E+00 -0.91294165237E+02  0.21319081512E+04  0.21299525208E+04 0.  0.
        2    1    3    3  502    0 -0.55494860167E+03 -0.58959915741E+03  0.64678236754E+03  0.10363023439E+04  0.25500000920E-02 0.  1.
       -2    1    3    3    0  502  0.55494860167E+03  0.58959915741E+03 -0.73807653278E+03  0.10956058074E+04  0.25500000920E-02 0. -1.
</event>
<event>
 5   0  0.1042395E-04  0.2092108E+04  0.7818609E-02  0.8564728E-01
       -1   -1    0    0    0  501  0.00000000000E+00  0.00000000000E+00  0.10931489846E+04  0.10931489846E+04  0.50400001928E-02 0. -1.
        1   -1    0    0  501    0  0.00000000000E+00  0.00000000000E+00 -0.10009878300E+04  0.10009878300E+04  0.50400001928E-02 0.  1.
    10030    2    1    2    0    0  0.00000000000E+00  0.00000000000E+00  0.92161154643E+02  0.20941368146E+04  0.20921078653E+04 0.  0.
        3    1    3    3  502    0 -0.21756813030E+03 -0.63845380584E+01  0.10702307852E+04  0.10921403745E+04  0.10100000352E+00 0. -1.
       -3    1    3    3    0  502  0.21756813030E+03  0.63845380584E+01 -0.97806963059E+03  0.10019964402E+04  0.10100000352E+00 0.  1.
</event>
<event>
 5   0  0.1130848E-04  0.2120558E+04  0.7818609E-02  0.8552241E-01
       -1   -1    0    0    0  501  0.00000000000E+00  0.00000000000E+00  0.72397707645E+03  0.72397707647E+03  0.50400001928E-02 0.  1.
        1   -1    0    0  501    0  0.00000000000E+00  0.00000000000E+00 -0.15527996361E+04  0.15527996361E+04  0.50400001928E-02 0. -1.
    10030    2    1    2    0    0  0.00000000000E+00  0.00000000000E+00 -0.82882255967E+03  0.22767767126E+04  0.21205577954E+04 0.  0.
        5    1    3    3  502    0  0.58313712419E+03 -0.64388153734E+02 -0.13626343826E+04  0.14835731497E+04  0.46999998093E+01 0. -1.
       -5    1    3    3    0  502 -0.58313712419E+03  0.64388153734E+02  0.53381182289E+03  0.79320356290E+03  0.46999998093E+01 0.  1.
</event>
<event>
 5   0  0.2579241E-04  0.2125442E+04  0.7818609E-02  0.8550118E-01
        2   -1    0    0  501    0  0.00000000000E+00  0.00000000000E+00  0.20621485402E+04  0.20621485402E+04  0.25500000920E-02 0.  1.
       -2   -1    0    0    0  501  0.00000000000E+00  0.00000000000E+00 -0.54766970218E+03  0.54766970219E+03  0.25500000920E-02 0. -1.
    10030    2    1    2    0    0  0.00000000000E+00  0.00000000000E+00  0.15144788380E+04  0.26098182424E+04  0.21254423322E+04 0.  0.
        5    1    3    3  502    0 -0.17260857719E+03 -0.93114317519E+03  0.13493503745E+04  0.16485114063E+04  0.46999998093E+01 0. -1.
       -5    1    3    3    0  502  0.17260857719E+03  0.93114317519E+03  0.16512846352E+03  0.96130683607E+03  0.46999998093E+01 0.  1.
</event>
<event>
 5   0  0.1130848E-04  0.2074561E+04  0.7818609E-02  0.8572533E-01
        1   -1    0    0  501    0  0.00000000000E+00  0.00000000000E+00  0.84550281080E+03  0.84550281082E+03  0.50400001928E-02 0. -1.
       -1   -1    0    0    0  501  0.00000000000E+00  0.00000000000E+00 -0.12725575299E+04  0.12725575299E+04  0.50400001928E-02 0.  1.
    10030    2    1    2    0    0  0.00000000000E+00  0.00000000000E+00 -0.42705471908E+03  0.21180603407E+04  0.20745611280E+04 0.  0.
        5    1    3    3  502    0  0.82645331233E+02  0.87219317184E+03  0.35343414719E+03  0.94471634164E+03  0.46999998093E+01 0. -1.
       -5    1    3    3    0  502 -0.82645331233E+02 -0.87219317184E+03 -0.78048886627E+03  0.11733439991E+04  0.46999998093E+01 0.  1.
</event>
<event>
 5   0  0.1156733E-04  0.2016013E+04  0.7818609E-02  0.8599171E-01
       -1   -1    0    0    0  501  0.00000000000E+00  0.00000000000E+00  0.63116260958E+03  0.63116260960E+03  0.50400001928E-02 0.  1.
        1   -1    0    0  501    0  0.00000000000E+00  0.00000000000E+00 -0.16098492555E+04  0.16098492555E+04  0.50400001928E-02 0. -1.
    10030    2    1    2    0    0  0.00000000000E+00  0.00000000000E+00 -0.97868664595E+03  0.22410118651E+04  0.20160125567E+04 0.  0.
        2    1    3    3  502    0  0.48148462733E+03  0.42121014833E+03 -0.13552775019E+04  0.14986735944E+04  0.25500000920E-02 0. -1.
       -2    1    3    3    0  502 -0.48148462733E+03 -0.42121014833E+03  0.37659085595E+03  0.74233827074E+03  0.25500000920E-02 0.  1.
</event>
<event>
 5   0  0.2579241E-04  0.2065743E+04  0.7818609E-02  0.8576486E-01
       -2   -1    0    0    0  501  0.00000000000E+00  0.00000000000E+00  0.55852698743E+03  0.55852698744E+03  0.25500000920E-02 0.  1.
        2   -1    0    0  501    0  0.00000000000E+00  0.00000000000E+00 -0.19100667067E+04  0.19100667067E+04  0.25500000920E-02 0. -1.
    10030    2    1    2    0    0  0.00000000000E+00  0.00000000000E+00 -0.13515397193E+04  0.24685936941E+04  0.20657432595E+04 0.  0.
        5    1    3    3  502    0  0.33320707815E+03  0.46901792098E+03  0.34929716168E+03  0.67307901786E+03  0.46999998093E+01 0.  1.
       -5    1    3    3    0  502 -0.33320707815E+03 -0.46901792098E+03 -0.17008368809E+04  0.17955146763E+04  0.46999998093E+01 0. -1.
</event>
<event>
 5   0  0.1122711E-04  0.2076072E+04  0.7818609E-02  0.8571858E-01
       -1   -1    0    0    0  501  0.00000000000E+00  0.00000000000E+00  0.10770732032E+04  0.10770732032E+04  0.50400001928E-02 0.  1.
        1   -1    0    0  501    0  0.00000000000E+00  0.00000000000E+00 -0.10004132708E+04  0.10004132708E+04  0.50400001928E-02 0. -1.
    10030    2    1    2    0    0  0.00000000000E+00  0.00000000000E+00  0.76659932444E+02  0.20774864741E+04  0.20760716039E+04 0.  0.
        1    1    3    3  502    0 -0.61736575858E+03 -0.71347899872E+03  0.47143616721E+03  0.10547249979E+04  0.50400001928E-02 0.  1.
       -1    1    3    3    0  502  0.61736575858E+03  0.71347899872E+03 -0.39477623477E+03  0.10227614761E+04  0.50400001928E-02 0. -1.
</event>
<event>
 5   0  0.2512839E-04  0.1663585E+04  0.7818609E-02  0.8782410E-01
        2   -1    0    0  501    0  0.00000000000E+00  0.00000000000E+00  0.12163029707E+04  0.12163029707E+04  0.25500000920E-02 0. -1.
       -2   -1    0    0    0  501  0.00000000000E+00  0.00000000000E+00 -0.56883733993E+03  0.56883733994E+03  0.25500000920E-02 0.  1.
    10030    2    1    2    0    0  0.00000000000E+00  0.00000000000E+00  0.64746563073E+03  0.17851403106E+04  0.16635847395E+04 0.  0.
        3    1    3    3  502    0 -0.80505805571E+03  0.20692267308E+03  0.29077947041E+03  0.88061806495E+03  0.10100000352E+00 0.  1.
       -3    1    3    3    0  502  0.80505805571E+03 -0.20692267308E+03  0.35668616032E+03  0.90452224565E+03  0.10100000352E+00 0. -1.
</event>
<event>
 5   0  0.2430898E-04  0.2179788E+04  0.7818609E-02  0.8526888E-01
        2   -1    0    0  501    0  0.00000000000E+00  0.00000000000E+00  0.73819552938E+03  0.73819552939E+03  0.25500000920E-02 0. -1.
       -2   -1    0    0    0  501  0.00000000000E+00  0.00000000000E+00 -0.16091518608E+04  0.16091518608E+04  0.25500000920E-02 0.  1.
    10030    2    1    2    0    0  0.00000000000E+00  0.00000000000E+00 -0.87095633143E+03  0.23473473902E+04  0.21797877968E+04 0.  0.
        1    1    3    3  502    0  0.56645116106E+03 -0.80542668706E+03  0.67651257488E+02  0.98699329215E+03  0.50400001928E-02 0.  1.
       -1    1    3    3    0  502 -0.56645116106E+03  0.80542668706E+03 -0.93860758892E+03  0.13603540981E+04  0.50400001928E-02 0. -1.
</event>
<event>
 5   0  0.2512839E-04  0.1966255E+04  0.7818609E-02  0.8622562E-01
       -2   -1    0    0    0  501  0.00000000000E+00  0.00000000000E+00  0.47675688883E+03  0.47675688884E+03  0.25500000920E-02 0. -1.
        2   -1    0    0  501    0  0.00000000000E+00  0.00000000000E+00 -0.20273220209E+04  0.20273220209E+04  0.25500000920E-02 0.  1.
    10030    2    1    2    0    0  0.00000000000E+00  0.00000000000E+00 -0.15505651320E+04  0.25040789097E+04  0.19662550591E+04 0.  0.
        3    1    3    3  502    0 -0.15466551347E+03 -0.55527636592E+03 -0.17895462591E+04  0.18800875212E+04  0.10100000352E+00 0.  1.
       -3    1    3    3    0  502  0.15466551347E+03  0.55527636592E+03  0.23898112710E+03  0.62399138850E+03  0.10100000352E+00 0. -1.
</event>
<event>
 5   0  0.1156733E-04  0.1992127E+04  0.7818609E-02  0.8610311E-01
        1   -1    0    0  501    0  0.00000000000E+00  0.00000000000E+00  0.13474982006E+04  0.13474982006E+04  0.50400001928E-02 0. -1.
       -1   -1    0    0    0  501  0.00000000000E+00  0.00000000000E+00 -0.73628460031E+03  0.73628460033E+03  0.50400001928E-02 0.  1.
    10030    2    1    2    0    0  0.00000000000E+00  0.00000000000E+00  0.61121360033E+03  0.20837828010E+04  0.19921266768E+04 0.  0.
        2    1    3    3  502    0  0.67885633878E+03  0.48092230127E+03  0.87853916080E+03  0.12099434886E+04  0.25500000920E-02 0. -1.
       -2    1    3    3    0  502 -0.67885633878E+03 -0.48092230127E+03 -0.26732556047E+03  0.87383931237E+03  0.25500000920E-02 0.  1.
</event>
<event>
 5   0  0.2467483E-04  0.1702678E+04  0.7818609E-02  0.8759839E-01
       -2   -1    0    0    0  501  0.00000000000E+00  0.00000000000E+00  0.63041515581E+03  0.63041515581E+03  0.25500000920E-02 0.  1.
        2   -1    0    0  501    0  0.00000000000E+00  0.00000000000E+00 -0.11496833604E+04  0.11496833604E+04  0.25500000920E-02 0. -1.
    10030    2    1    2    0    0  0.00000000000E+00  0.00000000000E+00 -0.51926820458E+03  0.17800985162E+04  0.17026776733E+04 0.  0.
        4    1    3    3  502    0  0.65232994161E+03  0.37941272149E+03 -0.67161806990E+03  0.10102280983E+04  0.12699999809E+01 0. -1.
       -4    1    3    3    0  502 -0.65232994161E+03 -0.37941272149E+03  0.15234986532E+03  0.76987041787E+03  0.12699999809E+01 0.  1.
</event>
<event>
 5   0  0.1130848E-04  0.1208903E+04  0.7818609E-02  0.9105099E-01
       -1   -1    0    0    0  501  0.00000000000E+00  0.00000000000E+00  0.30188565065E+03  0.30188565069E+03  0.50400001928E-02 0.  1.
        1   -1    0    0  501    0  0.00000000000E+00  0.00000000000E+00 -0.12102648944E+04  0.12102648944E+04  0.50400001928E-02 0. -1.
    10030    2    1    2    0    0  0.00000000000E+00  0.00000000000E+00 -0.90837924372E+03  0.15121505451E+04  0.12089029823E+04 0.  0.
        5    1    3    3  502    0  0.12101035218E+03  0.10226894661E+03 -0.11838057034E+04  0.11943703263E+04  0.46999998093E+01 0. -1.
       -5    1    3    3    0  502 -0.12101035218E+03 -0.10226894661E+03  0.27542645970E+03  0.31778021883E+03  0.46999998093E+01 0.  1.
</event>
<event>
 5   0  0.1156733E-04  0.1710243E+04  0.7818609E-02  0.8755544E-01
       -1   -1    0    0    0  501  0.00000000000E+00  0.00000000000E+00  0.12458516693E+04  0.12458516693E+04  0.50400001928E-02 0. -1.
        1   -1    0    0  501    0  0.00000000000E+00  0.00000000000E+00 -0.58693387970E+03  0.58693387972E+03  0.50400001928E-02 0.  1.
    10030    2    1    2    0    0  0.00000000000E+00  0.00000000000E+00  0.65891778962E+03  0.18327855491E+04  0.17102427358E+04 0.  0.
        2    1    3    3  502    0 -0.16829251414E+03 -0.35348544737E+03 -0.48524936741E+03  0.62349120314E+03  0.25500000920E-02 0.  1.
       -2    1    3    3    0  502  0.16829251414E+03  0.35348544737E+03  0.11441671570E+04  0.12092943459E+04  0.25500000920E-02 0. -1.
</event>
<event>
 5   0  0.8698750E-05  0.2093254E+04  0.7818609E-02  0.8564221E-01
       -3   -1    0    0    0  501  0.00000000000E+00  0.00000000000E+00  0.79584835838E+03  0.79584836479E+03  0.10100000352E+00 0. -1.
        3   -1    0    0  501    0  0.00000000000E+00  0.00000000000E+00 -0.13764286839E+04  0.13764286876E+04  0.10100000352E+00 0.  1.
    10030    2    1    2    0    0  0.00000000000E+00  0.00000000000E+00 -0.58058032552E+03  0.21722770524E+04  0.20932544227E+04 0.  0.
        3    1    3    3  502    0 -0.28918923988E+03 -0.41186525166E+03  0.66204938317E+03  0.83160856053E+03  0.10100000352E+00 0. -1.
       -3    1    3    3    0  502  0.28918923988E+03  0.41186525166E+03 -0.12426297087E+04  0.13406684919E+04  0.10100000352E+00 0.  1.
</event>
<event>
 5   0  0.1156733E-04  0.2110378E+04  0.7818609E-02  0.8556686E-01
       -1   -1    0    0    0  501  0.00000000000E+00  0.00000000000E+00  0.96650773220E+03  0.96650773222E+03  0.50400001928E-02 0.  1.
        1   -1    0    0  501    0  0.00000000000E+00  0.00000000000E+00 -0.11520066972E+04  0.11520066972E+04  0.50400001928E-02 0. -1.
    10030    2    1    2    0    0  0.00000000000E+00  0.00000000000E+00 -0.18549896502E+03  0.21185144295E+04  0.21103775780E+04 0.  0.
        2    1    3    3  502    0  0.10142285257E+04  0.27503297469E+03 -0.18862027628E+03  0.10676517448E+04  0.25500000920E-02 0. -1.
       -2    1    3    3    0  502 -0.10142285257E+04 -0.27503297469E+03  0.31213112594E+01  0.10508626847E+04  0.25500000920E-02 0.  1.
</event>
<event>
 5   0  0.1042395E-04  0.2138184E+04  0.7818609E-02  0.8544607E-01
       -1   -1    0    0    0  501  0.00000000000E+00  0.00000000000E+00  0.63992261141E+03  0.63992261143E+03  0.50400001928E-02 0. -1.
        1   -1    0    0  501    0  0.00000000000E+00  0.00000000000E+00 -0.17860872033E+04  0.17860872033E+04  0.50400001928E-02 0.  1.
    10030    2    1    2    0    0  0.00000000000E+00  0.00000000000E+00 -0.11461645919E+04  0.24260098147E+04  0.21381838905E+04 0.  0.
        3    1    3    3  502    0 -0.56845222540E+03  0.90371856210E+03 -0.63638110823E+03  0.12429103335E+04  0.10100000352E+00 0. -1.
       -3    1    3    3    0  502  0.56845222540E+03 -0.90371856210E+03 -0.50978348366E+03  0.11830994812E+04  0.10100000352E+00 0.  1.
</event>
<event>
 5   0  0.1130848E-04  0.1681226E+04  0.7818609E-02  0.8772145E-01
        1   -1    0    0  501    0  0.00000000000E+00  0.00000000000E+00  0.58192756165E+03  0.58192756168E+03  0.50400001928E-02 0. -1.
       -1   -1    0    0    0  501  0.00000000000E+00  0.00000000000E+00 -0.12142924547E+04  0.12142924548E+04  0.50400001928E-02 0.  1.
    10030    2    1    2    0    0  0.00000000000E+00  0.00000000000E+00 -0.63236489309E+03  0.17962200164E+04  0.16812260376E+04 0.  0.
        5    1    3    3  502    0 -0.67003763332E+02  0.34920869458E+03 -0.11299713894E+04  0.11846069591E+04  0.46999998093E+01 0.  1.
       -5    1    3    3    0  502  0.67003763332E+02 -0.34920869458E+03  0.49760649634E+03  0.61161305731E+03  0.46999998093E+01 0. -1.
</event>
<event>
 5   0  0.2579241E-04  0.1620112E+04  0.7818609E-02  0.8808287E-01
       -2   -1    0    0    0  501  0.00000000000E+00  0.00000000000E+00  0.66483850489E+03  0.66483850490E+03  0.25500000920E-02 0. -1.
        2   -1    0    0  501    0  0.00000000000E+00  0.00000000000E+00 -0.98699298579E+03  0.98699298579E+03  0.25500000920E-02 0.  1.
    10030    2    1    2    0    0  0.00000000000E+00  0.00000000000E+00 -0.32215448090E+03  0.16518314907E+04  0.16201122690E+04 0.  0.
        5    1    3    3  502    0  0.12476953822E+03 -0.69065967884E+03  0.25130488378E+03  0.74548941257E+03  0.46999998093E+01 0. -1.
       -5    1    3    3    0  502 -0.12476953822E+03  0.69065967884E+03 -0.57345936468E+03  0.90634207812E+03  0.46999998093E+01 0.  1.
</event>
<event>
 5   0  0.1042395E-04  0.2069993E+04  0.7818609E-02  0.8574578E-01
        1   -1    0    0  501    0  0.00000000000E+00  0.00000000000E+00  0.79848833375E+03  0.79848833376E+03  0.50400001928E-02 0.  1.
       -1   -1    0    0    0  501  0.00000000000E+00  0.00000000000E+00 -0.13415570066E+04  0.13415570066E+04  0.50400001928E-02 0. -1.
    10030    2    1    2    0    0  0.00000000000E+00  0.00000000000E+00 -0.54306867286E+03  0.21400453404E+04  0.20699928685E+04 0.  0.
        3    1    3    3  502    0 -0.34607747960E+03  0.97255149928E+03 -0.19422696052E+03  0.10504047615E+04  0.10100000352E+00 0. -1.
       -3    1    3    3    0  502  0.34607747960E+03 -0.97255149928E+03 -0.34884171235E+03  0.10896405789E+04  0.10100000352E+00 0.  1.
</event>
<event>
 5   0  0.1130848E-04  0.2094040E+04  0.7818609E-02  0.8563873E-01
       -1   -1    0    0    0  501  0.00000000000E+00  0.00000000000E+00  0.11584455360E+04  0.11584455360E+04  0.50400001928E-02 0.  1.
        1   -1    0    0  501    0  0.00000000000E+00  0.00000000000E+00 -0.94631215740E+03  0.94631215741E+03  0.50400001928E-02 0. -1.
    10030    2    1    2    0    0  0.00000000000E+00  0.00000000000E+00  0.21213337863E+03  0.21047576935E+04  0.20940402044E+04 0.  0.
        5    1    3    3  502    0 -0.20868167580E+03 -0.51007787551E+03 -0.78871511279E+03  0.96219597798E+03  0.46999998093E+01 0.  1.
       -5    1    3    3    0  502  0.20868167580E+03  0.51007787551E+03  0.10008484914E+04  0.11425617155E+04  0.46999998093E+01 0. -1.
</event>
<event>
 5   0  0.1186038E-04  0.2310763E+04  0.7818609E-02  0.8473690E-01
       -1   -1    0    0    0  501  0.00000000000E+00  0.00000000000E+00  0.81141688689E+03  0.81141688691E+03  0.50400001928E-02 0.  1.
        1   -1    0    0  501    0  0.00000000000E+00  0.00000000000E+00 -0.16451544665E+04  0.16451544665E+04  0.50400001928E-02 0. -1.
    10030    2    1    2    0    0  0.00000000000E+00  0.00000000000E+00 -0.83373757960E+03  0.24565713534E+04  0.23107627448E+04 0.  0.
        4    1    3    3  502    0 -0.18671760456E+03  0.62591808407E+03  0.59629797495E+03  0.88442625450E+03  0.12699999809E+01 0. -1.
       -4    1    3    3    0  502  0.18671760456E+03 -0.62591808407E+03 -0.14300355546E+04  0.15721450989E+04  0.12699999809E+01 0.  1.
</event>
<event>
 5   0  0.1156733E-04  0.2212854E+04  0.7818609E-02  0.8513097E-01
       -1   -1    0    0    0  501  0.00000000000E+00  0.00000000000E+00  0.14010298918E+04  0.14010298918E+04  0.50400001928E-02 0.  1.
        1   -1    0    0  501    0  0.00000000000E+00  0.00000000000E+00 -0.87377199934E+03  0.87377199935E+03  0.50400001928E-02 0. -1.
    10030    2    1    2    0    0  0.00000000000E+00  0.00000000000E+00  0.52725789244E+03  0.22748018911E+04  0.22128539850E+04 0.  0.
        2    1    3    3  502    0  0.77071795086E+03 -0.78725381401E+03  0.36849428050E+03  0.11617068314E+04  0.25500000920E-02 0.  1.
       -2    1    3    3    0  502 -0.77071795086E+03  0.78725381401E+03  0.15876361194E+03  0.11130950597E+04  0.25500000920E-02 0. -1.
</event>
<event>
 5   0  0.2448804E-04  0.2082853E+04  0.7818609E-02  0.8568835E-01
        2   -1    0    0  501    0  0.00000000000E+00  0.00000000000E+00  0.75702765917E+03  0.75702765917E+03  0.25500000920E-02 0.  1.
       -2   -1    0    0    0  501  0.00000000000E+00  0.00000000000E+00 -0.14326674631E+04  0.14326674631E+04  0.25500000920E-02 0. -1.
    10030    2    1    2    0    0  0.00000000000E+00  0.00000000000E+00 -0.67563980397E+03  0.21896951223E+04  0.20828527514E+04 0.  0.
        2    1    3    3  502    0 -0.15828762244E+03  0.57587667247E+03  0.55910270524E+03  0.81809825102E+03  0.25500000920E-02 0.  1.
       -2    1    3    3    0  502  0.15828762244E+03 -0.57587667247E+03 -0.12347425092E+04  0.13715968713E+04  0.25500000920E-02 0. -1.
</event>
<event>
 5   0  0.2512839E-04  0.2081408E+04  0.7818609E-02  0.8569478E-01
       -2   -1    0    0    0  501  0.00000000000E+00  0.00000000000E+00  0.84085787425E+03  0.84085787426E+03  0.25500000920E-02 0. -1.
        2   -1    0    0  501    0  0.00000000000E+00  0.00000000000E+00 -0.12880477504E+04  0.12880477504E+04  0.25500000920E-02 0.  1.
    10030    2    1    2    0    0  0.00000000000E+00  0.00000000000E+00 -0.44718987610E+03  0.21289056246E+04  0.20814082668E+04 0.  0.
        3    1    3    3  502    0 -0.68248312095E+03 -0.56389859617E+03 -0.78316268109E+03  0.11819934993E+04  0.10100000352E+00 0. -1.
       -3    1    3    3    0  502  0.68248312095E+03  0.56389859617E+03  0.33597280500E+03  0.94691212530E+03  0.10100000352E+00 0.  1.
</event>
<event>
 5   0  0.2467483E-04  0.2097055E+04  0.7818609E-02  0.8562542E-01
       -2   -1    0    0    0  501  0.00000000000E+00  0.00000000000E+00  0.85024798364E+03  0.85024798364E+03  0.25500000920E-02 0. -1.
        2   -1    0    0  501    0  0.00000000000E+00  0.00000000000E+00 -0.12930467292E+04  0.12930467292E+04  0.25500000920E-02 0.  1.
    10030    2    1    2    0    0  0.00000000000E+00  0.00000000000E+00 -0.44279874557E+03  0.21432947128E+04  0.20970554349E+04 0.  0.
        4    1    3    3  502    0 -0.83849729939E+03  0.23371916714E+03  0.37604645484E+03  0.94821670481E+03  0.12699999809E+01 0.  1.
       -4    1    3    3    0  502  0.83849729939E+03 -0.23371916714E+03 -0.81884520041E+03  0.11950780080E+04  0.12699999809E+01 0. -1.
</event>
<event>
 5   0  0.1130848E-04  0.2140016E+04  0.7818609E-02  0.8543818E-01
       -1   -1    0    0    0  501  0.00000000000E+00  0.00000000000E+00  0.57190315045E+03  0.57190315047E+03  0.50400001928E-02 0. -1.
        1   -1    0    0  501    0  0.00000000000E+00  0.00000000000E+00 -0.20019424141E+04  0.20019424141E+04  0.50400001928E-02 0.  1.
    10030    2    1    2    0    0  0.00000000000E+00  0.00000000000E+00 -0.14300392637E+04  0.25738455646E+04  0.21400160501E+04 0.  0.
        5    1    3    3  502    0  0.98256438396E+03  0.47423342443E+02 -0.20871294658E+03  0.10056166894E+04  0.46999998093E+01 0. -1.
       -5    1    3    3    0  502 -0.98256438396E+03 -0.47423342443E+02 -0.12213263171E+04  0.15682288752E+04  0.46999998093E+01 0.  1.
</event>
<event>
 5   0  0.2430898E-04  0.2071968E+04  0.7818609E-02  0.8573693E-01
        2   -1    0    0  501    0  0.00000000000E+00  0.00000000000E+00  0.78868597978E+03  0.78868597978E+03  0.25500000920E-02 0.  1.
       -2   -1    0    0    0  501  0.00000000000E+00  0.00000000000E+00 -0.13608245169E+04  0.13608245169E+04  0.25500000920E-02 0. -1.
    10030    2    1    2    0    0  0.00000000000E+00  0.00000000000E+00 -0.57213853716E+03  0.21495104967E+04  0.20719683564E+04 0.  0.
        1    1    3    3  502    0 -0.69606029477E+03 -0.17548686519E+03  0.48885802846E+03  0.86849164983E+03  0.50400001928E-02 0.  1.
       -1    1    3    3    0  502  0.69606029477E+03  0.17548686519E+03 -0.10609965656E+04  0.12810188469E+04  0.50400001928E-02 0. -1.
</event>
<event>
 5   0  0.2579241E-04  0.2112318E+04  0.7818609E-02  0.8555837E-01
        2   -1    0    0  501    0  0.00000000000E+00  0.00000000000E+00  0.12394996662E+04  0.12394996662E+04  0.25500000920E-02 0.  1.
       -2   -1    0    0    0  501  0.00000000000E+00  0.00000000000E+00 -0.89993679188E+03  0.89993679188E+03  0.25500000920E-02 0. -1.
    10030    2    1    2    0    0  0.00000000000E+00  0.00000000000E+00  0.33956287427E+03  0.21394364580E+04  0.21123175453E+04 0.  0.
        5    1    3    3  502    0  0.10201253025E+04 -0.18180909716E+03  0.37670580417E+03  0.11025604443E+04  0.46999998093E+01 0. -1.
       -5    1    3    3    0  502 -0.10201253025E+04  0.18180909716E+03 -0.37142929899E+02  0.10368760137E+04  0.46999998093E+01 0.  1.
</event>
<event>
 5   0  0.1186038E-04  0.2013583E+04  0.7818609E-02  0.8600296E-01
       -1   -1    0    0    0  501  0.00000000000E+00  0.00000000000E+00  0.10984207476E+04  0.10984207477E+04  0.50400001928E-02 0. -1.
        1   -1    0    0  501    0  0.00000000000E+00  0.00000000000E+00 -0.92280600119E+03  0.92280600121E+03  0.50400001928E-02 0.  1.
    10030    2    1    2    0    0  0.00000000000E+00  0.00000000000E+00  0.17561474645E+03  0.20212267489E+04  0.20135831324E+04 0.  0.
        4    1    3    3  502    0  0.22756422469E+03  0.22461836819E+03  0.10460981450E+04  0.10938746864E+04  0.12699999809E+01 0. -1.
       -4    1    3    3    0  502 -0.22756422469E+03 -0.22461836819E+03 -0.87048339855E+03  0.92735206246E+03  0.12699999809E+01 0.  1.
</event>
<event>
 5   0  0.1156733E-04  0.2065924E+04  0.7818609E-02  0.8576404E-01
       -1   -1    0    0    0  501  0.00000000000E+00  0.00000000000E+00  0.98980200494E+03  0.98980200496E+03  0.50400001928E-02 0. -1.
        1   -1    0    0  501    0  0.00000000000E+00  0.00000000000E+00 -0.10780041500E+04  0.10780041500E+04  0.50400001928E-02 0.  1.
    10030    2    1    2    0    0  0.00000000000E+00  0.00000000000E+00 -0.88202145069E+02  0.20678061550E+04  0.20659241700E+04 0.  0.
        2    1    3    3  502    0 -0.64867043750E+03  0.61293073507E+03 -0.56472224023E+03  0.10561101416E+04  0.25500000920E-02 0.  1.
       -2    1    3    3    0  502  0.64867043750E+03 -0.61293073507E+03  0.47652009516E+03  0.10116960134E+04  0.25500000920E-02 0. -1.
</event>
<event>
 5   0  0.1156733E-04  0.2161406E+04  0.7818609E-02  0.8534665E-01
       -1   -1    0    0    0  501  0.00000000000E+00  0.00000000000E+00  0.29601994037E+04  0.29601994037E+04  0.50400001928E-02 0. -1.
        1   -1    0    0  501    0  0.00000000000E+00  0.00000000000E+00 -0.39454081723E+03  0.39454081726E+03  0.50400001928E-02 0.  1.
    10030    2    1    2    0    0  0.00000000000E+00  0.00000000000E+00  0.25656585864E+04  0.33547402210E+04  0.21614064791E+04 0.  0.
        2    1    3    3  502    0 -0.98914225628E+03  0.38290416351E+03  0.96134583137E+03  0.14315040374E+04  0.25500000920E-02 0.  1.
       -2    1    3    3    0  502  0.98914225628E+03 -0.38290416351E+03  0.16043127551E+04  0.19232361836E+04  0.25500000920E-02 0. -1.
</event>
<event>
 5   0  0.1042395E-04  0.2103535E+04  0.7818609E-02  0.8559688E-01
        1   -1    0    0  501    0  0.00000000000E+00  0.00000000000E+00  0.16374791795E+04  0.16374791795E+04  0.50400001928E-02 0.  1.
       -1   -1    0    0    0  501  0.00000000000E+00  0.00000000000E+00 -0.67555975933E+03  0.67555975935E+03  0.50400001928E-02 0. -1.
    10030    2    1    2    0    0  0.00000000000E+00  0.00000000000E+00  0.96191942020E+03  0.23130389389E+04  0.21035351582E+04 0.  0.
        3    1    3    3  502    0 -0.81916247806E+03 -0.41447214327E+03 -0.83381333812E+02  0.92182795577E+03  0.10100000352E+00 0. -1.
       -3    1    3    3    0  502  0.81916247806E+03  0.41447214327E+03  0.10453007540E+04  0.13912109831E+04  0.10100000352E+00 0.  1.
</event>
<event>
 5   0  0.1156733E-04  0.2077465E+04  0.7818609E-02  0.8571236E-01
        1   -1    0    0  501    0  0.00000000000E+00  0.00000000000E+00  0.13590567899E+04  0.13590567899E+04  0.50400001928E-02 0.  1.
       -1   -1    0    0    0  501  0.00000000000E+00  0.00000000000E+00 -0.79390730520E+03  0.79390730521E+03  0.50400001928E-02 0. -1.
    10030    2    1    2    0    0  0.00000000000E+00  0.00000000000E+00  0.56514948470E+03  0.21529640951E+04  0.20774649106E+04 0.  0.
        2    1    3    3  502    0  0.82633999881E+03 -0.20592269906E+03 -0.33378581535E+03  0.91468842901E+03  0.25500000920E-02 0. -1.
       -2    1    3    3    0  502 -0.82633999881E+03  0.20592269906E+03  0.89893530004E+03  0.12382756661E+04  0.25500000920E-02 0.  1.
</event>
<event>
 5   0  0.2448804E-04  0.2341226E+04  0.7818609E-02  0.8461841E-01
        2   -1    0    0  501    0  0.00000000000E+00  0.00000000000E+00  0.15856087942E+04  0.15856087942E+04  0.25500000920E-02 0. -1.
       -2   -1    0    0    0  501  0.00000000000E+00  0.00000000000E+00 -0.86423292377E+03  0.86423292378E+03  0.25500000920E-02 0.  1.
    10030    2    1    2    0    0  0.00000000000E+00  0.00000000000E+00  0.72137587040E+03  0.24498417180E+04  0.23412264514E+04 0.  0.
        2    1    3    3  502    0 -0.10438332685E+04 -0.50938364968E+03  0.51331685516E+03  0.12698636890E+04  0.25500000920E-02 0. -1.
       -2    1    3    3    0  502  0.10438332685E+04  0.50938364968E+03  0.20805901523E+03  0.11799780289E+04  0.25500000920E-02 0.  1.
</event>
<event>
 5   0  0.2448804E-04  0.2029540E+04  0.7818609E-02  0.8592933E-01
       -2   -1    0    0    0  501  0.00000000000E+00  0.00000000000E+00  0.75786082462E+03  0.75786082463E+03  0.25500000920E-02 0. -1.
        2   -1    0    0  501    0  0.00000000000E+00  0.00000000000E+00 -0.13587693225E+04  0.13587693225E+04  0.25500000920E-02 0.  1.
    10030    2    1    2    0    0  0.00000000000E+00  0.00000000000E+00 -0.60090849783E+03  0.21166301471E+04  0.20295398880E+04 0.  0.
        2    1    3    3  502    0  0.18284941894E+03 -0.82910384609E+03  0.27919333751E+03  0.89375389080E+03  0.25500000920E-02 0. -1.
       -2    1    3    3    0  502 -0.18284941894E+03  0.82910384609E+03 -0.88010183534E+03  0.12228762563E+04  0.25500000920E-02 0.  1.
</event>
<event>
 5   0  0.2512839E-04  0.2136173E+04  0.7818609E-02  0.8545474E-01
       -2   -1    0    0    0  501  0.00000000000E+00  0.00000000000E+00  0.10372901040E+04  0.10372901040E+04  0.25500000920E-02 0.  1.
        2   -1    0    0  501    0  0.00000000000E+00  0.00000000000E+00 -0.10997971256E+04  0.10997971256E+04  0.25500000920E-02 0. -1.
    10030    2    1    2    0    0  0.00000000000E+00  0.00000000000E+00 -0.62507021618E+02  0.21370872297E+04  0.21361729096E+04 0.  0.
        3    1    3    3  502    0 -0.64232550903E+03 -0.71689742738E+03  0.43185355924E+03  0.10549983354E+04  0.10100000352E+00 0.  1.
       -3    1    3    3    0  502  0.64232550903E+03  0.71689742738E+03 -0.49436058086E+03  0.10820888942E+04  0.10100000352E+00 0. -1.
</event>
<event>
 5   0  0.1122711E-04  0.2080724E+04  0.7818609E-02  0.8569783E-01
       -1   -1    0    0    0  501  0.00000000000E+00  0.00000000000E+00  0.58294197474E+03  0.58294197476E+03  0.50400001928E-02 0.  1.
        1   -1    0    0  501    0  0.00000000000E+00  0.00000000000E+00 -0.18567074358E+04  0.18567074358E+04  0.50400001928E-02 0. -1.
    10030    2    1    2    0    0  0.00000000000E+00  0.00000000000E+00 -0.12737654611E+04  0.24396494106E+04  0.20807236234E+04 0.  0.
        1    1    3    3  502    0  0.47029443504E+03  0.91396419660E+03 -0.82537942334E+03  0.13182407219E+04  0.50400001928E-02 0. -1.
       -1    1    3    3    0  502 -0.47029443504E+03 -0.91396419660E+03 -0.44838603776E+03  0.11214086887E+04  0.50400001928E-02 0.  1.
</event>
<event>
 5   0  0.1156733E-04  0.1402767E+04  0.7818609E-02  0.8951818E-01
       -1   -1    0    0    0  501  0.00000000000E+00  0.00000000000E+00  0.48762655116E+03  0.48762655119E+03  0.50400001928E-02 0. -1.
        1   -1    0    0  501    0  0.00000000000E+00  0.00000000000E+00 -0.10088439101E+04  0.10088439101E+04  0.50400001928E-02 0.  1.
    10030    2    1    2    0    0  0.00000000000E+00  0.00000000000E+00 -0.52121735890E+03  0.14964704613E+04  0.14027673742E+04 0.  0.
        2    1    3    3  502    0  0.58105788770E+03  0.36781358246E+03 -0.40774948857E+03  0.79948404971E+03  0.25500000920E-02 0.  1.
       -2    1    3    3    0  502 -0.58105788770E+03 -0.36781358246E+03 -0.11346787033E+03  0.69698641156E+03  0.25500000920E-02 0. -1.
</event>
<event>
 5   0  0.1156733E-04  0.1164004E+04  0.7818609E-02  0.9144961E-01
        1   -1    0    0  501    0  0.00000000000E+00  0.00000000000E+00  0.32582717266E+03  0.32582717270E+03  0.50400001928E-02 0.  1.
       -1   -1    0    0    0  501  0.00000000000E+00  0.00000000000E+00 -0.10395884112E+04  0.10395884112E+04  0.50400001928E-02 0. -1.
    10030    2    1    2    0    0  0.00000000000E+00  0.00000000000E+00 -0.71376123852E+03  0.13654155839E+04  0.11640036989E+04 0.  0.
        2    1    3    3  502    0  0.24321325509E+03 -0.30948691436E+03 -0.85977060522E+03  0.94558993819E+03  0.25500000920E-02 0. -1.
       -2    1    3    3    0  502 -0.24321325509E+03  0.30948691436E+03  0.14600936670E+03  0.41982564569E+03  0.25500000920E-02 0.  1.
</event>
<event>
 5   0  0.2512839E-04  0.1996674E+04  0.7818609E-02  0.8608177E-01
        2   -1    0    0  501    0  0.00000000000E+00  0.00000000000E+00  0.16202113626E+04  0.16202113626E+04  0.25500000920E-02 0.  1.
       -2   -1    0    0    0  501  0.00000000000E+00  0.00000000000E+00 -0.61515230334E+03  0.61515230334E+03  0.25500000920E-02 0. -1.
    10030    2    1    2    0    0  0.00000000000E+00  0.00000000000E+00  0.10050590593E+04  0.22353636660E+04  0.19966739860E+04 0.  0.
        3    1    3    3  502    0  0.85630908323E+03 -0.43707983087E+03  0.80371115033E+03  0.12530984191E+04  0.10100000352E+00 0.  1.
       -3    1    3    3    0  502 -0.85630908323E+03  0.43707983087E+03  0.20134790895E+03  0.98226524687E+03  0.10100000352E+00 0. -1.
</event>
<event>
 5   0  0.2448804E-04  0.2119026E+04  0.7818609E-02  0.8552908E-01
        2   -1    0    0  501    0  0.00000000000E+00  0.00000000000E+00  0.27398208698E+04  0.27398208698E+04  0.25500000920E-02 0. -1.
       -2   -1    0    0    0  501  0.00000000000E+00  0.00000000000E+00 -0.40972313798E+03  0.40972313799E+03  0.25500000920E-02 0.  1.
    10030    2    1    2    0    0  0.00000000000E+00  0.00000000000E+00  0.23300977318E+04  0.31495440078E+04  0.21190261955E+04 0.  0.
        2    1    3    3  502    0 -0.59628318121E+03  0.87502910988E+03  0.11106726453E+04  0.15345433524E+04  0.25500000920E-02 0. -1.
       -2    1    3    3    0  502  0.59628318121E+03 -0.87502910988E+03  0.12194250865E+04  0.16150006554E+04  0.25500000920E-02 0.  1.
</event>
<event>
 5   0  0.2448804E-04  0.2084601E+04  0.7818609E-02  0.8568057E-01
       -2   -1    0    0    0  501  0.00000000000E+00  0.00000000000E+00  0.13227751529E+04  0.13227751529E+04  0.25500000920E-02 0.  1.
        2   -1    0    0  501    0  0.00000000000E+00  0.00000000000E+00 -0.82129655340E+03  0.82129655340E+03  0.25500000920E-02 0. -1.
    10030    2    1    2    0    0  0.00000000000E+00  0.00000000000E+00  0.50147859952E+03  0.21440717063E+04  0.20846013279E+04 0.  0.
        2    1    3    3  502    0  0.77682422350E+03 -0.26115349766E+03 -0.41163112534E+03  0.91711351910E+03  0.25500000920E-02 0. -1.
       -2    1    3    3    0  502 -0.77682422350E+03  0.26115349766E+03  0.91310972486E+03  0.12269581872E+04  0.25500000920E-02 0.  1.
</event>
<event>
 5   0  0.1186038E-04  0.1795632E+04  0.7818609E-02  0.8708626E-01
        1   -1    0    0  501    0  0.00000000000E+00  0.00000000000E+00  0.19968335998E+04  0.19968335998E+04  0.50400001928E-02 0.  1.
       -1   -1    0    0    0  501  0.00000000000E+00  0.00000000000E+00 -0.40367600067E+03  0.40367600070E+03  0.50400001928E-02 0. -1.
    10030    2    1    2    0    0  0.00000000000E+00  0.00000000000E+00  0.15931575991E+04  0.24005096005E+04  0.17956322581E+04 0.  0.
        4    1    3    3  502    0 -0.76625107025E+03 -0.45855261452E+03  0.92099293077E+03  0.12828253172E+04  0.12699999809E+01 0.  1.
       -4    1    3    3    0  502  0.76625107025E+03  0.45855261452E+03  0.67216466836E+03  0.11176842833E+04  0.12699999809E+01 0. -1.
</event>
<event>
 5   0  0.8698750E-05  0.2060238E+04  0.7818609E-02  0.8578964E-01
        3   -1    0    0  501    0  0.00000000000E+00  0.00000000000E+00  0.96521045020E+03  0.96521045548E+03  0.10100000352E+00 0. -1.
       -3   -1    0    0    0  501  0.00000000000E+00  0.00000000000E+00 -0.10993928431E+04  0.10993928477E+04  0.10100000352E+00 0.  1.
    10030    2    1    2    0    0  0.00000000000E+00  0.00000000000E+00 -0.13418239288E+03  0.20646033032E+04  0.20602383078E+04 0.  0.
        4    1    3    3  502    0  0.30402670138E+03  0.74280174281E+03  0.57999911209E+03  0.99024605386E+03  0.12699999809E+01 0. -1.
       -4    1    3    3    0  502 -0.30402670138E+03 -0.74280174281E+03 -0.71418150497E+03  0.10743572493E+04  0.12699999809E+01 0.  1.
</event>
<event>
 5   0  0.2430898E-04  0.2098443E+04  0.7818609E-02  0.8561930E-01
       -2   -1    0    0    0  501  0.00000000000E+00  0.00000000000E+00  0.93551468865E+03  0.93551468865E+03  0.25500000920E-02 0.  1.
        2   -1    0    0  501    0  0.00000000000E+00  0.00000000000E+00 -0.11767483645E+04  0.11767483645E+04  0.25500000920E-02 0. -1.
    10030    2    1    2    0    0  0.00000000000E+00  0.00000000000E+00 -0.24123367585E+03  0.21122630532E+04  0.20984426414E+04 0.  0.
        1    1    3    3  502    0 -0.10418314955E+04 -0.12276484185E+03 -0.14027256468E+03  0.10583763337E+04  0.50400001928E-02 0.  1.
       -1    1    3    3    0  502  0.10418314955E+04  0.12276484185E+03 -0.10096111117E+03  0.10538867194E+04  0.50400001928E-02 0. -1.
</event>
<event>
 5   0  0.2512839E-04  0.1937665E+04  0.7818609E-02  0.8636332E-01
       -2   -1    0    0    0  501  0.00000000000E+00  0.00000000000E+00  0.10985431091E+04  0.10985431091E+04  0.25500000920E-02 0.  1.
        2   -1    0    0  501    0  0.00000000000E+00  0.00000000000E+00 -0.85443760840E+03  0.85443760840E+03  0.25500000920E-02 0. -1.
    10030    2    1    2    0    0  0.00000000000E+00  0.00000000000E+00  0.24410550072E+03  0.19529807175E+04  0.19376651381E+04 0.  0.
        3    1    3    3  502    0 -0.45843746580E+03  0.58094528406E+03 -0.50816884614E+03  0.89771817376E+03  0.10100000352E+00 0. -1.
       -3    1    3    3    0  502  0.45843746580E+03 -0.58094528406E+03  0.75227434686E+03  0.10552625438E+04  0.10100000352E+00 0.  1.
</event>
<event>
 5   0  0.1156733E-04  0.2094502E+04  0.7818609E-02  0.8563669E-01
        1   -1    0    0  501    0  0.00000000000E+00  0.00000000000E+00  0.13614240864E+04  0.13614240864E+04  0.50400001928E-02 0. -1.
       -1   -1    0    0    0  501  0.00000000000E+00  0.00000000000E+00 -0.80557900932E+03  0.80557900934E+03  0.50400001928E-02 0.  1.
    10030    2    1    2    0    0  0.00000000000E+00  0.00000000000E+00  0.55584507705E+03  0.21670030957E+04  0.20945020093E+04 0.  0.
        2    1    3    3  502    0 -0.27748331183E+03  0.58370575495E+03  0.11304761901E+04  0.13021850149E+04  0.25500000920E-02 0. -1.
       -2    1    3    3    0  502  0.27748331183E+03 -0.58370575495E+03 -0.57463111307E+03  0.86481808077E+03  0.25500000920E-02 0.  1.
</event>
<event>
 5   0  0.2512839E-04  0.2090236E+04  0.7818609E-02  0.8565557E-01
       -2   -1    0    0    0  501  0.00000000000E+00  0.00000000000E+00  0.62759928060E+03  0.62759928061E+03  0.25500000920E-02 0. -1.
        2   -1    0    0  501    0  0.00000000000E+00  0.00000000000E+00 -0.17403964882E+04  0.17403964882E+04  0.25500000920E-02 0.  1.
    10030    2    1    2    0    0  0.00000000000E+00  0.00000000000E+00 -0.11127972076E+04  0.23679957688E+04  0.20902359522E+04 0.  0.
        3    1    3    3  502    0 -0.97481860599E+03  0.16426046599E+03 -0.17218746946E+03  0.10034447419E+04  0.10100000352E+00 0. -1.
       -3    1    3    3    0  502  0.97481860599E+03 -0.16426046599E+03 -0.94060973815E+03  0.13645510269E+04  0.10100000352E+00 0.  1.
</event>
<event>
 5   0  0.2448804E-04  0.2113748E+04  0.7818609E-02  0.8555212E-01
       -2   -1    0    0    0  501  0.00000000000E+00  0.00000000000E+00  0.36093400031E+03  0.36093400032E+03  0.25500000920E-02 0.  1.
        2   -1    0    0  501    0  0.00000000000E+00  0.00000000000E+00 -0.30946993605E+04  0.30946993605E+04  0.25500000920E-02 0. -1.
    10030    2    1    2    0    0  0.00000000000E+00  0.00000000000E+00 -0.27337653602E+04  0.34556333608E+04  0.21137475913E+04 0.  0.
        2    1    3    3  502    0  0.37521691461E+03 -0.58349712367E+03 -0.63387647949E+02  0.69661655181E+03  0.25500000920E-02 0.  1.
       -2    1    3    3    0  502 -0.37521691461E+03  0.58349712367E+03 -0.26703777123E+04  0.27590168090E+04  0.25500000920E-02 0. -1.
</event>
<event>
 5   0  0.2579241E-04  0.2116266E+04  0.7818609E-02  0.8554112E-01
       -2   -1    0    0    0  501  0.00000000000E+00  0.00000000000E+00  0.10878708571E+04  0.10878708571E+04  0.25500000920E-02 0.  1.
        2   -1    0    0  501    0  0.00000000000E+00  0.00000000000E+00 -0.10292077177E+04  0.10292077177E+04  0.25500000920E-02 0. -1.
    10030    2    1    2    0    0  0.00000000000E+00  0.00000000000E+00  0.58663139415E+02  0.21170785748E+04  0.21162656563E+04 0.  0.
        5    1    3    3  502    0 -0.99999027236E+03 -0.65257616469E+02 -0.31048095549E+03  0.10491232602E+04  0.46999998093E+01 0. -1.
       -5    1    3    3    0  502  0.99999027236E+03  0.65257616469E+02  0.36914409490E+03  0.10679553147E+04  0.46999998093E+01 0.  1.
</event>
<event>
 5   0  0.1130848E-04  0.2106652E+04  0.7818609E-02  0.8558319E-01
        1   -1    0    0  501    0  0.00000000000E+00  0.00000000000E+00  0.10691754341E+04  0.10691754341E+04  0.50400001928E-02 0. -1.
       -1   -1    0    0    0  501  0.00000000000E+00  0.00000000000E+00 -0.10377118559E+04  0.10377118559E+04  0.50400001928E-02 0.  1.
    10030    2    1    2    0    0  0.00000000000E+00  0.00000000000E+00  0.31463578203E+02  0.21068872899E+04  0.21066523434E+04 0.  0.
        5    1    3    3  502    0  0.62245814258E+03 -0.83192249259E+03  0.18873882986E+03  0.10560272766E+04  0.46999998093E+01 0.  1.
       -5    1    3    3    0  502 -0.62245814258E+03  0.83192249259E+03 -0.15727525165E+03  0.10508600134E+04  0.46999998093E+01 0. -1.
</event>
<event>
 5   0  0.1130848E-04  0.2111643E+04  0.7818609E-02  0.8556132E-01
       -1   -1    0    0    0  501  0.00000000000E+00  0.00000000000E+00  0.13718801482E+04  0.13718801483E+04  0.50400001928E-02 0.  1.
        1   -1    0    0  501    0  0.00000000000E+00  0.00000000000E+00 -0.81257732366E+03  0.81257732367E+03  0.50400001928E-02 0. -1.
    10030    2    1    2    0    0  0.00000000000E+00  0.00000000000E+00  0.55930282459E+03  0.21844574719E+04  0.21116426774E+04 0.  0.
        5    1    3    3  502    0 -0.42713169682E+03  0.56169755487E+03 -0.53279022028E+03  0.88421328785E+03  0.46999998093E+01 0. -1.
       -5    1    3    3    0  502  0.42713169682E+03 -0.56169755487E+03  0.10920930449E+04  0.13002441841E+04  0.46999998093E+01 0.  1.
</event>
<event>
 5   0  0.2430898E-04  0.2040882E+04  0.7818609E-02  0.8587742E-01
       -2   -1    0    0    0  501  0.00000000000E+00  0.00000000000E+00  0.96416131701E+03  0.96416131702E+03  0.25500000920E-02 0. -1.
        2   -1    0    0  501    0  0.00000000000E+00  0.00000000000E+00 -0.10800062735E+04  0.10800062735E+04  0.25500000920E-02 0.  1.
    10030    2    1    2    0    0  0.00000000000E+00  0.00000000000E+00 -0.11584495650E+03  0.20441675905E+04  0.20408824278E+04 0.  0.
        1    1    3    3  502    0 -0.12707820202E+03  0.67023072176E+03 -0.81805262234E+03  0.10651611065E+04  0.50400001928E-02 0.  1.
       -1    1    3    3    0  502  0.12707820202E+03 -0.67023072176E+03  0.70220766584E+03  0.97900648405E+03  0.50400001928E-02 0. -1.
</event>
<event>
 5   0  0.1186038E-04  0.2129261E+04  0.7818609E-02  0.8548462E-01
        1   -1    0    0  501    0  0.00000000000E+00  0.00000000000E+00  0.20269456777E+04  0.20269456777E+04  0.50400001928E-02 0.  1.
       -1   -1    0    0    0  501  0.00000000000E+00  0.00000000000E+00 -0.55918547958E+03  0.55918547960E+03  0.50400001928E-02 0. -1.
    10030    2    1    2    0    0  0.00000000000E+00  0.00000000000E+00  0.14677601981E+04  0.25861311573E+04  0.21292614597E+04 0.  0.
        4    1    3    3  502    0 -0.24299947112E+02 -0.62334779701E+03 -0.31395007144E+03  0.69836897391E+03  0.12699999809E+01 0. -1.
       -4    1    3    3    0  502  0.24299947112E+02  0.62334779701E+03  0.17817102696E+04  0.18877621834E+04  0.12699999809E+01 0.  1.
</event>
<event>
 5   0  0.2448804E-04  0.2057181E+04  0.7818609E-02  0.8580344E-01
       -2   -1    0    0    0  501  0.00000000000E+00  0.00000000000E+00  0.51191209286E+03  0.51191209286E+03  0.25500000920E-02 0.  1.
        2   -1    0    0  501    0  0.00000000000E+00  0.00000000000E+00 -0.20667584466E+04  0.20667584466E+04  0.25500000920E-02 0. -1.
    10030    2    1    2    0    0  0.00000000000E+00  0.00000000000E+00 -0.15548463538E+04  0.25786705395E+04  0.20571812189E+04 0.  0.
        2    1    3    3  502    0  0.11520952776E+03 -0.35049427949E+03  0.42611621167E+03  0.56364394887E+03  0.25500000920E-02 0.  1.
       -2    1    3    3    0  502 -0.11520952776E+03  0.35049427949E+03 -0.19809625654E+04  0.20150265906E+04  0.25500000920E-02 0. -1.
</event>
<event>
 5   0  0.1122711E-04  0.2109988E+04  0.7818609E-02  0.8556856E-01
        1   -1    0    0  501    0  0.00000000000E+00  0.00000000000E+00  0.21347645768E+04  0.21347645768E+04  0.50400001928E-02 0. -1.
       -1   -1    0    0    0  501  0.00000000000E+00  0.00000000000E+00 -0.52137455258E+03  0.52137455261E+03  0.50400001928E-02 0.  1.
    10030    2    1    2    0    0  0.00000000000E+00  0.00000000000E+00  0.16133900242E+04  0.26561391294E+04  0.21099876077E+04 0.  0.
        1    1    3    3  502    0  0.56944705576E+03  0.87332341758E+03  0.10098650445E+04  0.14514789523E+04  0.50400001928E-02 0. -1.
       -1    1    3    3    0  502 -0.56944705576E+03 -0.87332341758E+03  0.60352497973E+03  0.12046601771E+04  0.50400001928E-02 0.  1.
</event>
<event>
 5   0  0.2467483E-04  0.2138972E+04  0.7818609E-02  0.8544267E-01
       -2   -1    0    0    0  501  0.00000000000E+00  0.00000000000E+00  0.52507918261E+03  0.52507918261E+03  0.25500000920E-02 0. -1.
        2   -1    0    0  501    0  0.00000000000E+00  0.00000000000E+00 -0.21783392310E+04  0.21783392310E+04  0.25500000920E-02 0.  1.
    10030    2    1    2    0    0  0.00000000000E+00  0.00000000000E+00 -0.16532600484E+04  0.27034184136E+04  0.21389722605E+04 0.  0.
        4    1    3    3  502    0  0.58253852828E+02  0.42487506383E+03 -0.20649078283E+04  0.21089709063E+04  0.12699999809E+01 0.  1.
       -4    1    3    3    0  502 -0.58253852828E+02 -0.42487506383E+03  0.41164777998E+03  0.59444750727E+03  0.12699999809E+01 0. -1.
</event>
<event>
 5   0  0.1186038E-04  0.2191549E+04  0.7818609E-02  0.8521954E-01
       -1   -1    0    0    0  501  0.00000000000E+00  0.00000000000E+00  0.17326312292E+04  0.17326312292E+04  0.50400001928E-02 0.  1.
        1   -1    0    0  501    0  0.00000000000E+00  0.00000000000E+00 -0.69300454357E+03  0.69300454358E+03  0.50400001928E-02 0. -1.
    10030    2    1    2    0    0  0.00000000000E+00  0.00000000000E+00  0.10396266856E+04  0.24256357728E+04  0.21915485978E+04 0.  0.
        4    1    3    3  502    0  0.51043487340E+03  0.10476061620E+03  0.15867271946E+04  0.16700968085E+04  0.12699999809E+01 0.  1.
       -4    1    3    3    0  502 -0.51043487340E+03 -0.10476061620E+03 -0.54710050900E+03  0.75553896428E+03  0.12699999809E+01 0. -1.
</event>
<event>
 5   0  0.8698750E-05  0.2145323E+04  0.7818609E-02  0.8541537E-01
        4   -1    0    0  501    0  0.00000000000E+00  0.00000000000E+00  0.11257230644E+04  0.11257237808E+04  0.12699999809E+01 0. -1.
       -4   -1    0    0    0  501  0.00000000000E+00  0.00000000000E+00 -0.10221000569E+04  0.10221008459E+04  0.12699999809E+01 0.  1.
    10030    2    1    2    0    0  0.00000000000E+00  0.00000000000E+00  0.10362300750E+03  0.21478246267E+04  0.21453234953E+04 0.  0.
        1    1    3    3  502    0 -0.44975619391E+03 -0.58744415212E+03  0.82939708634E+03  0.11114273673E+04  0.50400001928E-02 0. -1.
       -1    1    3    3    0  502  0.44975619391E+03  0.58744415212E+03 -0.72577407884E+03  0.10363972594E+04  0.50400001928E-02 0.  1.
</event>
<event>
 5   0  0.1186038E-04  0.2073820E+04  0.7818609E-02  0.8572864E-01
        1   -1    0    0  501    0  0.00000000000E+00  0.00000000000E+00  0.10417298873E+04  0.10417298873E+04  0.50400001928E-02 0.  1.
       -1   -1    0    0    0  501  0.00000000000E+00  0.00000000000E+00 -0.10321128109E+04  0.10321128109E+04  0.50400001928E-02 0. -1.
    10030    2    1    2    0    0  0.00000000000E+00  0.00000000000E+00  0.96170764366E+01  0.20738426982E+04  0.20738203993E+04 0.  0.
        4    1    3    3  502    0 -0.61167925832E+03 -0.23386506596E+03  0.80876790581E+03  0.10406495676E+04  0.12699999809E+01 0.  1.
       -4    1    3    3    0  502  0.61167925832E+03  0.23386506596E+03 -0.79915082937E+03  0.10331931306E+04  0.12699999809E+01 0. -1.
</event>
<event>
 5   0  0.1130848E-04  0.1548756E+04  0.7818609E-02  0.8852663E-01
        1   -1    0    0  501    0  0.00000000000E+00  0.00000000000E+00  0.59455771599E+03  0.59455771601E+03  0.50400001928E-02 0. -1.
       -1   -1    0    0    0  501  0.00000000000E+00  0.00000000000E+00 -0.10085838402E+04  0.10085838402E+04  0.50400001928E-02 0.  1.
    10030    2    1    2    0    0  0.00000000000E+00  0.00000000000E+00 -0.41402612418E+03  0.16031415562E+04  0.15487560226E+04 0.  0.
        5    1    3    3  502    0  0.54826805297E+03 -0.28571044141E+02  0.35826343017E+03  0.65558289931E+03  0.46999998093E+01 0. -1.
       -5    1    3    3    0  502 -0.54826805297E+03  0.28571044141E+02 -0.77228955436E+03  0.94755865688E+03  0.46999998093E+01 0.  1.
</event>
<event>
 5   0  0.2430898E-04  0.2045206E+04  0.7818609E-02  0.8585772E-01
        2   -1    0    0  501    0  0.00000000000E+00  0.00000000000E+00  0.11719356137E+04  0.11719356137E+04  0.25500000920E-02 0. -1.
       -2   -1    0    0    0  501  0.00000000000E+00  0.00000000000E+00 -0.89229909689E+03  0.89229909689E+03  0.25500000920E-02 0.  1.
    10030    2    1    2    0    0  0.00000000000E+00  0.00000000000E+00  0.27963651677E+03  0.20642347105E+04  0.20452061898E+04 0.  0.
        1    1    3    3  502    0  0.97011227707E+03 -0.31606942941E+03  0.20900805339E+03  0.10414903172E+04  0.50400001928E-02 0.  1.
       -1    1    3    3    0  502 -0.97011227707E+03  0.31606942941E+03  0.70628463374E+02  0.10227443934E+04  0.50400001928E-02 0. -1.
</event>
<event>
 5   0  0.1042395E-04  0.2083853E+04  0.7818609E-02  0.8568390E-01
       -1   -1    0    0    0  501  0.00000000000E+00  0.00000000000E+00  0.16828930184E+04  0.16828930184E+04  0.50400001928E-02 0.  1.
        1   -1    0    0  501    0  0.00000000000E+00  0.00000000000E+00 -0.64508633328E+03  0.64508633330E+03  0.50400001928E-02 0. -1.
    10030    2    1    2    0    0  0.00000000000E+00  0.00000000000E+00  0.10378066851E+04  0.23279793517E+04  0.20838534369E+04 0.  0.
        3    1    3    3  502    0  0.86366774142E+03 -0.57780087173E+03  0.43356394840E+03  0.11259456126E+04  0.10100000352E+00 0. -1.
       -3    1    3    3    0  502 -0.86366774142E+03  0.57780087173E+03  0.60424273674E+03  0.12020337392E+04  0.10100000352E+00 0.  1.
</event>
<event>
 5   0  0.2430898E-04  0.2185567E+04  0.7818609E-02  0.8524459E-01
       -2   -1    0    0    0  501  0.00000000000E+00  0.00000000000E+00  0.57612208089E+03  0.57612208090E+03  0.25500000920E-02 0.  1.
        2   -1    0    0  501    0  0.00000000000E+00  0.00000000000E+00 -0.20727828412E+04  0.20727828412E+04  0.25500000920E-02 0. -1.
    10030    2    1    2    0    0  0.00000000000E+00  0.00000000000E+00 -0.14966607603E+04  0.26489049221E+04  0.21855671701E+04 0.  0.
        1    1    3    3  502    0 -0.63523890047E+03  0.33731580921E+03  0.24880337095E+03  0.76106079470E+03  0.50400001928E-02 0.  1.
       -1    1    3    3    0  502  0.63523890047E+03 -0.33731580921E+03 -0.17454641313E+04  0.18878441274E+04  0.50400001928E-02 0. -1.
</event>
<event>
 5   0  0.1042395E-04  0.2080168E+04  0.7818609E-02  0.8570030E-01
       -1   -1    0    0    0  501  0.00000000000E+00  0.00000000000E+00  0.92687888409E+03  0.92687888410E+03  0.50400001928E-02 0. -1.
        1   -1    0    0  501    0  0.00000000000E+00  0.00000000000E+00 -0.11671152554E+04  0.11671152554E+04  0.50400001928E-02 0.  1.
    10030    2    1    2    0    0  0.00000000000E+00  0.00000000000E+00 -0.24023637133E+03  0.20939941395E+04  0.20801677678E+04 0.  0.
        3    1    3    3  502    0  0.11697327191E+03 -0.10333589893E+04 -0.13637882693E+03  0.10488625943E+04  0.10100000352E+00 0. -1.
       -3    1    3    3    0  502 -0.11697327191E+03  0.10333589893E+04 -0.10385754439E+03  0.10451315452E+04  0.10100000352E+00 0.  1.
</event>
<event>
 5   0  0.1130848E-04  0.2150897E+04  0.7818609E-02  0.8539148E-01
        1   -1    0    0  501    0  0.00000000000E+00  0.00000000000E+00  0.79560606307E+03  0.79560606309E+03  0.50400001928E-02 0. -1.
       -1   -1    0    0    0  501  0.00000000000E+00  0.00000000000E+00 -0.14537211471E+04  0.14537211472E+04  0.50400001928E-02 0.  1.
    10030    2    1    2    0    0  0.00000000000E+00  0.00000000000E+00 -0.65811508408E+03  0.22493272102E+04  0.21508968908E+04 0.  0.
        5    1    3    3  502    0 -0.37341405701E+03 -0.63897473918E+03 -0.11450474919E+04  0.13634084583E+04  0.46999998093E+01 0.  1.
       -5    1    3    3    0  502  0.37341405701E+03  0.63897473918E+03  0.48693240785E+03  0.88591875198E+03  0.46999998093E+01 0. -1.
</event>
<event>
 5   0  0.2467483E-04  0.2103223E+04  0.7818609E-02  0.8559825E-01
       -2   -1    0    0    0  501  0.00000000000E+00  0.00000000000E+00  0.12687426217E+04  0.12687426217E+04  0.25500000920E-02 0. -1.
        2   -1    0    0  501    0  0.00000000000E+00  0.00000000000E+00 -0.87163963859E+03  0.87163963860E+03  0.25500000920E-02 0.  1.
    10030    2    1    2    0    0  0.00000000000E+00  0.00000000000E+00  0.39710298310E+03  0.21403822603E+04  0.21032226323E+04 0.  0.
        4    1    3    3  502    0  0.40152035740E+03 -0.81102808934E+03 -0.34654207818E+03  0.96906046455E+03  0.12699999809E+01 0.  1.
       -4    1    3    3    0  502 -0.40152035740E+03  0.81102808934E+03  0.74364506129E+03  0.11713217957E+04  0.12699999809E+01 0. -1.
</event>
<event>
 5   0  0.2448804E-04  0.2161119E+04  0.7818609E-02  0.8534788E-01
        2   -1    0    0  501    0  0.00000000000E+00  0.00000000000E+00  0.18557001549E+04  0.18557001549E+04  0.25500000920E-02 0. -1.
       -2   -1    0    0    0  501  0.00000000000E+00  0.00000000000E+00 -0.62920124014E+03  0.62920124015E+03  0.25500000920E-02 0.  1.
    10030    2    1    2    0    0  0.00000000000E+00  0.00000000000E+00  0.12264989147E+04  0.24849013950E+04  0.21611190053E+04 0.  0.
        2    1    3    3  502    0  0.81733465112E+03 -0.50526091054E+03  0.11815502638E+04  0.15229529032E+04  0.25500000920E-02 0. -1.
       -2    1    3    3    0  502 -0.81733465112E+03  0.50526091054E+03  0.44948650972E+02  0.96194849180E+03  0.25500000920E-02 0.  1.
</event>
<event>
 5   0  0.1122711E-04  0.2076770E+04  0.7818609E-02  0.8571546E-01
       -1   -1    0    0    0  501  0.00000000000E+00  0.00000000000E+00  0.57655368584E+03  0.57655368586E+03  0.50400001928E-02 0. -1.
        1   -1    0    0  501    0  0.00000000000E+00  0.00000000000E+00 -0.18701534357E+04  0.18701534357E+04  0.50400001928E-02 0.  1.
    10030    2    1    2    0    0  0.00000000000E+00  0.00000000000E+00 -0.12935997499E+04  0.24467071216E+04  0.20767704317E+04 0.  0.
        1    1    3    3  502    0  0.34250003801E+03  0.56896576101E+03  0.29365221219E+03  0.72612666594E+03  0.50400001928E-02 0. -1.
       -1    1    3    3    0  502 -0.34250003801E+03 -0.56896576101E+03 -0.15872519621E+04  0.17205804557E+04  0.50400001928E-02 0.  1.
</event>
<event>
 5   0  0.2579241E-04  0.2288430E+04  0.7818609E-02  0.8482497E-01
        2   -1    0    0  501    0  0.00000000000E+00  0.00000000000E+00  0.20736555484E+04  0.20736555484E+04  0.25500000920E-02 0. -1.
       -2   -1    0    0    0  501  0.00000000000E+00  0.00000000000E+00 -0.63136223300E+03  0.63136223300E+03  0.25500000920E-02 0.  1.
    10030    2    1    2    0    0  0.00000000000E+00  0.00000000000E+00  0.14422933154E+04  0.27050177814E+04  0.22884298526E+04 0.  0.
        5    1    3    3  502    0  0.11048211667E+04  0.18921006467E+03  0.44959748351E+03  0.12077210962E+04  0.46999998093E+01 0.  1.
       -5    1    3    3    0  502 -0.11048211667E+04 -0.18921006467E+03  0.99269583192E+03  0.14972966853E+04  0.46999998093E+01 0. -1.
</event>
<event>
 5   0  0.1122711E-04  0.2063852E+04  0.7818609E-02  0.8577336E-01
        1   -1    0    0  501    0  0.00000000000E+00  0.00000000000E+00  0.10345743962E+04  0.10345743962E+04  0.50400001928E-02 0. -1.
       -1   -1    0    0    0  501  0.00000000000E+00  0.00000000000E+00 -0.10292841867E+04  0.10292841867E+04  0.50400001928E-02 0.  1.
    10030    2    1    2    0    0  0.00000000000E+00  0.00000000000E+00  0.52902094992E+01  0.20638585830E+04  0.20638518029E+04 0.  0.
        1    1    3    3  502    0 -0.34625088698E+03  0.44465754584E+03 -0.86180036259E+03  0.10297134916E+04  0.50400001928E-02 0.  1.
       -1    1    3    3    0  502  0.34625088698E+03 -0.44465754584E+03  0.86709057208E+03  0.10341450914E+04  0.50400001928E-02 0. -1.
</event>
<event>
 5   0  0.2467483E-04  0.2055540E+04  0.7818609E-02  0.8581085E-01
        2   -1    0    0  501    0  0.00000000000E+00  0.00000000000E+00  0.10073026334E+04  0.10073026334E+04  0.25500000920E-02 0. -1.
       -2   -1    0    0    0  501  0.00000000000E+00  0.00000000000E+00 -0.10486529157E+04  0.10486529157E+04  0.25500000920E-02 0.  1.
    10030    2    1    2    0    0  0.00000000000E+00  0.00000000000E+00 -0.41350282237E+02  0.20559555491E+04  0.20555396795E+04 0.  0.
        4    1    3    3  502    0 -0.92159343514E+02 -0.30196372714E+02 -0.10440654478E+04  0.10485606505E+04  0.12699999809E+01 0.  1.
       -4    1    3    3    0  502  0.92159343514E+02  0.30196372714E+02  0.10027151656E+04  0.10073948986E+04  0.12699999809E+01 0. -1.
</event>
<event>
 5   0  0.1156733E-04  0.2140587E+04  0.7818609E-02  0.8543572E-01
       -1   -1    0    0    0  501  0.00000000000E+00  0.00000000000E+00  0.41750922795E+03  0.41750922798E+03  0.50400001928E-02 0. -1.
        1   -1    0    0  501    0  0.00000000000E+00  0.00000000000E+00 -0.27437194611E+04  0.27437194612E+04  0.50400001928E-02 0.  1.
    10030    2    1    2    0    0  0.00000000000E+00  0.00000000000E+00 -0.23262102332E+04  0.31612286891E+04  0.21405870167E+04 0.  0.
        2    1    3    3  502    0  0.87783031842E+03 -0.42035452775E+03 -0.50556346300E+03  0.10967581375E+04  0.25500000920E-02 0. -1.
       -2    1    3    3    0  502 -0.87783031842E+03  0.42035452775E+03 -0.18206467702E+04  0.20644705517E+04  0.25500000920E-02 0.  1.
</event>
<event>
 5   0  0.1156733E-04  0.2053598E+04  0.7818609E-02  0.8581964E-01
        1   -1    0    0  501    0  0.00000000000E+00  0.00000000000E+00  0.12276294628E+04  0.12276294628E+04  0.50400001928E-02 0.  1.
       -1   -1    0    0    0  501  0.00000000000E+00  0.00000000000E+00 -0.85882307351E+03  0.85882307353E+03  0.50400001928E-02 0. -1.
    10030    2    1    2    0    0  0.00000000000E+00  0.00000000000E+00  0.36880638929E+03  0.20864525363E+04  0.20535983136E+04 0.  0.
        2    1    3    3  502    0  0.55587469626E+03 -0.51382896905E+03 -0.52045340500E+03  0.91863411333E+03  0.25500000920E-02 0. -1.
       -2    1    3    3    0  502 -0.55587469626E+03  0.51382896905E+03  0.88925979429E+03  0.11678184230E+04  0.25500000920E-02 0.  1.
</event>
<event>
 5   0  0.2448804E-04  0.2158625E+04  0.7818609E-02  0.8535849E-01
        2   -1    0    0  501    0  0.00000000000E+00  0.00000000000E+00  0.22814684561E+04  0.22814684561E+04  0.25500000920E-02 0. -1.
       -2   -1    0    0    0  501  0.00000000000E+00  0.00000000000E+00 -0.51059913218E+03  0.51059913218E+03  0.25500000920E-02 0.  1.
    10030    2    1    2    0    0  0.00000000000E+00  0.00000000000E+00  0.17708693239E+04  0.27920675882E+04  0.21586253160E+04 0.  0.
        2    1    3    3  502    0 -0.54380127952E+03 -0.17345839583E+03  0.20702690081E+04  0.21475151717E+04  0.25500000920E-02 0. -1.
       -2    1    3    3    0  502  0.54380127952E+03  0.17345839583E+03 -0.29939968427E+03  0.64455241652E+03  0.25500000920E-02 0.  1.
</event>
<event>
 5   0  0.1130848E-04  0.2100814E+04  0.7818609E-02  0.8560885E-01
        1   -1    0    0  501    0  0.00000000000E+00  0.00000000000E+00  0.91621214565E+03  0.91621214566E+03  0.50400001928E-02 0.  1.
       -1   -1    0    0    0  501  0.00000000000E+00  0.00000000000E+00 -0.12042572855E+04  0.12042572855E+04  0.50400001928E-02 0. -1.
    10030    2    1    2    0    0  0.00000000000E+00  0.00000000000E+00 -0.28804513987E+03  0.21204694312E+04  0.21008142721E+04 0.  0.
        5    1    3    3  502    0  0.93886089931E+03 -0.39631302545E+03  0.11293586900E+03  0.10253294119E+04  0.46999998093E+01 0.  1.
       -5    1    3    3    0  502 -0.93886089931E+03  0.39631302545E+03 -0.40098100887E+03  0.10951400193E+04  0.46999998093E+01 0. -1.
</event>
<event>
 5   0  0.1122711E-04  0.2113756E+04  0.7818609E-02  0.8555208E-01
       -1   -1    0    0    0  501  0.00000000000E+00  0.00000000000E+00  0.19329940866E+04  0.19329940866E+04  0.50400001928E-02 0.  1.
        1   -1    0    0  501    0  0.00000000000E+00  0.00000000000E+00 -0.57785538037E+03  0.57785538039E+03  0.50400001928E-02 0. -1.
    10030    2    1    2    0    0  0.00000000000E+00  0.00000000000E+00  0.13551387063E+04  0.25108494670E+04  0.21137559303E+04 0.  0.
        1    1    3    3  502    0 -0.17361536615E+03 -0.20472676070E+03  0.18918263617E+04  0.19107753204E+04  0.50400001928E-02 0.  1.
       -1    1    3    3    0  502  0.17361536615E+03  0.20472676070E+03 -0.53668765549E+03  0.60007414666E+03  0.50400001928E-02 0. -1.
</event>
<event>
 5   0  0.1130848E-04  0.2098300E+04  0.7818609E-02  0.8561993E-01
       -1   -1    0    0    0  501  0.00000000000E+00  0.00000000000E+00  0.64618510989E+03  0.64618510991E+03  0.50400001928E-02 0. -1.
        1   -1    0    0  501    0  0.00000000000E+00  0.00000000000E+00 -0.17034065456E+04  0.17034065456E+04  0.50400001928E-02 0.  1.
    10030    2    1    2    0    0  0.00000000000E+00  0.00000000000E+00 -0.10572214357E+04  0.23495916555E+04  0.20983002129E+04 0.  0.
        5    1    3    3  502    0 -0.93732576511E+03 -0.17323360362E+03 -0.37823317324E+02  0.95396130147E+03  0.46999998093E+01 0. -1.
       -5    1    3    3    0  502  0.93732576511E+03  0.17323360362E+03 -0.10193981184E+04  0.13956303541E+04  0.46999998093E+01 0.  1.
</event>
<event>
 5   0  0.2448804E-04  0.2111092E+04  0.7818609E-02  0.8556373E-01
       -2   -1    0    0    0  501  0.00000000000E+00  0.00000000000E+00  0.79158394590E+03  0.79158394590E+03  0.25500000920E-02 0. -1.
        2   -1    0    0  501    0  0.00000000000E+00  0.00000000000E+00 -0.14075294267E+04  0.14075294267E+04  0.25500000920E-02 0.  1.
    10030    2    1    2    0    0  0.00000000000E+00  0.00000000000E+00 -0.61594548079E+03  0.21991133726E+04  0.21110923216E+04 0.  0.
        2    1    3    3  502    0 -0.41085065195E+03 -0.95220690443E+03 -0.51284906234E+03  0.11569401055E+04  0.25500000920E-02 0.  1.
       -2    1    3    3    0  502  0.41085065195E+03  0.95220690443E+03 -0.10309641845E+03  0.10421732671E+04  0.25500000920E-02 0. -1.
</event>
<event>
 5   0  0.2448804E-04  0.2055202E+04  0.7818609E-02  0.8581238E-01
       -2   -1    0    0    0  501  0.00000000000E+00  0.00000000000E+00  0.89591387308E+03  0.89591387308E+03  0.25500000920E-02 0. -1.
        2   -1    0    0  501    0  0.00000000000E+00  0.00000000000E+00 -0.11786449066E+04  0.11786449066E+04  0.25500000920E-02 0.  1.
    10030    2    1    2    0    0  0.00000000000E+00  0.00000000000E+00 -0.28273103348E+03  0.20745587796E+04  0.20552024944E+04 0.  0.
        2    1    3    3  502    0 -0.22433288390E+02  0.90032167128E+03 -0.64088165229E+03  0.11053558958E+04  0.25500000920E-02 0.  1.
       -2    1    3    3    0  502  0.22433288390E+02 -0.90032167128E+03  0.35815061882E+03  0.96920288380E+03  0.25500000920E-02 0. -1.
</event>
<event>
 5   0  0.1122711E-04  0.1426512E+04  0.7818609E-02  0.8934848E-01
       -1   -1    0    0    0  501  0.00000000000E+00  0.00000000000E+00  0.56983455031E+03  0.56983455033E+03  0.50400001928E-02 0.  1.
        1   -1    0    0  501    0  0.00000000000E+00  0.00000000000E+00 -0.89277550293E+03  0.89277550294E+03  0.50400001928E-02 0. -1.
    10030    2    1    2    0    0  0.00000000000E+00  0.00000000000E+00 -0.32294095262E+03  0.14626100533E+04  0.14265122884E+04 0.  0.
        1    1    3    3  502    0 -0.67403200170E+03  0.16353745005E+03 -0.33202491809E+03  0.76896305707E+03  0.50400001928E-02 0.  1.
       -1    1    3    3    0  502  0.67403200170E+03 -0.16353745005E+03  0.90839654698E+01  0.69364699620E+03  0.50400001928E-02 0. -1.
</event>
<event>
 5   0  0.2512839E-04  0.1910697E+04  0.7818609E-02  0.8649550E-01
       -2   -1    0    0    0  501  0.00000000000E+00  0.00000000000E+00  0.12104575664E+04  0.12104575664E+04  0.25500000920E-02 0.  1.
        2   -1    0    0  501    0  0.00000000000E+00  0.00000000000E+00 -0.75400482204E+03  0.75400482204E+03  0.25500000920E-02 0. -1.
    10030    2    1    2    0    0  0.00000000000E+00  0.00000000000E+00  0.45645274437E+03  0.19644623884E+04  0.19106970895E+04 0.  0.
        3    1    3    3  502    0 -0.18971338977E+03  0.41773124406E+03  0.10897801121E+04  0.11824175512E+04  0.10100000352E+00 0.  1.
       -3    1    3    3    0  502  0.18971338977E+03 -0.41773124406E+03 -0.63332736772E+03  0.78204483723E+03  0.10100000352E+00 0. -1.
</event>
<event>
 5   0  0.2512839E-04  0.2077412E+04  0.7818609E-02  0.8571259E-01
        2   -1    0    0  501    0  0.00000000000E+00  0.00000000000E+00  0.13224090874E+04  0.13224090874E+04  0.25500000920E-02 0.  1.
       -2   -1    0    0    0  501  0.00000000000E+00  0.00000000000E+00 -0.81586749136E+03  0.81586749137E+03  0.25500000920E-02 0. -1.
    10030    2    1    2    0    0  0.00000000000E+00  0.00000000000E+00  0.50654159604E+03  0.21382765788E+04  0.20774124142E+04 0.  0.
        3    1    3    3  502    0  0.79466226862E+03  0.44152290122E+03 -0.26392457501E+03  0.94661860586E+03  0.10100000352E+00 0. -1.
       -3    1    3    3    0  502 -0.79466226862E+03 -0.44152290122E+03  0.77046617105E+03  0.11916579729E+04  0.10100000352E+00 0.  1.
</event>
<event>
 5   0  0.2467483E-04  0.1529410E+04  0.7818609E-02  0.8865128E-01
        2   -1    0    0  501    0  0.00000000000E+00  0.00000000000E+00  0.16113575705E+04  0.16113575705E+04  0.25500000920E-02 0. -1.
       -2   -1    0    0    0  501  0.00000000000E+00  0.00000000000E+00 -0.36290743906E+03  0.36290743907E+03  0.25500000920E-02 0.  1.
    10030    2    1    2    0    0  0.00000000000E+00  0.00000000000E+00  0.12484501315E+04  0.19742650096E+04  0.15294098853E+04 0.  0.
        4    1    3    3  502    0 -0.47591598458E+03  0.29438990376E+03  0.12969769306E+04  0.14125552064E+04  0.12699999809E+01 0. -1.
       -4    1    3    3    0  502  0.47591598458E+03 -0.29438990376E+03 -0.48526799150E+02  0.56170980315E+03  0.12699999809E+01 0.  1.
</event>
<event>
 5   0  0.1186038E-04  0.2098938E+04  0.7818609E-02  0.8561712E-01
        1   -1    0    0  501    0  0.00000000000E+00  0.00000000000E+00  0.19553309477E+04  0.19553309477E+04  0.50400001928E-02 0.  1.
       -1   -1    0    0    0  501  0.00000000000E+00  0.00000000000E+00 -0.56327276679E+03  0.56327276682E+03  0.50400001928E-02 0. -1.
    10030    2    1    2    0    0  0.00000000000E+00  0.00000000000E+00  0.13920581809E+04  0.25186037146E+04  0.20989375150E+04 0.  0.
        4    1    3    3  502    0  0.33296475127E+03 -0.94817174758E+03  0.33308302596E+03  0.10586978339E+04  0.12699999809E+01 0. -1.
       -4    1    3    3    0  502 -0.33296475127E+03  0.94817174758E+03  0.10589751550E+04  0.14599058806E+04  0.12699999809E+01 0.  1.
</event>
<event>
 5   0  0.1186038E-04  0.1856146E+04  0.7818609E-02  0.8676999E-01
        1   -1    0    0  501    0  0.00000000000E+00  0.00000000000E+00  0.11497820137E+04  0.11497820137E+04  0.50400001928E-02 0.  1.
       -1   -1    0    0    0  501  0.00000000000E+00  0.00000000000E+00 -0.74911511175E+03  0.74911511176E+03  0.50400001928E-02 0. -1.
    10030    2    1    2    0    0  0.00000000000E+00  0.00000000000E+00  0.40066690194E+03  0.18988971255E+04  0.18561455565E+04 0.  0.
        4    1    3    3  502    0 -0.78911701993E+03  0.46793672634E+03  0.34372967858E+03  0.97970513719E+03  0.12699999809E+01 0. -1.
       -4    1    3    3    0  502  0.78911701993E+03 -0.46793672634E+03  0.56937223354E+02  0.91919198827E+03  0.12699999809E+01 0.  1.
</event>
<event>
 5   0  0.2579241E-04  0.2038635E+04  0.7818609E-02  0.8588768E-01
       -2   -1    0    0    0  501  0.00000000000E+00  0.00000000000E+00  0.35020152859E+03  0.35020152860E+03  0.25500000920E-02 0. -1.
        2   -1    0    0  501    0  0.00000000000E+00  0.00000000000E+00 -0.29668867689E+04  0.29668867689E+04  0.25500000920E-02 0.  1.
    10030    2    1    2    0    0  0.00000000000E+00  0.00000000000E+00 -0.26166852403E+04  0.33170882975E+04  0.20386351136E+04 0.  0.
        5    1    3    3  502    0 -0.84967489047E+03 -0.69676541256E+02 -0.22174659835E+04  0.23757061514E+04  0.46999998093E+01 0.  1.
       -5    1    3    3    0  502  0.84967489047E+03  0.69676541256E+02 -0.39921925673E+03  0.94138214602E+03  0.46999998093E+01 0. -1.
</event>
<event>
 5   0  0.1186038E-04  0.1356750E+04  0.7818609E-02  0.8985734E-01
        1   -1    0    0  501    0  0.00000000000E+00  0.00000000000E+00  0.19000392306E+04  0.19000392306E+04  0.50400001928E-02 0.  1.
       -1   -1    0    0    0  501  0.00000000000E+00  0.00000000000E+00 -0.24220174789E+03  0.24220174795E+03  0.50400001928E-02 0. -1.
    10030    2    1    2    0    0  0.00000000000E+00  0.00000000000E+00  0.16578374827E+04  0.21422409786E+04  0.13567502685E+04 0.  0.
        4    1    3    3  502    0 -0.60023945966E+03  0.76613523080E+02  0.34473382940E+03  0.69641946188E+03  0.12699999809E+01 0. -1.
       -4    1    3    3    0  502  0.60023945966E+03 -0.76613523080E+02  0.13131036533E+04  0.14458215167E+04  0.12699999809E+01 0.  1.
</event>
<event>
 5   0  0.2512839E-04  0.2013020E+04  0.7818609E-02  0.8600557E-01
        2   -1    0    0  501    0  0.00000000000E+00  0.00000000000E+00  0.73153188301E+03  0.73153188302E+03  0.25500000920E-02 0. -1.
       -2   -1    0    0    0  501  0.00000000000E+00  0.00000000000E+00 -0.13848511473E+04  0.13848511473E+04  0.25500000920E-02 0.  1.
    10030    2    1    2    0    0  0.00000000000E+00  0.00000000000E+00 -0.65331926427E+03  0.21163830303E+04  0.20130203849E+04 0.  0.
        3    1    3    3  502    0 -0.70145089210E+03 -0.70174865508E+03 -0.14892840120E+03  0.10033265709E+04  0.10100000352E+00 0.  1.
       -3    1    3    3    0  502  0.70145089210E+03  0.70174865508E+03 -0.50439086307E+03  0.11130564594E+04  0.10100000352E+00 0. -1.
</event>
<event>
 5   0  0.2512839E-04  0.2040749E+04  0.7818609E-02  0.8587803E-01
       -2   -1    0    0    0  501  0.00000000000E+00  0.00000000000E+00  0.68651192799E+03  0.68651192800E+03  0.25500000920E-02 0.  1.
        2   -1    0    0  501    0  0.00000000000E+00  0.00000000000E+00 -0.15166003795E+04  0.15166003795E+04  0.25500000920E-02 0. -1.
    10030    2    1    2    0    0  0.00000000000E+00  0.00000000000E+00 -0.83008845148E+03  0.22031123075E+04  0.20407491277E+04 0.  0.
        3    1    3    3  502    0  0.34145697078E+03  0.44600022171E+02 -0.14519745048E+04  0.14922506484E+04  0.10100000352E+00 0. -1.
       -3    1    3    3    0  502 -0.34145697078E+03 -0.44600022171E+02  0.62188605330E+03  0.71086165909E+03  0.10100000352E+00 0.  1.
</event>
<event>
 5   0  0.1186038E-04  0.2093516E+04  0.7818609E-02  0.8564105E-01
       -1   -1    0    0    0  501  0.00000000000E+00  0.00000000000E+00  0.68279470229E+03  0.68279470230E+03  0.50400001928E-02 0. -1.
        1   -1    0    0  501    0  0.00000000000E+00  0.00000000000E+00 -0.16047309846E+04  0.16047309846E+04  0.50400001928E-02 0.  1.
    10030    2    1    2    0    0  0.00000000000E+00  0.00000000000E+00 -0.92193628228E+03  0.22875256869E+04  0.20935155265E+04 0.  0.
        4    1    3    3  502    0  0.61671215380E+03  0.61428887908E+03  0.17430149446E+03  0.88773156499E+03  0.12699999809E+01 0. -1.
       -4    1    3    3    0  502 -0.61671215380E+03 -0.61428887908E+03 -0.10962377767E+04  0.13997941219E+04  0.12699999809E+01 0.  1.
</event>
<event>
 5   0  0.1042395E-04  0.2118606E+04  0.7818609E-02  0.8553091E-01
       -1   -1    0    0    0  501  0.00000000000E+00  0.00000000000E+00  0.81925667547E+03  0.81925667548E+03  0.50400001928E-02 0. -1.
        1   -1    0    0  501    0  0.00000000000E+00  0.00000000000E+00 -0.13696847391E+04  0.13696847391E+04  0.50400001928E-02 0.  1.
    10030    2    1    2    0    0  0.00000000000E+00  0.00000000000E+00 -0.55042806364E+03  0.21889414146E+04  0.21186064909E+04 0.  0.
        3    1    3    3  502    0  0.41811587260E+03  0.12193491181E+03 -0.12728979497E+04  0.13453468721E+04  0.10100000352E+00 0.  1.
       -3    1    3    3    0  502 -0.41811587260E+03 -0.12193491181E+03  0.72246988609E+03  0.84359454250E+03  0.10100000352E+00 0. -1.
</event>
<event>
 5   0  0.1186038E-04  0.2100204E+04  0.7818609E-02  0.8561153E-01
        1   -1    0    0  501    0  0.00000000000E+00  0.00000000000E+00  0.80413950262E+03  0.80413950264E+03  0.50400001928E-02 0. -1.
       -1   -1    0    0    0  501  0.00000000000E+00  0.00000000000E+00 -0.13712975639E+04  0.13712975639E+04  0.50400001928E-02 0.  1.
    10030    2    1    2    0    0  0.00000000000E+00  0.00000000000E+00 -0.56715806128E+03  0.21754370665E+04  0.21002043148E+04 0.  0.
        4    1    3    3  502    0 -0.17467489879E+03 -0.10088550355E+04 -0.41956842729E+02  0.10247252278E+04  0.12699999809E+01 0.  1.
       -4    1    3    3    0  502  0.17467489879E+03  0.10088550355E+04 -0.52520121855E+03  0.11507118387E+04  0.12699999809E+01 0. -1.
</event>
<event>
 5   0  0.2579241E-04  0.2066059E+04  0.7818609E-02  0.8576344E-01
        2   -1    0    0  501    0  0.00000000000E+00  0.00000000000E+00  0.70946203716E+03  0.70946203716E+03  0.25500000920E-02 0. -1.
       -2   -1    0    0    0  501  0.00000000000E+00  0.00000000000E+00 -0.15041683447E+04  0.15041683447E+04  0.25500000920E-02 0.  1.
    10030    2    1    2    0    0  0.00000000000E+00  0.00000000000E+00 -0.79470630751E+03  0.22136303818E+04  0.20660593777E+04 0.  0.
        5    1    3    3  502    0 -0.61631712814E+03 -0.56393582846E+03  0.25371606434E+03  0.87307751795E+03  0.46999998093E+01 0. -1.
       -5    1    3    3    0  502  0.61631712814E+03  0.56393582846E+03 -0.10484223719E+04  0.13405528639E+04  0.46999998093E+01 0.  1.
</event>
<event>
 5   0  0.1186038E-04  0.2134935E+04  0.7818609E-02  0.8546008E-01
       -1   -1    0    0    0  501  0.00000000000E+00  0.00000000000E+00  0.71444983088E+03  0.71444983090E+03  0.50400001928E-02 0. -1.
        1   -1    0    0  501    0  0.00000000000E+00  0.00000000000E+00 -0.15949150835E+04  0.15949150835E+04  0.50400001928E-02 0.  1.
    10030    2    1    2    0    0  0.00000000000E+00  0.00000000000E+00 -0.88046525261E+03  0.23093649144E+04  0.21349349514E+04 0.  0.
        4    1    3    3  502    0  0.57080685700E+03 -0.64636320640E+03  0.24036328055E+03  0.89519940914E+03  0.12699999809E+01 0.  1.
       -4    1    3    3    0  502 -0.57080685700E+03  0.64636320640E+03 -0.11208285332E+04  0.14141655053E+04  0.12699999809E+01 0. -1.
</event>
<event>
 5   0  0.1156733E-04  0.1974150E+04  0.7818609E-02  0.8618803E-01
       -1   -1    0    0    0  501  0.00000000000E+00  0.00000000000E+00  0.45729762515E+03  0.45729762518E+03  0.50400001928E-02 0.  1.
        1   -1    0    0  501    0  0.00000000000E+00  0.00000000000E+00 -0.21305977470E+04  0.21305977470E+04  0.50400001928E-02 0. -1.
    10030    2    1    2    0    0  0.00000000000E+00  0.00000000000E+00 -0.16733001218E+04  0.25878953721E+04  0.19741502373E+04 0.  0.
        2    1    3    3  502    0  0.46869264960E+03  0.47352772562E+03 -0.17913674102E+04  0.19112557404E+04  0.25500000920E-02 0. -1.
       -2    1    3    3    0  502 -0.46869264960E+03 -0.47352772562E+03  0.11806728838E+03  0.67663963179E+03  0.25500000920E-02 0.  1.
</event>
<event>
 5   0  0.1130848E-04  0.2078865E+04  0.7818609E-02  0.8570611E-01
        1   -1    0    0  501    0  0.00000000000E+00  0.00000000000E+00  0.11470512719E+04  0.11470512719E+04  0.50400001928E-02 0. -1.
       -1   -1    0    0    0  501  0.00000000000E+00  0.00000000000E+00 -0.94191096335E+03  0.94191096336E+03  0.50400001928E-02 0.  1.
    10030    2    1    2    0    0  0.00000000000E+00  0.00000000000E+00  0.20514030852E+03  0.20889622352E+04  0.20788652371E+04 0.  0.
        5    1    3    3  502    0  0.64238762509E+03 -0.44015806592E+03 -0.58924821871E+03  0.97654315681E+03  0.46999998093E+01 0.  1.
       -5    1    3    3    0  502 -0.64238762509E+03  0.44015806592E+03  0.79438852723E+03  0.11124190784E+04  0.46999998093E+01 0. -1.
</event>
<event>
 5   0  0.2448804E-04  0.2122930E+04  0.7818609E-02  0.8551209E-01
        2   -1    0    0  501    0  0.00000000000E+00  0.00000000000E+00  0.11424350154E+04  0.11424350154E+04  0.25500000920E-02 0.  1.
       -2   -1    0    0    0  501  0.00000000000E+00  0.00000000000E+00 -0.98623394131E+03  0.98623394131E+03  0.25500000920E-02 0. -1.
    10030    2    1    2    0    0  0.00000000000E+00  0.00000000000E+00  0.15620107410E+03  0.21286689567E+04  0.21229302277E+04 0.  0.
        2    1    3    3  502    0 -0.67122633420E+03 -0.72717265376E+02  0.89938461388E+03  0.11246000516E+04  0.25500000920E-02 0.  1.
       -2    1    3    3    0  502  0.67122633420E+03  0.72717265376E+02 -0.74318353977E+03  0.10040689051E+04  0.25500000920E-02 0. -1.
</event>
<event>
 5   0  0.2467483E-04  0.2078734E+04  0.7818609E-02  0.8570669E-01
       -2   -1    0    0    0  501  0.00000000000E+00  0.00000000000E+00  0.11591722217E+04  0.11591722217E+04  0.25500000920E-02 0.  1.
        2   -1    0    0  501    0  0.00000000000E+00  0.00000000000E+00 -0.93194455990E+03  0.93194455990E+03  0.25500000920E-02 0. -1.
    10030    2    1    2    0    0  0.00000000000E+00  0.00000000000E+00  0.22722766177E+03  0.20911167816E+04  0.20787344669E+04 0.  0.
        4    1    3    3  502    0  0.72385215735E+03  0.62179515512E+03  0.52800384313E+03  0.10905873793E+04  0.12699999809E+01 0.  1.
       -4    1    3    3    0  502 -0.72385215735E+03 -0.62179515512E+03 -0.30077618136E+03  0.10005294023E+04  0.12699999809E+01 0. -1.
</event>
<event>
 5   0  0.2512839E-04  0.2183704E+04  0.7818609E-02  0.8525242E-01
       -2   -1    0    0    0  501  0.00000000000E+00  0.00000000000E+00  0.20076265221E+04  0.20076265221E+04  0.25500000920E-02 0.  1.
        2   -1    0    0  501    0  0.00000000000E+00  0.00000000000E+00 -0.59380614809E+03  0.59380614810E+03  0.25500000920E-02 0. -1.
    10030    2    1    2    0    0  0.00000000000E+00  0.00000000000E+00  0.14138203740E+04  0.26014326702E+04  0.21837041667E+04 0.  0.
        3    1    3    3  502    0 -0.73552125729E+03 -0.24299182919E+02 -0.25395427062E+03  0.77850802950E+03  0.10100000352E+00 0. -1.
       -3    1    3    3    0  502  0.73552125729E+03  0.24299182919E+02  0.16677746446E+04  0.18229246407E+04  0.10100000352E+00 0.  1.
</event>
<event>
 5   0  0.1122711E-04  0.2183005E+04  0.7818609E-02  0.8525535E-01
        1   -1    0    0  501    0  0.00000000000E+00  0.00000000000E+00  0.14073132052E+04  0.14073132052E+04  0.50400001928E-02 0. -1.
       -1   -1    0    0    0  501  0.00000000000E+00  0.00000000000E+00 -0.84656180114E+03  0.84656180115E+03  0.50400001928E-02 0.  1.
    10030    2    1    2    0    0  0.00000000000E+00  0.00000000000E+00  0.56075140404E+03  0.22538750063E+04  0.21830049031E+04 0.  0.
        1    1    3    3  502    0 -0.15850470241E+02 -0.10907388367E+04  0.31921550605E+03  0.11366006276E+04  0.50400001928E-02 0.  1.
       -1    1    3    3    0  502  0.15850470241E+02  0.10907388367E+04  0.24153589799E+03  0.11172743787E+04  0.50400001928E-02 0. -1.
</event>
<event>
 5   0  0.1042395E-04  0.2088614E+04  0.7818609E-02  0.8566275E-01
       -1   -1    0    0    0  501  0.00000000000E+00  0.00000000000E+00  0.81816839502E+03  0.81816839503E+03  0.50400001928E-02 0. -1.
        1   -1    0    0  501    0  0.00000000000E+00  0.00000000000E+00 -0.13329498645E+04  0.13329498645E+04  0.50400001928E-02 0.  1.
    10030    2    1    2    0    0  0.00000000000E+00  0.00000000000E+00 -0.51478146949E+03  0.21511182596E+04  0.20886143266E+04 0.  0.
        3    1    3    3  502    0  0.14759907826E+03 -0.99087215746E+03 -0.56111297092E+03  0.11482425252E+04  0.10100000352E+00 0.  1.
       -3    1    3    3    0  502 -0.14759907826E+03  0.99087215746E+03  0.46331501434E+02  0.10028757344E+04  0.10100000352E+00 0. -1.
</event>
<event>
 5   0  0.1130848E-04  0.2115577E+04  0.7818609E-02  0.8554412E-01
        1   -1    0    0  501    0  0.00000000000E+00  0.00000000000E+00  0.13549015401E+04  0.13549015401E+04  0.50400001928E-02 0.  1.
       -1   -1    0    0    0  501  0.00000000000E+00  0.00000000000E+00 -0.82582881191E+03  0.82582881192E+03  0.50400001928E-02 0. -1.
    10030    2    1    2    0    0  0.00000000000E+00  0.00000000000E+00  0.52907272815E+03  0.21807303520E+04  0.21155772064E+04 0.  0.
        5    1    3    3  502    0 -0.70086441419E+03  0.66951201073E+03  0.70118242651E+03  0.11963010260E+04  0.46999998093E+01 0.  1.
       -5    1    3    3    0  502  0.70086441419E+03 -0.66951201073E+03 -0.17210969836E+03  0.98442932598E+03  0.46999998093E+01 0. -1.
</event>
<event>
 5   0  0.1130848E-04  0.2141722E+04  0.7818609E-02  0.8543084E-01
        1   -1    0    0  501    0  0.00000000000E+00  0.00000000000E+00  0.21438709890E+04  0.21438709890E+04  0.50400001928E-02 0. -1.
       -1   -1    0    0    0  501  0.00000000000E+00  0.00000000000E+00 -0.53489399819E+03  0.53489399821E+03  0.50400001928E-02 0.  1.
    10030    2    1    2    0    0  0.00000000000E+00  0.00000000000E+00  0.16089769908E+04  0.26787649872E+04  0.21417224143E+04 0.  0.
        5    1    3    3  502    0  0.77555690418E+03  0.43482320282E+03  0.58048046836E+02  0.89103950254E+03  0.46999998093E+01 0.  1.
       -5    1    3    3    0  502 -0.77555690418E+03 -0.43482320282E+03  0.15509289440E+04  0.17877254847E+04  0.46999998093E+01 0. -1.
</event>
<event>
 5   0  0.2448804E-04  0.2126971E+04  0.7818609E-02  0.8549455E-01
       -2   -1    0    0    0  501  0.00000000000E+00  0.00000000000E+00  0.45149859080E+03  0.45149859081E+03  0.25500000920E-02 0. -1.
        2   -1    0    0  501    0  0.00000000000E+00  0.00000000000E+00 -0.25049935138E+04  0.25049935138E+04  0.25500000920E-02 0.  1.
    10030    2    1    2    0    0  0.00000000000E+00  0.00000000000E+00 -0.20534949230E+04  0.29564921046E+04  0.21269706547E+04 0.  0.
        2    1    3    3  502    0  0.10359520255E+04  0.61688545083E+02 -0.13497514956E+04  0.17025954234E+04  0.25500000920E-02 0.  1.
       -2    1    3    3    0  502 -0.10359520255E+04 -0.61688545083E+02 -0.70374342738E+03  0.12538966813E+04  0.25500000920E-02 0. -1.
</event>
<event>
 5   0  0.2448804E-04  0.1749430E+04  0.7818609E-02  0.8733664E-01
        2   -1    0    0  501    0  0.00000000000E+00  0.00000000000E+00  0.38404513500E+03  0.38404513501E+03  0.25500000920E-02 0.  1.
       -2   -1    0    0    0  501  0.00000000000E+00  0.00000000000E+00 -0.19922823523E+04  0.19922823523E+04  0.25500000920E-02 0. -1.
    10030    2    1    2    0    0  0.00000000000E+00  0.00000000000E+00 -0.16082372173E+04  0.23763274873E+04  0.17494300157E+04 0.  0.
        2    1    3    3  502    0 -0.16341000777E+03  0.71250309369E+03 -0.14566368702E+04  0.16297712909E+04  0.25500000920E-02 0. -1.
       -2    1    3    3    0  502  0.16341000777E+03 -0.71250309369E+03 -0.15160034716E+03  0.74655619642E+03  0.25500000920E-02 0.  1.
</event>
<event>
 5   0  0.1042395E-04  0.1727312E+04  0.7818609E-02  0.8745939E-01
        1   -1    0    0  501    0  0.00000000000E+00  0.00000000000E+00  0.12991196131E+04  0.12991196131E+04  0.50400001928E-02 0.  1.
       -1   -1    0    0    0  501  0.00000000000E+00  0.00000000000E+00 -0.57415945749E+03  0.57415945751E+03  0.50400001928E-02 0. -1.
    10030    2    1    2    0    0  0.00000000000E+00  0.00000000000E+00  0.72496015557E+03  0.18732790706E+04  0.17273121458E+04 0.  0.
        3    1    3    3  502    0  0.36987851166E+03  0.28585835703E+03  0.11500554344E+04  0.12414316840E+04  0.10100000352E+00 0.  1.
       -3    1    3    3    0  502 -0.36987851166E+03 -0.28585835703E+03 -0.42509527881E+03  0.63184738659E+03  0.10100000352E+00 0. -1.
</event>
<event>
 5   0  0.1122711E-04  0.2004089E+04  0.7818609E-02  0.8604711E-01
       -1   -1    0    0    0  501  0.00000000000E+00  0.00000000000E+00  0.49443384163E+03  0.49443384165E+03  0.50400001928E-02 0. -1.
        1   -1    0    0  501    0  0.00000000000E+00  0.00000000000E+00 -0.20307942644E+04  0.20307942644E+04  0.50400001928E-02 0.  1.
    10030    2    1    2    0    0  0.00000000000E+00  0.00000000000E+00 -0.15363604228E+04  0.25252281061E+04  0.20040892293E+04 0.  0.
        1    1    3    3  502    0 -0.23277306581E+03  0.45940158407E+03 -0.18512706568E+04  0.19215712738E+04  0.50400001928E-02 0.  1.
       -1    1    3    3    0  502  0.23277306581E+03 -0.45940158407E+03  0.31491023402E+03  0.60365683225E+03  0.50400001928E-02 0. -1.
</event>
<event>
 5   0  0.2430898E-04  0.2126294E+04  0.7818609E-02  0.8549748E-01
        2   -1    0    0  501    0  0.00000000000E+00  0.00000000000E+00  0.56013162869E+03  0.56013162869E+03  0.25500000920E-02 0.  1.
       -2   -1    0    0    0  501  0.00000000000E+00  0.00000000000E+00 -0.20178851302E+04  0.20178851302E+04  0.25500000920E-02 0. -1.
    10030    2    1    2    0    0  0.00000000000E+00  0.00000000000E+00 -0.14577535015E+04  0.25780167589E+04  0.21262937562E+04 0.  0.
        1    1    3    3  502    0  0.63846368651E+03 -0.83737717659E+03 -0.90642818179E+03  0.13894057952E+04  0.50400001928E-02 0. -1.
       -1    1    3    3    0  502 -0.63846368651E+03  0.83737717659E+03 -0.55132531968E+03  0.11886109637E+04  0.50400001928E-02 0.  1.
</event>
<event>
 5   0  0.2579241E-04  0.2189274E+04  0.7818609E-02  0.8522906E-01
        2   -1    0    0  501    0  0.00000000000E+00  0.00000000000E+00  0.14342559813E+04  0.14342559813E+04  0.25500000920E-02 0.  1.
       -2   -1    0    0    0  501  0.00000000000E+00  0.00000000000E+00 -0.83543693852E+03  0.83543693853E+03  0.25500000920E-02 0. -1.
    10030    2    1    2    0    0  0.00000000000E+00  0.00000000000E+00  0.59881904275E+03  0.22696929198E+04  0.21892742414E+04 0.  0.
        5    1    3    3  502    0  0.56516465674E+03  0.32473628195E+02  0.12707031754E+04  0.13911054151E+04  0.46999998093E+01 0.  1.
       -5    1    3    3    0  502 -0.56516465674E+03 -0.32473628195E+02 -0.67188413268E+03  0.87858750475E+03  0.46999998093E+01 0. -1.
</event>
<event>
 5   0  0.1156733E-04  0.2196815E+04  0.7818609E-02  0.8519755E-01
        1   -1    0    0  501    0  0.00000000000E+00  0.00000000000E+00  0.14357471245E+04  0.14357471245E+04  0.50400001928E-02 0.  1.
       -1   -1    0    0    0  501  0.00000000000E+00  0.00000000000E+00 -0.84032800360E+03  0.84032800362E+03  0.50400001928E-02 0. -1.
    10030    2    1    2    0    0  0.00000000000E+00  0.00000000000E+00  0.59541912088E+03  0.22760751281E+04  0.21968145255E+04 0.  0.
        2    1    3    3  502    0  0.11928190075E+03 -0.49682922245E+03  0.13051239180E+04  0.14015762161E+04  0.25500000920E-02 0.  1.
       -2    1    3    3    0  502 -0.11928190075E+03  0.49682922245E+03 -0.70970479711E+03  0.87449891205E+03  0.25500000920E-02 0. -1.
</event>
<event>
 5   0  0.1156733E-04  0.1405506E+04  0.7818609E-02  0.8949843E-01
        1   -1    0    0  501    0  0.00000000000E+00  0.00000000000E+00  0.70582948015E+03  0.70582948016E+03  0.50400001928E-02 0. -1.
       -1   -1    0    0    0  501  0.00000000000E+00  0.00000000000E+00 -0.69968952918E+03  0.69968952920E+03  0.50400001928E-02 0.  1.
    10030    2    1    2    0    0  0.00000000000E+00  0.00000000000E+00  0.61399509682E+01  0.14055190094E+04  0.14055055982E+04 0.  0.
        2    1    3    3  502    0 -0.19977696504E+03 -0.60787244678E+03 -0.28752142290E+03  0.70149006832E+03  0.25500000920E-02 0.  1.
       -2    1    3    3    0  502  0.19977696504E+03  0.60787244678E+03  0.29366137387E+03  0.70402894104E+03  0.25500000920E-02 0. -1.
</event>
<event>
 5   0  0.1042395E-04  0.2129869E+04  0.7818609E-02  0.8548199E-01
        1   -1    0    0  501    0  0.00000000000E+00  0.00000000000E+00  0.20288969113E+04  0.20288969113E+04  0.50400001928E-02 0. -1.
       -1   -1    0    0    0  501  0.00000000000E+00  0.00000000000E+00 -0.55896647198E+03  0.55896647200E+03  0.50400001928E-02 0.  1.
    10030    2    1    2    0    0  0.00000000000E+00  0.00000000000E+00  0.14699304393E+04  0.25878633833E+04  0.21298688678E+04 0.  0.
        3    1    3    3  502    0  0.75969764145E+03  0.66586231485E+03  0.32549292931E+03  0.10613476273E+04  0.10100000352E+00 0.  1.
       -3    1    3    3    0  502 -0.75969764145E+03 -0.66586231485E+03  0.11444375100E+04  0.15265157560E+04  0.10100000352E+00 0. -1.
</event>
<event>
 5   0  0.2512839E-04  0.2073303E+04  0.7818609E-02  0.8573096E-01
        2   -1    0    0  501    0  0.00000000000E+00  0.00000000000E+00  0.11709857024E+04  0.11709857024E+04  0.25500000920E-02 0.  1.
       -2   -1    0    0    0  501  0.00000000000E+00  0.00000000000E+00 -0.91772804273E+03  0.91772804273E+03  0.25500000920E-02 0. -1.
    10030    2    1    2    0    0  0.00000000000E+00  0.00000000000E+00  0.25325765963E+03  0.20887137451E+04  0.20733030813E+04 0.  0.
        3    1    3    3  502    0  0.46984260124E+03 -0.53755408678E+02  0.10559848338E+04  0.11570417855E+04  0.10100000352E+00 0.  1.
       -3    1    3    3    0  502 -0.46984260124E+03  0.53755408678E+02 -0.80272717420E+03  0.93167195960E+03  0.10100000352E+00 0. -1.
</event>
<event>
 5   0  0.1130848E-04  0.2084121E+04  0.7818609E-02  0.8568271E-01
       -1   -1    0    0    0  501  0.00000000000E+00  0.00000000000E+00  0.87222463033E+03  0.87222463034E+03  0.50400001928E-02 0. -1.
        1   -1    0    0  501    0  0.00000000000E+00  0.00000000000E+00 -0.12449661309E+04  0.12449661309E+04  0.50400001928E-02 0.  1.
    10030    2    1    2    0    0  0.00000000000E+00  0.00000000000E+00 -0.37274150056E+03  0.21171907612E+04  0.20841210361E+04 0.  0.
        5    1    3    3  502    0 -0.82373922181E+02 -0.42139717587E+03 -0.11509137698E+04  0.12284077655E+04  0.46999998093E+01 0.  1.
       -5    1    3    3    0  502  0.82373922181E+02  0.42139717587E+03  0.77817226923E+03  0.88878299572E+03  0.46999998093E+01 0. -1.
</event>
<event>
 5   0  0.1186038E-04  0.2114469E+04  0.7818609E-02  0.8554896E-01
       -1   -1    0    0    0  501  0.00000000000E+00  0.00000000000E+00  0.12080496930E+04  0.12080496931E+04  0.50400001928E-02 0.  1.
        1   -1    0    0  501    0  0.00000000000E+00  0.00000000000E+00 -0.92524740556E+03  0.92524740558E+03  0.50400001928E-02 0. -1.
    10030    2    1    2    0    0  0.00000000000E+00  0.00000000000E+00  0.28280228748E+03  0.21332970986E+04  0.21144690533E+04 0.  0.
        4    1    3    3  502    0  0.53522738803E+03 -0.71178128307E+03  0.71624851407E+03  0.11428536646E+04  0.12699999809E+01 0.  1.
       -4    1    3    3    0  502 -0.53522738803E+03  0.71178128307E+03 -0.43344622658E+03  0.99044343406E+03  0.12699999809E+01 0. -1.
</event>
<event>
 5   0  0.2512839E-04  0.2110000E+04  0.7818609E-02  0.8556851E-01
        2   -1    0    0  501    0  0.00000000000E+00  0.00000000000E+00  0.87162304925E+03  0.87162304926E+03  0.25500000920E-02 0.  1.
       -2   -1    0    0    0  501  0.00000000000E+00  0.00000000000E+00 -0.12769572329E+04  0.12769572329E+04  0.25500000920E-02 0. -1.
    10030    2    1    2    0    0  0.00000000000E+00  0.00000000000E+00 -0.40533418366E+03  0.21485802822E+04  0.21100003385E+04 0.  0.
        3    1    3    3  502    0 -0.38666980759E+03  0.19776859161E+03  0.77636941477E+03  0.88959284750E+03  0.10100000352E+00 0.  1.
       -3    1    3    3    0  502  0.38666980759E+03 -0.19776859161E+03 -0.11817035984E+04  0.12589874347E+04  0.10100000352E+00 0. -1.
</event>
<event>
 5   0  0.2579241E-04  0.2157192E+04  0.7818609E-02  0.8536460E-01
        2   -1    0    0  501    0  0.00000000000E+00  0.00000000000E+00  0.17843168061E+04  0.17843168061E+04  0.25500000920E-02 0. -1.
       -2   -1    0    0    0  501  0.00000000000E+00  0.00000000000E+00 -0.65199679068E+03  0.65199679069E+03  0.25500000920E-02 0.  1.
    10030    2    1    2    0    0  0.00000000000E+00  0.00000000000E+00  0.11323200154E+04  0.24363135968E+04  0.21571915364E+04 0.  0.
        5    1    3    3  502    0  0.69012096218E+03  0.45095873192E+03  0.13516483015E+04  0.15832264340E+04  0.46999998093E+01 0. -1.
       -5    1    3    3    0  502 -0.69012096218E+03 -0.45095873192E+03 -0.21932828605E+03  0.85308716283E+03  0.46999998093E+01 0.  1.
</event>
<event>
 5   0  0.2579241E-04  0.1977899E+04  0.7818609E-02  0.8617024E-01
       -2   -1    0    0    0  501  0.00000000000E+00  0.00000000000E+00  0.90337927000E+03  0.90337927001E+03  0.25500000920E-02 0. -1.
        2   -1    0    0  501    0  0.00000000000E+00  0.00000000000E+00 -0.10826250453E+04  0.10826250453E+04  0.25500000920E-02 0.  1.
    10030    2    1    2    0    0  0.00000000000E+00  0.00000000000E+00 -0.17924577532E+03  0.19860043153E+04  0.19778989086E+04 0.  0.
        5    1    3    3  502    0  0.43116077798E+03  0.84110236522E+03  0.20250945752E+03  0.96663590644E+03  0.46999998093E+01 0. -1.
       -5    1    3    3    0  502 -0.43116077798E+03 -0.84110236522E+03 -0.38175523284E+03  0.10193684089E+04  0.46999998093E+01 0.  1.
</event>
<event>
 5   0  0.2579241E-04  0.2078723E+04  0.7818609E-02  0.8570675E-01
        2   -1    0    0  501    0  0.00000000000E+00  0.00000000000E+00  0.96264179409E+03  0.96264179409E+03  0.25500000920E-02 0.  1.
       -2   -1    0    0    0  501  0.00000000000E+00  0.00000000000E+00 -0.11221952884E+04  0.11221952884E+04  0.25500000920E-02 0. -1.
    10030    2    1    2    0    0  0.00000000000E+00  0.00000000000E+00 -0.15955349435E+03  0.20848370825E+04  0.20787227673E+04 0.  0.
        5    1    3    3  502    0 -0.34851429655E+03 -0.97659605610E+03 -0.15103447314E+03  0.10478719262E+04  0.46999998093E+01 0.  1.
       -5    1    3    3    0  502  0.34851429655E+03  0.97659605610E+03 -0.85190212105E+01  0.10369651563E+04  0.46999998093E+01 0. -1.
</event>
<event>
 5   0  0.2448804E-04  0.2056750E+04  0.7818609E-02  0.8580538E-01
       -2   -1    0    0    0  501  0.00000000000E+00  0.00000000000E+00  0.12422879859E+04  0.12422879859E+04  0.25500000920E-02 0. -1.
        2   -1    0    0  501    0  0.00000000000E+00  0.00000000000E+00 -0.85129633041E+03  0.85129633042E+03  0.25500000920E-02 0.  1.
    10030    2    1    2    0    0  0.00000000000E+00  0.00000000000E+00  0.39099165552E+03  0.20935843164E+04  0.20567500614E+04 0.  0.
        2    1    3    3  502    0  0.64855720802E+03 -0.35399281961E+03 -0.53258865487E+03  0.91081723947E+03  0.25500000920E-02 0.  1.
       -2    1    3    3    0  502 -0.64855720802E+03  0.35399281961E+03  0.92358031039E+03  0.11827670769E+04  0.25500000920E-02 0. -1.
</event>
<event>
 5   0  0.2467483E-04  0.2260969E+04  0.7818609E-02  0.8493472E-01
       -2   -1    0    0    0  501  0.00000000000E+00  0.00000000000E+00  0.51966184299E+03  0.51966184300E+03  0.25500000920E-02 0. -1.
        2   -1    0    0  501    0  0.00000000000E+00  0.00000000000E+00 -0.24592815253E+04  0.24592815253E+04  0.25500000920E-02 0.  1.
    10030    2    1    2    0    0  0.00000000000E+00  0.00000000000E+00 -0.19396196823E+04  0.29789433683E+04  0.22609686153E+04 0.  0.
        4    1    3    3  502    0 -0.77358582080E+01  0.59618363586E+02 -0.24571729662E+04  0.24579086215E+04  0.12699999809E+01 0.  1.
       -4    1    3    3    0  502  0.77358582080E+01 -0.59618363586E+02  0.51755328392E+03  0.52103474680E+03  0.12699999809E+01 0. -1.
</event>
<event>
 5   0  0.2512839E-04  0.2068684E+04  0.7818609E-02  0.8575165E-01
       -2   -1    0    0    0  501  0.00000000000E+00  0.00000000000E+00  0.10277918033E+04  0.10277918033E+04  0.25500000920E-02 0.  1.
        2   -1    0    0  501    0  0.00000000000E+00  0.00000000000E+00 -0.10409343579E+04  0.10409343579E+04  0.25500000920E-02 0. -1.
    10030    2    1    2    0    0  0.00000000000E+00  0.00000000000E+00 -0.13142554597E+02  0.20687261611E+04  0.20686844136E+04 0.  0.
        3    1    3    3  502    0  0.64915854960E+03  0.14494759741E+03 -0.79870288692E+03  0.10393954687E+04  0.10100000352E+00 0. -1.
       -3    1    3    3    0  502 -0.64915854960E+03 -0.14494759741E+03  0.78556033233E+03  0.10293306925E+04  0.10100000352E+00 0.  1.
</event>
<event>
 5   0  0.2579241E-04  0.1397883E+04  0.7818609E-02  0.8955352E-01
       -2   -1    0    0    0  501  0.00000000000E+00  0.00000000000E+00  0.99395501046E+03  0.99395501047E+03  0.25500000920E-02 0.  1.
        2   -1    0    0  501    0  0.00000000000E+00  0.00000000000E+00 -0.49149027612E+03  0.49149027613E+03  0.25500000920E-02 0. -1.
    10030    2    1    2    0    0  0.00000000000E+00  0.00000000000E+00  0.50246473434E+03  0.14854452866E+04  0.13978830031E+04 0.  0.
        5    1    3    3  502    0 -0.15108688375E+03 -0.82973935630E+02  0.97099706364E+03  0.98618928610E+03  0.46999998093E+01 0.  1.
       -5    1    3    3    0  502  0.15108688375E+03  0.82973935630E+02 -0.46853232930E+03  0.49925600049E+03  0.46999998093E+01 0. -1.
</event>
<event>
 5   0  0.2430898E-04  0.1139962E+04  0.7818609E-02  0.9167094E-01
        2   -1    0    0  501    0  0.00000000000E+00  0.00000000000E+00  0.56939239166E+03  0.56939239166E+03  0.25500000920E-02 0.  1.
       -2   -1    0    0    0  501  0.00000000000E+00  0.00000000000E+00 -0.57057059321E+03  0.57057059322E+03  0.25500000920E-02 0. -1.
    10030    2    1    2    0    0  0.00000000000E+00  0.00000000000E+00 -0.11782015545E+01  0.11399629849E+04  0.11399623760E+04 0.  0.
        1    1    3    3  502    0  0.26155340127E+03  0.13242503681E+03  0.48821785274E+03  0.56947628909E+03  0.50400001928E-02 0.  1.
       -1    1    3    3    0  502 -0.26155340127E+03 -0.13242503681E+03 -0.48939605429E+03  0.57048669578E+03  0.50400001928E-02 0. -1.
</event>
<event>
 5   0  0.8698750E-05  0.2123899E+04  0.7818609E-02  0.8550788E-01
        3   -1    0    0  501    0  0.00000000000E+00  0.00000000000E+00  0.14906020803E+04  0.14906020837E+04  0.10100000352E+00 0.  1.
       -3   -1    0    0    0  501  0.00000000000E+00  0.00000000000E+00 -0.75656439329E+03  0.75656440003E+03  0.10100000352E+00 0. -1.
    10030    2    1    2    0    0  0.00000000000E+00  0.00000000000E+00  0.73403768698E+03  0.22471664837E+04  0.21238987452E+04 0.  0.
        3    1    3    3  502    0 -0.80773760066E+03  0.60753731255E+03  0.71180764525E+03  0.12362086198E+04  0.10100000352E+00 0. -1.
       -3    1    3    3    0  502  0.80773760066E+03 -0.60753731255E+03  0.22230041732E+02  0.10109578639E+04  0.10100000352E+00 0.  1.
</event>
<event>
 5   0  0.2430898E-04  0.2145976E+04  0.7818609E-02  0.8541257E-01
        2   -1    0    0  501    0  0.00000000000E+00  0.00000000000E+00  0.16795796681E+04  0.16795796681E+04  0.25500000920E-02 0. -1.
       -2   -1    0    0    0  501  0.00000000000E+00  0.00000000000E+00 -0.68547092132E+03  0.68547092133E+03  0.25500000920E-02 0.  1.
    10030    2    1    2    0    0  0.00000000000E+00  0.00000000000E+00  0.99410874679E+03  0.23650505894E+04  0.21459757897E+04 0.  0.
        1    1    3    3  502    0 -0.56368882913E+03 -0.67011103478E+03  0.11804448834E+04  0.14697768599E+04  0.50400001928E-02 0. -1.
       -1    1    3    3    0  502  0.56368882913E+03  0.67011103478E+03 -0.18633613662E+03  0.89527372957E+03  0.50400001928E-02 0.  1.
</event>
<event>
 5   0  0.1156733E-04  0.1938666E+04  0.7818609E-02  0.8635845E-01
       -1   -1    0    0    0  501  0.00000000000E+00  0.00000000000E+00  0.97152799160E+03  0.97152799161E+03  0.50400001928E-02 0.  1.
        1   -1    0    0  501    0  0.00000000000E+00  0.00000000000E+00 -0.96714331113E+03  0.96714331114E+03  0.50400001928E-02 0. -1.
    10030    2    1    2    0    0  0.00000000000E+00  0.00000000000E+00  0.43846804722E+01  0.19386713028E+04  0.19386663443E+04 0.  0.
        2    1    3    3  502    0 -0.41085094369E+03 -0.74094969007E+03  0.47315199042E+03  0.97040081780E+03  0.25500000920E-02 0.  1.
       -2    1    3    3    0  502  0.41085094369E+03  0.74094969007E+03 -0.46876730994E+03  0.96827048495E+03  0.25500000920E-02 0. -1.
</event>
<event>
 5   0  0.2512839E-04  0.2112386E+04  0.7818609E-02  0.8555807E-01
        2   -1    0    0  501    0  0.00000000000E+00  0.00000000000E+00  0.15089742315E+04  0.15089742315E+04  0.25500000920E-02 0.  1.
       -2   -1    0    0    0  501  0.00000000000E+00  0.00000000000E+00 -0.73927308736E+03  0.73927308736E+03  0.25500000920E-02 0. -1.
    10030    2    1    2    0    0  0.00000000000E+00  0.00000000000E+00  0.76970114417E+03  0.22482473189E+04  0.21123863651E+04 0.  0.
        3    1    3    3  502    0 -0.86868798723E+03 -0.20814577293E+03 -0.21495617855E+03  0.91877617015E+03  0.10100000352E+00 0. -1.
       -3    1    3    3    0  502  0.86868798723E+03  0.20814577293E+03  0.98465732272E+03  0.13294711487E+04  0.10100000352E+00 0.  1.
</event>
<event>
 5   0  0.1186038E-04  0.1983373E+04  0.7818609E-02  0.8614434E-01
        1   -1    0    0  501    0  0.00000000000E+00  0.00000000000E+00  0.18861200246E+04  0.18861200246E+04  0.50400001928E-02 0.  1.
       -1   -1    0    0    0  501  0.00000000000E+00  0.00000000000E+00 -0.52140990551E+03  0.52140990553E+03  0.50400001928E-02 0. -1.
    10030    2    1    2    0    0  0.00000000000E+00  0.00000000000E+00  0.13647101191E+04  0.24075299302E+04  0.19833725458E+04 0.  0.
        4    1    3    3  502    0  0.37205111850E+03  0.36395724897E+03  0.17070061954E+04  0.17845892182E+04  0.12699999809E+01 0.  1.
       -4    1    3    3    0  502 -0.37205111850E+03 -0.36395724897E+03 -0.34229607627E+03  0.62294071193E+03  0.12699999809E+01 0. -1.
</event>
<event>
 5   0  0.1122711E-04  0.1961412E+04  0.7818609E-02  0.8624878E-01
        1   -1    0    0  501    0  0.00000000000E+00  0.00000000000E+00  0.11119432225E+04  0.11119432225E+04  0.50400001928E-02 0.  1.
       -1   -1    0    0    0  501  0.00000000000E+00  0.00000000000E+00 -0.86495771098E+03  0.86495771100E+03  0.50400001928E-02 0. -1.
    10030    2    1    2    0    0  0.00000000000E+00  0.00000000000E+00  0.24698551150E+03  0.19769009335E+04  0.19614115983E+04 0.  0.
        1    1    3    3  502    0  0.67123065533E+03 -0.15741440018E+02 -0.59698478416E+03  0.89843709748E+03  0.50400001928E-02 0. -1.
       -1    1    3    3    0  502 -0.67123065533E+03  0.15741440018E+02  0.84397029566E+03  0.10784638360E+04  0.50400001928E-02 0.  1.
</event>
<event>
 5   0  0.1130848E-04  0.2090907E+04  0.7818609E-02  0.8565260E-01
       -1   -1    0    0    0  501  0.00000000000E+00  0.00000000000E+00  0.10830745803E+04  0.10830745803E+04  0.50400001928E-02 0. -1.
        1   -1    0    0  501    0  0.00000000000E+00  0.00000000000E+00 -0.10091388070E+04  0.10091388071E+04  0.50400001928E-02 0.  1.
    10030    2    1    2    0    0  0.00000000000E+00  0.00000000000E+00  0.73935773263E+02  0.20922133874E+04  0.20909065880E+04 0.  0.
        5    1    3    3  502    0  0.57621442537E+02 -0.65237593694E+03  0.85236116568E+03  0.10749215043E+04  0.46999998093E+01 0. -1.
       -5    1    3    3    0  502 -0.57621442537E+02  0.65237593694E+03 -0.77842539242E+03  0.10172918830E+04  0.46999998093E+01 0.  1.
</event>
<event>
 5   0  0.2467483E-04  0.1992141E+04  0.7818609E-02  0.8610304E-01
        2   -1    0    0  501    0  0.00000000000E+00  0.00000000000E+00  0.15408691813E+04  0.15408691813E+04  0.25500000920E-02 0.  1.
       -2   -1    0    0    0  501  0.00000000000E+00  0.00000000000E+00 -0.64389416413E+03  0.64389416414E+03  0.25500000920E-02 0. -1.
    10030    2    1    2    0    0  0.00000000000E+00  0.00000000000E+00  0.89697501718E+03  0.21847633455E+04  0.19921412335E+04 0.  0.
        4    1    3    3  502    0 -0.37954197863E+03  0.49818016844E+03  0.12979236859E+04  0.14411256369E+04  0.12699999809E+01 0.  1.
       -4    1    3    3    0  502  0.37954197863E+03 -0.49818016844E+03 -0.40094866876E+03  0.74363770860E+03  0.12699999809E+01 0. -1.
</event>
<event>
 5   0  0.1156733E-04  0.1992645E+04  0.7818609E-02  0.8610067E-01
       -1   -1    0    0    0  501  0.00000000000E+00  0.00000000000E+00  0.64833357213E+03  0.64833357215E+03  0.50400001928E-02 0. -1.
        1   -1    0    0  501    0  0.00000000000E+00  0.00000000000E+00 -0.15310929058E+04  0.15310929058E+04  0.50400001928E-02 0.  1.
    10030    2    1    2    0    0  0.00000000000E+00  0.00000000000E+00 -0.88275933364E+03  0.21794264779E+04  0.19926454104E+04 0.  0.
        2    1    3    3  502    0  0.11654121205E+03 -0.81158608313E+03 -0.10604812513E+04  0.13404754040E+04  0.25500000920E-02 0.  1.
       -2    1    3    3    0  502 -0.11654121205E+03  0.81158608313E+03  0.17772191763E+03  0.83895107393E+03  0.25500000920E-02 0. -1.
</event>
<event>
 5   0  0.2448804E-04  0.1966927E+04  0.7818609E-02  0.8622241E-01
        2   -1    0    0  501    0  0.00000000000E+00  0.00000000000E+00  0.16895279608E+04  0.16895279608E+04  0.25500000920E-02 0.  1.
       -2   -1    0    0    0  501  0.00000000000E+00  0.00000000000E+00 -0.57246790458E+03  0.57246790459E+03  0.25500000920E-02 0. -1.
    10030    2    1    2    0    0  0.00000000000E+00  0.00000000000E+00  0.11170600562E+04  0.22619958654E+04  0.19669270769E+04 0.  0.
        2    1    3    3  502    0 -0.18205229481E+03  0.96071818313E+03  0.67957186946E+03  0.11907730225E+04  0.25500000920E-02 0.  1.
       -2    1    3    3    0  502  0.18205229481E+03 -0.96071818313E+03  0.43748818674E+03  0.10712228428E+04  0.25500000920E-02 0. -1.
</event>
<event>
 5   0  0.2430898E-04  0.1988997E+04  0.7818609E-02  0.8611782E-01
        2   -1    0    0  501    0  0.00000000000E+00  0.00000000000E+00  0.16669809750E+04  0.16669809750E+04  0.25500000920E-02 0.  1.
       -2   -1    0    0    0  501  0.00000000000E+00  0.00000000000E+00 -0.59330439265E+03  0.59330439265E+03  0.25500000920E-02 0. -1.
    10030    2    1    2    0    0  0.00000000000E+00  0.00000000000E+00  0.10736765823E+04  0.22602853676E+04  0.19889968677E+04 0.  0.
        1    1    3    3  502    0  0.46615105100E+03 -0.87580301651E+03  0.45893590002E+03  0.10931376338E+04  0.50400001928E-02 0. -1.
       -1    1    3    3    0  502 -0.46615105100E+03  0.87580301651E+03  0.61474068230E+03  0.11671477338E+04  0.50400001928E-02 0.  1.
</event>
<event>
 5   0  0.2579241E-04  0.2098472E+04  0.7818609E-02  0.8561917E-01
        2   -1    0    0  501    0  0.00000000000E+00  0.00000000000E+00  0.11213949209E+04  0.11213949209E+04  0.25500000920E-02 0. -1.
       -2   -1    0    0    0  501  0.00000000000E+00  0.00000000000E+00 -0.98172048527E+03  0.98172048528E+03  0.25500000920E-02 0.  1.
    10030    2    1    2    0    0  0.00000000000E+00  0.00000000000E+00  0.13967443562E+03  0.21031154062E+04  0.20984721737E+04 0.  0.
        5    1    3    3  502    0  0.27111284527E+03  0.70966329011E+03 -0.65546992771E+03  0.10033877996E+04  0.46999998093E+01 0.  1.
       -5    1    3    3    0  502 -0.27111284527E+03 -0.70966329011E+03  0.79514436332E+03  0.10997276066E+04  0.46999998093E+01 0. -1.
</event>
<event>
 5   0  0.1156733E-04  0.2088344E+04  0.7818609E-02  0.8566396E-01
        1   -1    0    0  501    0  0.00000000000E+00  0.00000000000E+00  0.16540561486E+04  0.16540561486E+04  0.50400001928E-02 0. -1.
       -1   -1    0    0    0  501  0.00000000000E+00  0.00000000000E+00 -0.65916430418E+03  0.65916430420E+03  0.50400001928E-02 0.  1.
    10030    2    1    2    0    0  0.00000000000E+00  0.00000000000E+00  0.99489184442E+03  0.23132204528E+04  0.20883436214E+04 0.  0.
        2    1    3    3  502    0  0.31307755643E+03  0.84945566192E+02 -0.60193128412E+03  0.68377962559E+03  0.25500000920E-02 0.  1.
       -2    1    3    3    0  502 -0.31307755643E+03 -0.84945566192E+02  0.15968231285E+04  0.16294408272E+04  0.25500000920E-02 0. -1.
</event>
<event>
 5   0  0.1186038E-04  0.1488385E+04  0.7818609E-02  0.8892214E-01
       -1   -1    0    0    0  501  0.00000000000E+00  0.00000000000E+00  0.68989198049E+03  0.68989198051E+03  0.50400001928E-02 0. -1.
        1   -1    0    0  501    0  0.00000000000E+00  0.00000000000E+00 -0.80276650959E+03  0.80276650961E+03  0.50400001928E-02 0.  1.
    10030    2    1    2    0    0  0.00000000000E+00  0.00000000000E+00 -0.11287452910E+03  0.14926584901E+04  0.14883845971E+04 0.  0.
        4    1    3    3  502    0 -0.18663692575E+03  0.69603132604E+03  0.12991238546E+03  0.73223752272E+03  0.12699999809E+01 0.  1.
       -4    1    3    3    0  502  0.18663692575E+03 -0.69603132604E+03 -0.24278691457E+03  0.76042096740E+03  0.12699999809E+01 0. -1.
</event>
<event>
 5   0  0.2467483E-04  0.2163166E+04  0.7818609E-02  0.8533917E-01
        2   -1    0    0  501    0  0.00000000000E+00  0.00000000000E+00  0.11221037433E+04  0.11221037433E+04  0.25500000920E-02 0.  1.
       -2   -1    0    0    0  501  0.00000000000E+00  0.00000000000E+00 -0.10425257439E+04  0.10425257439E+04  0.25500000920E-02 0. -1.
    10030    2    1    2    0    0  0.00000000000E+00  0.00000000000E+00  0.79577999404E+02  0.21646294872E+04  0.21631662346E+04 0.  0.
        4    1    3    3  502    0  0.84727292605E+03  0.29582796608E+03  0.64388173554E+03  0.11045229282E+04  0.12699999809E+01 0.  1.
       -4    1    3    3    0  502 -0.84727292605E+03 -0.29582796608E+03 -0.56430373614E+03  0.10601065589E+04  0.12699999809E+01 0. -1.
</event>
<event>
 5   0  0.2512839E-04  0.2054329E+04  0.7818609E-02  0.8581633E-01
        2   -1    0    0  501    0  0.00000000000E+00  0.00000000000E+00  0.15488830290E+04  0.15488830290E+04  0.25500000920E-02 0. -1.
       -2   -1    0    0    0  501  0.00000000000E+00  0.00000000000E+00 -0.68117902258E+03  0.68117902259E+03  0.25500000920E-02 0.  1.
    10030    2    1    2    0    0  0.00000000000E+00  0.00000000000E+00  0.86770400643E+03  0.22300620516E+04  0.20543287252E+04 0.  0.
        3    1    3    3  502    0 -0.36258459039E+03  0.91238938106E+03  0.10612471922E+03  0.98751427032E+03  0.10100000352E+00 0.  1.
       -3    1    3    3    0  502  0.36258459039E+03 -0.91238938106E+03  0.76157928722E+03  0.12425477813E+04  0.10100000352E+00 0. -1.
</event>
<event>
 5   0  0.1122711E-04  0.1441746E+04  0.7818609E-02  0.8924143E-01
       -1   -1    0    0    0  501  0.00000000000E+00  0.00000000000E+00  0.21297419104E+03  0.21297419110E+03  0.50400001928E-02 0. -1.
        1   -1    0    0  501    0  0.00000000000E+00  0.00000000000E+00 -0.24400037081E+04  0.24400037081E+04  0.50400001928E-02 0.  1.
    10030    2    1    2    0    0  0.00000000000E+00  0.00000000000E+00 -0.22270295170E+04  0.26529778992E+04  0.14417459082E+04 0.  0.
        1    1    3    3  502    0  0.14957820281E+03 -0.28001715990E+03 -0.23044465827E+04  0.23262109322E+04  0.50400001928E-02 0.  1.
       -1    1    3    3    0  502 -0.14957820281E+03  0.28001715990E+03  0.77417065704E+02  0.32676696694E+03  0.50400001928E-02 0. -1.
</event>
<event>
 5   0  0.1042395E-04  0.2087585E+04  0.7818609E-02  0.8566732E-01
       -1   -1    0    0    0  501  0.00000000000E+00  0.00000000000E+00  0.83254537481E+03  0.83254537483E+03  0.50400001928E-02 0.  1.
        1   -1    0    0  501    0  0.00000000000E+00  0.00000000000E+00 -0.13086406920E+04  0.13086406920E+04  0.50400001928E-02 0. -1.
    10030    2    1    2    0    0  0.00000000000E+00  0.00000000000E+00 -0.47609531720E+03  0.21411860668E+04  0.20875849735E+04 0.  0.
        3    1    3    3  502    0 -0.33412768592E+03  0.96544262656E+03 -0.45750872374E+03  0.11193904673E+04  0.10100000352E+00 0. -1.
       -3    1    3    3    0  502  0.33412768592E+03 -0.96544262656E+03 -0.18586593463E+02  0.10217955996E+04  0.10100000352E+00 0.  1.
</event>
<event>
 5   0  0.1156733E-04  0.2080911E+04  0.7818609E-02  0.8569699E-01
        1   -1    0    0  501    0  0.00000000000E+00  0.00000000000E+00  0.12714716601E+04  0.12714716601E+04  0.50400001928E-02 0.  1.
       -1   -1    0    0    0  501  0.00000000000E+00  0.00000000000E+00 -0.85141342132E+03  0.85141342133E+03  0.50400001928E-02 0. -1.
    10030    2    1    2    0    0  0.00000000000E+00  0.00000000000E+00  0.42005823876E+03  0.21228850814E+04  0.20809113736E+04 0.  0.
        2    1    3    3  502    0  0.33908667359E+03 -0.59519831742E+03 -0.58890679117E+03  0.90335597521E+03  0.25500000920E-02 0. -1.
       -2    1    3    3    0  502 -0.33908667359E+03  0.59519831742E+03  0.10089650299E+04  0.12195291062E+04  0.25500000920E-02 0.  1.
</event>
<event>
 5   0  0.1156733E-04  0.2078263E+04  0.7818609E-02  0.8570879E-01
        1   -1    0    0  501    0  0.00000000000E+00  0.00000000000E+00  0.12564418395E+04  0.12564418395E+04  0.50400001928E-02 0. -1.
       -1   -1    0    0    0  501  0.00000000000E+00  0.00000000000E+00 -0.85940678175E+03  0.85940678177E+03  0.50400001928E-02 0.  1.
    10030    2    1    2    0    0  0.00000000000E+00  0.00000000000E+00  0.39703505776E+03  0.21158486213E+04  0.20782633498E+04 0.  0.
        2    1    3    3  502    0 -0.32909578303E+03  0.96632348403E+03  0.39621884468E+03  0.10950225948E+04  0.25500000920E-02 0. -1.
       -2    1    3    3    0  502  0.32909578303E+03 -0.96632348403E+03  0.81621308368E+00  0.10208260265E+04  0.25500000920E-02 0.  1.
</event>
<event>
 5   0  0.2579241E-04  0.2038862E+04  0.7818609E-02  0.8588664E-01
       -2   -1    0    0    0  501  0.00000000000E+00  0.00000000000E+00  0.44335353980E+03  0.44335353980E+03  0.25500000920E-02 0. -1.
        2   -1    0    0  501    0  0.00000000000E+00  0.00000000000E+00 -0.23440429974E+04  0.23440429974E+04  0.25500000920E-02 0.  1.
    10030    2    1    2    0    0  0.00000000000E+00  0.00000000000E+00 -0.19006894576E+04  0.27873965372E+04  0.20388621928E+04 0.  0.
        5    1    3    3  502    0  0.91982336377E+03 -0.56985879591E+01 -0.34956750011E+03  0.98403608753E+03  0.46999998093E+01 0. -1.
       -5    1    3    3    0  502 -0.91982336377E+03  0.56985879591E+01 -0.15511219575E+04  0.18033604497E+04  0.46999998093E+01 0.  1.
</event>
<event>
 5   0  0.1130848E-04  0.2013797E+04  0.7818609E-02  0.8600197E-01
        1   -1    0    0  501    0  0.00000000000E+00  0.00000000000E+00  0.10294596008E+04  0.10294596008E+04  0.50400001928E-02 0.  1.
       -1   -1    0    0    0  501  0.00000000000E+00  0.00000000000E+00 -0.98483175749E+03  0.98483175750E+03  0.50400001928E-02 0. -1.
    10030    2    1    2    0    0  0.00000000000E+00  0.00000000000E+00  0.44627843263E+02  0.20142913583E+04  0.20137969192E+04 0.  0.
        5    1    3    3  502    0 -0.21856947549E+03 -0.28901449555E+03 -0.91734231334E+03  0.98632702695E+03  0.46999998093E+01 0. -1.
       -5    1    3    3    0  502  0.21856947549E+03  0.28901449555E+03  0.96197015661E+03  0.10279643313E+04  0.46999998093E+01 0.  1.
</event>
<event>
 5   0  0.1042395E-04  0.2115610E+04  0.7818609E-02  0.8554398E-01
       -1   -1    0    0    0  501  0.00000000000E+00  0.00000000000E+00  0.13838945109E+04  0.13838945109E+04  0.50400001928E-02 0. -1.
        1   -1    0    0  501    0  0.00000000000E+00  0.00000000000E+00 -0.80855249508E+03  0.80855249510E+03  0.50400001928E-02 0.  1.
    10030    2    1    2    0    0  0.00000000000E+00  0.00000000000E+00  0.57534201577E+03  0.21924470060E+04  0.21156099449E+04 0.  0.
        3    1    3    3  502    0 -0.91963098814E+03 -0.42699494370E+03  0.60012682638E+03  0.11782181692E+04  0.10100000352E+00 0. -1.
       -3    1    3    3    0  502  0.91963098814E+03  0.42699494370E+03 -0.24784810602E+02  0.10142288368E+04  0.10100000352E+00 0.  1.
</event>
<event>
 5   0  0.1130848E-04  0.2053004E+04  0.7818609E-02  0.8582233E-01
       -1   -1    0    0    0  501  0.00000000000E+00  0.00000000000E+00  0.81375422142E+03  0.81375422144E+03  0.50400001928E-02 0.  1.
        1   -1    0    0  501    0  0.00000000000E+00  0.00000000000E+00 -0.12948707818E+04  0.12948707818E+04  0.50400001928E-02 0. -1.
    10030    2    1    2    0    0  0.00000000000E+00  0.00000000000E+00 -0.48111656037E+03  0.21086250032E+04  0.20530042035E+04 0.  0.
        5    1    3    3  502    0  0.58198535901E+03 -0.40129136524E+03 -0.10049957342E+04  0.12287311479E+04  0.46999998093E+01 0. -1.
       -5    1    3    3    0  502 -0.58198535901E+03  0.40129136524E+03  0.52387917386E+03  0.87989385537E+03  0.46999998093E+01 0.  1.
</event>
<event>
 5   0  0.1122711E-04  0.2130932E+04  0.7818609E-02  0.8547739E-01
        1   -1    0    0  501    0  0.00000000000E+00  0.00000000000E+00  0.11061228352E+04  0.11061228352E+04  0.50400001928E-02 0. -1.
       -1   -1    0    0    0  501  0.00000000000E+00  0.00000000000E+00 -0.10263035541E+04  0.10263035541E+04  0.50400001928E-02 0.  1.
    10030    2    1    2    0    0  0.00000000000E+00  0.00000000000E+00  0.79819281114E+02  0.21324263893E+04  0.21309319999E+04 0.  0.
        1    1    3    3  502    0 -0.88138564512E+03  0.26105279840E+03 -0.49919682979E+03  0.10460337919E+04  0.50400001928E-02 0.  1.
       -1    1    3    3    0  502  0.88138564512E+03 -0.26105279840E+03  0.57901611091E+03  0.10863925974E+04  0.50400001928E-02 0. -1.
</event>
<event>
 5   0  0.2448804E-04  0.2096611E+04  0.7818609E-02  0.8562738E-01
        2   -1    0    0  501    0  0.00000000000E+00  0.00000000000E+00  0.13386261716E+04  0.13386261716E+04  0.25500000920E-02 0. -1.
       -2   -1    0    0    0  501  0.00000000000E+00  0.00000000000E+00 -0.82094948933E+03  0.82094948933E+03  0.25500000920E-02 0.  1.
    10030    2    1    2    0    0  0.00000000000E+00  0.00000000000E+00  0.51767668226E+03  0.21595756609E+04  0.20966110483E+04 0.  0.
        2    1    3    3  502    0  0.36896715933E+03 -0.40422867456E+03 -0.66210836010E+03  0.85902564951E+03  0.25500000920E-02 0.  1.
       -2    1    3    3    0  502 -0.36896715933E+03  0.40422867456E+03  0.11797850424E+04  0.13005500114E+04  0.25500000920E-02 0. -1.
</event>
<event>
 5   0  0.2430898E-04  0.2148057E+04  0.7818609E-02  0.8540365E-01
       -2   -1    0    0    0  501  0.00000000000E+00  0.00000000000E+00  0.10609791199E+04  0.10609791199E+04  0.25500000920E-02 0.  1.
        2   -1    0    0  501    0  0.00000000000E+00  0.00000000000E+00 -0.10872379446E+04  0.10872379446E+04  0.25500000920E-02 0. -1.
    10030    2    1    2    0    0  0.00000000000E+00  0.00000000000E+00 -0.26258824672E+02  0.21482170646E+04  0.21480565706E+04 0.  0.
        1    1    3    3  502    0 -0.95539369230E+03 -0.48736177050E+03  0.43779628206E+02  0.10734129021E+04  0.50400001928E-02 0.  1.
       -1    1    3    3    0  502  0.95539369230E+03  0.48736177050E+03 -0.70038452878E+02  0.10748041624E+04  0.50400001928E-02 0. -1.
</event>
<event>
 5   0  0.1130848E-04  0.2168026E+04  0.7818609E-02  0.8531855E-01
        1   -1    0    0  501    0  0.00000000000E+00  0.00000000000E+00  0.16304569093E+04  0.16304569093E+04  0.50400001928E-02 0.  1.
       -1   -1    0    0    0  501  0.00000000000E+00  0.00000000000E+00 -0.72070857553E+03  0.72070857554E+03  0.50400001928E-02 0. -1.
    10030    2    1    2    0    0  0.00000000000E+00  0.00000000000E+00  0.90974833373E+03  0.23511654848E+04  0.21680260852E+04 0.  0.
        5    1    3    3  502    0  0.11242150090E+03 -0.10750984796E+04  0.36685897487E+03  0.11415265797E+04  0.46999998093E+01 0. -1.
       -5    1    3    3    0  502 -0.11242150090E+03  0.10750984796E+04  0.54288935886E+03  0.12096389051E+04  0.46999998093E+01 0.  1.
</event>
<event>
 5   0  0.1156733E-04  0.2099804E+04  0.7818609E-02  0.8561330E-01
       -1   -1    0    0    0  501  0.00000000000E+00  0.00000000000E+00  0.56411355621E+03  0.56411355623E+03  0.50400001928E-02 0. -1.
        1   -1    0    0  501    0  0.00000000000E+00  0.00000000000E+00 -0.19540286475E+04  0.19540286475E+04  0.50400001928E-02 0.  1.
    10030    2    1    2    0    0  0.00000000000E+00  0.00000000000E+00 -0.13899150913E+04  0.25181422038E+04  0.20998038473E+04 0.  0.
        2    1    3    3  502    0 -0.94141236115E+03  0.43888238460E+03 -0.87847878325E+03  0.13603675804E+04  0.25500000920E-02 0.  1.
       -2    1    3    3    0  502  0.94141236115E+03 -0.43888238460E+03 -0.51143630808E+03  0.11577746233E+04  0.25500000920E-02 0. -1.
</event>
<event>
 5   0  0.1042395E-04  0.2097861E+04  0.7818609E-02  0.8562186E-01
        1   -1    0    0  501    0  0.00000000000E+00  0.00000000000E+00  0.99263435346E+03  0.99263435347E+03  0.50400001928E-02 0. -1.
       -1   -1    0    0    0  501  0.00000000000E+00  0.00000000000E+00 -0.11084197471E+04  0.11084197471E+04  0.50400001928E-02 0.  1.
    10030    2    1    2    0    0  0.00000000000E+00  0.00000000000E+00 -0.11578539360E+03  0.21010541005E+04  0.20978613100E+04 0.  0.
        3    1    3    3  502    0 -0.34051854438E+03 -0.40602303734E+03  0.84871863107E+03  0.10005652956E+04  0.10100000352E+00 0. -1.
       -3    1    3    3    0  502  0.34051854438E+03  0.40602303734E+03 -0.96450402467E+03  0.11004888049E+04  0.10100000352E+00 0.  1.
</event>
<event>
 5   0  0.2448804E-04  0.2028791E+04  0.7818609E-02  0.8593277E-01
       -2   -1    0    0    0  501  0.00000000000E+00  0.00000000000E+00  0.49377189009E+03  0.49377189009E+03  0.25500000920E-02 0. -1.
        2   -1    0    0  501    0  0.00000000000E+00  0.00000000000E+00 -0.20839554423E+04  0.20839554423E+04  0.25500000920E-02 0.  1.
    10030    2    1    2    0    0  0.00000000000E+00  0.00000000000E+00 -0.15901835522E+04  0.25777273324E+04  0.20287913817E+04 0.  0.
        2    1    3    3  502    0 -0.72580064886E+03 -0.70080590218E+03 -0.92885313292E+03  0.13713801942E+04  0.25500000920E-02 0.  1.
       -2    1    3    3    0  502  0.72580064886E+03  0.70080590218E+03 -0.66133041929E+03  0.12063471382E+04  0.25500000920E-02 0. -1.
</event>
<event>
 5   0  0.2430898E-04  0.1936842E+04  0.7818609E-02  0.8636732E-01
       -2   -1    0    0    0  501  0.00000000000E+00  0.00000000000E+00  0.74343488291E+03  0.74343488292E+03  0.25500000920E-02 0.  1.
        2   -1    0    0  501    0  0.00000000000E+00  0.00000000000E+00 -0.12614946929E+04  0.12614946929E+04  0.25500000920E-02 0. -1.
    10030    2    1    2    0    0  0.00000000000E+00  0.00000000000E+00 -0.51805980998E+03  0.20049295758E+04  0.19368419237E+04 0.  0.
        1    1    3    3  502    0 -0.43416272306E+03 -0.86214443899E+03 -0.17852143913E+03  0.98166196220E+03  0.50400001928E-02 0. -1.
       -1    1    3    3    0  502  0.43416272306E+03  0.86214443899E+03 -0.33953837085E+03  0.10232676136E+04  0.50400001928E-02 0.  1.
</event>
<event>
 5   0  0.1122711E-04  0.1715585E+04  0.7818609E-02  0.8752525E-01
        1   -1    0    0  501    0  0.00000000000E+00  0.00000000000E+00  0.20176864626E+04  0.20176864626E+04  0.50400001928E-02 0. -1.
       -1   -1    0    0    0  501  0.00000000000E+00  0.00000000000E+00 -0.36467919899E+03  0.36467919903E+03  0.50400001928E-02 0.  1.
    10030    2    1    2    0    0  0.00000000000E+00  0.00000000000E+00  0.16530072636E+04  0.23823656616E+04  0.17155853614E+04 0.  0.
        1    1    3    3  502    0  0.54040655706E+03 -0.47567512173E+03  0.17887218186E+03  0.74182297472E+03  0.50400001928E-02 0.  1.
       -1    1    3    3    0  502 -0.54040655706E+03  0.47567512173E+03  0.14741350818E+04  0.16405426869E+04  0.50400001928E-02 0. -1.
</event>
<event>
 5   0  0.2448804E-04  0.2135071E+04  0.7818609E-02  0.8545950E-01
        2   -1    0    0  501    0  0.00000000000E+00  0.00000000000E+00  0.16848180338E+04  0.16848180338E+04  0.25500000920E-02 0. -1.
       -2   -1    0    0    0  501  0.00000000000E+00  0.00000000000E+00 -0.67641264335E+03  0.67641264336E+03  0.25500000920E-02 0.  1.
    10030    2    1    2    0    0  0.00000000000E+00  0.00000000000E+00  0.10084053905E+04  0.23612306772E+04  0.21350711649E+04 0.  0.
        2    1    3    3  502    0  0.60006106162E+03 -0.91372673316E+02 -0.46700559590E+03  0.76584363267E+03  0.25500000920E-02 0.  1.
       -2    1    3    3    0  502 -0.60006106162E+03  0.91372673316E+02  0.14754109864E+04  0.15953870445E+04  0.25500000920E-02 0. -1.
</event>
<event>
 5   0  0.1186038E-04  0.2200443E+04  0.7818609E-02  0.8518244E-01
       -1   -1    0    0    0  501  0.00000000000E+00  0.00000000000E+00  0.13501957389E+04  0.13501957389E+04  0.50400001928E-02 0. -1.
        1   -1    0    0  501    0  0.00000000000E+00  0.00000000000E+00 -0.89652714587E+03  0.89652714588E+03  0.50400001928E-02 0.  1.
    10030    2    1    2    0    0  0.00000000000E+00  0.00000000000E+00  0.45366859306E+03  0.22467228848E+04  0.22004428029E+04 0.  0.
        4    1    3    3  502    0 -0.80980609379E+03  0.73862107381E+03  0.12922811190E+03  0.11036523538E+04  0.12699999809E+01 0.  1.
       -4    1    3    3    0  502  0.80980609379E+03 -0.73862107381E+03  0.32444048116E+03  0.11430705310E+04  0.12699999809E+01 0. -1.
</event>
<event>
 5   0  0.1042395E-04  0.2138262E+04  0.7818609E-02  0.8544573E-01
       -1   -1    0    0    0  501  0.00000000000E+00  0.00000000000E+00  0.63998573187E+03  0.63998573189E+03  0.50400001928E-02 0.  1.
        1   -1    0    0  501    0  0.00000000000E+00  0.00000000000E+00 -0.17860414620E+04  0.17860414620E+04  0.50400001928E-02 0. -1.
    10030    2    1    2    0    0  0.00000000000E+00  0.00000000000E+00 -0.11460557301E+04  0.24260271939E+04  0.21382619598E+04 0.  0.
        3    1    3    3  502    0 -0.78903960794E+03  0.72064968520E+03 -0.61102475190E+03  0.12309633339E+04  0.10100000352E+00 0.  1.
       -3    1    3    3    0  502  0.78903960794E+03 -0.72064968520E+03 -0.53503097822E+03  0.11950638600E+04  0.10100000352E+00 0. -1.
</event>
<event>
 5   0  0.2579241E-04  0.2079103E+04  0.7818609E-02  0.8570505E-01
        2   -1    0    0  501    0  0.00000000000E+00  0.00000000000E+00  0.68372544731E+03  0.68372544731E+03  0.25500000920E-02 0. -1.
       -2   -1    0    0    0  501  0.00000000000E+00  0.00000000000E+00 -0.15805570363E+04  0.15805570363E+04  0.25500000920E-02 0.  1.
    10030    2    1    2    0    0  0.00000000000E+00  0.00000000000E+00 -0.89683158899E+03  0.22642824836E+04  0.20791027552E+04 0.  0.
        5    1    3    3  502    0 -0.60958131508E+03 -0.24456179136E+03 -0.13259397929E+04  0.14797088477E+04  0.46999998093E+01 0.  1.
       -5    1    3    3    0  502  0.60958131508E+03  0.24456179136E+03  0.42910820393E+03  0.78457363591E+03  0.46999998093E+01 0. -1.
</event>
<event>
 5   0  0.2448804E-04  0.2033986E+04  0.7818609E-02  0.8590894E-01
       -2   -1    0    0    0  501  0.00000000000E+00  0.00000000000E+00  0.97031641282E+03  0.97031641283E+03  0.25500000920E-02 0. -1.
        2   -1    0    0  501    0  0.00000000000E+00  0.00000000000E+00 -0.10659151532E+04  0.10659151532E+04  0.25500000920E-02 0.  1.
    10030    2    1    2    0    0  0.00000000000E+00  0.00000000000E+00 -0.95598740341E+02  0.20362315660E+04  0.20339862023E+04 0.  0.
        2    1    3    3  502    0  0.10814482946E+03  0.48429572774E+03 -0.93649399531E+03  0.10598389780E+04  0.25500000920E-02 0.  1.
       -2    1    3    3    0  502 -0.10814482946E+03 -0.48429572774E+03  0.84089525497E+03  0.97639258799E+03  0.25500000920E-02 0. -1.
</event>
<event>
 5   0  0.8698750E-05  0.1855493E+04  0.7818609E-02  0.8677333E-01
       -3   -1    0    0    0  501  0.00000000000E+00  0.00000000000E+00  0.11358148806E+04  0.11358148851E+04  0.10100000352E+00 0.  1.
        3   -1    0    0  501    0  0.00000000000E+00  0.00000000000E+00 -0.75779390438E+03  0.75779391112E+03  0.10100000352E+00 0. -1.
    10030    2    1    2    0    0  0.00000000000E+00  0.00000000000E+00  0.37802097624E+03  0.18936087962E+04  0.18554930382E+04 0.  0.
        4    1    3    3  502    0  0.60382868442E+03  0.56036474739E+03  0.62450136541E+03  0.10337414080E+04  0.12699999809E+01 0.  1.
       -4    1    3    3    0  502 -0.60382868442E+03 -0.56036474739E+03 -0.24648038918E+03  0.85986738826E+03  0.12699999809E+01 0. -1.
</event>
<event>
 5   0  0.1130848E-04  0.2127663E+04  0.7818609E-02  0.8549154E-01
        1   -1    0    0  501    0  0.00000000000E+00  0.00000000000E+00  0.10825453591E+04  0.10825453591E+04  0.50400001928E-02 0.  1.
       -1   -1    0    0    0  501  0.00000000000E+00  0.00000000000E+00 -0.10454416294E+04  0.10454416294E+04  0.50400001928E-02 0. -1.
    10030    2    1    2    0    0  0.00000000000E+00  0.00000000000E+00  0.37103729756E+02  0.21279869885E+04  0.21276634923E+04 0.  0.
        5    1    3    3  502    0  0.88825595043E+03 -0.88739929688E+02  0.59729560276E+03  0.10740845105E+04  0.46999998093E+01 0.  1.
       -5    1    3    3    0  502 -0.88825595043E+03  0.88739929688E+02 -0.56019187300E+03  0.10539024780E+04  0.46999998093E+01 0. -1.
</event>
<event>
 5   0  0.1156733E-04  0.1618528E+04  0.7818609E-02  0.8809246E-01
       -1   -1    0    0    0  501  0.00000000000E+00  0.00000000000E+00  0.55780256566E+03  0.55780256568E+03  0.50400001928E-02 0.  1.
        1   -1    0    0  501    0  0.00000000000E+00  0.00000000000E+00 -0.11740866007E+04  0.11740866007E+04  0.50400001928E-02 0. -1.
    10030    2    1    2    0    0  0.00000000000E+00  0.00000000000E+00 -0.61628403501E+03  0.17318891664E+04  0.16185283664E+04 0.  0.
        2    1    3    3  502    0  0.35565980168E+03  0.71028838132E+03 -0.47358353642E+03  0.92481611423E+03  0.25500000920E-02 0. -1.
       -2    1    3    3    0  502 -0.35565980168E+03 -0.71028838132E+03 -0.14270049859E+03  0.80707305213E+03  0.25500000920E-02 0.  1.
</event>
<event>
 5   0  0.1122711E-04  0.1467300E+04  0.7818609E-02  0.8906494E-01
       -1   -1    0    0    0  501  0.00000000000E+00  0.00000000000E+00  0.43461535892E+03  0.43461535895E+03  0.50400001928E-02 0.  1.
        1   -1    0    0  501    0  0.00000000000E+00  0.00000000000E+00 -0.12384330885E+04  0.12384330885E+04  0.50400001928E-02 0. -1.
    10030    2    1    2    0    0  0.00000000000E+00  0.00000000000E+00 -0.80381772955E+03  0.16730484474E+04  0.14672996167E+04 0.  0.
        1    1    3    3  502    0 -0.43025901964E+03  0.18806096198E+03 -0.10446469861E+04  0.11453283699E+04  0.50400001928E-02 0. -1.
       -1    1    3    3    0  502  0.43025901964E+03 -0.18806096198E+03  0.24082925652E+03  0.52772007753E+03  0.50400001928E-02 0.  1.
</event>
<event>
 5   0  0.2448804E-04  0.2116873E+04  0.7818609E-02  0.8553847E-01
       -2   -1    0    0    0  501  0.00000000000E+00  0.00000000000E+00  0.98845749010E+03  0.98845749011E+03  0.25500000920E-02 0.  1.
        2   -1    0    0  501    0  0.00000000000E+00  0.00000000000E+00 -0.11333696128E+04  0.11333696128E+04  0.25500000920E-02 0. -1.
    10030    2    1    2    0    0  0.00000000000E+00  0.00000000000E+00 -0.14491212272E+03  0.21218271029E+04  0.21168728661E+04 0.  0.
        2    1    3    3  502    0 -0.23878502151E+03 -0.75726776253E+03 -0.77396179759E+03  0.11088235274E+04  0.25500000920E-02 0. -1.
       -2    1    3    3    0  502  0.23878502151E+03  0.75726776253E+03  0.62904967488E+03  0.10130035756E+04  0.25500000920E-02 0.  1.
</event>
<event>
 5   0  0.1122711E-04  0.2232837E+04  0.7818609E-02  0.8504884E-01
        1   -1    0    0  501    0  0.00000000000E+00  0.00000000000E+00  0.16389791837E+04  0.16389791837E+04  0.50400001928E-02 0.  1.
       -1   -1    0    0    0  501  0.00000000000E+00  0.00000000000E+00 -0.76046748558E+03  0.76046748560E+03  0.50400001928E-02 0. -1.
    10030    2    1    2    0    0  0.00000000000E+00  0.00000000000E+00  0.87851169807E+03  0.23994466693E+04  0.22328371000E+04 0.  0.
        1    1    3    3  502    0 -0.61430938070E+03  0.71695974685E+03 -0.20100639381E+03  0.96530350885E+03  0.50400001928E-02 0. -1.
       -1    1    3    3    0  502  0.61430938070E+03 -0.71695974685E+03  0.10795180919E+04  0.14341431604E+04  0.50400001928E-02 0.  1.
</event>
<event>
 5   0  0.8698750E-05  0.2082382E+04  0.7818609E-02  0.8569044E-01
       -4   -1    0    0    0  501  0.00000000000E+00  0.00000000000E+00  0.12894860829E+04  0.12894867083E+04  0.12699999809E+01 0.  1.
        4   -1    0    0  501    0  0.00000000000E+00  0.00000000000E+00 -0.84070451670E+03  0.84070547595E+03  0.12699999809E+01 0. -1.
    10030    2    1    2    0    0  0.00000000000E+00  0.00000000000E+00  0.44878156615E+03  0.21301921842E+04  0.20823817728E+04 0.  0.
        4    1    3    3  502    0 -0.37110441329E+03  0.96512511145E+03  0.99556682622E+02  0.10387964730E+04  0.12699999809E+01 0. -1.
       -4    1    3    3    0  502  0.37110441329E+03 -0.96512511145E+03  0.34922488353E+03  0.10913957112E+04  0.12699999809E+01 0.  1.
</event>
<event>
 5   0  0.1042395E-04  0.1968663E+04  0.7818609E-02  0.8621413E-01
        1   -1    0    0  501    0  0.00000000000E+00  0.00000000000E+00  0.10929625244E+04  0.10929625244E+04  0.50400001928E-02 0. -1.
       -1   -1    0    0    0  501  0.00000000000E+00  0.00000000000E+00 -0.88649771958E+03  0.88649771959E+03  0.50400001928E-02 0.  1.
    10030    2    1    2    0    0  0.00000000000E+00  0.00000000000E+00  0.20646480481E+03  0.19794602440E+04  0.19686632881E+04 0.  0.
        3    1    3    3  502    0  0.61397872400E+03 -0.50593925655E+03  0.68603563532E+03  0.10505185900E+04  0.10100000352E+00 0. -1.
       -3    1    3    3    0  502 -0.61397872400E+03  0.50593925655E+03 -0.47957083050E+03  0.92894165398E+03  0.10100000352E+00 0.  1.
</event>
<event>
 5   0  0.8698750E-05  0.2112183E+04  0.7818609E-02  0.8555896E-01
       -3   -1    0    0    0  501  0.00000000000E+00  0.00000000000E+00  0.53310695823E+03  0.53310696780E+03  0.10100000352E+00 0.  1.
        3   -1    0    0  501    0  0.00000000000E+00  0.00000000000E+00 -0.20921297404E+04  0.20921297429E+04  0.10100000352E+00 0. -1.
    10030    2    1    2    0    0  0.00000000000E+00  0.00000000000E+00 -0.15590227822E+04  0.26252367107E+04  0.21121826985E+04 0.  0.
        2    1    3    3  502    0 -0.83919110373E+03 -0.48629366544E+03 -0.26015414326E+03  0.10041929177E+04  0.25500000920E-02 0.  1.
       -2    1    3    3    0  502  0.83919110373E+03  0.48629366544E+03 -0.12988686389E+04  0.16210437930E+04  0.25500000920E-02 0. -1.
</event>
<event>
 5   0  0.1130848E-04  0.1261645E+04  0.7818609E-02  0.9060546E-01
       -1   -1    0    0    0  501  0.00000000000E+00  0.00000000000E+00  0.28293636805E+03  0.28293636809E+03  0.50400001928E-02 0. -1.
        1   -1    0    0  501    0  0.00000000000E+00  0.00000000000E+00 -0.14064542532E+04  0.14064542532E+04  0.50400001928E-02 0.  1.
    10030    2    1    2    0    0  0.00000000000E+00  0.00000000000E+00 -0.11235178851E+04  0.16893906213E+04  0.12616450503E+04 0.  0.
        5    1    3    3  502    0  0.45230543821E+03  0.18985881303E+03 -0.30701837022E+02  0.49151934968E+03  0.46999998093E+01 0. -1.
       -5    1    3    3    0  502 -0.45230543821E+03 -0.18985881303E+03 -0.10928160481E+04  0.11978712716E+04  0.46999998093E+01 0.  1.
</event>
<event>
 5   0  0.2448804E-04  0.2143001E+04  0.7818609E-02  0.8542534E-01
       -2   -1    0    0    0  501  0.00000000000E+00  0.00000000000E+00  0.88042590944E+03  0.88042590944E+03  0.25500000920E-02 0. -1.
        2   -1    0    0  501    0  0.00000000000E+00  0.00000000000E+00 -0.13040435818E+04  0.13040435819E+04  0.25500000920E-02 0.  1.
    10030    2    1    2    0    0  0.00000000000E+00  0.00000000000E+00 -0.42361767241E+03  0.21844694913E+04  0.21430014060E+04 0.  0.
        2    1    3    3  502    0 -0.10175761982E+04 -0.12835767943E+01 -0.55393843511E+03  0.11585813552E+04  0.25500000920E-02 0.  1.
       -2    1    3    3    0  502  0.10175761982E+04  0.12835767943E+01  0.13032076270E+03  0.10258881361E+04  0.25500000920E-02 0. -1.
</event>
<event>
 5   0  0.8698750E-05  0.2088475E+04  0.7818609E-02  0.8566337E-01
        3   -1    0    0  501    0  0.00000000000E+00  0.00000000000E+00  0.15092391547E+04  0.15092391581E+04  0.10100000352E+00 0. -1.
       -3   -1    0    0    0  501  0.00000000000E+00  0.00000000000E+00 -0.72250409214E+03  0.72250409920E+03  0.10100000352E+00 0.  1.
    10030    2    1    2    0    0  0.00000000000E+00  0.00000000000E+00  0.78673506259E+03  0.22317432573E+04  0.20884745409E+04 0.  0.
        4    1    3    3  502    0 -0.50224117986E+03  0.87493740207E+03  0.68143038486E+03  0.12174196658E+04  0.12699999809E+01 0. -1.
       -4    1    3    3    0  502  0.50224117986E+03 -0.87493740207E+03  0.10530467773E+03  0.10143235915E+04  0.12699999809E+01 0.  1.
</event>
<event>
 5   0  0.1122711E-04  0.2128664E+04  0.7818609E-02  0.8548721E-01
        1   -1    0    0  501    0  0.00000000000E+00  0.00000000000E+00  0.83507926719E+03  0.83507926720E+03  0.50400001928E-02 0. -1.
       -1   -1    0    0    0  501  0.00000000000E+00  0.00000000000E+00 -0.13565210733E+04  0.13565210733E+04  0.50400001928E-02 0.  1.
    10030    2    1    2    0    0  0.00000000000E+00  0.00000000000E+00 -0.52144180609E+03  0.21916003405E+04  0.21286640165E+04 0.  0.
        1    1    3    3  502    0 -0.44668153986E+03 -0.10659488580E+03  0.72783187095E+03  0.86059636307E+03  0.50400001928E-02 0. -1.
       -1    1    3    3    0  502  0.44668153986E+03  0.10659488580E+03 -0.12492736770E+04  0.13310039774E+04  0.50400001928E-02 0.  1.
</event>
<event>
 5   0  0.2448804E-04  0.2146050E+04  0.7818609E-02  0.8541225E-01
        2   -1    0    0  501    0  0.00000000000E+00  0.00000000000E+00  0.14844509431E+04  0.14844509431E+04  0.25500000920E-02 0.  1.
       -2   -1    0    0    0  501  0.00000000000E+00  0.00000000000E+00 -0.77562835720E+03  0.77562835720E+03  0.25500000920E-02 0. -1.
    10030    2    1    2    0    0  0.00000000000E+00  0.00000000000E+00  0.70882258591E+03  0.22600793003E+04  0.21460496232E+04 0.  0.
        2    1    3    3  502    0  0.15796838790E+02  0.76812181654E+03  0.11432939415E+04  0.13774547912E+04  0.25500000920E-02 0.  1.
       -2    1    3    3    0  502 -0.15796838790E+02 -0.76812181654E+03 -0.43447135562E+03  0.88262450907E+03  0.25500000920E-02 0. -1.
</event>
<event>
 5   0  0.1156733E-04  0.2043213E+04  0.7818609E-02  0.8586680E-01
       -1   -1    0    0    0  501  0.00000000000E+00  0.00000000000E+00  0.88568587076E+03  0.88568587077E+03  0.50400001928E-02 0. -1.
        1   -1    0    0  501    0  0.00000000000E+00  0.00000000000E+00 -0.11783857200E+04  0.11783857200E+04  0.50400001928E-02 0.  1.
    10030    2    1    2    0    0  0.00000000000E+00  0.00000000000E+00 -0.29269984922E+03  0.20640715908E+04  0.20432127471E+04 0.  0.
        2    1    3    3  502    0  0.76760905460E+03  0.16954515668E+03 -0.80547567300E+03  0.11255044561E+04  0.25500000920E-02 0.  1.
       -2    1    3    3    0  502 -0.76760905460E+03 -0.16954515668E+03  0.51277582377E+03  0.93856713469E+03  0.25500000920E-02 0. -1.
</event>
<event>
 5   0  0.1156733E-04  0.2125686E+04  0.7818609E-02  0.8550012E-01
       -1   -1    0    0    0  501  0.00000000000E+00  0.00000000000E+00  0.81874497284E+03  0.81874497286E+03  0.50400001928E-02 0.  1.
        1   -1    0    0  501    0  0.00000000000E+00  0.00000000000E+00 -0.13797151235E+04  0.13797151235E+04  0.50400001928E-02 0. -1.
    10030    2    1    2    0    0  0.00000000000E+00  0.00000000000E+00 -0.56097015070E+03  0.21984600964E+04  0.21256856036E+04 0.  0.
        2    1    3    3  502    0  0.56426405157E+03  0.71158429488E+03  0.29058606752E+03  0.95351265920E+03  0.25500000920E-02 0.  1.
       -2    1    3    3    0  502 -0.56426405157E+03 -0.71158429488E+03 -0.85155621822E+03  0.12449474372E+04  0.25500000920E-02 0. -1.
</event>
<event>
 5   0  0.1186038E-04  0.2223548E+04  0.7818609E-02  0.8508690E-01
        1   -1    0    0  501    0  0.00000000000E+00  0.00000000000E+00  0.12833656210E+04  0.12833656210E+04  0.50400001928E-02 0. -1.
       -1   -1    0    0    0  501  0.00000000000E+00  0.00000000000E+00 -0.96312483156E+03  0.96312483157E+03  0.50400001928E-02 0.  1.
    10030    2    1    2    0    0  0.00000000000E+00  0.00000000000E+00  0.32024078941E+03  0.22464904526E+04  0.22235478835E+04 0.  0.
        4    1    3    3  502    0  0.10111208243E+04  0.26201795936E+03 -0.22462503271E+03  0.10683991533E+04  0.12699999809E+01 0.  1.
       -4    1    3    3    0  502 -0.10111208243E+04 -0.26201795936E+03  0.54486582212E+03  0.11780912993E+04  0.12699999809E+01 0. -1.
</event>
<event>
 5   0  0.1186038E-04  0.1407728E+04  0.7818609E-02  0.8948244E-01
       -1   -1    0    0    0  501  0.00000000000E+00  0.00000000000E+00  0.58851046778E+03  0.58851046780E+03  0.50400001928E-02 0.  1.
        1   -1    0    0  501    0  0.00000000000E+00  0.00000000000E+00 -0.84182785181E+03  0.84182785183E+03  0.50400001928E-02 0. -1.
    10030    2    1    2    0    0  0.00000000000E+00  0.00000000000E+00 -0.25331738404E+03  0.14303383196E+04  0.14077279608E+04 0.  0.
        4    1    3    3  502    0  0.13098932661E+03 -0.28947789961E+03  0.51149531902E+03  0.60215009120E+03  0.12699999809E+01 0.  1.
       -4    1    3    3    0  502 -0.13098932661E+03  0.28947789961E+03 -0.76481270306E+03  0.82818822843E+03  0.12699999809E+01 0. -1.
</event>
<event>
 5   0  0.1130848E-04  0.2016152E+04  0.7818609E-02  0.8599106E-01
        1   -1    0    0  501    0  0.00000000000E+00  0.00000000000E+00  0.20556060201E+04  0.20556060201E+04  0.50400001928E-02 0.  1.
       -1   -1    0    0    0  501  0.00000000000E+00  0.00000000000E+00 -0.49436383049E+03  0.49436383051E+03  0.50400001928E-02 0. -1.
    10030    2    1    2    0    0  0.00000000000E+00  0.00000000000E+00  0.15612421896E+04  0.25499698507E+04  0.20161520440E+04 0.  0.
        5    1    3    3  502    0 -0.84932791647E+03 -0.52659133660E+03  0.94812004235E+03  0.13775376765E+04  0.46999998093E+01 0. -1.
       -5    1    3    3    0  502  0.84932791647E+03  0.52659133660E+03  0.61312214730E+03  0.11724321742E+04  0.46999998093E+01 0.  1.
</event>
<event>
 5   0  0.1042395E-04  0.2066629E+04  0.7818609E-02  0.8576088E-01
        1   -1    0    0  501    0  0.00000000000E+00  0.00000000000E+00  0.10761217454E+04  0.10761217454E+04  0.50400001928E-02 0. -1.
       -1   -1    0    0    0  501  0.00000000000E+00  0.00000000000E+00 -0.99221013368E+03  0.99221013370E+03  0.50400001928E-02 0.  1.
    10030    2    1    2    0    0  0.00000000000E+00  0.00000000000E+00  0.83911611729E+02  0.20683318791E+04  0.20666290435E+04 0.  0.
        3    1    3    3  502    0  0.12570673724E+03 -0.60773303292E+03  0.86883101244E+03  0.10677120218E+04  0.10100000352E+00 0. -1.
       -3    1    3    3    0  502 -0.12570673724E+03  0.60773303292E+03 -0.78491940071E+03  0.10006198573E+04  0.10100000352E+00 0.  1.
</event>
<event>
 5   0  0.2579241E-04  0.2099386E+04  0.7818609E-02  0.8561514E-01
       -2   -1    0    0    0  501  0.00000000000E+00  0.00000000000E+00  0.18420774927E+04  0.18420774927E+04  0.25500000920E-02 0. -1.
        2   -1    0    0  501    0  0.00000000000E+00  0.00000000000E+00 -0.59815906863E+03  0.59815906863E+03  0.25500000920E-02 0.  1.
    10030    2    1    2    0    0  0.00000000000E+00  0.00000000000E+00  0.12439184241E+04  0.24402365614E+04  0.20993859649E+04 0.  0.
        5    1    3    3  502    0 -0.40871437272E+03 -0.48069707267E+03  0.15970350621E+04  0.17171663268E+04  0.46999998093E+01 0. -1.
       -5    1    3    3    0  502  0.40871437272E+03  0.48069707267E+03 -0.35311663801E+03  0.72307023461E+03  0.46999998093E+01 0.  1.
</event>
<event>
 5   0  0.1130848E-04  0.2072391E+04  0.7818609E-02  0.8573504E-01
       -1   -1    0    0    0  501  0.00000000000E+00  0.00000000000E+00  0.54194463065E+03  0.54194463068E+03  0.50400001928E-02 0.  1.
        1   -1    0    0  501    0  0.00000000000E+00  0.00000000000E+00 -0.19812004732E+04  0.19812004733E+04  0.50400001928E-02 0. -1.
    10030    2    1    2    0    0  0.00000000000E+00  0.00000000000E+00 -0.14392558426E+04  0.25231451039E+04  0.20723908500E+04 0.  0.
        5    1    3    3  502    0 -0.64588630225E+01  0.37954841387E+03  0.45422580380E+03  0.59198132252E+03  0.46999998093E+01 0.  1.
       -5    1    3    3    0  502  0.64588630225E+01 -0.37954841387E+03 -0.18934816464E+04  0.19311637814E+04  0.46999998093E+01 0. -1.
</event>
<event>
 5   0  0.2430898E-04  0.2106928E+04  0.7818609E-02  0.8558198E-01
        2   -1    0    0  501    0  0.00000000000E+00  0.00000000000E+00  0.10098360779E+04  0.10098360779E+04  0.25500000920E-02 0.  1.
       -2   -1    0    0    0  501  0.00000000000E+00  0.00000000000E+00 -0.10989762756E+04  0.10989762756E+04  0.25500000920E-02 0. -1.
    10030    2    1    2    0    0  0.00000000000E+00  0.00000000000E+00 -0.89140197771E+02  0.21088123535E+04  0.21069275183E+04 0.  0.
        1    1    3    3  502    0  0.25831725666E+03 -0.26159199522E+03 -0.10326856175E+04  0.10961741475E+04  0.50400001928E-02 0. -1.
       -1    1    3    3    0  502 -0.25831725666E+03  0.26159199522E+03  0.94354541974E+03  0.10126382060E+04  0.50400001928E-02 0.  1.
</event>
<event>
 5   0  0.1042395E-04  0.2007408E+04  0.7818609E-02  0.8603165E-01
       -1   -1    0    0    0  501  0.00000000000E+00  0.00000000000E+00  0.13401778976E+04  0.13401778976E+04  0.50400001928E-02 0. -1.
        1   -1    0    0  501    0  0.00000000000E+00  0.00000000000E+00 -0.75170736801E+03  0.75170736802E+03  0.50400001928E-02 0.  1.
    10030    2    1    2    0    0  0.00000000000E+00  0.00000000000E+00  0.58847052955E+03  0.20918852656E+04  0.20074078809E+04 0.  0.
        3    1    3    3  502    0  0.98196874960E+03  0.20564394946E+03  0.32496400096E+03  0.10545869671E+04  0.10100000352E+00 0. -1.
       -3    1    3    3    0  502 -0.98196874960E+03 -0.20564394946E+03  0.26350652858E+03  0.10372982984E+04  0.10100000352E+00 0.  1.
</event>
<event>
 5   0  0.1186038E-04  0.1970893E+04  0.7818609E-02  0.8620351E-01
       -1   -1    0    0    0  501  0.00000000000E+00  0.00000000000E+00  0.69707170181E+03  0.69707170183E+03  0.50400001928E-02 0.  1.
        1   -1    0    0  501    0  0.00000000000E+00  0.00000000000E+00 -0.13931210048E+04  0.13931210049E+04  0.50400001928E-02 0. -1.
    10030    2    1    2    0    0  0.00000000000E+00  0.00000000000E+00 -0.69604930303E+03  0.20901927067E+04  0.19708934316E+04 0.  0.
        4    1    3    3  502    0 -0.66629292280E+03  0.13305536032E+03  0.40893985450E+03  0.79302169288E+03  0.12699999809E+01 0.  1.
       -4    1    3    3    0  502  0.66629292280E+03 -0.13305536032E+03 -0.11049891575E+04  0.12971710138E+04  0.12699999809E+01 0. -1.
</event>
<event>
 5   0  0.2430898E-04  0.2056329E+04  0.7818609E-02  0.8580729E-01
       -2   -1    0    0    0  501  0.00000000000E+00  0.00000000000E+00  0.37609936444E+03  0.37609936445E+03  0.25500000920E-02 0. -1.
        2   -1    0    0  501    0  0.00000000000E+00  0.00000000000E+00 -0.28107515732E+04  0.28107515732E+04  0.25500000920E-02 0.  1.
    10030    2    1    2    0    0  0.00000000000E+00  0.00000000000E+00 -0.24346522088E+04  0.31868509377E+04  0.20563286511E+04 0.  0.
        1    1    3    3  502    0  0.22978193332E+03 -0.14146313059E+03  0.32024512546E+03  0.41877021695E+03  0.50400001928E-02 0. -1.
       -1    1    3    3    0  502 -0.22978193332E+03  0.14146313059E+03 -0.27548973342E+04  0.27680807207E+04  0.50400001928E-02 0.  1.
</event>
<event>
 5   0  0.2512839E-04  0.1511965E+04  0.7818609E-02  0.8876535E-01
       -2   -1    0    0    0  501  0.00000000000E+00  0.00000000000E+00  0.92860971840E+03  0.92860971840E+03  0.25500000920E-02 0.  1.
        2   -1    0    0  501    0  0.00000000000E+00  0.00000000000E+00 -0.61544607630E+03  0.61544607631E+03  0.25500000920E-02 0. -1.
    10030    2    1    2    0    0  0.00000000000E+00  0.00000000000E+00  0.31316364210E+03  0.15440557947E+04  0.15119645599E+04 0.  0.
        3    1    3    3  502    0 -0.26569426037E+03  0.63604183507E+03 -0.16043661155E+03  0.70773057902E+03  0.10100000352E+00 0. -1.
       -3    1    3    3    0  502  0.26569426037E+03 -0.63604183507E+03  0.47360025365E+03  0.83632521570E+03  0.10100000352E+00 0.  1.
</event>
<event>
 5   0  0.2430898E-04  0.2112295E+04  0.7818609E-02  0.8555847E-01
        2   -1    0    0  501    0  0.00000000000E+00  0.00000000000E+00  0.21615419476E+04  0.21615419476E+04  0.25500000920E-02 0.  1.
       -2   -1    0    0    0  501  0.00000000000E+00  0.00000000000E+00 -0.51604234368E+03  0.51604234369E+03  0.25500000920E-02 0. -1.
    10030    2    1    2    0    0  0.00000000000E+00  0.00000000000E+00  0.16454996040E+04  0.26775842913E+04  0.21122946505E+04 0.  0.
        1    1    3    3  502    0  0.29060824631E+03 -0.10150534276E+04  0.85532930116E+03  0.13588137574E+04  0.50400001928E-02 0.  1.
       -1    1    3    3    0  502 -0.29060824631E+03  0.10150534276E+04  0.79017030280E+03  0.13187705340E+04  0.50400001928E-02 0. -1.
</event>
<event>
 5   0  0.2512839E-04  0.2021846E+04  0.7818609E-02  0.8596475E-01
       -2   -1    0    0    0  501  0.00000000000E+00  0.00000000000E+00  0.61318630966E+03  0.61318630966E+03  0.25500000920E-02 0.  1.
        2   -1    0    0  501    0  0.00000000000E+00  0.00000000000E+00 -0.16666468664E+04  0.16666468664E+04  0.25500000920E-02 0. -1.
    10030    2    1    2    0    0  0.00000000000E+00  0.00000000000E+00 -0.10534605568E+04  0.22798331761E+04  0.20218457325E+04 0.  0.
        3    1    3    3  502    0  0.27147368614E+03  0.73396004868E+03 -0.12483675768E+04  0.14733692451E+04  0.10100000352E+00 0. -1.
       -3    1    3    3    0  502 -0.27147368614E+03 -0.73396004868E+03  0.19490702006E+03  0.80646393099E+03  0.10100000352E+00 0.  1.
</event>
<event>
 5   0  0.2448804E-04  0.2106213E+04  0.7818609E-02  0.8558511E-01
       -2   -1    0    0    0  501  0.00000000000E+00  0.00000000000E+00  0.49292595897E+03  0.49292595898E+03  0.25500000920E-02 0. -1.
        2   -1    0    0  501    0  0.00000000000E+00  0.00000000000E+00 -0.22498986688E+04  0.22498986688E+04  0.25500000920E-02 0.  1.
    10030    2    1    2    0    0  0.00000000000E+00  0.00000000000E+00 -0.17569727098E+04  0.27428246278E+04  0.21062131506E+04 0.  0.
        2    1    3    3  502    0 -0.10373997381E+03 -0.10404334238E+04 -0.71495224000E+03  0.12666571742E+04  0.25500000920E-02 0.  1.
       -2    1    3    3    0  502  0.10373997381E+03  0.10404334238E+04 -0.10420204698E+04  0.14761674536E+04  0.25500000920E-02 0. -1.
</event>
<event>
 5   0  0.2430898E-04  0.1264194E+04  0.7818609E-02  0.9058452E-01
        2   -1    0    0  501    0  0.00000000000E+00  0.00000000000E+00  0.51364729850E+03  0.51364729850E+03  0.25500000920E-02 0.  1.
       -2   -1    0    0    0  501  0.00000000000E+00  0.00000000000E+00 -0.77786182173E+03  0.77786182173E+03  0.25500000920E-02 0. -1.
    10030    2    1    2    0    0  0.00000000000E+00  0.00000000000E+00 -0.26421452323E+03  0.12915091202E+04  0.12641940094E+04 0.  0.
        1    1    3    3  502    0  0.38160464315E+03  0.18764547746E+03  0.34566588633E+03  0.54801262201E+03  0.50400001928E-02 0.  1.
       -1    1    3    3    0  502 -0.38160464315E+03 -0.18764547746E+03 -0.60988040956E+03  0.74349649823E+03  0.50400001928E-02 0. -1.
</event>
<event>
 5   0  0.1130848E-04  0.2112543E+04  0.7818609E-02  0.8555738E-01
        1   -1    0    0  501    0  0.00000000000E+00  0.00000000000E+00  0.96202969720E+03  0.96202969722E+03  0.50400001928E-02 0. -1.
       -1   -1    0    0    0  501  0.00000000000E+00  0.00000000000E+00 -0.11597457854E+04  0.11597457854E+04  0.50400001928E-02 0.  1.
    10030    2    1    2    0    0  0.00000000000E+00  0.00000000000E+00 -0.19771608821E+03  0.21217754826E+04  0.21125433835E+04 0.  0.
        5    1    3    3  502    0 -0.41831397735E+02  0.60052363235E+03  0.77286886893E+03  0.97965650991E+03  0.46999998093E+01 0. -1.
       -5    1    3    3    0  502  0.41831397735E+02 -0.60052363235E+03 -0.97058495715E+03  0.11421189727E+04  0.46999998093E+01 0.  1.
</event>
<event>
 5   0  0.1130848E-04  0.2090450E+04  0.7818609E-02  0.8565462E-01
       -1   -1    0    0    0  501  0.00000000000E+00  0.00000000000E+00  0.49447239993E+03  0.49447239996E+03  0.50400001928E-02 0.  1.
        1   -1    0    0  501    0  0.00000000000E+00  0.00000000000E+00 -0.22094157059E+04  0.22094157060E+04  0.50400001928E-02 0. -1.
    10030    2    1    2    0    0  0.00000000000E+00  0.00000000000E+00 -0.17149433060E+04  0.27038881059E+04  0.20904497952E+04 0.  0.
        5    1    3    3  502    0  0.31730433756E+03 -0.62019928104E+03  0.15037569597E+03  0.71271602394E+03  0.46999998093E+01 0.  1.
       -5    1    3    3    0  502 -0.31730433756E+03  0.62019928104E+03 -0.18653190020E+04  0.19911720820E+04  0.46999998093E+01 0. -1.
</event>
<event>
 5   0  0.2448804E-04  0.2190726E+04  0.7818609E-02  0.8522298E-01
        2   -1    0    0  501    0  0.00000000000E+00  0.00000000000E+00  0.11992446715E+04  0.11992446715E+04  0.25500000920E-02 0. -1.
       -2   -1    0    0    0  501  0.00000000000E+00  0.00000000000E+00 -0.10004796023E+04  0.10004796023E+04  0.25500000920E-02 0.  1.
    10030    2    1    2    0    0  0.00000000000E+00  0.00000000000E+00  0.19876506925E+03  0.21997242738E+04  0.21907257537E+04 0.  0.
        2    1    3    3  502    0  0.39830552082E+03  0.82615624223E+03  0.70070666540E+03  0.11541972342E+04  0.25500000920E-02 0. -1.
       -2    1    3    3    0  502 -0.39830552082E+03 -0.82615624223E+03 -0.50194159615E+03  0.10455270396E+04  0.25500000920E-02 0.  1.
</event>
<event>
 5   0  0.1042395E-04  0.2089841E+04  0.7818609E-02  0.8565732E-01
        1   -1    0    0  501    0  0.00000000000E+00  0.00000000000E+00  0.43986816206E+03  0.43986816208E+03  0.50400001928E-02 0. -1.
       -1   -1    0    0    0  501  0.00000000000E+00  0.00000000000E+00 -0.24822415902E+04  0.24822415902E+04  0.50400001928E-02 0.  1.
    10030    2    1    2    0    0  0.00000000000E+00  0.00000000000E+00 -0.20423734281E+04  0.29221097522E+04  0.20898411864E+04 0.  0.
        3    1    3    3  502    0 -0.42321152128E+03 -0.20380051700E+02 -0.23567380122E+04  0.23945223754E+04  0.10100000352E+00 0.  1.
       -3    1    3    3    0  502  0.42321152128E+03  0.20380051700E+02  0.31436458407E+03  0.52758737681E+03  0.10100000352E+00 0. -1.
</event>
<event>
 5   0  0.1130848E-04  0.1417527E+04  0.7818609E-02  0.8941229E-01
        1   -1    0    0  501    0  0.00000000000E+00  0.00000000000E+00  0.86292487858E+03  0.86292487860E+03  0.50400001928E-02 0. -1.
       -1   -1    0    0    0  501  0.00000000000E+00  0.00000000000E+00 -0.58214287399E+03  0.58214287401E+03  0.50400001928E-02 0.  1.
    10030    2    1    2    0    0  0.00000000000E+00  0.00000000000E+00  0.28078200459E+03  0.14450677526E+04  0.14175268165E+04 0.  0.
        5    1    3    3  502    0  0.18096284580E+03 -0.62350325934E+03  0.43020229838E+03  0.77884528213E+03  0.46999998093E+01 0. -1.
       -5    1    3    3    0  502 -0.18096284580E+03  0.62350325934E+03 -0.14942029379E+03  0.66622247047E+03  0.46999998093E+01 0.  1.
</event>
<event>
 5   0  0.8698750E-05  0.2072672E+04  0.7818609E-02  0.8573378E-01
        4   -1    0    0  501    0  0.00000000000E+00  0.00000000000E+00  0.15150238542E+04  0.15150243865E+04  0.12699999809E+01 0.  1.
       -4   -1    0    0    0  501  0.00000000000E+00  0.00000000000E+00 -0.70889363738E+03  0.70889477499E+03  0.12699999809E+01 0. -1.
    10030    2    1    2    0    0  0.00000000000E+00  0.00000000000E+00  0.80613021684E+03  0.22239191615E+04  0.20726723114E+04 0.  0.
        5    1    3    3  502    0  0.17593982434E+02  0.55890721412E+03 -0.53311976787E+03  0.77260960330E+03  0.46999998093E+01 0. -1.
       -5    1    3    3    0  502 -0.17593982434E+02 -0.55890721412E+03  0.13392499847E+04  0.14513095582E+04  0.46999998093E+01 0.  1.
</event>
<event>
 5   0  0.2512839E-04  0.2075738E+04  0.7818609E-02  0.8572007E-01
        2   -1    0    0  501    0  0.00000000000E+00  0.00000000000E+00  0.15494342392E+04  0.15494342392E+04  0.25500000920E-02 0. -1.
       -2   -1    0    0    0  501  0.00000000000E+00  0.00000000000E+00 -0.69520380259E+03  0.69520380259E+03  0.25500000920E-02 0.  1.
    10030    2    1    2    0    0  0.00000000000E+00  0.00000000000E+00  0.85423043665E+03  0.22446380418E+04  0.20757384951E+04 0.  0.
        3    1    3    3  502    0 -0.79519718784E+03 -0.34439608335E+03  0.10447511056E+04  0.13573695564E+04  0.10100000352E+00 0. -1.
       -3    1    3    3    0  502  0.79519718784E+03  0.34439608335E+03 -0.19052066895E+03  0.88726848544E+03  0.10100000352E+00 0.  1.
</event>
<event>
 5   0  0.1130848E-04  0.2108129E+04  0.7818609E-02  0.8557671E-01
       -1   -1    0    0    0  501  0.00000000000E+00  0.00000000000E+00  0.95364416473E+03  0.95364416474E+03  0.50400001928E-02 0. -1.
        1   -1    0    0  501    0  0.00000000000E+00  0.00000000000E+00 -0.11650588039E+04  0.11650588039E+04  0.50400001928E-02 0.  1.
    10030    2    1    2    0    0  0.00000000000E+00  0.00000000000E+00 -0.21141463915E+03  0.21187029686E+04  0.21081285823E+04 0.  0.
        5    1    3    3  502    0  0.10212041666E+04 -0.24466909770E+03 -0.19731563158E+03  0.10684926138E+04  0.46999998093E+01 0.  1.
       -5    1    3    3    0  502 -0.10212041666E+04  0.24466909770E+03 -0.14099007570E+02  0.10502103548E+04  0.46999998093E+01 0. -1.
</event>
<event>
 5   0  0.2448804E-04  0.2045749E+04  0.7818609E-02  0.8585525E-01
       -2   -1    0    0    0  501  0.00000000000E+00  0.00000000000E+00  0.12567816720E+04  0.12567816720E+04  0.25500000920E-02 0. -1.
        2   -1    0    0  501    0  0.00000000000E+00  0.00000000000E+00 -0.83250157499E+03  0.83250157499E+03  0.25500000920E-02 0.  1.
    10030    2    1    2    0    0  0.00000000000E+00  0.00000000000E+00  0.42428009698E+03  0.20892832470E+04  0.20457494679E+04 0.  0.
        2    1    3    3  502    0 -0.97542564514E+03  0.11546283273E+03 -0.79391808350E+02  0.98543894492E+03  0.25500000920E-02 0.  1.
       -2    1    3    3    0  502  0.97542564514E+03 -0.11546283273E+03  0.50367190533E+03  0.11038443020E+04  0.25500000920E-02 0. -1.
</event>
<event>
 5   0  0.1122711E-04  0.2071311E+04  0.7818609E-02  0.8573987E-01
       -1   -1    0    0    0  501  0.00000000000E+00  0.00000000000E+00  0.46243079049E+03  0.46243079052E+03  0.50400001928E-02 0. -1.
        1   -1    0    0  501    0  0.00000000000E+00  0.00000000000E+00 -0.23194442999E+04  0.23194442999E+04  0.50400001928E-02 0.  1.
    10030    2    1    2    0    0  0.00000000000E+00  0.00000000000E+00 -0.18570135094E+04  0.27818750904E+04  0.20713111414E+04 0.  0.
        1    1    3    3  502    0 -0.77038999173E+03  0.27962245580E+03 -0.78139510039E+02  0.82328320777E+03  0.50400001928E-02 0. -1.
       -1    1    3    3    0  502  0.77038999173E+03 -0.27962245580E+03 -0.17788739994E+04  0.19585918827E+04  0.50400001928E-02 0.  1.
</event>
<event>
 5   0  0.8698750E-05  0.1133336E+04  0.7818609E-02  0.9173296E-01
        3   -1    0    0  501    0  0.00000000000E+00  0.00000000000E+00  0.34592741016E+03  0.34592742490E+03  0.10100000352E+00 0. -1.
       -3   -1    0    0    0  501  0.00000000000E+00  0.00000000000E+00 -0.92826529477E+03  0.92826530026E+03  0.10100000352E+00 0.  1.
    10030    2    1    2    0    0  0.00000000000E+00  0.00000000000E+00 -0.58233788461E+03  0.12741927252E+04  0.11333356471E+04 0.  0.
        5    1    3    3  502    0 -0.10239980803E+03 -0.25616131416E+03 -0.84764591689E+03  0.89142023197E+03  0.46999998093E+01 0.  1.
       -5    1    3    3    0  502  0.10239980803E+03  0.25616131416E+03  0.26530803228E+03  0.38277249319E+03  0.46999998093E+01 0. -1.
</event>
<event>
 5   0  0.2512839E-04  0.2083748E+04  0.7818609E-02  0.8568436E-01
       -2   -1    0    0    0  501  0.00000000000E+00  0.00000000000E+00  0.12191331096E+04  0.12191331096E+04  0.25500000920E-02 0.  1.
        2   -1    0    0  501    0  0.00000000000E+00  0.00000000000E+00 -0.89038817010E+03  0.89038817010E+03  0.25500000920E-02 0. -1.
    10030    2    1    2    0    0  0.00000000000E+00  0.00000000000E+00  0.32874493953E+03  0.21095212797E+04  0.20837482560E+04 0.  0.
        3    1    3    3  502    0  0.82694101784E+03 -0.29367388497E+03 -0.40420196772E+03  0.96615476949E+03  0.10100000352E+00 0. -1.
       -3    1    3    3    0  502 -0.82694101784E+03  0.29367388497E+03  0.73294690725E+03  0.11433665102E+04  0.10100000352E+00 0.  1.
</event>
<event>
 5   0  0.1156733E-04  0.2105040E+04  0.7818609E-02  0.8559027E-01
        1   -1    0    0  501    0  0.00000000000E+00  0.00000000000E+00  0.83190804701E+03  0.83190804702E+03  0.50400001928E-02 0.  1.
       -1   -1    0    0    0  501  0.00000000000E+00  0.00000000000E+00 -0.13316352791E+04  0.13316352791E+04  0.50400001928E-02 0. -1.
    10030    2    1    2    0    0  0.00000000000E+00  0.00000000000E+00 -0.49972723211E+03  0.21635433262E+04  0.21050397663E+04 0.  0.
        2    1    3    3  502    0  0.95527500296E+03  0.40418171354E+03 -0.43338975491E+03  0.11241618516E+04  0.25500000920E-02 0.  1.
       -2    1    3    3    0  502 -0.95527500296E+03 -0.40418171354E+03 -0.66337477200E+02  0.10393814746E+04  0.25500000920E-02 0. -1.
</event>
<event>
 5   0  0.1042395E-04  0.1330582E+04  0.7818609E-02  0.9005658E-01
        1   -1    0    0  501    0  0.00000000000E+00  0.00000000000E+00  0.92413678067E+03  0.92413678068E+03  0.50400001928E-02 0.  1.
       -1   -1    0    0    0  501  0.00000000000E+00  0.00000000000E+00 -0.47894687605E+03  0.47894687607E+03  0.50400001928E-02 0. -1.
    10030    2    1    2    0    0  0.00000000000E+00  0.00000000000E+00  0.44518990462E+03  0.14030836568E+04  0.13305824652E+04 0.  0.
        3    1    3    3  502    0 -0.13183519855E+03  0.15754022900E+02  0.91002404716E+03  0.91965889624E+03  0.10100000352E+00 0.  1.
       -3    1    3    3    0  502  0.13183519855E+03 -0.15754022900E+02 -0.46483414254E+03  0.48342476052E+03  0.10100000352E+00 0. -1.
</event>
<event>
 5   0  0.1130848E-04  0.1608098E+04  0.7818609E-02  0.8815588E-01
        1   -1    0    0  501    0  0.00000000000E+00  0.00000000000E+00  0.11864450554E+04  0.11864450554E+04  0.50400001928E-02 0. -1.
       -1   -1    0    0    0  501  0.00000000000E+00  0.00000000000E+00 -0.54490097327E+03  0.54490097329E+03  0.50400001928E-02 0.  1.
    10030    2    1    2    0    0  0.00000000000E+00  0.00000000000E+00  0.64154408208E+03  0.17313460287E+04  0.16080983371E+04 0.  0.
        5    1    3    3  502    0 -0.50360875302E+03  0.59447901490E+03  0.10694028240E+03  0.78643842052E+03  0.46999998093E+01 0.  1.
       -5    1    3    3    0  502  0.50360875302E+03 -0.59447901490E+03  0.53460379968E+03  0.94490760813E+03  0.46999998093E+01 0. -1.
</event>
<event>
 5   0  0.1156733E-04  0.2123041E+04  0.7818609E-02  0.8551161E-01
       -1   -1    0    0    0  501  0.00000000000E+00  0.00000000000E+00  0.68936836406E+03  0.68936836408E+03  0.50400001928E-02 0. -1.
        1   -1    0    0  501    0  0.00000000000E+00  0.00000000000E+00 -0.16345765660E+04  0.16345765660E+04  0.50400001928E-02 0.  1.
    10030    2    1    2    0    0  0.00000000000E+00  0.00000000000E+00 -0.94520820191E+03  0.23239449301E+04  0.21230406244E+04 0.  0.
        2    1    3    3  502    0 -0.51614050725E+03 -0.92506925667E+03 -0.39779013004E+03  0.11315436980E+04  0.25500000920E-02 0. -1.
       -2    1    3    3    0  502  0.51614050725E+03  0.92506925667E+03 -0.54741807187E+03  0.11924012321E+04  0.25500000920E-02 0.  1.
</event>
<event>
 5   0  0.2467483E-04  0.2020834E+04  0.7818609E-02  0.8596942E-01
        2   -1    0    0  501    0  0.00000000000E+00  0.00000000000E+00  0.10457069629E+04  0.10457069629E+04  0.25500000920E-02 0. -1.
       -2   -1    0    0    0  501  0.00000000000E+00  0.00000000000E+00 -0.97631766546E+03  0.97631766546E+03  0.25500000920E-02 0.  1.
    10030    2    1    2    0    0  0.00000000000E+00  0.00000000000E+00  0.69389297456E+02  0.20220246284E+04  0.20208336703E+04 0.  0.
        4    1    3    3  502    0  0.75372629798E+03 -0.19863731223E+03  0.67802025884E+03  0.10330891532E+04  0.12699999809E+01 0. -1.
       -4    1    3    3    0  502 -0.75372629798E+03  0.19863731223E+03 -0.60863096139E+03  0.98893547522E+03  0.12699999809E+01 0.  1.
</event>
<event>
 5   0  0.1186038E-04  0.2091201E+04  0.7818609E-02  0.8565129E-01
       -1   -1    0    0    0  501  0.00000000000E+00  0.00000000000E+00  0.79783223947E+03  0.79783223948E+03  0.50400001928E-02 0. -1.
        1   -1    0    0  501    0  0.00000000000E+00  0.00000000000E+00 -0.13703139117E+04  0.13703139117E+04  0.50400001928E-02 0.  1.
    10030    2    1    2    0    0  0.00000000000E+00  0.00000000000E+00 -0.57248167228E+03  0.21681461512E+04  0.20912012022E+04 0.  0.
        4    1    3    3  502    0  0.12252288109E+03 -0.10182564040E+04 -0.75230732283E+02  0.10283575432E+04  0.12699999809E+01 0.  1.
       -4    1    3    3    0  502 -0.12252288109E+03  0.10182564040E+04 -0.49725093999E+03  0.11397886080E+04  0.12699999809E+01 0. -1.
</event>
<event>
 5   0  0.1130848E-04  0.2089869E+04  0.7818609E-02  0.8565719E-01
       -1   -1    0    0    0  501  0.00000000000E+00  0.00000000000E+00  0.14041951709E+04  0.14041951709E+04  0.50400001928E-02 0. -1.
        1   -1    0    0  501    0  0.00000000000E+00  0.00000000000E+00 -0.77759007956E+03  0.77759007958E+03  0.50400001928E-02 0.  1.
    10030    2    1    2    0    0  0.00000000000E+00  0.00000000000E+00  0.62660509134E+03  0.21817852505E+04  0.20898691200E+04 0.  0.
        5    1    3    3  502    0 -0.69028206094E+02 -0.10374240467E+04  0.42206018846E+03  0.11221276392E+04  0.46999998093E+01 0.  1.
       -5    1    3    3    0  502  0.69028206094E+02  0.10374240467E+04  0.20454490288E+03  0.10596576113E+04  0.46999998093E+01 0. -1.
</event>
<event>
 5   0  0.1156733E-04  0.2110536E+04  0.7818609E-02  0.8556616E-01
        1   -1    0    0  501    0  0.00000000000E+00  0.00000000000E+00  0.88077992586E+03  0.88077992588E+03  0.50400001928E-02 0.  1.
       -1   -1    0    0    0  501  0.00000000000E+00  0.00000000000E+00 -0.12643230037E+04  0.12643230037E+04  0.50400001928E-02 0. -1.
    10030    2    1    2    0    0  0.00000000000E+00  0.00000000000E+00 -0.38354307786E+03  0.21451029296E+04  0.21105357817E+04 0.  0.
        2    1    3    3  502    0 -0.56473092946E+03 -0.17819116675E+03 -0.10795285719E+04  0.12312818735E+04  0.25500000920E-02 0. -1.
       -2    1    3    3    0  502  0.56473092946E+03  0.17819116675E+03  0.69598549403E+03  0.91382105606E+03  0.25500000920E-02 0.  1.
</event>
<event>
 5   0  0.2430898E-04  0.2308153E+04  0.7818609E-02  0.8474714E-01
       -2   -1    0    0    0  501  0.00000000000E+00  0.00000000000E+00  0.13314836839E+04  0.13314836839E+04  0.25500000920E-02 0.  1.
        2   -1    0    0  501    0  0.00000000000E+00  0.00000000000E+00 -0.10003068718E+04  0.10003068718E+04  0.25500000920E-02 0. -1.
    10030    2    1    2    0    0  0.00000000000E+00  0.00000000000E+00  0.33117681211E+03  0.23317905557E+04  0.23081527494E+04 0.  0.
        1    1    3    3  502    0 -0.49050434885E+03  0.32378082141E+03 -0.83779186230E+03  0.10233883628E+04  0.50400001928E-02 0. -1.
       -1    1    3    3    0  502  0.49050434885E+03 -0.32378082141E+03  0.11689686744E+04  0.13084021929E+04  0.50400001928E-02 0.  1.
</event>
<event>
 5   0  0.2512839E-04  0.2113187E+04  0.7818609E-02  0.8555456E-01
        2   -1    0    0  501    0  0.00000000000E+00  0.00000000000E+00  0.11976637131E+04  0.11976637131E+04  0.25500000920E-02 0. -1.
       -2   -1    0    0    0  501  0.00000000000E+00  0.00000000000E+00 -0.93213997317E+03  0.93213997318E+03  0.25500000920E-02 0.  1.
    10030    2    1    2    0    0  0.00000000000E+00  0.00000000000E+00  0.26552373989E+03  0.21298036862E+04  0.21131873759E+04 0.  0.
        3    1    3    3  502    0  0.43969363949E+03 -0.11590328026E+02 -0.83548223401E+03  0.94419034409E+03  0.10100000352E+00 0.  1.
       -3    1    3    3    0  502 -0.43969363949E+03  0.11590328026E+02  0.11010059739E+04  0.11856133422E+04  0.10100000352E+00 0. -1.
</event>
<event>
 5   0  0.2512839E-04  0.2090401E+04  0.7818609E-02  0.8565484E-01
        2   -1    0    0  501    0  0.00000000000E+00  0.00000000000E+00  0.12149883200E+04  0.12149883200E+04  0.25500000920E-02 0.  1.
       -2   -1    0    0    0  501  0.00000000000E+00  0.00000000000E+00 -0.89913982421E+03  0.89913982421E+03  0.25500000920E-02 0. -1.
    10030    2    1    2    0    0  0.00000000000E+00  0.00000000000E+00  0.31584849577E+03  0.21141281442E+04  0.20904012863E+04 0.  0.
        3    1    3    3  502    0  0.86018973883E+03 -0.20060661458E+03 -0.40723421335E+03  0.97262999920E+03  0.10100000352E+00 0. -1.
       -3    1    3    3    0  502 -0.86018973883E+03  0.20060661458E+03  0.72308270912E+03  0.11414981450E+04  0.10100000352E+00 0.  1.
</event>
<event>
 5   0  0.1186038E-04  0.2194383E+04  0.7818609E-02  0.8520770E-01
        1   -1    0    0  501    0  0.00000000000E+00  0.00000000000E+00  0.22175035462E+04  0.22175035462E+04  0.50400001928E-02 0.  1.
       -1   -1    0    0    0  501  0.00000000000E+00  0.00000000000E+00 -0.54287605487E+03  0.54287605490E+03  0.50400001928E-02 0. -1.
    10030    2    1    2    0    0  0.00000000000E+00  0.00000000000E+00  0.16746274913E+04  0.27603796011E+04  0.21943833547E+04 0.  0.
        4    1    3    3  502    0 -0.66301251691E+03 -0.28677565985E+03 -0.20152744413E+03  0.74996053250E+03  0.12699999809E+01 0. -1.
       -4    1    3    3    0  502  0.66301251691E+03  0.28677565985E+03  0.18761549354E+04  0.20104190686E+04  0.12699999809E+01 0.  1.
</event>
<event>
 5   0  0.2430898E-04  0.1887294E+04  0.7818609E-02  0.8661207E-01
        2   -1    0    0  501    0  0.00000000000E+00  0.00000000000E+00  0.20335987960E+04  0.20335987960E+04  0.25500000920E-02 0. -1.
       -2   -1    0    0    0  501  0.00000000000E+00  0.00000000000E+00 -0.43787858596E+03  0.43787858597E+03  0.25500000920E-02 0.  1.
    10030    2    1    2    0    0  0.00000000000E+00  0.00000000000E+00  0.15957202100E+04  0.24714773819E+04  0.18872936870E+04 0.  0.
        1    1    3    3  502    0 -0.14569486077E+03  0.64759172751E+03  0.16761934678E+04  0.18028384785E+04  0.50400001928E-02 0. -1.
       -1    1    3    3    0  502  0.14569486077E+03 -0.64759172751E+03 -0.80473257778E+02  0.66863890347E+03  0.50400001928E-02 0.  1.
</event>
<event>
 5   0  0.1156733E-04  0.1824716E+04  0.7818609E-02  0.8693265E-01
        1   -1    0    0  501    0  0.00000000000E+00  0.00000000000E+00  0.11246445445E+04  0.11246445445E+04  0.50400001928E-02 0.  1.
       -1   -1    0    0    0  501  0.00000000000E+00  0.00000000000E+00 -0.74014243817E+03  0.74014243819E+03  0.50400001928E-02 0. -1.
    10030    2    1    2    0    0  0.00000000000E+00  0.00000000000E+00  0.38450210631E+03  0.18647869827E+04  0.18247160385E+04 0.  0.
        2    1    3    3  502    0  0.32437910087E+03 -0.45044720227E+03 -0.54771628376E+03  0.77981896015E+03  0.25500000920E-02 0. -1.
       -2    1    3    3    0  502 -0.32437910087E+03  0.45044720227E+03  0.93221839007E+03  0.10849680225E+04  0.25500000920E-02 0.  1.
</event>
<event>
 5   0  0.1042395E-04  0.2096166E+04  0.7818609E-02  0.8562934E-01
       -1   -1    0    0    0  501  0.00000000000E+00  0.00000000000E+00  0.57680754774E+03  0.57680754776E+03  0.50400001928E-02 0. -1.
        1   -1    0    0  501    0  0.00000000000E+00  0.00000000000E+00 -0.19044090947E+04  0.19044090947E+04  0.50400001928E-02 0.  1.
    10030    2    1    2    0    0  0.00000000000E+00  0.00000000000E+00 -0.13276015469E+04  0.24812166424E+04  0.20961655849E+04 0.  0.
        3    1    3    3  502    0  0.94175414741E+03  0.27146269222E+03 -0.11033394324E+04  0.14757881897E+04  0.10100000352E+00 0.  1.
       -3    1    3    3    0  502 -0.94175414741E+03 -0.27146269222E+03 -0.22426211451E+03  0.10054284528E+04  0.10100000352E+00 0. -1.
</event>
<event>
 5   0  0.1130848E-04  0.2179661E+04  0.7818609E-02  0.8526941E-01
        1   -1    0    0  501    0  0.00000000000E+00  0.00000000000E+00  0.87554609755E+03  0.87554609756E+03  0.50400001928E-02 0. -1.
       -1   -1    0    0    0  501  0.00000000000E+00  0.00000000000E+00 -0.13565602499E+04  0.13565602499E+04  0.50400001928E-02 0.  1.
    10030    2    1    2    0    0  0.00000000000E+00  0.00000000000E+00 -0.48101415239E+03  0.22321063475E+04  0.21796614718E+04 0.  0.
        5    1    3    3  502    0 -0.21920465728E+03 -0.63708933372E+03  0.63671069495E+03  0.92701461691E+03  0.46999998093E+01 0. -1.
       -5    1    3    3    0  502  0.21920465728E+03  0.63708933372E+03 -0.11177248473E+04  0.13050917306E+04  0.46999998093E+01 0.  1.
</event>
<event>
 5   0  0.2448804E-04  0.2061326E+04  0.7818609E-02  0.8578474E-01
       -2   -1    0    0    0  501  0.00000000000E+00  0.00000000000E+00  0.78804870779E+03  0.78804870780E+03  0.25500000920E-02 0.  1.
        2   -1    0    0  501    0  0.00000000000E+00  0.00000000000E+00 -0.13479701302E+04  0.13479701302E+04  0.25500000920E-02 0. -1.
    10030    2    1    2    0    0  0.00000000000E+00  0.00000000000E+00 -0.55992142242E+03  0.21360188380E+04  0.20613259027E+04 0.  0.
        2    1    3    3  502    0  0.91550770424E+03  0.42768144644E+03 -0.69627024506E+02  0.10128739797E+04  0.25500000920E-02 0. -1.
       -2    1    3    3    0  502 -0.91550770424E+03 -0.42768144644E+03 -0.49029439792E+03  0.11231448583E+04  0.25500000920E-02 0.  1.
</event>
<event>
 5   0  0.2430898E-04  0.2007088E+04  0.7818609E-02  0.8603314E-01
       -2   -1    0    0    0  501  0.00000000000E+00  0.00000000000E+00  0.15789979707E+04  0.15789979707E+04  0.25500000920E-02 0.  1.
        2   -1    0    0  501    0  0.00000000000E+00  0.00000000000E+00 -0.63780989591E+03  0.63780989592E+03  0.25500000920E-02 0. -1.
    10030    2    1    2    0    0  0.00000000000E+00  0.00000000000E+00  0.94118807480E+03  0.22168078666E+04  0.20070879715E+04 0.  0.
        1    1    3    3  502    0  0.36703133714E+02 -0.71272522474E+03  0.12498474172E+04  0.14392508233E+04  0.50400001928E-02 0.  1.
       -1    1    3    3    0  502 -0.36703133714E+02  0.71272522474E+03 -0.30865934240E+03  0.77755704336E+03  0.50400001928E-02 0. -1.
</event>
<event>
 5   0  0.2579241E-04  0.1984768E+04  0.7818609E-02  0.8613776E-01
        2   -1    0    0  501    0  0.00000000000E+00  0.00000000000E+00  0.13191917318E+04  0.13191917318E+04  0.25500000920E-02 0.  1.
       -2   -1    0    0    0  501  0.00000000000E+00  0.00000000000E+00 -0.74653706771E+03  0.74653706772E+03  0.25500000920E-02 0. -1.
    10030    2    1    2    0    0  0.00000000000E+00  0.00000000000E+00  0.57265466407E+03  0.20657287995E+04  0.19847675201E+04 0.  0.
        5    1    3    3  502    0  0.11960888795E+03  0.49657700658E+03 -0.59920714881E+03  0.78737939186E+03  0.46999998093E+01 0. -1.
       -5    1    3    3    0  502 -0.11960888795E+03 -0.49657700658E+03  0.11718618129E+04  0.12783494076E+04  0.46999998093E+01 0.  1.
</event>
<event>
 5   0  0.8698750E-05  0.2094374E+04  0.7818609E-02  0.8563726E-01
        3   -1    0    0  501    0  0.00000000000E+00  0.00000000000E+00  0.38103868256E+03  0.38103869594E+03  0.10100000352E+00 0. -1.
       -3   -1    0    0    0  501  0.00000000000E+00  0.00000000000E+00 -0.28779240894E+04  0.28779240912E+04  0.10100000352E+00 0.  1.
    10030    2    1    2    0    0  0.00000000000E+00  0.00000000000E+00 -0.24968854069E+04  0.32589627871E+04  0.20943738236E+04 0.  0.
        1    1    3    3  502    0 -0.14451362106E+03 -0.10773096446E+02  0.36536072482E+03  0.39305051272E+03  0.50400001928E-02 0. -1.
       -1    1    3    3    0  502  0.14451362106E+03  0.10773096446E+02 -0.28622461317E+04  0.28659122744E+04  0.50400001928E-02 0.  1.
</event>
<event>
 5   0  0.1156733E-04  0.2073696E+04  0.7818609E-02  0.8572920E-01
       -1   -1    0    0    0  501  0.00000000000E+00  0.00000000000E+00  0.80180384652E+03  0.80180384653E+03  0.50400001928E-02 0.  1.
        1   -1    0    0  501    0  0.00000000000E+00  0.00000000000E+00 -0.13407937632E+04  0.13407937632E+04  0.50400001928E-02 0. -1.
    10030    2    1    2    0    0  0.00000000000E+00  0.00000000000E+00 -0.53898991666E+03  0.21425976097E+04  0.20736958280E+04 0.  0.
        2    1    3    3  502    0 -0.39396357069E+03  0.59702511086E+03 -0.10450396047E+04  0.12663941146E+04  0.25500000920E-02 0. -1.
       -2    1    3    3    0  502  0.39396357069E+03 -0.59702511086E+03  0.50604968808E+03  0.87620349511E+03  0.25500000920E-02 0.  1.
</event>
<event>
 5   0  0.2467483E-04  0.2118199E+04  0.7818609E-02  0.8553269E-01
        2   -1    0    0  501    0  0.00000000000E+00  0.00000000000E+00  0.66489227050E+03  0.66489227051E+03  0.25500000920E-02 0.  1.
       -2   -1    0    0    0  501  0.00000000000E+00  0.00000000000E+00 -0.16870271616E+04  0.16870271616E+04  0.25500000920E-02 0. -1.
    10030    2    1    2    0    0  0.00000000000E+00  0.00000000000E+00 -0.10221348911E+04  0.23519194321E+04  0.21181985930E+04 0.  0.
        4    1    3    3  502    0 -0.19940399432E+03  0.84369483991E+03  0.16442310874E+03  0.88239419050E+03  0.12699999809E+01 0.  1.
       -4    1    3    3    0  502  0.19940399432E+03 -0.84369483991E+03 -0.11865579998E+04  0.14695252416E+04  0.12699999809E+01 0. -1.
</event>
<event>
 5   0  0.2430898E-04  0.2010227E+04  0.7818609E-02  0.8601854E-01
       -2   -1    0    0    0  501  0.00000000000E+00  0.00000000000E+00  0.78169594373E+03  0.78169594373E+03  0.25500000920E-02 0. -1.
        2   -1    0    0  501    0  0.00000000000E+00  0.00000000000E+00 -0.12923860031E+04  0.12923860031E+04  0.25500000920E-02 0.  1.
    10030    2    1    2    0    0  0.00000000000E+00  0.00000000000E+00 -0.51069005941E+03  0.20740819469E+04  0.20102267498E+04 0.  0.
        1    1    3    3  502    0 -0.32657485981E+03 -0.38449376265E+03  0.64161817129E+03  0.81618654138E+03  0.50400001928E-02 0. -1.
       -1    1    3    3    0  502  0.32657485981E+03  0.38449376265E+03 -0.11523082307E+04  0.12578954055E+04  0.50400001928E-02 0.  1.
</event>
<event>
 5   0  0.1122711E-04  0.2071681E+04  0.7818609E-02  0.8573822E-01
       -1   -1    0    0    0  501  0.00000000000E+00  0.00000000000E+00  0.71582152516E+03  0.71582152518E+03  0.50400001928E-02 0. -1.
        1   -1    0    0  501    0  0.00000000000E+00  0.00000000000E+00 -0.14989291320E+04  0.14989291320E+04  0.50400001928E-02 0.  1.
    10030    2    1    2    0    0  0.00000000000E+00  0.00000000000E+00 -0.78310760682E+03  0.22147506572E+04  0.20716811892E+04 0.  0.
        1    1    3    3  502    0  0.15584892456E+03 -0.17638175083E+03 -0.14699622487E+04  0.14886868112E+04  0.50400001928E-02 0.  1.
       -1    1    3    3    0  502 -0.15584892456E+03  0.17638175083E+03  0.68685464187E+03  0.72606384595E+03  0.50400001928E-02 0. -1.
</event>
<event>
 5   0  0.1130848E-04  0.2071621E+04  0.7818609E-02  0.8573849E-01
        1   -1    0    0  501    0  0.00000000000E+00  0.00000000000E+00  0.17464157007E+04  0.17464157007E+04  0.50400001928E-02 0.  1.
       -1   -1    0    0    0  501  0.00000000000E+00  0.00000000000E+00 -0.61434578214E+03  0.61434578216E+03  0.50400001928E-02 0. -1.
    10030    2    1    2    0    0  0.00000000000E+00  0.00000000000E+00  0.11320699186E+04  0.23607614829E+04  0.20716207372E+04 0.  0.
        5    1    3    3  502    0 -0.78710973222E+02 -0.77915009385E+03  0.13386033711E+04  0.15508550420E+04  0.46999998093E+01 0.  1.
       -5    1    3    3    0  502  0.78710973222E+02  0.77915009385E+03 -0.20653345252E+03  0.80990644093E+03  0.46999998093E+01 0. -1.
</event>
<event>
 5   0  0.2579241E-04  0.2095356E+04  0.7818609E-02  0.8563292E-01
       -2   -1    0    0    0  501  0.00000000000E+00  0.00000000000E+00  0.68810489506E+03  0.68810489507E+03  0.25500000920E-02 0. -1.
        2   -1    0    0  501    0  0.00000000000E+00  0.00000000000E+00 -0.15951480658E+04  0.15951480658E+04  0.25500000920E-02 0.  1.
    10030    2    1    2    0    0  0.00000000000E+00  0.00000000000E+00 -0.90704317074E+03  0.22832529609E+04  0.20953560007E+04 0.  0.
        5    1    3    3  502    0 -0.62122223429E+03 -0.83957933002E+03 -0.36368739892E+03  0.11059390263E+04  0.46999998093E+01 0.  1.
       -5    1    3    3    0  502  0.62122223429E+03  0.83957933002E+03 -0.54335577182E+03  0.11773139346E+04  0.46999998093E+01 0. -1.
</event>
<event>
 5   0  0.2579241E-04  0.2125156E+04  0.7818609E-02  0.8550242E-01
        2   -1    0    0  501    0  0.00000000000E+00  0.00000000000E+00  0.10744001143E+04  0.10744001143E+04  0.25500000920E-02 0. -1.
       -2   -1    0    0    0  501  0.00000000000E+00  0.00000000000E+00 -0.10508864172E+04  0.10508864172E+04  0.25500000920E-02 0.  1.
    10030    2    1    2    0    0  0.00000000000E+00  0.00000000000E+00  0.23513697083E+02  0.21252865316E+04  0.21251564524E+04 0.  0.
        5    1    3    3  502    0 -0.98087180554E+03 -0.87861318310E+02  0.41080669367E+03  0.10670582644E+04  0.46999998093E+01 0. -1.
       -5    1    3    3    0  502  0.98087180554E+03  0.87861318310E+02 -0.38729299659E+03  0.10582282671E+04  0.46999998093E+01 0.  1.
</event>
<event>
 5   0  0.2579241E-04  0.2094898E+04  0.7818609E-02  0.8563494E-01
        2   -1    0    0  501    0  0.00000000000E+00  0.00000000000E+00  0.21568975462E+04  0.21568975462E+04  0.25500000920E-02 0.  1.
       -2   -1    0    0    0  501  0.00000000000E+00  0.00000000000E+00 -0.50866994696E+03  0.50866994697E+03  0.25500000920E-02 0. -1.
    10030    2    1    2    0    0  0.00000000000E+00  0.00000000000E+00  0.16482275993E+04  0.26655674932E+04  0.20948975731E+04 0.  0.
        5    1    3    3  502    0 -0.96522597203E+03  0.40307992942E+03  0.89371661941E+03  0.13758219697E+04  0.46999998093E+01 0. -1.
       -5    1    3    3    0  502  0.96522597203E+03 -0.40307992942E+03  0.75451097987E+03  0.12897455235E+04  0.46999998093E+01 0.  1.
</event>
<event>
 5   0  0.2467483E-04  0.1403470E+04  0.7818609E-02  0.8951311E-01
       -2   -1    0    0    0  501  0.00000000000E+00  0.00000000000E+00  0.35078872845E+03  0.35078872846E+03  0.25500000920E-02 0.  1.
        2   -1    0    0  501    0  0.00000000000E+00  0.00000000000E+00 -0.14037849970E+04  0.14037849970E+04  0.25500000920E-02 0. -1.
    10030    2    1    2    0    0  0.00000000000E+00  0.00000000000E+00 -0.10529962686E+04  0.17545737255E+04  0.14034699201E+04 0.  0.
        4    1    3    3  502    0  0.38635374119E+03 -0.52671303297E+03 -0.84702558071E+03  0.10696493723E+04  0.12699999809E+01 0. -1.
       -4    1    3    3    0  502 -0.38635374119E+03  0.52671303297E+03 -0.20597068789E+03  0.68492435319E+03  0.12699999809E+01 0.  1.
</event>
<event>
 5   0  0.2467483E-04  0.2090515E+04  0.7818609E-02  0.8565433E-01
        2   -1    0    0  501    0  0.00000000000E+00  0.00000000000E+00  0.16097069623E+04  0.16097069623E+04  0.25500000920E-02 0.  1.
       -2   -1    0    0    0  501  0.00000000000E+00  0.00000000000E+00 -0.67873423882E+03  0.67873423882E+03  0.25500000920E-02 0. -1.
    10030    2    1    2    0    0  0.00000000000E+00  0.00000000000E+00  0.93097272352E+03  0.22884412012E+04  0.20905149890E+04 0.  0.
        4    1    3    3  502    0 -0.40832813045E+03  0.77380050608E+03  0.10915260542E+04  0.13989030793E+04  0.12699999809E+01 0.  1.
       -4    1    3    3    0  502  0.40832813045E+03 -0.77380050608E+03 -0.16055333072E+03  0.88953812185E+03  0.12699999809E+01 0. -1.
</event>
<event>
 5   0  0.1130848E-04  0.2280711E+04  0.7818609E-02  0.8485565E-01
       -1   -1    0    0    0  501  0.00000000000E+00  0.00000000000E+00  0.59228865681E+03  0.59228865683E+03  0.50400001928E-02 0.  1.
        1   -1    0    0  501    0  0.00000000000E+00  0.00000000000E+00 -0.21955693884E+04  0.21955693884E+04  0.50400001928E-02 0. -1.
    10030    2    1    2    0    0  0.00000000000E+00  0.00000000000E+00 -0.16032807316E+04  0.27878580453E+04  0.22807111558E+04 0.  0.
        5    1    3    3  502    0 -0.48160786282E+03 -0.98380359974E+03 -0.41398903198E+03  0.11709930252E+04  0.46999998093E+01 0. -1.
       -5    1    3    3    0  502  0.48160786282E+03  0.98380359974E+03 -0.11892916996E+04  0.16168650201E+04  0.46999998093E+01 0.  1.
</event>
<event>
 5   0  0.2512839E-04  0.2093064E+04  0.7818609E-02  0.8564305E-01
        2   -1    0    0  501    0  0.00000000000E+00  0.00000000000E+00  0.10720215501E+04  0.10720215501E+04  0.25500000920E-02 0. -1.
       -2   -1    0    0    0  501  0.00000000000E+00  0.00000000000E+00 -0.10216483170E+04  0.10216483170E+04  0.25500000920E-02 0.  1.
    10030    2    1    2    0    0  0.00000000000E+00  0.00000000000E+00  0.50373233163E+02  0.20936698671E+04  0.20930637950E+04 0.  0.
        3    1    3    3  502    0 -0.36589863287E+03  0.59040999738E+03  0.80820522762E+03  0.10656741879E+04  0.10100000352E+00 0. -1.
       -3    1    3    3    0  502  0.36589863287E+03 -0.59040999738E+03 -0.75783199445E+03  0.10279956793E+04  0.10100000352E+00 0.  1.
</event>
<event>
 5   0  0.2448804E-04  0.2150914E+04  0.7818609E-02  0.8539141E-01
        2   -1    0    0  501    0  0.00000000000E+00  0.00000000000E+00  0.21045136768E+04  0.21045136768E+04  0.25500000920E-02 0.  1.
       -2   -1    0    0    0  501  0.00000000000E+00  0.00000000000E+00 -0.54958420040E+03  0.54958420040E+03  0.25500000920E-02 0. -1.
    10030    2    1    2    0    0  0.00000000000E+00  0.00000000000E+00  0.15549294764E+04  0.26540978772E+04  0.21509137280E+04 0.  0.
        2    1    3    3  502    0 -0.25936153617E+03 -0.10678519321E+03 -0.50365708096E+03  0.57649105730E+03  0.25500000920E-02 0. -1.
       -2    1    3    3    0  502  0.25936153617E+03  0.10678519321E+03  0.20585865574E+04  0.20776068199E+04  0.25500000920E-02 0.  1.
</event>
<event>
 5   0  0.1042395E-04  0.2035726E+04  0.7818609E-02  0.8590097E-01
       -1   -1    0    0    0  501  0.00000000000E+00  0.00000000000E+00  0.92475532460E+03  0.92475532461E+03  0.50400001928E-02 0.  1.
        1   -1    0    0  501    0  0.00000000000E+00  0.00000000000E+00 -0.11203454102E+04  0.11203454103E+04  0.50400001928E-02 0. -1.
    10030    2    1    2    0    0  0.00000000000E+00  0.00000000000E+00 -0.19559008564E+03  0.20451007349E+04  0.20357262916E+04 0.  0.
        3    1    3    3  502    0 -0.69234045490E+03 -0.74279177739E+03 -0.26969015794E+02  0.10157766822E+04  0.10100000352E+00 0.  1.
       -3    1    3    3    0  502  0.69234045490E+03  0.74279177739E+03 -0.16862106985E+03  0.10293240527E+04  0.10100000352E+00 0. -1.
</event>
<event>
 5   0  0.2579241E-04  0.2033305E+04  0.7818609E-02  0.8591206E-01
       -2   -1    0    0    0  501  0.00000000000E+00  0.00000000000E+00  0.85019141585E+03  0.85019141585E+03  0.25500000920E-02 0. -1.
        2   -1    0    0  501    0  0.00000000000E+00  0.00000000000E+00 -0.12157056057E+04  0.12157056057E+04  0.25500000920E-02 0.  1.
    10030    2    1    2    0    0  0.00000000000E+00  0.00000000000E+00 -0.36551418987E+03  0.20658970216E+04  0.20333051617E+04 0.  0.
        5    1    3    3  502    0 -0.40173393941E+03 -0.35049180117E+03  0.69675420986E+03  0.87733869157E+03  0.46999998093E+01 0. -1.
       -5    1    3    3    0  502  0.40173393941E+03  0.35049180117E+03 -0.10622683997E+04  0.11885583300E+04  0.46999998093E+01 0.  1.
</event>
<event>
 5   0  0.2448804E-04  0.2259737E+04  0.7818609E-02  0.8493968E-01
       -2   -1    0    0    0  501  0.00000000000E+00  0.00000000000E+00  0.79901363332E+03  0.79901363332E+03  0.25500000920E-02 0.  1.
        2   -1    0    0  501    0  0.00000000000E+00  0.00000000000E+00 -0.15977234221E+04  0.15977234221E+04  0.25500000920E-02 0. -1.
    10030    2    1    2    0    0  0.00000000000E+00  0.00000000000E+00 -0.79870978877E+03  0.23967370554E+04  0.22597369728E+04 0.  0.
        2    1    3    3  502    0  0.36152122667E+01 -0.91299771427E+03  0.30659937237E+03  0.96311010334E+03  0.25500000920E-02 0.  1.
       -2    1    3    3    0  502 -0.36152122667E+01  0.91299771427E+03 -0.11053091611E+04  0.14336269521E+04  0.25500000920E-02 0. -1.
</event>
<event>
 5   0  0.1122711E-04  0.2005853E+04  0.7818609E-02  0.8603889E-01
        1   -1    0    0  501    0  0.00000000000E+00  0.00000000000E+00  0.89299027509E+03  0.89299027511E+03  0.50400001928E-02 0.  1.
       -1   -1    0    0    0  501  0.00000000000E+00  0.00000000000E+00 -0.11263973021E+04  0.11263973021E+04  0.50400001928E-02 0. -1.
    10030    2    1    2    0    0  0.00000000000E+00  0.00000000000E+00 -0.23340702702E+03  0.20193875772E+04  0.20058532715E+04 0.  0.
        1    1    3    3  502    0 -0.89700053373E+03  0.20593171551E+03  0.28453807133E+03  0.96331705218E+03  0.50400001928E-02 0.  1.
       -1    1    3    3    0  502  0.89700053373E+03 -0.20593171551E+03 -0.51794509835E+03  0.10560705251E+04  0.50400001928E-02 0. -1.
</event>
<event>
 5   0  0.2579241E-04  0.2053144E+04  0.7818609E-02  0.8582169E-01
        2   -1    0    0  501    0  0.00000000000E+00  0.00000000000E+00  0.12714422379E+04  0.12714422379E+04  0.25500000920E-02 0.  1.
       -2   -1    0    0    0  501  0.00000000000E+00  0.00000000000E+00 -0.82886204025E+03  0.82886204025E+03  0.25500000920E-02 0. -1.
    10030    2    1    2    0    0  0.00000000000E+00  0.00000000000E+00  0.44258019763E+03  0.21003042781E+04  0.20531441326E+04 0.  0.
        5    1    3    3  502    0 -0.32910074693E+03 -0.97120738155E+03  0.17247570570E+03  0.10398658753E+04  0.46999998093E+01 0. -1.
       -5    1    3    3    0  502  0.32910074693E+03  0.97120738155E+03  0.27010449194E+03  0.10604384028E+04  0.46999998093E+01 0.  1.
</event>
<event>
 5   0  0.8698750E-05  0.1063690E+04  0.7818609E-02  0.9241323E-01
       -4   -1    0    0    0  501  0.00000000000E+00  0.00000000000E+00  0.32660945223E+03  0.32661192138E+03  0.12699999809E+01 0. -1.
        4   -1    0    0  501    0  0.00000000000E+00  0.00000000000E+00 -0.86604003739E+03  0.86604096858E+03  0.12699999809E+01 0.  1.
    10030    2    1    2    0    0  0.00000000000E+00  0.00000000000E+00 -0.53943058516E+03  0.11926528900E+04  0.10636895974E+04 0.  0.
        3    1    3    3  502    0 -0.14297673343E+03 -0.18410300182E+03  0.26628342227E+03  0.35389706520E+03  0.10100000352E+00 0. -1.
       -3    1    3    3    0  502  0.14297673343E+03  0.18410300182E+03 -0.80571400744E+03  0.83875582476E+03  0.10100000352E+00 0.  1.
</event>
<event>
 5   0  0.2512839E-04  0.2145816E+04  0.7818609E-02  0.8541325E-01
       -2   -1    0    0    0  501  0.00000000000E+00  0.00000000000E+00  0.15102590326E+04  0.15102590326E+04  0.25500000920E-02 0. -1.
        2   -1    0    0  501    0  0.00000000000E+00  0.00000000000E+00 -0.76220835602E+03  0.76220835602E+03  0.25500000920E-02 0.  1.
    10030    2    1    2    0    0  0.00000000000E+00  0.00000000000E+00  0.74805067654E+03  0.22724673886E+04  0.21458164454E+04 0.  0.
        3    1    3    3  502    0  0.54396797587E+03  0.63143544511E+03  0.10895672426E+04  0.13717757348E+04  0.10100000352E+00 0. -1.
       -3    1    3    3    0  502 -0.54396797587E+03 -0.63143544511E+03 -0.34151656609E+03  0.90069165380E+03  0.10100000352E+00 0.  1.
</event>
<event>
 5   0  0.1156733E-04  0.2067634E+04  0.7818609E-02  0.8575636E-01
        1   -1    0    0  501    0  0.00000000000E+00  0.00000000000E+00  0.14478162646E+04  0.14478162646E+04  0.50400001928E-02 0. -1.
       -1   -1    0    0    0  501  0.00000000000E+00  0.00000000000E+00 -0.73819999227E+03  0.73819999229E+03  0.50400001928E-02 0.  1.
    10030    2    1    2    0    0  0.00000000000E+00  0.00000000000E+00  0.70961627232E+03  0.21860162569E+04  0.20676343539E+04 0.  0.
        2    1    3    3  502    0 -0.54945586962E+03 -0.22294667542E+03 -0.54053808012E+03  0.80236424946E+03  0.25500000920E-02 0.  1.
       -2    1    3    3    0  502  0.54945586962E+03  0.22294667542E+03  0.12501543524E+04  0.13836520074E+04  0.25500000920E-02 0. -1.
</event>
<event>
 5   0  0.1130848E-04  0.2381440E+04  0.7818609E-02  0.8446485E-01
       -1   -1    0    0    0  501  0.00000000000E+00  0.00000000000E+00  0.19670079799E+04  0.19670079799E+04  0.50400001928E-02 0.  1.
        1   -1    0    0  501    0  0.00000000000E+00  0.00000000000E+00 -0.72079753792E+03  0.72079753794E+03  0.50400001928E-02 0. -1.
    10030    2    1    2    0    0  0.00000000000E+00  0.00000000000E+00  0.12462104420E+04  0.26878055179E+04  0.23814403281E+04 0.  0.
        5    1    3    3  502    0 -0.31561616146E+03  0.83551749467E+03  0.15118668205E+04  0.17559801873E+04  0.46999998093E+01 0.  1.
       -5    1    3    3    0  502  0.31561616146E+03 -0.83551749467E+03 -0.26565637849E+03  0.93182533057E+03  0.46999998093E+01 0. -1.
</event>
<event>
 5   0  0.2448804E-04  0.1792166E+04  0.7818609E-02  0.8710477E-01
       -2   -1    0    0    0  501  0.00000000000E+00  0.00000000000E+00  0.30502200814E+03  0.30502200815E+03  0.25500000920E-02 0. -1.
        2   -1    0    0  501    0  0.00000000000E+00  0.00000000000E+00 -0.26324815805E+04  0.26324815805E+04  0.25500000920E-02 0.  1.
    10030    2    1    2    0    0  0.00000000000E+00  0.00000000000E+00 -0.23274595723E+04  0.29375035886E+04  0.17921660839E+04 0.  0.
        2    1    3    3  502    0  0.20493539732E+03 -0.85666062918E+03 -0.14335507702E+04  0.16825378930E+04  0.25500000920E-02 0. -1.
       -2    1    3    3    0  502 -0.20493539732E+03  0.85666062918E+03 -0.89390880215E+03  0.12549656956E+04  0.25500000920E-02 0.  1.
</event>
<event>
 5   0  0.2430898E-04  0.2078344E+04  0.7818609E-02  0.8570843E-01
       -2   -1    0    0    0  501  0.00000000000E+00  0.00000000000E+00  0.12123786762E+04  0.12123786762E+04  0.25500000920E-02 0.  1.
        2   -1    0    0  501    0  0.00000000000E+00  0.00000000000E+00 -0.89071051411E+03  0.89071051411E+03  0.25500000920E-02 0. -1.
    10030    2    1    2    0    0  0.00000000000E+00  0.00000000000E+00  0.32166816205E+03  0.21030891903E+04  0.20783439888E+04 0.  0.
        1    1    3    3  502    0 -0.74663278089E+02  0.44302609778E+03 -0.78735589699E+03  0.90651863575E+03  0.50400001928E-02 0. -1.
       -1    1    3    3    0  502  0.74663278089E+02 -0.44302609778E+03  0.11090240590E+04  0.11965705545E+04  0.50400001928E-02 0.  1.
</event>
<event>
 5   0  0.1186038E-04  0.1701764E+04  0.7818609E-02  0.8760359E-01
        1   -1    0    0  501    0  0.00000000000E+00  0.00000000000E+00  0.21551679964E+04  0.21551679964E+04  0.50400001928E-02 0. -1.
       -1   -1    0    0    0  501  0.00000000000E+00  0.00000000000E+00 -0.33593662834E+03  0.33593662837E+03  0.50400001928E-02 0.  1.
    10030    2    1    2    0    0  0.00000000000E+00  0.00000000000E+00  0.18192313681E+04  0.24911046248E+04  0.17017636384E+04 0.  0.
        4    1    3    3  502    0 -0.30929302750E+03  0.79267598665E+03  0.90825764078E+03  0.12445605456E+04  0.12699999809E+01 0. -1.
       -4    1    3    3    0  502  0.30929302750E+03 -0.79267598665E+03  0.91097372728E+03  0.12465440792E+04  0.12699999809E+01 0.  1.
</event>
<event>
 5   0  0.1042395E-04  0.1976190E+04  0.7818609E-02  0.8617834E-01
        1   -1    0    0  501    0  0.00000000000E+00  0.00000000000E+00  0.12777092394E+04  0.12777092394E+04  0.50400001928E-02 0.  1.
       -1   -1    0    0    0  501  0.00000000000E+00  0.00000000000E+00 -0.76412672826E+03  0.76412672828E+03  0.50400001928E-02 0. -1.
    10030    2    1    2    0    0  0.00000000000E+00  0.00000000000E+00  0.51358251114E+03  0.20418359677E+04  0.19761900524E+04 0.  0.
        3    1    3    3  502    0 -0.32604006321E+03  0.70370009718E+03 -0.37578470644E+03  0.86180630387E+03  0.10100000352E+00 0. -1.
       -3    1    3    3    0  502  0.32604006321E+03 -0.70370009718E+03  0.88936721758E+03  0.11800296638E+04  0.10100000352E+00 0.  1.
</event>
<event>
 5   0  0.2448804E-04  0.2107270E+04  0.7818609E-02  0.8558048E-01
       -2   -1    0    0    0  501  0.00000000000E+00  0.00000000000E+00  0.85226743313E+03  0.85226743313E+03  0.25500000920E-02 0.  1.
        2   -1    0    0  501    0  0.00000000000E+00  0.00000000000E+00 -0.13025800016E+04  0.13025800016E+04  0.25500000920E-02 0. -1.
    10030    2    1    2    0    0  0.00000000000E+00  0.00000000000E+00 -0.45031256848E+03  0.21548474347E+04  0.21072698113E+04 0.  0.
        2    1    3    3  502    0 -0.45660535079E+03  0.35515953702E+02 -0.11954725805E+04  0.12801970630E+04  0.25500000920E-02 0. -1.
       -2    1    3    3    0  502  0.45660535079E+03 -0.35515953702E+02  0.74516001201E+03  0.87465037177E+03  0.25500000920E-02 0.  1.
</event>
<event>
 5   0  0.1042395E-04  0.2031247E+04  0.7818609E-02  0.8592149E-01
       -1   -1    0    0    0  501  0.00000000000E+00  0.00000000000E+00  0.61201257236E+03  0.61201257238E+03  0.50400001928E-02 0.  1.
        1   -1    0    0  501    0  0.00000000000E+00  0.00000000000E+00 -0.16854085006E+04  0.16854085006E+04  0.50400001928E-02 0. -1.
    10030    2    1    2    0    0  0.00000000000E+00  0.00000000000E+00 -0.10733959283E+04  0.22974210730E+04  0.20312470967E+04 0.  0.
        3    1    3    3  502    0  0.19838793720E+03  0.61557262905E+03  0.34898897942E+03  0.73490186639E+03  0.10100000352E+00 0.  1.
       -3    1    3    3    0  502 -0.19838793720E+03 -0.61557262905E+03 -0.14223849077E+04  0.15625192066E+04  0.10100000352E+00 0. -1.
</event>
<event>
 5   0  0.1122711E-04  0.2079892E+04  0.7818609E-02  0.8570153E-01
        1   -1    0    0  501    0  0.00000000000E+00  0.00000000000E+00  0.10001341986E+04  0.10001341986E+04  0.50400001928E-02 0.  1.
       -1   -1    0    0    0  501  0.00000000000E+00  0.00000000000E+00 -0.10813421791E+04  0.10813421791E+04  0.50400001928E-02 0. -1.
    10030    2    1    2    0    0  0.00000000000E+00  0.00000000000E+00 -0.81207980566E+02  0.20814763777E+04  0.20798916258E+04 0.  0.
        1    1    3    3  502    0 -0.66334774813E+03 -0.49969171497E+02 -0.84056287035E+03  0.10719482693E+04  0.50400001928E-02 0. -1.
       -1    1    3    3    0  502  0.66334774813E+03  0.49969171497E+02  0.75935488978E+03  0.10095281084E+04  0.50400001928E-02 0.  1.
</event>
<event>
 5   0  0.1156733E-04  0.2095984E+04  0.7818609E-02  0.8563014E-01
        1   -1    0    0  501    0  0.00000000000E+00  0.00000000000E+00  0.11003545546E+04  0.11003545546E+04  0.50400001928E-02 0. -1.
       -1   -1    0    0    0  501  0.00000000000E+00  0.00000000000E+00 -0.99812134817E+03  0.99812134819E+03  0.50400001928E-02 0.  1.
    10030    2    1    2    0    0  0.00000000000E+00  0.00000000000E+00  0.10223320639E+03  0.20984759028E+04  0.20959841330E+04 0.  0.
        2    1    3    3  502    0 -0.92842029853E+03 -0.46571224486E+03 -0.88459410504E+02  0.10424381099E+04  0.25500000920E-02 0. -1.
       -2    1    3    3    0  502  0.92842029853E+03  0.46571224486E+03  0.19069261689E+03  0.10560377928E+04  0.25500000920E-02 0.  1.
</event>
<event>
 5   0  0.2467483E-04  0.2106252E+04  0.7818609E-02  0.8558494E-01
       -2   -1    0    0    0  501  0.00000000000E+00  0.00000000000E+00  0.12726764911E+04  0.12726764911E+04  0.25500000920E-02 0.  1.
        2   -1    0    0  501    0  0.00000000000E+00  0.00000000000E+00 -0.87145036641E+03  0.87145036641E+03  0.25500000920E-02 0. -1.
    10030    2    1    2    0    0  0.00000000000E+00  0.00000000000E+00  0.40122612471E+03  0.21441268575E+04  0.21062520215E+04 0.  0.
        4    1    3    3  502    0 -0.94824238626E+01 -0.88316567683E+03  0.78451365694E+03  0.11813275667E+04  0.12699999809E+01 0.  1.
       -4    1    3    3    0  502  0.94824238626E+01  0.88316567683E+03 -0.38328753224E+03  0.96279929080E+03  0.12699999809E+01 0. -1.
</event>
<event>
 5   0  0.8698750E-05  0.2101559E+04  0.7818609E-02  0.8560557E-01
       -4   -1    0    0    0  501  0.00000000000E+00  0.00000000000E+00  0.18668245529E+04  0.18668249849E+04  0.12699999809E+01 0. -1.
        4   -1    0    0  501    0  0.00000000000E+00  0.00000000000E+00 -0.59145089584E+03  0.59145225935E+03  0.12699999809E+01 0.  1.
    10030    2    1    2    0    0  0.00000000000E+00  0.00000000000E+00  0.12753736571E+04  0.24582772443E+04  0.21015587178E+04 0.  0.
        5    1    3    3  502    0  0.87423185377E+03  0.34928561911E+03  0.11836351821E+04  0.15123809415E+04  0.46999998093E+01 0. -1.
       -5    1    3    3    0  502 -0.87423185377E+03 -0.34928561911E+03  0.91738475011E+02  0.94589630280E+03  0.46999998093E+01 0.  1.
</event>
<event>
 5   0  0.2467483E-04  0.2010362E+04  0.7818609E-02  0.8601791E-01
        2   -1    0    0  501    0  0.00000000000E+00  0.00000000000E+00  0.17407978347E+04  0.17407978347E+04  0.25500000920E-02 0. -1.
       -2   -1    0    0    0  501  0.00000000000E+00  0.00000000000E+00 -0.58041699531E+03  0.58041699532E+03  0.25500000920E-02 0.  1.
    10030    2    1    2    0    0  0.00000000000E+00  0.00000000000E+00  0.11603808394E+04  0.23212148300E+04  0.20103618069E+04 0.  0.
        4    1    3    3  502    0 -0.29165232965E+03  0.79285454969E+03 -0.48744140120E+02  0.84620152591E+03  0.12699999809E+01 0.  1.
       -4    1    3    3    0  502  0.29165232965E+03 -0.79285454969E+03  0.12091249795E+04  0.14750133041E+04  0.12699999809E+01 0. -1.
</event>
<event>
 5   0  0.2430898E-04  0.2101023E+04  0.7818609E-02  0.8560793E-01
       -2   -1    0    0    0  501  0.00000000000E+00  0.00000000000E+00  0.12350167325E+04  0.12350167325E+04  0.25500000920E-02 0.  1.
        2   -1    0    0  501    0  0.00000000000E+00  0.00000000000E+00 -0.89357071840E+03  0.89357071840E+03  0.25500000920E-02 0. -1.
    10030    2    1    2    0    0  0.00000000000E+00  0.00000000000E+00  0.34144601406E+03  0.21285874509E+04  0.21010233591E+04 0.  0.
        1    1    3    3  502    0 -0.47368210508E+03  0.90019939273E+03  0.43654109786E+03  0.11069335181E+04  0.50400001928E-02 0.  1.
       -1    1    3    3    0  502  0.47368210508E+03 -0.90019939273E+03 -0.95095083792E+02  0.10216539328E+04  0.50400001928E-02 0. -1.
</event>
<event>
 5   0  0.8698750E-05  0.2086234E+04  0.7818609E-02  0.8567332E-01
        4   -1    0    0  501    0  0.00000000000E+00  0.00000000000E+00  0.13734387909E+04  0.13734393781E+04  0.12699999809E+01 0.  1.
       -4   -1    0    0    0  501  0.00000000000E+00  0.00000000000E+00 -0.79223872722E+03  0.79223974515E+03  0.12699999809E+01 0. -1.
    10030    2    1    2    0    0  0.00000000000E+00  0.00000000000E+00  0.58120006372E+03  0.21656791233E+04  0.20862340595E+04 0.  0.
        1    1    3    3  502    0 -0.58498001070E+03  0.62314476749E+03  0.91135324793E+03  0.12494301728E+04  0.50400001928E-02 0.  1.
       -1    1    3    3    0  502  0.58498001070E+03 -0.62314476749E+03 -0.33015318421E+03  0.91624895047E+03  0.50400001928E-02 0. -1.
</event>
<event>
 5   0  0.2512839E-04  0.2138891E+04  0.7818609E-02  0.8544302E-01
       -2   -1    0    0    0  501  0.00000000000E+00  0.00000000000E+00  0.11010616804E+04  0.11010616804E+04  0.25500000920E-02 0. -1.
        2   -1    0    0  501    0  0.00000000000E+00  0.00000000000E+00 -0.10387373898E+04  0.10387373898E+04  0.25500000920E-02 0.  1.
    10030    2    1    2    0    0  0.00000000000E+00  0.00000000000E+00  0.62324290567E+02  0.21397990702E+04  0.21388912416E+04 0.  0.
        3    1    3    3  502    0 -0.35089373049E+03  0.31648977606E+03 -0.92863118066E+03  0.10419443691E+04  0.10100000352E+00 0.  1.
       -3    1    3    3    0  502  0.35089373049E+03 -0.31648977606E+03  0.99095547123E+03  0.10978547010E+04  0.10100000352E+00 0. -1.
</event>
<event>
 5   0  0.2467483E-04  0.1171868E+04  0.7818609E-02  0.9137844E-01
        2   -1    0    0  501    0  0.00000000000E+00  0.00000000000E+00  0.17361192371E+04  0.17361192371E+04  0.25500000920E-02 0. -1.
       -2   -1    0    0    0  501  0.00000000000E+00  0.00000000000E+00 -0.19775046844E+03  0.19775046846E+03  0.25500000920E-02 0.  1.
    10030    2    1    2    0    0  0.00000000000E+00  0.00000000000E+00  0.15383687687E+04  0.19338697056E+04  0.11718675564E+04 0.  0.
        4    1    3    3  502    0  0.28201703408E+02  0.16018240150E+03 -0.15974878993E+03  0.22798032066E+03  0.12699999809E+01 0.  1.
       -4    1    3    3    0  502 -0.28201703408E+02 -0.16018240150E+03  0.16981175586E+04  0.17058893849E+04  0.12699999809E+01 0. -1.
</event>
<event>
 5   0  0.1042395E-04  0.2087243E+04  0.7818609E-02  0.8566884E-01
       -1   -1    0    0    0  501  0.00000000000E+00  0.00000000000E+00  0.94965383676E+03  0.94965383677E+03  0.50400001928E-02 0. -1.
        1   -1    0    0  501    0  0.00000000000E+00  0.00000000000E+00 -0.11468873159E+04  0.11468873159E+04  0.50400001928E-02 0.  1.
    10030    2    1    2    0    0  0.00000000000E+00  0.00000000000E+00 -0.19723347913E+03  0.20965411527E+04  0.20872431003E+04 0.  0.
        3    1    3    3  502    0 -0.25894873348E+03 -0.81741476967E+03  0.49894903930E+03  0.99205418515E+03  0.10100000352E+00 0. -1.
       -3    1    3    3    0  502  0.25894873348E+03  0.81741476967E+03 -0.69618251843E+03  0.11044869675E+04  0.10100000352E+00 0.  1.
</event>
<event>
 5   0  0.1156733E-04  0.1454797E+04  0.7818609E-02  0.8915081E-01
       -1   -1    0    0    0  501  0.00000000000E+00  0.00000000000E+00  0.38386426636E+03  0.38386426640E+03  0.50400001928E-02 0. -1.
        1   -1    0    0  501    0  0.00000000000E+00  0.00000000000E+00 -0.13783750427E+04  0.13783750427E+04  0.50400001928E-02 0.  1.
    10030    2    1    2    0    0  0.00000000000E+00  0.00000000000E+00 -0.99451077634E+03  0.17622393091E+04  0.14547974767E+04 0.  0.
        2    1    3    3  502    0  0.46831528828E+03  0.55183294243E+03 -0.58519257251E+03  0.93074655654E+03  0.25500000920E-02 0. -1.
       -2    1    3    3    0  502 -0.46831528828E+03 -0.55183294243E+03 -0.40931820383E+03  0.83149275257E+03  0.25500000920E-02 0.  1.
</event>
<event>
 5   0  0.1130848E-04  0.2019777E+04  0.7818609E-02  0.8597430E-01
       -1   -1    0    0    0  501  0.00000000000E+00  0.00000000000E+00  0.93050025410E+03  0.93050025411E+03  0.50400001928E-02 0. -1.
        1   -1    0    0  501    0  0.00000000000E+00  0.00000000000E+00 -0.10960504430E+04  0.10960504430E+04  0.50400001928E-02 0.  1.
    10030    2    1    2    0    0  0.00000000000E+00  0.00000000000E+00 -0.16555018886E+03  0.20265506971E+04  0.20197774290E+04 0.  0.
        5    1    3    3  502    0 -0.54176128534E+03 -0.66733500060E+03 -0.61465828037E+03  0.10567252173E+04  0.46999998093E+01 0.  1.
       -5    1    3    3    0  502  0.54176128534E+03  0.66733500060E+03  0.44910809150E+03  0.96982547975E+03  0.46999998093E+01 0. -1.
</event>
<event>
 5   0  0.2467483E-04  0.2093466E+04  0.7818609E-02  0.8564127E-01
        2   -1    0    0  501    0  0.00000000000E+00  0.00000000000E+00  0.23243982671E+04  0.23243982671E+04  0.25500000920E-02 0. -1.
       -2   -1    0    0    0  501  0.00000000000E+00  0.00000000000E+00 -0.47136911641E+03  0.47136911641E+03  0.25500000920E-02 0.  1.
    10030    2    1    2    0    0  0.00000000000E+00  0.00000000000E+00  0.18530291507E+04  0.27957673835E+04  0.20934656026E+04 0.  0.
        4    1    3    3  502    0  0.98067682447E+03 -0.34770923931E+03  0.10788943320E+04  0.14988806963E+04  0.12699999809E+01 0. -1.
       -4    1    3    3    0  502 -0.98067682447E+03  0.34770923931E+03  0.77413481875E+03  0.12968866873E+04  0.12699999809E+01 0.  1.
</event>
<event>
 5   0  0.1122711E-04  0.2130736E+04  0.7818609E-02  0.8547823E-01
        1   -1    0    0  501    0  0.00000000000E+00  0.00000000000E+00  0.10173199991E+04  0.10173199991E+04  0.50400001928E-02 0. -1.
       -1   -1    0    0    0  501  0.00000000000E+00  0.00000000000E+00 -0.11156857478E+04  0.11156857478E+04  0.50400001928E-02 0.  1.
    10030    2    1    2    0    0  0.00000000000E+00  0.00000000000E+00 -0.98365748714E+02  0.21330057469E+04  0.21307364210E+04 0.  0.
        1    1    3    3  502    0  0.37932151458E+03 -0.19490244686E+03 -0.10265103502E+04  0.11115733328E+04  0.50400001928E-02 0.  1.
       -1    1    3    3    0  502 -0.37932151458E+03  0.19490244686E+03  0.92814460146E+03  0.10214324140E+04  0.50400001928E-02 0. -1.
</event>
<event>
 5   0  0.1130848E-04  0.1387283E+04  0.7818609E-02  0.8963076E-01
       -1   -1    0    0    0  501  0.00000000000E+00  0.00000000000E+00  0.64746082069E+03  0.64746082071E+03  0.50400001928E-02 0.  1.
        1   -1    0    0  501    0  0.00000000000E+00  0.00000000000E+00 -0.74311555948E+03  0.74311555949E+03  0.50400001928E-02 0. -1.
    10030    2    1    2    0    0  0.00000000000E+00  0.00000000000E+00 -0.95654738782E+02  0.13905763802E+04  0.13872825380E+04 0.  0.
        5    1    3    3  502    0 -0.22094935448E+03 -0.18478516516E+02 -0.70662147955E+03  0.74060521074E+03  0.46999998093E+01 0. -1.
       -5    1    3    3    0  502  0.22094935448E+03  0.18478516516E+02  0.61096674077E+03  0.64997116947E+03  0.46999998093E+01 0.  1.
</event>
<event>
 5   0  0.1122711E-04  0.2083685E+04  0.7818609E-02  0.8568464E-01
        1   -1    0    0  501    0  0.00000000000E+00  0.00000000000E+00  0.89194731880E+03  0.89194731881E+03  0.50400001928E-02 0. -1.
       -1   -1    0    0    0  501  0.00000000000E+00  0.00000000000E+00 -0.12169283657E+04  0.12169283657E+04  0.50400001928E-02 0.  1.
    10030    2    1    2    0    0  0.00000000000E+00  0.00000000000E+00 -0.32498104687E+03  0.21088756845E+04  0.20836851902E+04 0.  0.
        1    1    3    3  502    0 -0.49925302383E+03 -0.91438642195E+03 -0.17153627466E+03  0.10558318067E+04  0.50400001928E-02 0.  1.
       -1    1    3    3    0  502  0.49925302383E+03  0.91438642195E+03 -0.15344477221E+03  0.10530438778E+04  0.50400001928E-02 0. -1.
</event>
<event>
 5   0  0.1156733E-04  0.2193305E+04  0.7818609E-02  0.8521220E-01
        1   -1    0    0  501    0  0.00000000000E+00  0.00000000000E+00  0.97839734079E+03  0.97839734080E+03  0.50400001928E-02 0.  1.
       -1   -1    0    0    0  501  0.00000000000E+00  0.00000000000E+00 -0.12292009694E+04  0.12292009694E+04  0.50400001928E-02 0. -1.
    10030    2    1    2    0    0  0.00000000000E+00  0.00000000000E+00 -0.25080362857E+03  0.22075983102E+04  0.21933052316E+04 0.  0.
        2    1    3    3  502    0 -0.53349448168E+03 -0.53740249560E+03 -0.92381076530E+03  0.11945058118E+04  0.25500000920E-02 0. -1.
       -2    1    3    3    0  502  0.53349448168E+03  0.53740249560E+03  0.67300713672E+03  0.10130924984E+04  0.25500000920E-02 0.  1.
</event>
<event>
 5   0  0.2579241E-04  0.2132331E+04  0.7818609E-02  0.8547134E-01
       -2   -1    0    0    0  501  0.00000000000E+00  0.00000000000E+00  0.12606209119E+04  0.12606209119E+04  0.25500000920E-02 0.  1.
        2   -1    0    0  501    0  0.00000000000E+00  0.00000000000E+00 -0.90170520305E+03  0.90170520305E+03  0.25500000920E-02 0. -1.
    10030    2    1    2    0    0  0.00000000000E+00  0.00000000000E+00  0.35891570882E+03  0.21623261149E+04  0.21323305891E+04 0.  0.
        5    1    3    3  502    0 -0.24414854749E+01 -0.10321062360E+04 -0.91579138903E+02  0.10361747304E+04  0.46999998093E+01 0. -1.
       -5    1    3    3    0  502  0.24414854749E+01  0.10321062360E+04  0.45049484773E+03  0.11261513846E+04  0.46999998093E+01 0.  1.
</event>
<event>
 5   0  0.2467483E-04  0.2102314E+04  0.7818609E-02  0.8560225E-01
        2   -1    0    0  501    0  0.00000000000E+00  0.00000000000E+00  0.11730626595E+04  0.11730626595E+04  0.25500000920E-02 0.  1.
       -2   -1    0    0    0  501  0.00000000000E+00  0.00000000000E+00 -0.94191989166E+03  0.94191989167E+03  0.25500000920E-02 0. -1.
    10030    2    1    2    0    0  0.00000000000E+00  0.00000000000E+00  0.23114276780E+03  0.21149825511E+04  0.21023140138E+04 0.  0.
        4    1    3    3  502    0  0.84361970328E+03 -0.35671856488E+03  0.63441860171E+03  0.11141951864E+04  0.12699999809E+01 0.  1.
       -4    1    3    3    0  502 -0.84361970328E+03  0.35671856488E+03 -0.40327583392E+03  0.10007873647E+04  0.12699999809E+01 0. -1.
</event>
<event>
 5   0  0.1042395E-04  0.2045786E+04  0.7818609E-02  0.8585508E-01
        1   -1    0    0  501    0  0.00000000000E+00  0.00000000000E+00  0.18060371702E+04  0.18060371702E+04  0.50400001928E-02 0.  1.
       -1   -1    0    0    0  501  0.00000000000E+00  0.00000000000E+00 -0.57934046234E+03  0.57934046236E+03  0.50400001928E-02 0. -1.
    10030    2    1    2    0    0  0.00000000000E+00  0.00000000000E+00  0.12266967079E+04  0.23853776326E+04  0.20457863126E+04 0.  0.
        3    1    3    3  502    0  0.74794444061E+03 -0.66598052197E+03  0.85614282465E+03  0.13175475279E+04  0.10100000352E+00 0.  1.
       -3    1    3    3    0  502 -0.74794444061E+03  0.66598052197E+03  0.37055388323E+03  0.10678301047E+04  0.10100000352E+00 0. -1.
</event>
<event>
 5   0  0.1156733E-04  0.2105024E+04  0.7818609E-02  0.8559034E-01
        1   -1    0    0  501    0  0.00000000000E+00  0.00000000000E+00  0.94782109954E+03  0.94782109955E+03  0.50400001928E-02 0. -1.
       -1   -1    0    0    0  501  0.00000000000E+00  0.00000000000E+00 -0.11687663201E+04  0.11687663201E+04  0.50400001928E-02 0.  1.
    10030    2    1    2    0    0  0.00000000000E+00  0.00000000000E+00 -0.22094522060E+03  0.21165874197E+04  0.21050238751E+04 0.  0.
        2    1    3    3  502    0  0.20971321196E+03 -0.84225935572E+03 -0.70905868312E+03  0.11207785998E+04  0.25500000920E-02 0.  1.
       -2    1    3    3    0  502 -0.20971321196E+03  0.84225935572E+03  0.48811346252E+03  0.99580881994E+03  0.25500000920E-02 0. -1.
</event>
<event>
 5   0  0.2467483E-04  0.2091488E+04  0.7818609E-02  0.8565002E-01
       -2   -1    0    0    0  501  0.00000000000E+00  0.00000000000E+00  0.11187795365E+04  0.11187795365E+04  0.25500000920E-02 0.  1.
        2   -1    0    0  501    0  0.00000000000E+00  0.00000000000E+00 -0.97747619319E+03  0.97747619319E+03  0.25500000920E-02 0. -1.
    10030    2    1    2    0    0  0.00000000000E+00  0.00000000000E+00  0.14130334327E+03  0.20962557297E+04  0.20914878554E+04 0.  0.
        4    1    3    3  502    0  0.24789069770E+03 -0.99807011926E+03  0.26078121250E+03  0.10609440205E+04  0.12699999809E+01 0.  1.
       -4    1    3    3    0  502 -0.24789069770E+03  0.99807011926E+03 -0.11947786923E+03  0.10353117091E+04  0.12699999809E+01 0. -1.
</event>
<event>
 5   0  0.1122711E-04  0.2138347E+04  0.7818609E-02  0.8544537E-01
        1   -1    0    0  501    0  0.00000000000E+00  0.00000000000E+00  0.17339673362E+04  0.17339673363E+04  0.50400001928E-02 0. -1.
       -1   -1    0    0    0  501  0.00000000000E+00  0.00000000000E+00 -0.65925814508E+03  0.65925814510E+03  0.50400001928E-02 0.  1.
    10030    2    1    2    0    0  0.00000000000E+00  0.00000000000E+00  0.10747091912E+04  0.23932254814E+04  0.21383471091E+04 0.  0.
        1    1    3    3  502    0 -0.18409552051E+03  0.84786977430E+03 -0.16190241839E+03  0.88260223654E+03  0.50400001928E-02 0.  1.
       -1    1    3    3    0  502  0.18409552051E+03 -0.84786977430E+03  0.12366116096E+04  0.15106232448E+04  0.50400001928E-02 0. -1.
</event>
<event>
 5   0  0.2430898E-04  0.2123146E+04  0.7818609E-02  0.8551115E-01
       -2   -1    0    0    0  501  0.00000000000E+00  0.00000000000E+00  0.75547935202E+03  0.75547935202E+03  0.25500000920E-02 0.  1.
        2   -1    0    0  501    0  0.00000000000E+00  0.00000000000E+00 -0.14916850147E+04  0.14916850147E+04  0.25500000920E-02 0. -1.
    10030    2    1    2    0    0  0.00000000000E+00  0.00000000000E+00 -0.73620566269E+03  0.22471643667E+04  0.21231459944E+04 0.  0.
        1    1    3    3  502    0 -0.25636455799E+03  0.48599529508E+03 -0.13294671805E+04  0.14385399533E+04  0.50400001928E-02 0. -1.
       -1    1    3    3    0  502  0.25636455799E+03 -0.48599529508E+03  0.59326151777E+03  0.80862441339E+03  0.50400001928E-02 0.  1.
</event>
<event>
 5   0  0.1122711E-04  0.2200051E+04  0.7818609E-02  0.8518407E-01
        1   -1    0    0  501    0  0.00000000000E+00  0.00000000000E+00  0.13662947302E+04  0.13662947302E+04  0.50400001928E-02 0. -1.
       -1   -1    0    0    0  501  0.00000000000E+00  0.00000000000E+00 -0.88564811524E+03  0.88564811526E+03  0.50400001928E-02 0.  1.
    10030    2    1    2    0    0  0.00000000000E+00  0.00000000000E+00  0.48064661495E+03  0.22519428455E+04  0.22000512291E+04 0.  0.
        1    1    3    3  502    0 -0.51611703110E+03 -0.94129366014E+03  0.48608174464E+03  0.11784252233E+04  0.50400001928E-02 0. -1.
       -1    1    3    3    0  502  0.51611703110E+03  0.94129366014E+03 -0.54351296844E+01  0.10735176222E+04  0.50400001928E-02 0.  1.
</event>
<event>
 5   0  0.1122711E-04  0.1985785E+04  0.7818609E-02  0.8613295E-01
       -1   -1    0    0    0  501  0.00000000000E+00  0.00000000000E+00  0.62796676661E+03  0.62796676663E+03  0.50400001928E-02 0. -1.
        1   -1    0    0  501    0  0.00000000000E+00  0.00000000000E+00 -0.15698853868E+04  0.15698853868E+04  0.50400001928E-02 0.  1.
    10030    2    1    2    0    0  0.00000000000E+00  0.00000000000E+00 -0.94191862020E+03  0.21978521535E+04  0.19857853362E+04 0.  0.
        1    1    3    3  502    0 -0.22453829643E+03  0.26833580644E+03  0.55747319240E+03  0.65817772057E+03  0.50400001928E-02 0. -1.
       -1    1    3    3    0  502  0.22453829643E+03 -0.26833580644E+03 -0.14993918126E+04  0.15396744329E+04  0.50400001928E-02 0.  1.
</event>
<event>
 5   0  0.2512839E-04  0.2114996E+04  0.7818609E-02  0.8554666E-01
        2   -1    0    0  501    0  0.00000000000E+00  0.00000000000E+00  0.12737150763E+04  0.12737150763E+04  0.25500000920E-02 0.  1.
       -2   -1    0    0    0  501  0.00000000000E+00  0.00000000000E+00 -0.87798419129E+03  0.87798419129E+03  0.25500000920E-02 0. -1.
    10030    2    1    2    0    0  0.00000000000E+00  0.00000000000E+00  0.39573088499E+03  0.21516992676E+04  0.21149956985E+04 0.  0.
        3    1    3    3  502    0  0.84521656535E+03 -0.63227242166E+03  0.13238835258E+03  0.10638073809E+04  0.10100000352E+00 0.  1.
       -3    1    3    3    0  502 -0.84521656535E+03  0.63227242166E+03  0.26334253240E+03  0.10878918867E+04  0.10100000352E+00 0. -1.
</event>
<event>
 5   0  0.1130848E-04  0.2059709E+04  0.7818609E-02  0.8579202E-01
       -1   -1    0    0    0  501  0.00000000000E+00  0.00000000000E+00  0.10784375439E+04  0.10784375439E+04  0.50400001928E-02 0. -1.
        1   -1    0    0  501    0  0.00000000000E+00  0.00000000000E+00 -0.98346042415E+03  0.98346042416E+03  0.50400001928E-02 0.  1.
    10030    2    1    2    0    0  0.00000000000E+00  0.00000000000E+00  0.94977119719E+02  0.20618979680E+04  0.20597093429E+04 0.  0.
        5    1    3    3  502    0 -0.16190449599E+03 -0.52858853473E+03  0.91729596726E+03  0.10710148862E+04  0.46999998093E+01 0. -1.
       -5    1    3    3    0  502  0.16190449599E+03  0.52858853473E+03 -0.82231884755E+03  0.99088308185E+03  0.46999998093E+01 0.  1.
</event>
<event>
 5   0  0.2512839E-04  0.2010893E+04  0.7818609E-02  0.8601545E-01
        2   -1    0    0  501    0  0.00000000000E+00  0.00000000000E+00  0.18131116354E+04  0.18131116354E+04  0.25500000920E-02 0.  1.
       -2   -1    0    0    0  501  0.00000000000E+00  0.00000000000E+00 -0.55756213245E+03  0.55756213246E+03  0.25500000920E-02 0. -1.
    10030    2    1    2    0    0  0.00000000000E+00  0.00000000000E+00  0.12555495030E+04  0.23706737679E+04  0.20108927269E+04 0.  0.
        3    1    3    3  502    0 -0.74077045177E+03 -0.14671202425E+03  0.14103629176E+04  0.15998090042E+04  0.10100000352E+00 0.  1.
       -3    1    3    3    0  502  0.74077045177E+03  0.14671202425E+03 -0.15481341469E+03  0.77086476366E+03  0.10100000352E+00 0. -1.
</event>
<event>
 5   0  0.2467483E-04  0.2025350E+04  0.7818609E-02  0.8594860E-01
        2   -1    0    0  501    0  0.00000000000E+00  0.00000000000E+00  0.27260433907E+04  0.27260433907E+04  0.25500000920E-02 0. -1.
       -2   -1    0    0    0  501  0.00000000000E+00  0.00000000000E+00 -0.37619010056E+03  0.37619010057E+03  0.25500000920E-02 0.  1.
    10030    2    1    2    0    0  0.00000000000E+00  0.00000000000E+00  0.23498532901E+04  0.31022334912E+04  0.20253498831E+04 0.  0.
        4    1    3    3  502    0  0.62667833718E+03  0.79166921048E+03  0.10558566274E+04  0.14609246071E+04  0.12699999809E+01 0.  1.
       -4    1    3    3    0  502 -0.62667833718E+03 -0.79166921048E+03  0.12939966627E+04  0.16413088841E+04  0.12699999809E+01 0. -1.
</event>
<event>
 5   0  0.2512839E-04  0.1975644E+04  0.7818609E-02  0.8618093E-01
       -2   -1    0    0    0  501  0.00000000000E+00  0.00000000000E+00  0.82503939282E+03  0.82503939283E+03  0.25500000920E-02 0. -1.
        2   -1    0    0  501    0  0.00000000000E+00  0.00000000000E+00 -0.11827218629E+04  0.11827218629E+04  0.25500000920E-02 0.  1.
    10030    2    1    2    0    0  0.00000000000E+00  0.00000000000E+00 -0.35768247010E+03  0.20077612558E+04  0.19756438218E+04 0.  0.
        3    1    3    3  502    0  0.72200310701E+03 -0.42441686451E+03  0.35348131157E+03  0.90904741859E+03  0.10100000352E+00 0. -1.
       -3    1    3    3    0  502 -0.72200310701E+03  0.42441686451E+03 -0.71116378167E+03  0.10987138372E+04  0.10100000352E+00 0.  1.
</event>
<event>
 5   0  0.2430898E-04  0.2148124E+04  0.7818609E-02  0.8540336E-01
        2   -1    0    0  501    0  0.00000000000E+00  0.00000000000E+00  0.24193176352E+04  0.24193176352E+04  0.25500000920E-02 0. -1.
       -2   -1    0    0    0  501  0.00000000000E+00  0.00000000000E+00 -0.47683252434E+03  0.47683252434E+03  0.25500000920E-02 0.  1.
    10030    2    1    2    0    0  0.00000000000E+00  0.00000000000E+00  0.19424851108E+04  0.28961501595E+04  0.21481241446E+04 0.  0.
        1    1    3    3  502    0  0.10684943864E+04 -0.60147201767E+02  0.84832931348E+03  0.13656355897E+04  0.50400001928E-02 0.  1.
       -1    1    3    3    0  502 -0.10684943864E+04  0.60147201767E+02  0.10941557974E+04  0.15305145699E+04  0.50400001928E-02 0. -1.
</event>
<event>
 5   0  0.1156733E-04  0.2103716E+04  0.7818609E-02  0.8559608E-01
       -1   -1    0    0    0  501  0.00000000000E+00  0.00000000000E+00  0.47107164831E+03  0.47107164834E+03  0.50400001928E-02 0.  1.
        1   -1    0    0  501    0  0.00000000000E+00  0.00000000000E+00 -0.23486983382E+04  0.23486983382E+04  0.50400001928E-02 0. -1.
    10030    2    1    2    0    0  0.00000000000E+00  0.00000000000E+00 -0.18776266898E+04  0.28197699865E+04  0.21037159481E+04 0.  0.
        2    1    3    3  502    0 -0.36693856441E+03  0.13118486217E+03 -0.22483761732E+04  0.22818958772E+04  0.25500000920E-02 0. -1.
       -2    1    3    3    0  502  0.36693856441E+03 -0.13118486217E+03  0.37074948332E+03  0.53787410935E+03  0.25500000920E-02 0.  1.
</event>
<event>
 5   0  0.1186038E-04  0.2065853E+04  0.7818609E-02  0.8576436E-01
        1   -1    0    0  501    0  0.00000000000E+00  0.00000000000E+00  0.79103409929E+03  0.79103409930E+03  0.50400001928E-02 0. -1.
       -1   -1    0    0    0  501  0.00000000000E+00  0.00000000000E+00 -0.13487884492E+04  0.13487884492E+04  0.50400001928E-02 0.  1.
    10030    2    1    2    0    0  0.00000000000E+00  0.00000000000E+00 -0.55775434993E+03  0.21398225485E+04  0.20658534857E+04 0.  0.
        4    1    3    3  502    0 -0.37381548553E+03  0.47680901004E+03  0.58764782353E+03  0.84404764479E+03  0.12699999809E+01 0. -1.
       -4    1    3    3    0  502  0.37381548553E+03 -0.47680901004E+03 -0.11454021735E+04  0.12957749037E+04  0.12699999809E+01 0.  1.
</event>
<event>
 5   0  0.2579241E-04  0.1423012E+04  0.7818609E-02  0.8937328E-01
        2   -1    0    0  501    0  0.00000000000E+00  0.00000000000E+00  0.15249562047E+04  0.15249562047E+04  0.25500000920E-02 0.  1.
       -2   -1    0    0    0  501  0.00000000000E+00  0.00000000000E+00 -0.33197066143E+03  0.33197066144E+03  0.25500000920E-02 0. -1.
    10030    2    1    2    0    0  0.00000000000E+00  0.00000000000E+00  0.11929855432E+04  0.18569268661E+04  0.14230119043E+04 0.  0.
        5    1    3    3  502    0 -0.94386725557E+02  0.12913536252E+02 -0.32359008337E+03  0.33735477681E+03  0.46999998093E+01 0. -1.
       -5    1    3    3    0  502  0.94386725557E+02 -0.12913536252E+02  0.15165756266E+04  0.15195720893E+04  0.46999998093E+01 0.  1.
</event>
<event>
 5   0  0.1122711E-04  0.2009950E+04  0.7818609E-02  0.8601983E-01
        1   -1    0    0  501    0  0.00000000000E+00  0.00000000000E+00  0.70425974142E+03  0.70425974144E+03  0.50400001928E-02 0.  1.
       -1   -1    0    0    0  501  0.00000000000E+00  0.00000000000E+00 -0.14340936578E+04  0.14340936578E+04  0.50400001928E-02 0. -1.
    10030    2    1    2    0    0  0.00000000000E+00  0.00000000000E+00 -0.72983391639E+03  0.21383533993E+04  0.20099496796E+04 0.  0.
        1    1    3    3  502    0 -0.64143254139E+03  0.75733971073E+03 -0.53304863021E+03  0.11265611323E+04  0.50400001928E-02 0. -1.
       -1    1    3    3    0  502  0.64143254139E+03 -0.75733971073E+03 -0.19678528618E+03  0.10117922670E+04  0.50400001928E-02 0.  1.
</event>
<event>
 5   0  0.1186038E-04  0.2059025E+04  0.7818609E-02  0.8579511E-01
        1   -1    0    0  501    0  0.00000000000E+00  0.00000000000E+00  0.15673253800E+04  0.15673253800E+04  0.50400001928E-02 0.  1.
       -1   -1    0    0    0  501  0.00000000000E+00  0.00000000000E+00 -0.67624520496E+03  0.67624520498E+03  0.50400001928E-02 0. -1.
    10030    2    1    2    0    0  0.00000000000E+00  0.00000000000E+00  0.89108017503E+03  0.22435705850E+04  0.20590252770E+04 0.  0.
        4    1    3    3  502    0 -0.98894886536E+03  0.20485895942E+02  0.13455663612E+03  0.99827182242E+03  0.12699999809E+01 0. -1.
       -4    1    3    3    0  502  0.98894886536E+03 -0.20485895942E+02  0.75652353891E+03  0.12452987626E+04  0.12699999809E+01 0.  1.
</event>
<event>
 5   0  0.1130848E-04  0.2187265E+04  0.7818609E-02  0.8523747E-01
       -1   -1    0    0    0  501  0.00000000000E+00  0.00000000000E+00  0.20238446071E+04  0.20238446071E+04  0.50400001928E-02 0.  1.
        1   -1    0    0  501    0  0.00000000000E+00  0.00000000000E+00 -0.59097023598E+03  0.59097023600E+03  0.50400001928E-02 0. -1.
    10030    2    1    2    0    0  0.00000000000E+00  0.00000000000E+00  0.14328743711E+04  0.26148148431E+04  0.21872648903E+04 0.  0.
        5    1    3    3  502    0  0.39824920162E+03 -0.17490704266E+03  0.19159762183E+04  0.19647345519E+04  0.46999998093E+01 0.  1.
       -5    1    3    3    0  502 -0.39824920162E+03  0.17490704266E+03 -0.48310184725E+03  0.65008029118E+03  0.46999998093E+01 0. -1.
</event>
<event>
 5   0  0.2467483E-04  0.2051549E+04  0.7818609E-02  0.8582892E-01
        2   -1    0    0  501    0  0.00000000000E+00  0.00000000000E+00  0.10163121610E+04  0.10163121610E+04  0.25500000920E-02 0.  1.
       -2   -1    0    0    0  501  0.00000000000E+00  0.00000000000E+00 -0.10353249573E+04  0.10353249573E+04  0.25500000920E-02 0. -1.
    10030    2    1    2    0    0  0.00000000000E+00  0.00000000000E+00 -0.19012796373E+02  0.20516371183E+04  0.20515490194E+04 0.  0.
        4    1    3    3  502    0  0.40322335322E+03 -0.13592634041E+03  0.92388607528E+03  0.10171686859E+04  0.12699999809E+01 0.  1.
       -4    1    3    3    0  502 -0.40322335322E+03  0.13592634041E+03 -0.94289887165E+03  0.10344684324E+04  0.12699999809E+01 0. -1.
</event>
<event>
 5   0  0.1122711E-04  0.2201918E+04  0.7818609E-02  0.8517630E-01
       -1   -1    0    0    0  501  0.00000000000E+00  0.00000000000E+00  0.78893447674E+03  0.78893447675E+03  0.50400001928E-02 0.  1.
        1   -1    0    0  501    0  0.00000000000E+00  0.00000000000E+00 -0.15363892366E+04  0.15363892366E+04  0.50400001928E-02 0. -1.
    10030    2    1    2    0    0  0.00000000000E+00  0.00000000000E+00 -0.74745475985E+03  0.23253237134E+04  0.22019177446E+04 0.  0.
        1    1    3    3  502    0  0.91694340927E+03  0.60246997475E+03 -0.47025675862E+03  0.11936903725E+04  0.50400001928E-02 0.  1.
       -1    1    3    3    0  502 -0.91694340927E+03 -0.60246997475E+03 -0.27719800123E+03  0.11316333409E+04  0.50400001928E-02 0. -1.
</event>
<event>
 5   0  0.2448804E-04  0.2050912E+04  0.7818609E-02  0.8583181E-01
       -2   -1    0    0    0  501  0.00000000000E+00  0.00000000000E+00  0.78066826319E+03  0.78066826319E+03  0.25500000920E-02 0. -1.
        2   -1    0    0  501    0  0.00000000000E+00  0.00000000000E+00 -0.13470000022E+04  0.13470000022E+04  0.25500000920E-02 0.  1.
    10030    2    1    2    0    0  0.00000000000E+00  0.00000000000E+00 -0.56633173906E+03  0.21276682654E+04  0.20509121408E+04 0.  0.
        2    1    3    3  502    0 -0.98361655364E+03  0.12503090450E+02 -0.58366539755E+03  0.11438195435E+04  0.25500000920E-02 0. -1.
       -2    1    3    3    0  502  0.98361655364E+03 -0.12503090450E+02  0.17333658493E+02  0.98384872190E+03  0.25500000920E-02 0.  1.
</event>
<event>
 5   0  0.2579241E-04  0.2052533E+04  0.7818609E-02  0.8582446E-01
       -2   -1    0    0    0  501  0.00000000000E+00  0.00000000000E+00  0.10552490098E+04  0.10552490098E+04  0.25500000920E-02 0.  1.
        2   -1    0    0  501    0  0.00000000000E+00  0.00000000000E+00 -0.99807973719E+03  0.99807973719E+03  0.25500000920E-02 0. -1.
    10030    2    1    2    0    0  0.00000000000E+00  0.00000000000E+00  0.57169272653E+02  0.20533287470E+04  0.20525327324E+04 0.  0.
        5    1    3    3  502    0  0.83892824864E+03 -0.77280335970E+02 -0.55766969082E+03  0.10103417396E+04  0.46999998093E+01 0. -1.
       -5    1    3    3    0  502 -0.83892824864E+03  0.77280335970E+02  0.61483896348E+03  0.10429870074E+04  0.46999998093E+01 0.  1.
</event>
<event>
 5   0  0.1042395E-04  0.2065098E+04  0.7818609E-02  0.8576776E-01
        1   -1    0    0  501    0  0.00000000000E+00  0.00000000000E+00  0.10762181181E+04  0.10762181181E+04  0.50400001928E-02 0.  1.
       -1   -1    0    0    0  501  0.00000000000E+00  0.00000000000E+00 -0.99065199526E+03  0.99065199527E+03  0.50400001928E-02 0. -1.
    10030    2    1    2    0    0  0.00000000000E+00  0.00000000000E+00  0.85566122830E+02  0.20668701134E+04  0.20650981827E+04 0.  0.
        3    1    3    3  502    0  0.53155454382E+03  0.75621174239E+03 -0.41777607710E+03  0.10143684208E+04  0.10100000352E+00 0. -1.
       -3    1    3    3    0  502 -0.53155454382E+03 -0.75621174239E+03  0.50334219993E+03  0.10525016925E+04  0.10100000352E+00 0.  1.
</event>
<event>
 5   0  0.1130848E-04  0.2106331E+04  0.7818609E-02  0.8558460E-01
       -1   -1    0    0    0  501  0.00000000000E+00  0.00000000000E+00  0.56755646171E+03  0.56755646173E+03  0.50400001928E-02 0. -1.
        1   -1    0    0  501    0  0.00000000000E+00  0.00000000000E+00 -0.19542675707E+04  0.19542675707E+04  0.50400001928E-02 0.  1.
    10030    2    1    2    0    0  0.00000000000E+00  0.00000000000E+00 -0.13867111090E+04  0.25218240325E+04  0.21063306366E+04 0.  0.
        5    1    3    3  502    0  0.10440983553E+03  0.26476933386E+03  0.52062697557E+03  0.59336224315E+03  0.46999998093E+01 0. -1.
       -5    1    3    3    0  502 -0.10440983553E+03 -0.26476933386E+03 -0.19073380846E+04  0.19284617893E+04  0.46999998093E+01 0.  1.
</event>
<event>
 5   0  0.2448804E-04  0.2145031E+04  0.7818609E-02  0.8541662E-01
        2   -1    0    0  501    0  0.00000000000E+00  0.00000000000E+00  0.14124028120E+04  0.14124028120E+04  0.25500000920E-02 0.  1.
       -2   -1    0    0    0  501  0.00000000000E+00  0.00000000000E+00 -0.81442050291E+03  0.81442050292E+03  0.25500000920E-02 0. -1.
    10030    2    1    2    0    0  0.00000000000E+00  0.00000000000E+00  0.59798230913E+03  0.22268233150E+04  0.21450312898E+04 0.  0.
        2    1    3    3  502    0  0.72187157589E+03 -0.74652806284E+03  0.57733240459E+03  0.11881563138E+04  0.25500000920E-02 0.  1.
       -2    1    3    3    0  502 -0.72187157589E+03  0.74652806284E+03  0.20649904539E+02  0.10386670011E+04  0.25500000920E-02 0. -1.
</event>
<event>
 5   0  0.1186038E-04  0.2130782E+04  0.7818609E-02  0.8547804E-01
        1   -1    0    0  501    0  0.00000000000E+00  0.00000000000E+00  0.17963416451E+04  0.17963416451E+04  0.50400001928E-02 0. -1.
       -1   -1    0    0    0  501  0.00000000000E+00  0.00000000000E+00 -0.63187179692E+03  0.63187179695E+03  0.50400001928E-02 0.  1.
    10030    2    1    2    0    0  0.00000000000E+00  0.00000000000E+00  0.11644698482E+04  0.24282134420E+04  0.21307816624E+04 0.  0.
        4    1    3    3  502    0  0.43499536277E+03  0.85627341920E+03  0.11077208306E+04  0.14661078356E+04  0.12699999809E+01 0. -1.
       -4    1    3    3    0  502 -0.43499536277E+03 -0.85627341920E+03  0.56749017531E+02  0.96210560645E+03  0.12699999809E+01 0.  1.
</event>
<event>
 5   0  0.2512839E-04  0.1663177E+04  0.7818609E-02  0.8782649E-01
        2   -1    0    0  501    0  0.00000000000E+00  0.00000000000E+00  0.98966950054E+03  0.98966950054E+03  0.25500000920E-02 0. -1.
       -2   -1    0    0    0  501  0.00000000000E+00  0.00000000000E+00 -0.69875798545E+03  0.69875798545E+03  0.25500000920E-02 0.  1.
    10030    2    1    2    0    0  0.00000000000E+00  0.00000000000E+00  0.29091151509E+03  0.16884274860E+04  0.16631770398E+04 0.  0.
        3    1    3    3  502    0  0.40678465191E+03 -0.68221068886E+03  0.39547570274E+03  0.88729150717E+03  0.10100000352E+00 0. -1.
       -3    1    3    3    0  502 -0.40678465191E+03  0.68221068886E+03 -0.10456418765E+03  0.80113597883E+03  0.10100000352E+00 0.  1.
</event>
<event>
 5   0  0.2579241E-04  0.2139488E+04  0.7818609E-02  0.8544045E-01
        2   -1    0    0  501    0  0.00000000000E+00  0.00000000000E+00  0.10183099474E+04  0.10183099474E+04  0.25500000920E-02 0. -1.
       -2   -1    0    0    0  501  0.00000000000E+00  0.00000000000E+00 -0.11237763613E+04  0.11237763613E+04  0.25500000920E-02 0.  1.
    10030    2    1    2    0    0  0.00000000000E+00  0.00000000000E+00 -0.10546641395E+03  0.21420863087E+04  0.21394883943E+04 0.  0.
        5    1    3    3  502    0  0.16511680893E+02  0.80222564964E+03 -0.76104678896E+03  0.11059172363E+04  0.46999998093E+01 0.  1.
       -5    1    3    3    0  502 -0.16511680893E+02 -0.80222564964E+03  0.65558037502E+03  0.10361690724E+04  0.46999998093E+01 0. -1.
</event>
<event>
 5   0  0.2430898E-04  0.1772958E+04  0.7818609E-02  0.8720814E-01
        2   -1    0    0  501    0  0.00000000000E+00  0.00000000000E+00  0.13479749044E+04  0.13479749044E+04  0.25500000920E-02 0. -1.
       -2   -1    0    0    0  501  0.00000000000E+00  0.00000000000E+00 -0.58298191920E+03  0.58298191920E+03  0.25500000920E-02 0.  1.
    10030    2    1    2    0    0  0.00000000000E+00  0.00000000000E+00  0.76499298519E+03  0.19309568236E+04  0.17729579767E+04 0.  0.
        1    1    3    3  502    0  0.13983342159E+03  0.59772658219E+03 -0.31403939369E+03  0.68952969019E+03  0.50400001928E-02 0.  1.
       -1    1    3    3    0  502 -0.13983342159E+03 -0.59772658219E+03  0.10790323789E+04  0.12414271334E+04  0.50400001928E-02 0. -1.
</event>
<event>
 5   0  0.1122711E-04  0.2047539E+04  0.7818609E-02  0.8584712E-01
        1   -1    0    0  501    0  0.00000000000E+00  0.00000000000E+00  0.92044183208E+03  0.92044183210E+03  0.50400001928E-02 0.  1.
       -1   -1    0    0    0  501  0.00000000000E+00  0.00000000000E+00 -0.11386963744E+04  0.11386963744E+04  0.50400001928E-02 0. -1.
    10030    2    1    2    0    0  0.00000000000E+00  0.00000000000E+00 -0.21825454233E+03  0.20591382065E+04  0.20475387929E+04 0.  0.
        1    1    3    3  502    0 -0.89383126752E+03  0.43937364003E+03  0.12911188595E+03  0.10043173848E+04  0.50400001928E-02 0.  1.
       -1    1    3    3    0  502  0.89383126752E+03 -0.43937364003E+03 -0.34736642828E+03  0.10548208217E+04  0.50400001928E-02 0. -1.
</event>
<event>
 5   0  0.2430898E-04  0.2148495E+04  0.7818609E-02  0.8540177E-01
       -2   -1    0    0    0  501  0.00000000000E+00  0.00000000000E+00  0.11397334804E+04  0.11397334804E+04  0.25500000920E-02 0.  1.
        2   -1    0    0  501    0  0.00000000000E+00  0.00000000000E+00 -0.10125244939E+04  0.10125244939E+04  0.25500000920E-02 0. -1.
    10030    2    1    2    0    0  0.00000000000E+00  0.00000000000E+00  0.12720898655E+03  0.21522579743E+04  0.21484953483E+04 0.  0.
        1    1    3    3  502    0  0.48346908490E+02  0.82770504357E+03  0.74786368726E+03  0.11165720565E+04  0.50400001928E-02 0.  1.
       -1    1    3    3    0  502 -0.48346908490E+02 -0.82770504357E+03 -0.62065470071E+03  0.10356859178E+04  0.50400001928E-02 0. -1.
</event>
<event>
 5   0  0.1122711E-04  0.1795725E+04  0.7818609E-02  0.8708576E-01
        1   -1    0    0  501    0  0.00000000000E+00  0.00000000000E+00  0.38975594594E+03  0.38975594597E+03  0.50400001928E-02 0. -1.
       -1   -1    0    0    0  501  0.00000000000E+00  0.00000000000E+00 -0.20683641972E+04  0.20683641973E+04  0.50400001928E-02 0.  1.
    10030    2    1    2    0    0  0.00000000000E+00  0.00000000000E+00 -0.16786082513E+04  0.24581201432E+04  0.17957251953E+04 0.  0.
        1    1    3    3  502    0 -0.13598976336E+02  0.41048925209E+03 -0.19322367927E+04  0.19754051183E+04  0.50400001928E-02 0.  1.
       -1    1    3    3    0  502  0.13598976336E+02 -0.41048925209E+03  0.25362854142E+03  0.48271502492E+03  0.50400001928E-02 0. -1.
</event>
<event>
 5   0  0.2467483E-04  0.2086621E+04  0.7818609E-02  0.8567160E-01
       -2   -1    0    0    0  501  0.00000000000E+00  0.00000000000E+00  0.75287410031E+03  0.75287410031E+03  0.25500000920E-02 0. -1.
        2   -1    0    0  501    0  0.00000000000E+00  0.00000000000E+00 -0.14457885104E+04  0.14457885104E+04  0.25500000920E-02 0.  1.
    10030    2    1    2    0    0  0.00000000000E+00  0.00000000000E+00 -0.69291441009E+03  0.21986626107E+04  0.20866209277E+04 0.  0.
        4    1    3    3  502    0  0.68593671415E+03 -0.74792507820E+03 -0.60151679236E+03  0.11797140174E+04  0.12699999809E+01 0. -1.
       -4    1    3    3    0  502 -0.68593671415E+03  0.74792507820E+03 -0.91397617735E+02  0.10189485933E+04  0.12699999809E+01 0.  1.
</event>
<event>
 5   0  0.1122711E-04  0.2094973E+04  0.7818609E-02  0.8563461E-01
       -1   -1    0    0    0  501  0.00000000000E+00  0.00000000000E+00  0.13305459289E+04  0.13305459289E+04  0.50400001928E-02 0. -1.
        1   -1    0    0  501    0  0.00000000000E+00  0.00000000000E+00 -0.82464527587E+03  0.82464527589E+03  0.50400001928E-02 0.  1.
    10030    2    1    2    0    0  0.00000000000E+00  0.00000000000E+00  0.50590065300E+03  0.21551912048E+04  0.20949734267E+04 0.  0.
        1    1    3    3  502    0  0.26681099457E+03 -0.89891509455E+03  0.73326684879E+03  0.11903431126E+04  0.50400001928E-02 0. -1.
       -1    1    3    3    0  502 -0.26681099457E+03  0.89891509455E+03 -0.22736619579E+03  0.96484809222E+03  0.50400001928E-02 0.  1.
</event>
<event>
 5   0  0.2579241E-04  0.2190434E+04  0.7818609E-02  0.8522420E-01
       -2   -1    0    0    0  501  0.00000000000E+00  0.00000000000E+00  0.90405777571E+03  0.90405777571E+03  0.25500000920E-02 0. -1.
        2   -1    0    0  501    0  0.00000000000E+00  0.00000000000E+00 -0.13267964590E+04  0.13267964590E+04  0.25500000920E-02 0.  1.
    10030    2    1    2    0    0  0.00000000000E+00  0.00000000000E+00 -0.42273868330E+03  0.22308542347E+04  0.21904343456E+04 0.  0.
        5    1    3    3  502    0  0.42384839555E+02  0.10457209473E+04 -0.54004697858E+03  0.11777103223E+04  0.46999998093E+01 0.  1.
       -5    1    3    3    0  502 -0.42384839555E+02 -0.10457209473E+04  0.11730829527E+03  0.10531439124E+04  0.46999998093E+01 0. -1.
</event>
<event>
 5   0  0.2579241E-04  0.2062862E+04  0.7818609E-02  0.8577782E-01
       -2   -1    0    0    0  501  0.00000000000E+00  0.00000000000E+00  0.85473739711E+03  0.85473739712E+03  0.25500000920E-02 0. -1.
        2   -1    0    0  501    0  0.00000000000E+00  0.00000000000E+00 -0.12446513205E+04  0.12446513205E+04  0.25500000920E-02 0.  1.
    10030    2    1    2    0    0  0.00000000000E+00  0.00000000000E+00 -0.38991392338E+03  0.20993887176E+04  0.20628621185E+04 0.  0.
        5    1    3    3  502    0  0.97160528106E+03  0.46736623931E+02  0.15408352861E+03  0.98486799013E+03  0.46999998093E+01 0. -1.
       -5    1    3    3    0  502 -0.97160528106E+03 -0.46736623931E+02 -0.54399745199E+03  0.11145207275E+04  0.46999998093E+01 0.  1.
</event>
<event>
 5   0  0.2448804E-04  0.2105227E+04  0.7818609E-02  0.8558944E-01
        2   -1    0    0  501    0  0.00000000000E+00  0.00000000000E+00  0.13816952437E+04  0.13816952437E+04  0.25500000920E-02 0.  1.
       -2   -1    0    0    0  501  0.00000000000E+00  0.00000000000E+00 -0.80190970422E+03  0.80190970422E+03  0.25500000920E-02 0. -1.
    10030    2    1    2    0    0  0.00000000000E+00  0.00000000000E+00  0.57978553943E+03  0.21836049479E+04  0.21052266616E+04 0.  0.
        2    1    3    3  502    0 -0.33560977253E+03 -0.78730916750E+03 -0.34570618472E+03  0.92303976665E+03  0.25500000920E-02 0. -1.
       -2    1    3    3    0  502  0.33560977253E+03  0.78730916750E+03  0.92549172416E+03  0.12605651812E+04  0.25500000920E-02 0.  1.
</event>
<event>
 5   0  0.2448804E-04  0.2199316E+04  0.7818609E-02  0.8518713E-01
        2   -1    0    0  501    0  0.00000000000E+00  0.00000000000E+00  0.12304699510E+04  0.12304699510E+04  0.25500000920E-02 0.  1.
       -2   -1    0    0    0  501  0.00000000000E+00  0.00000000000E+00 -0.98275294664E+03  0.98275294665E+03  0.25500000920E-02 0. -1.
    10030    2    1    2    0    0  0.00000000000E+00  0.00000000000E+00  0.24771700434E+03  0.22132228976E+04  0.21993162302E+04 0.  0.
        2    1    3    3  502    0  0.19935242371E+03  0.77332266660E+03 -0.63688363925E+03  0.10214646864E+04  0.25500000920E-02 0. -1.
       -2    1    3    3    0  502 -0.19935242371E+03 -0.77332266660E+03  0.88460064359E+03  0.11917582113E+04  0.25500000920E-02 0.  1.
</event>
<event>
 5   0  0.2430898E-04  0.2219859E+04  0.7818609E-02  0.8510208E-01
        2   -1    0    0  501    0  0.00000000000E+00  0.00000000000E+00  0.10214350144E+04  0.10214350144E+04  0.25500000920E-02 0. -1.
       -2   -1    0    0    0  501  0.00000000000E+00  0.00000000000E+00 -0.12060904905E+04  0.12060904905E+04  0.25500000920E-02 0.  1.
    10030    2    1    2    0    0  0.00000000000E+00  0.00000000000E+00 -0.18465547611E+03  0.22275255049E+04  0.22198586059E+04 0.  0.
        1    1    3    3  502    0 -0.11268617984E+03 -0.29864695535E+03  0.97438416120E+03  0.10253353952E+04  0.50400001928E-02 0. -1.
       -1    1    3    3    0  502  0.11268617984E+03  0.29864695535E+03 -0.11590396373E+04  0.12021901097E+04  0.50400001928E-02 0.  1.
</event>
<event>
 5   0  0.1130848E-04  0.2432540E+04  0.7818609E-02  0.8427421E-01
       -1   -1    0    0    0  501  0.00000000000E+00  0.00000000000E+00  0.16351969764E+04  0.16351969764E+04  0.50400001928E-02 0. -1.
        1   -1    0    0  501    0  0.00000000000E+00  0.00000000000E+00 -0.90466937591E+03  0.90466937592E+03  0.50400001928E-02 0.  1.
    10030    2    1    2    0    0  0.00000000000E+00  0.00000000000E+00  0.73052760044E+03  0.25398663523E+04  0.24325399303E+04 0.  0.
        5    1    3    3  502    0  0.73011884815E+03 -0.23515881880E+03 -0.62026561553E+03  0.98647084412E+03  0.46999998093E+01 0.  1.
       -5    1    3    3    0  502 -0.73011884815E+03  0.23515881880E+03  0.13507932160E+04  0.15533955082E+04  0.46999998093E+01 0. -1.
</event>
<event>
 5   0  0.1042395E-04  0.2057082E+04  0.7818609E-02  0.8580388E-01
        1   -1    0    0  501    0  0.00000000000E+00  0.00000000000E+00  0.14304469211E+04  0.14304469212E+04  0.50400001928E-02 0.  1.
       -1   -1    0    0    0  501  0.00000000000E+00  0.00000000000E+00 -0.73955699422E+03  0.73955699424E+03  0.50400001928E-02 0. -1.
    10030    2    1    2    0    0  0.00000000000E+00  0.00000000000E+00  0.69088992693E+03  0.21700039154E+04  0.20570824246E+04 0.  0.
        3    1    3    3  502    0  0.23295097903E+03  0.55099748469E+03  0.12280531782E+04  0.13660084207E+04  0.10100000352E+00 0.  1.
       -3    1    3    3    0  502 -0.23295097903E+03 -0.55099748469E+03 -0.53716325127E+03  0.80399549469E+03  0.10100000352E+00 0. -1.
</event>
<event>
 5   0  0.8698750E-05  0.1297378E+04  0.7818609E-02  0.9031647E-01
       -3   -1    0    0    0  501  0.00000000000E+00  0.00000000000E+00  0.96909761049E+03  0.96909761575E+03  0.10100000352E+00 0. -1.
        3   -1    0    0  501    0  0.00000000000E+00  0.00000000000E+00 -0.43421595931E+03  0.43421597105E+03  0.10100000352E+00 0.  1.
    10030    2    1    2    0    0  0.00000000000E+00  0.00000000000E+00  0.53488165118E+03  0.14033135868E+04  0.12973783728E+04 0.  0.
        5    1    3    3  502    0  0.11183260703E+02 -0.32109850322E+03 -0.34208424671E+03  0.46933254302E+03  0.46999998093E+01 0.  1.
       -5    1    3    3    0  502 -0.11183260703E+02  0.32109850322E+03  0.87696589790E+03  0.93398104379E+03  0.46999998093E+01 0. -1.
</event>
<event>
 5   0  0.2512839E-04  0.2063826E+04  0.7818609E-02  0.8577348E-01
       -2   -1    0    0    0  501  0.00000000000E+00  0.00000000000E+00  0.97376416612E+03  0.97376416612E+03  0.25500000920E-02 0.  1.
        2   -1    0    0  501    0  0.00000000000E+00  0.00000000000E+00 -0.10935344435E+04  0.10935344435E+04  0.25500000920E-02 0. -1.
    10030    2    1    2    0    0  0.00000000000E+00  0.00000000000E+00 -0.11977027740E+03  0.20672986097E+04  0.20638262093E+04 0.  0.
        3    1    3    3  502    0 -0.14833951321E+03 -0.43787352415E+03 -0.98399184536E+03  0.10871880225E+04  0.10100000352E+00 0. -1.
       -3    1    3    3    0  502  0.14833951321E+03  0.43787352415E+03  0.86422156796E+03  0.98011058715E+03  0.10100000352E+00 0.  1.
</event>
<event>
 5   0  0.1122711E-04  0.2098608E+04  0.7818609E-02  0.8561857E-01
        1   -1    0    0  501    0  0.00000000000E+00  0.00000000000E+00  0.18317908796E+04  0.18317908796E+04  0.50400001928E-02 0.  1.
       -1   -1    0    0    0  501  0.00000000000E+00  0.00000000000E+00 -0.60107213287E+03  0.60107213289E+03  0.50400001928E-02 0. -1.
    10030    2    1    2    0    0  0.00000000000E+00  0.00000000000E+00  0.12307187467E+04  0.24328630125E+04  0.20986075869E+04 0.  0.
        1    1    3    3  502    0  0.66374346427E+03  0.46274262969E+03  0.13898663193E+04  0.16082333516E+04  0.50400001928E-02 0.  1.
       -1    1    3    3    0  502 -0.66374346427E+03 -0.46274262969E+03 -0.15914757259E+03  0.82462966087E+03  0.50400001928E-02 0. -1.
</event>
<event>
 5   0  0.2448804E-04  0.1627153E+04  0.7818609E-02  0.8804038E-01
       -2   -1    0    0    0  501  0.00000000000E+00  0.00000000000E+00  0.33959164391E+03  0.33959164392E+03  0.25500000920E-02 0. -1.
        2   -1    0    0  501    0  0.00000000000E+00  0.00000000000E+00 -0.19491252639E+04  0.19491252639E+04  0.25500000920E-02 0.  1.
    10030    2    1    2    0    0  0.00000000000E+00  0.00000000000E+00 -0.16095336200E+04  0.22887169079E+04  0.16271529155E+04 0.  0.
        2    1    3    3  502    0 -0.28983838239E+03  0.27764171005E+03  0.19064448970E+03  0.44433830414E+03  0.25500000920E-02 0. -1.
       -2    1    3    3    0  502  0.28983838239E+03 -0.27764171005E+03 -0.18001781097E+04  0.18443786037E+04  0.25500000920E-02 0.  1.
</event>
<event>
 5   0  0.1186038E-04  0.2056911E+04  0.7818609E-02  0.8580466E-01
        1   -1    0    0  501    0  0.00000000000E+00  0.00000000000E+00  0.13743900401E+04  0.13743900401E+04  0.50400001928E-02 0.  1.
       -1   -1    0    0    0  501  0.00000000000E+00  0.00000000000E+00 -0.76959261622E+03  0.76959261624E+03  0.50400001928E-02 0. -1.
    10030    2    1    2    0    0  0.00000000000E+00  0.00000000000E+00  0.60479742384E+03  0.21439826563E+04  0.20569107192E+04 0.  0.
        4    1    3    3  502    0  0.65920800355E+03  0.34970618708E+03 -0.43528125844E+03  0.86389871864E+03  0.12699999809E+01 0. -1.
       -4    1    3    3    0  502 -0.65920800355E+03 -0.34970618708E+03  0.10400786823E+04  0.12800839377E+04  0.12699999809E+01 0.  1.
</event>
<event>
 5   0  0.1122711E-04  0.2064983E+04  0.7818609E-02  0.8576827E-01
       -1   -1    0    0    0  501  0.00000000000E+00  0.00000000000E+00  0.10649045050E+04  0.10649045050E+04  0.50400001928E-02 0.  1.
        1   -1    0    0  501    0  0.00000000000E+00  0.00000000000E+00 -0.10010650290E+04  0.10010650290E+04  0.50400001928E-02 0. -1.
    10030    2    1    2    0    0  0.00000000000E+00  0.00000000000E+00  0.63839476017E+02  0.20659695340E+04  0.20649829628E+04 0.  0.
        1    1    3    3  502    0 -0.29653541311E+03  0.32277295009E+03  0.96720487377E+03  0.10618855383E+04  0.50400001928E-02 0.  1.
       -1    1    3    3    0  502  0.29653541311E+03 -0.32277295009E+03 -0.90336539775E+03  0.10040839957E+04  0.50400001928E-02 0. -1.
</event>
<event>
 5   0  0.1156733E-04  0.1898126E+04  0.7818609E-02  0.8655790E-01
        1   -1    0    0  501    0  0.00000000000E+00  0.00000000000E+00  0.79531401330E+03  0.79531401331E+03  0.50400001928E-02 0.  1.
       -1   -1    0    0    0  501  0.00000000000E+00  0.00000000000E+00 -0.11325347441E+04  0.11325347441E+04  0.50400001928E-02 0. -1.
    10030    2    1    2    0    0  0.00000000000E+00  0.00000000000E+00 -0.33722073083E+03  0.19278487575E+04  0.18981261840E+04 0.  0.
        2    1    3    3  502    0  0.28261633350E+03 -0.53107312379E+03  0.57692069674E+03  0.83351553381E+03  0.25500000920E-02 0.  1.
       -2    1    3    3    0  502 -0.28261633350E+03  0.53107312379E+03 -0.91414142757E+03  0.10943332236E+04  0.25500000920E-02 0. -1.
</event>
<event>
 5   0  0.1042395E-04  0.2138934E+04  0.7818609E-02  0.8544284E-01
       -1   -1    0    0    0  501  0.00000000000E+00  0.00000000000E+00  0.17218729162E+04  0.17218729162E+04  0.50400001928E-02 0. -1.
        1   -1    0    0  501    0  0.00000000000E+00  0.00000000000E+00 -0.66425295805E+03  0.66425295807E+03  0.50400001928E-02 0.  1.
    10030    2    1    2    0    0  0.00000000000E+00  0.00000000000E+00  0.10576199581E+04  0.23861258743E+04  0.21389335455E+04 0.  0.
        3    1    3    3  502    0  0.23349619829E+03  0.50720109657E+03  0.15463558585E+04  0.16440772118E+04  0.10100000352E+00 0. -1.
       -3    1    3    3    0  502 -0.23349619829E+03 -0.50720109657E+03 -0.48873590037E+03  0.74204866248E+03  0.10100000352E+00 0.  1.
</event>
<event>
 5   0  0.2467483E-04  0.1292862E+04  0.7818609E-02  0.9035245E-01
       -2   -1    0    0    0  501  0.00000000000E+00  0.00000000000E+00  0.24981237241E+03  0.24981237242E+03  0.25500000920E-02 0.  1.
        2   -1    0    0  501    0  0.00000000000E+00  0.00000000000E+00 -0.16727467220E+04  0.16727467220E+04  0.25500000920E-02 0. -1.
    10030    2    1    2    0    0  0.00000000000E+00  0.00000000000E+00 -0.14229343496E+04  0.19225590944E+04  0.12928616741E+04 0.  0.
        4    1    3    3  502    0 -0.41407788391E+03 -0.28523936011E+03 -0.10733163540E+03  0.51414363689E+03  0.12699999809E+01 0.  1.
       -4    1    3    3    0  502  0.41407788391E+03  0.28523936011E+03 -0.13156027142E+04  0.14084154575E+04  0.12699999809E+01 0. -1.
</event>
<event>
 5   0  0.2467483E-04  0.2103624E+04  0.7818609E-02  0.8559649E-01
        2   -1    0    0  501    0  0.00000000000E+00  0.00000000000E+00  0.12145162645E+04  0.12145162645E+04  0.25500000920E-02 0.  1.
       -2   -1    0    0    0  501  0.00000000000E+00  0.00000000000E+00 -0.91090477497E+03  0.91090477498E+03  0.25500000920E-02 0. -1.
    10030    2    1    2    0    0  0.00000000000E+00  0.00000000000E+00  0.30361148951E+03  0.21254210395E+04  0.21036241723E+04 0.  0.
        4    1    3    3  502    0 -0.68960722249E+03 -0.44782626718E+03  0.81449863445E+03  0.11573746694E+04  0.12699999809E+01 0.  1.
       -4    1    3    3    0  502  0.68960722249E+03  0.44782626718E+03 -0.51088714494E+03  0.96804637009E+03  0.12699999809E+01 0. -1.
</event>
<event>
 5   0  0.1156733E-04  0.2005517E+04  0.7818609E-02  0.8604046E-01
        1   -1    0    0  501    0  0.00000000000E+00  0.00000000000E+00  0.72910466118E+03  0.72910466120E+03  0.50400001928E-02 0.  1.
       -1   -1    0    0    0  501  0.00000000000E+00  0.00000000000E+00 -0.13791227439E+04  0.13791227439E+04  0.50400001928E-02 0. -1.
    10030    2    1    2    0    0  0.00000000000E+00  0.00000000000E+00 -0.65001808268E+03  0.21082274051E+04  0.20055172110E+04 0.  0.
        2    1    3    3  502    0  0.81289339657E+02  0.29667242067E+03 -0.13283001644E+04  0.13634528994E+04  0.25500000920E-02 0. -1.
       -2    1    3    3    0  502 -0.81289339657E+02 -0.29667242067E+03  0.67828208176E+03  0.74477450572E+03  0.25500000920E-02 0.  1.
</event>
<event>
 5   0  0.2467483E-04  0.2202235E+04  0.7818609E-02  0.8517498E-01
       -2   -1    0    0    0  501  0.00000000000E+00  0.00000000000E+00  0.86867663771E+03  0.86867663771E+03  0.25500000920E-02 0.  1.
        2   -1    0    0  501    0  0.00000000000E+00  0.00000000000E+00 -0.13957555992E+04  0.13957555992E+04  0.25500000920E-02 0. -1.
    10030    2    1    2    0    0  0.00000000000E+00  0.00000000000E+00 -0.52707896154E+03  0.22644322370E+04  0.22022354833E+04 0.  0.
        4    1    3    3  502    0  0.47830308029E+03  0.21515847404E+03  0.73199456378E+03  0.90049134358E+03  0.12699999809E+01 0.  1.
       -4    1    3    3    0  502 -0.47830308029E+03 -0.21515847404E+03 -0.12590735253E+04  0.13639408934E+04  0.12699999809E+01 0. -1.
</event>
<event>
 5   0  0.2430898E-04  0.1800580E+04  0.7818609E-02  0.8705991E-01
        2   -1    0    0  501    0  0.00000000000E+00  0.00000000000E+00  0.12778229139E+04  0.12778229139E+04  0.25500000920E-02 0.  1.
       -2   -1    0    0    0  501  0.00000000000E+00  0.00000000000E+00 -0.63429952671E+03  0.63429952671E+03  0.25500000920E-02 0. -1.
    10030    2    1    2    0    0  0.00000000000E+00  0.00000000000E+00  0.64352338720E+03  0.19121224406E+04  0.18005804281E+04 0.  0.
        1    1    3    3  502    0 -0.10204172355E+03  0.41827116363E+03 -0.51788867520E+03  0.67347751232E+03  0.50400001928E-02 0. -1.
       -1    1    3    3    0  502  0.10204172355E+03 -0.41827116363E+03  0.11614120624E+04  0.12386449283E+04  0.50400001928E-02 0.  1.
</event>
<event>
 5   0  0.2467483E-04  0.2072416E+04  0.7818609E-02  0.8573493E-01
        2   -1    0    0  501    0  0.00000000000E+00  0.00000000000E+00  0.81528468148E+03  0.81528468149E+03  0.25500000920E-02 0. -1.
       -2   -1    0    0    0  501  0.00000000000E+00  0.00000000000E+00 -0.13169962856E+04  0.13169962856E+04  0.25500000920E-02 0.  1.
    10030    2    1    2    0    0  0.00000000000E+00  0.00000000000E+00 -0.50171160412E+03  0.21322809671E+04  0.20724158822E+04 0.  0.
        4    1    3    3  502    0  0.64080424978E+03  0.63089528339E+03  0.27886229293E+03  0.94150132048E+03  0.12699999809E+01 0. -1.
       -4    1    3    3    0  502 -0.64080424978E+03 -0.63089528339E+03 -0.78057389704E+03  0.11907796466E+04  0.12699999809E+01 0.  1.
</event>
<event>
 5   0  0.1042395E-04  0.2076550E+04  0.7818609E-02  0.8571644E-01
        1   -1    0    0  501    0  0.00000000000E+00  0.00000000000E+00  0.12597594912E+04  0.12597594912E+04  0.50400001928E-02 0. -1.
       -1   -1    0    0    0  501  0.00000000000E+00  0.00000000000E+00 -0.85573066160E+03  0.85573066162E+03  0.50400001928E-02 0.  1.
    10030    2    1    2    0    0  0.00000000000E+00  0.00000000000E+00  0.40402882962E+03  0.21154901528E+04  0.20765498529E+04 0.  0.
        3    1    3    3  502    0  0.73353304694E+03  0.53772287237E+02 -0.54456681547E+03  0.91515857453E+03  0.10100000352E+00 0.  1.
       -3    1    3    3    0  502 -0.73353304694E+03 -0.53772287237E+02  0.94859564508E+03  0.12003315783E+04  0.10100000352E+00 0. -1.
</event>
<event>
 5   0  0.2579241E-04  0.2115939E+04  0.7818609E-02  0.8554255E-01
        2   -1    0    0  501    0  0.00000000000E+00  0.00000000000E+00  0.28829046281E+04  0.28829046281E+04  0.25500000920E-02 0. -1.
       -2   -1    0    0    0  501  0.00000000000E+00  0.00000000000E+00 -0.38825393860E+03  0.38825393861E+03  0.25500000920E-02 0.  1.
    10030    2    1    2    0    0  0.00000000000E+00  0.00000000000E+00  0.24946506895E+04  0.32711585668E+04  0.21159386347E+04 0.  0.
        5    1    3    3  502    0 -0.14931420762E+03 -0.97125291445E+03  0.18533145014E+04  0.20977186865E+04  0.46999998093E+01 0. -1.
       -5    1    3    3    0  502  0.14931420762E+03  0.97125291445E+03  0.64133618812E+03  0.11734398803E+04  0.46999998093E+01 0.  1.
</event>
<event>
 5   0  0.1130848E-04  0.2103684E+04  0.7818609E-02  0.8559622E-01
        1   -1    0    0  501    0  0.00000000000E+00  0.00000000000E+00  0.12259524633E+04  0.12259524633E+04  0.50400001928E-02 0. -1.
       -1   -1    0    0    0  501  0.00000000000E+00  0.00000000000E+00 -0.90245864941E+03  0.90245864942E+03  0.50400001928E-02 0.  1.
    10030    2    1    2    0    0  0.00000000000E+00  0.00000000000E+00  0.32349381388E+03  0.21284111127E+04  0.21036838206E+04 0.  0.
        5    1    3    3  502    0 -0.97516327548E+03 -0.32609584610E+03  0.38586224100E+03  0.10982684889E+04  0.46999998093E+01 0. -1.
       -5    1    3    3    0  502  0.97516327548E+03  0.32609584610E+03 -0.62368427125E+02  0.10301426238E+04  0.46999998093E+01 0.  1.
</event>
<event>
 5   0  0.1042395E-04  0.2060070E+04  0.7818609E-02  0.8579040E-01
       -1   -1    0    0    0  501  0.00000000000E+00  0.00000000000E+00  0.36756169564E+03  0.36756169567E+03  0.50400001928E-02 0.  1.
        1   -1    0    0  501    0  0.00000000000E+00  0.00000000000E+00 -0.28865139349E+04  0.28865139349E+04  0.50400001928E-02 0. -1.
    10030    2    1    2    0    0  0.00000000000E+00  0.00000000000E+00 -0.25189522392E+04  0.32540756305E+04  0.20600698594E+04 0.  0.
        3    1    3    3  502    0  0.10187815102E+04  0.90238362592E+02 -0.10665764931E+04  0.14777158568E+04  0.10100000352E+00 0.  1.
       -3    1    3    3    0  502 -0.10187815102E+04 -0.90238362592E+02 -0.14523757462E+04  0.17763597738E+04  0.10100000352E+00 0. -1.
</event>
<event>
 5   0  0.2512839E-04  0.2149767E+04  0.7818609E-02  0.8539632E-01
        2   -1    0    0  501    0  0.00000000000E+00  0.00000000000E+00  0.25741310328E+04  0.25741310328E+04  0.25500000920E-02 0. -1.
       -2   -1    0    0    0  501  0.00000000000E+00  0.00000000000E+00 -0.44884048440E+03  0.44884048441E+03  0.25500000920E-02 0.  1.
    10030    2    1    2    0    0  0.00000000000E+00  0.00000000000E+00  0.21252905484E+04  0.30229715172E+04  0.21497667033E+04 0.  0.
        3    1    3    3  502    0 -0.51608101323E+03 -0.49665105547E+03 -0.64386433946E+02  0.71912968663E+03  0.10100000352E+00 0.  1.
       -3    1    3    3    0  502  0.51608101323E+03  0.49665105547E+03  0.21896769823E+04  0.23038418305E+04  0.10100000352E+00 0. -1.
</event>
<event>
 5   0  0.1122711E-04  0.2067360E+04  0.7818609E-02  0.8575759E-01
        1   -1    0    0  501    0  0.00000000000E+00  0.00000000000E+00  0.88610686311E+03  0.88610686313E+03  0.50400001928E-02 0. -1.
       -1   -1    0    0    0  501  0.00000000000E+00  0.00000000000E+00 -0.12058305589E+04  0.12058305589E+04  0.50400001928E-02 0.  1.
    10030    2    1    2    0    0  0.00000000000E+00  0.00000000000E+00 -0.31972369579E+03  0.20919374220E+04  0.20673603789E+04 0.  0.
        1    1    3    3  502    0 -0.40649093351E+03 -0.56473976608E+03 -0.93336335714E+03  0.11641877163E+04  0.50400001928E-02 0.  1.
       -1    1    3    3    0  502  0.40649093351E+03  0.56473976608E+03  0.61363966135E+03  0.92774970570E+03  0.50400001928E-02 0. -1.
</event>
<event>
 5   0  0.1186038E-04  0.2122136E+04  0.7818609E-02  0.8551555E-01
        1   -1    0    0  501    0  0.00000000000E+00  0.00000000000E+00  0.90047566369E+03  0.90047566370E+03  0.50400001928E-02 0.  1.
       -1   -1    0    0    0  501  0.00000000000E+00  0.00000000000E+00 -0.12503001414E+04  0.12503001414E+04  0.50400001928E-02 0. -1.
    10030    2    1    2    0    0  0.00000000000E+00  0.00000000000E+00 -0.34982447772E+03  0.21507758051E+04  0.21221355750E+04 0.  0.
        4    1    3    3  502    0 -0.18149656317E+03  0.99195761815E+03 -0.50943087888E+03  0.11297974827E+04  0.12699999809E+01 0. -1.
       -4    1    3    3    0  502  0.18149656317E+03 -0.99195761815E+03  0.15960640117E+03  0.10209783224E+04  0.12699999809E+01 0.  1.
</event>
<event>
 5   0  0.1130848E-04  0.1773364E+04  0.7818609E-02  0.8720594E-01
        1   -1    0    0  501    0  0.00000000000E+00  0.00000000000E+00  0.15538151835E+04  0.15538151835E+04  0.50400001928E-02 0.  1.
       -1   -1    0    0    0  501  0.00000000000E+00  0.00000000000E+00 -0.50598358389E+03  0.50598358392E+03  0.50400001928E-02 0. -1.
    10030    2    1    2    0    0  0.00000000000E+00  0.00000000000E+00  0.10478315996E+04  0.20597987674E+04  0.17733640069E+04 0.  0.
        5    1    3    3  502    0  0.55131028486E+03 -0.54185437917E+03  0.19444421728E+02  0.77327186290E+03  0.46999998093E+01 0. -1.
       -5    1    3    3    0  502 -0.55131028486E+03  0.54185437917E+03  0.10283871778E+04  0.12865269045E+04  0.46999998093E+01 0.  1.
</event>
<event>
 5   0  0.1122711E-04  0.2019597E+04  0.7818609E-02  0.8597513E-01
       -1   -1    0    0    0  501  0.00000000000E+00  0.00000000000E+00  0.63046226379E+03  0.63046226381E+03  0.50400001928E-02 0.  1.
        1   -1    0    0  501    0  0.00000000000E+00  0.00000000000E+00 -0.16173734155E+04  0.16173734155E+04  0.50400001928E-02 0. -1.
    10030    2    1    2    0    0  0.00000000000E+00  0.00000000000E+00 -0.98691115172E+03  0.22478356793E+04  0.20195968954E+04 0.  0.
        1    1    3    3  502    0 -0.63799951747E+03 -0.33806640188E+03 -0.12791826687E+04  0.14688909341E+04  0.50400001928E-02 0. -1.
       -1    1    3    3    0  502  0.63799951747E+03  0.33806640188E+03  0.29227151702E+03  0.77894474518E+03  0.50400001928E-02 0.  1.
</event>
<event>
 5   0  0.1122711E-04  0.2106636E+04  0.7818609E-02  0.8558326E-01
        1   -1    0    0  501    0  0.00000000000E+00  0.00000000000E+00  0.23992398487E+04  0.23992398487E+04  0.50400001928E-02 0. -1.
       -1   -1    0    0    0  501  0.00000000000E+00  0.00000000000E+00 -0.46242936474E+03  0.46242936477E+03  0.50400001928E-02 0.  1.
    10030    2    1    2    0    0  0.00000000000E+00  0.00000000000E+00  0.19368104839E+04  0.28616692134E+04  0.21066361424E+04 0.  0.
        1    1    3    3  502    0 -0.85294888079E+03 -0.57118161421E+03  0.12890259193E+04  0.16478343516E+04  0.50400001928E-02 0.  1.
       -1    1    3    3    0  502  0.85294888079E+03  0.57118161421E+03  0.64778456463E+03  0.12138348618E+04  0.50400001928E-02 0. -1.
</event>
<event>
 5   0  0.2467483E-04  0.2041721E+04  0.7818609E-02  0.8587359E-01
        2   -1    0    0  501    0  0.00000000000E+00  0.00000000000E+00  0.92453444354E+03  0.92453444355E+03  0.25500000920E-02 0. -1.
       -2   -1    0    0    0  501  0.00000000000E+00  0.00000000000E+00 -0.11272224787E+04  0.11272224787E+04  0.25500000920E-02 0.  1.
    10030    2    1    2    0    0  0.00000000000E+00  0.00000000000E+00 -0.20268803512E+03  0.20517569222E+04  0.20417208497E+04 0.  0.
        4    1    3    3  502    0  0.98299195604E+02 -0.79780170829E+03  0.53103781223E+03  0.96340701084E+03  0.12699999809E+01 0. -1.
       -4    1    3    3    0  502 -0.98299195604E+02  0.79780170829E+03 -0.73372584735E+03  0.10883499114E+04  0.12699999809E+01 0.  1.
</event>
<event>
 5   0  0.1186038E-04  0.2055388E+04  0.7818609E-02  0.8581154E-01
        1   -1    0    0  501    0  0.00000000000E+00  0.00000000000E+00  0.80762190925E+03  0.80762190926E+03  0.50400001928E-02 0.  1.
       -1   -1    0    0    0  501  0.00000000000E+00  0.00000000000E+00 -0.13077339986E+04  0.13077339986E+04  0.50400001928E-02 0. -1.
    10030    2    1    2    0    0  0.00000000000E+00  0.00000000000E+00 -0.50011208933E+03  0.21153559079E+04  0.20553876800E+04 0.  0.
        4    1    3    3  502    0  0.15180909983E+03  0.92450413011E+03  0.18464037229E+03  0.95490709986E+03  0.12699999809E+01 0.  1.
       -4    1    3    3    0  502 -0.15180909983E+03 -0.92450413011E+03 -0.68475246162E+03  0.11604488080E+04  0.12699999809E+01 0. -1.
</event>
<event>
 5   0  0.1122711E-04  0.1973626E+04  0.7818609E-02  0.8619051E-01
       -1   -1    0    0    0  501  0.00000000000E+00  0.00000000000E+00  0.63703635003E+03  0.63703635005E+03  0.50400001928E-02 0.  1.
        1   -1    0    0  501    0  0.00000000000E+00  0.00000000000E+00 -0.15286415655E+04  0.15286415655E+04  0.50400001928E-02 0. -1.
    10030    2    1    2    0    0  0.00000000000E+00  0.00000000000E+00 -0.89160521544E+03  0.21656779155E+04  0.19736263511E+04 0.  0.
        1    1    3    3  502    0 -0.18323599016E+03  0.81569976443E+03  0.12948323218E+03  0.84599494160E+03  0.50400001928E-02 0.  1.
       -1    1    3    3    0  502  0.18323599016E+03 -0.81569976443E+03 -0.10210884476E+04  0.13196829739E+04  0.50400001928E-02 0. -1.
</event>
<event>
 5   0  0.1042395E-04  0.2102029E+04  0.7818609E-02  0.8560350E-01
        1   -1    0    0  501    0  0.00000000000E+00  0.00000000000E+00  0.72791663500E+03  0.72791663501E+03  0.50400001928E-02 0.  1.
       -1   -1    0    0    0  501  0.00000000000E+00  0.00000000000E+00 -0.15175243790E+04  0.15175243790E+04  0.50400001928E-02 0. -1.
    10030    2    1    2    0    0  0.00000000000E+00  0.00000000000E+00 -0.78960774402E+03  0.22454410140E+04  0.21020287719E+04 0.  0.
        3    1    3    3  502    0  0.52861694889E+03 -0.83600489760E+03 -0.15183531761E+02  0.98922728294E+03  0.10100000352E+00 0. -1.
       -3    1    3    3    0  502 -0.52861694889E+03  0.83600489760E+03 -0.77442421225E+03  0.12562137311E+04  0.10100000352E+00 0.  1.
</event>
<event>
 5   0  0.1042395E-04  0.1378307E+04  0.7818609E-02  0.8969673E-01
       -1   -1    0    0    0  501  0.00000000000E+00  0.00000000000E+00  0.58670302269E+03  0.58670302271E+03  0.50400001928E-02 0.  1.
        1   -1    0    0  501    0  0.00000000000E+00  0.00000000000E+00 -0.80949378624E+03  0.80949378625E+03  0.50400001928E-02 0. -1.
    10030    2    1    2    0    0  0.00000000000E+00  0.00000000000E+00 -0.22279076355E+03  0.13961968090E+04  0.13783068617E+04 0.  0.
        3    1    3    3  502    0 -0.53071978959E+02 -0.58594444660E+03 -0.47491948767E+03  0.75610585200E+03  0.10100000352E+00 0. -1.
       -3    1    3    3    0  502  0.53071978959E+02  0.58594444660E+03  0.25212872413E+03  0.64009095697E+03  0.10100000352E+00 0.  1.
</event>
<event>
 5   0  0.2467483E-04  0.2058389E+04  0.7818609E-02  0.8579798E-01
       -2   -1    0    0    0  501  0.00000000000E+00  0.00000000000E+00  0.70582578144E+03  0.70582578145E+03  0.25500000920E-02 0.  1.
        2   -1    0    0  501    0  0.00000000000E+00  0.00000000000E+00 -0.15007127468E+04  0.15007127468E+04  0.25500000920E-02 0. -1.
    10030    2    1    2    0    0  0.00000000000E+00  0.00000000000E+00 -0.79488696537E+03  0.22065385283E+04  0.20583894163E+04 0.  0.
        4    1    3    3  502    0  0.10675437143E+03  0.21641462755E+03 -0.14699571234E+04  0.14896332919E+04  0.12699999809E+01 0. -1.
       -4    1    3    3    0  502 -0.10675437143E+03 -0.21641462755E+03  0.67507015800E+03  0.71690523638E+03  0.12699999809E+01 0.  1.
</event>
<event>
 5   0  0.1156733E-04  0.1948214E+04  0.7818609E-02  0.8631222E-01
       -1   -1    0    0    0  501  0.00000000000E+00  0.00000000000E+00  0.12680123478E+04  0.12680123478E+04  0.50400001928E-02 0. -1.
        1   -1    0    0  501    0  0.00000000000E+00  0.00000000000E+00 -0.74832428097E+03  0.74832428099E+03  0.50400001928E-02 0.  1.
    10030    2    1    2    0    0  0.00000000000E+00  0.00000000000E+00  0.51968806687E+03  0.20163366288E+04  0.19482139805E+04 0.  0.
        2    1    3    3  502    0  0.44823350315E+03  0.81681338518E+02  0.11509373435E+04  0.12378375835E+04  0.25500000920E-02 0. -1.
       -2    1    3    3    0  502 -0.44823350315E+03 -0.81681338518E+02 -0.63124927662E+03  0.77849904537E+03  0.25500000920E-02 0.  1.
</event>
<event>
 5   0  0.1186038E-04  0.2080103E+04  0.7818609E-02  0.8570059E-01
        1   -1    0    0  501    0  0.00000000000E+00  0.00000000000E+00  0.10351097181E+04  0.10351097181E+04  0.50400001928E-02 0.  1.
       -1   -1    0    0    0  501  0.00000000000E+00  0.00000000000E+00 -0.10450168576E+04  0.10450168576E+04  0.50400001928E-02 0. -1.
    10030    2    1    2    0    0  0.00000000000E+00  0.00000000000E+00 -0.99071394618E+01  0.20801265757E+04  0.20801029829E+04 0.  0.
        4    1    3    3  502    0  0.43547642988E+02 -0.78740819095E+03 -0.68304491003E+03  0.10432928728E+04  0.12699999809E+01 0. -1.
       -4    1    3    3    0  502 -0.43547642988E+02  0.78740819095E+03  0.67313777057E+03  0.10368337029E+04  0.12699999809E+01 0.  1.
</event>
<event>
 5   0  0.2467483E-04  0.2000746E+04  0.7818609E-02  0.8606272E-01
        2   -1    0    0  501    0  0.00000000000E+00  0.00000000000E+00  0.11944015154E+04  0.11944015154E+04  0.25500000920E-02 0.  1.
       -2   -1    0    0    0  501  0.00000000000E+00  0.00000000000E+00 -0.83786395346E+03  0.83786395346E+03  0.25500000920E-02 0. -1.
    10030    2    1    2    0    0  0.00000000000E+00  0.00000000000E+00  0.35653756191E+03  0.20322654688E+04  0.20007458366E+04 0.  0.
        4    1    3    3  502    0 -0.64251965608E+02  0.72204854820E+03 -0.52198431098E+03  0.89328139735E+03  0.12699999809E+01 0. -1.
       -4    1    3    3    0  502  0.64251965608E+02 -0.72204854820E+03  0.87852187289E+03  0.11389840715E+04  0.12699999809E+01 0.  1.
</event>
<event>
 5   0  0.2579241E-04  0.2112466E+04  0.7818609E-02  0.8555772E-01
       -2   -1    0    0    0  501  0.00000000000E+00  0.00000000000E+00  0.12026095541E+04  0.12026095541E+04  0.25500000920E-02 0.  1.
        2   -1    0    0  501    0  0.00000000000E+00  0.00000000000E+00 -0.92767280990E+03  0.92767280990E+03  0.25500000920E-02 0. -1.
    10030    2    1    2    0    0  0.00000000000E+00  0.00000000000E+00  0.27493674420E+03  0.21302823640E+04  0.21124660322E+04 0.  0.
        5    1    3    3  502    0 -0.94820287118E+03  0.57073740827E+01 -0.33173505690E+03  0.10045852363E+04  0.46999998093E+01 0. -1.
       -5    1    3    3    0  502  0.94820287118E+03 -0.57073740827E+01  0.60667180110E+03  0.11256971277E+04  0.46999998093E+01 0.  1.
</event>
<event>
 5   0  0.1186038E-04  0.2113136E+04  0.7818609E-02  0.8555479E-01
        1   -1    0    0  501    0  0.00000000000E+00  0.00000000000E+00  0.18118715788E+04  0.18118715788E+04  0.50400001928E-02 0.  1.
       -1   -1    0    0    0  501  0.00000000000E+00  0.00000000000E+00 -0.61612283715E+03  0.61612283717E+03  0.50400001928E-02 0. -1.
    10030    2    1    2    0    0  0.00000000000E+00  0.00000000000E+00  0.11957487416E+04  0.24279944160E+04  0.21131355448E+04 0.  0.
        4    1    3    3  502    0 -0.23341491042E+03 -0.91159658069E+03  0.11499247108E+04  0.14858732449E+04  0.12699999809E+01 0.  1.
       -4    1    3    3    0  502  0.23341491042E+03  0.91159658069E+03  0.45824030824E+02  0.94212117110E+03  0.12699999809E+01 0. -1.
</event>
<event>
 5   0  0.2467483E-04  0.2102619E+04  0.7818609E-02  0.8560091E-01
        2   -1    0    0  501    0  0.00000000000E+00  0.00000000000E+00  0.81074609074E+03  0.81074609074E+03  0.25500000920E-02 0. -1.
       -2   -1    0    0    0  501  0.00000000000E+00  0.00000000000E+00 -0.13632520940E+04  0.13632520940E+04  0.25500000920E-02 0.  1.
    10030    2    1    2    0    0  0.00000000000E+00  0.00000000000E+00 -0.55250600322E+03  0.21739981847E+04  0.21026186586E+04 0.  0.
        4    1    3    3  502    0  0.50559224749E+03 -0.22050633319E+03 -0.12016237552E+04  0.13221754141E+04  0.12699999809E+01 0.  1.
       -4    1    3    3    0  502 -0.50559224749E+03  0.22050633319E+03  0.64911775197E+03  0.85182277061E+03  0.12699999809E+01 0. -1.
</event>
<event>
 5   0  0.2512839E-04  0.2069461E+04  0.7818609E-02  0.8574817E-01
       -2   -1    0    0    0  501  0.00000000000E+00  0.00000000000E+00  0.38450558670E+03  0.38450558671E+03  0.25500000920E-02 0.  1.
        2   -1    0    0  501    0  0.00000000000E+00  0.00000000000E+00 -0.27845302253E+04  0.27845302253E+04  0.25500000920E-02 0. -1.
    10030    2    1    2    0    0  0.00000000000E+00  0.00000000000E+00 -0.24000246386E+04  0.31690358120E+04  0.20694612130E+04 0.  0.
        3    1    3    3  502    0 -0.57500618225E+02  0.55653743678E+02 -0.27797846116E+04  0.27809362016E+04  0.10100000352E+00 0. -1.
       -3    1    3    3    0  502  0.57500618225E+02 -0.55653743678E+02  0.37975997302E+03  0.38809961040E+03  0.10100000352E+00 0.  1.
</event>
<event>
 5   0  0.1130848E-04  0.2082691E+04  0.7818609E-02  0.8568907E-01
       -1   -1    0    0    0  501  0.00000000000E+00  0.00000000000E+00  0.97714284505E+03  0.97714284507E+03  0.50400001928E-02 0. -1.
        1   -1    0    0  501    0  0.00000000000E+00  0.00000000000E+00 -0.11097662111E+04  0.11097662111E+04  0.50400001928E-02 0.  1.
    10030    2    1    2    0    0  0.00000000000E+00  0.00000000000E+00 -0.13262336608E+03  0.20869090562E+04  0.20826906759E+04 0.  0.
        5    1    3    3  502    0  0.78888404834E+03 -0.20644776978E+03 -0.71524930993E+03  0.10846946062E+04  0.46999998093E+01 0.  1.
       -5    1    3    3    0  502 -0.78888404834E+03  0.20644776978E+03  0.58262594384E+03  0.10022144500E+04  0.46999998093E+01 0. -1.
</event>
<event>
 5   0  0.2448804E-04  0.2031669E+04  0.7818609E-02  0.8591956E-01
        2   -1    0    0  501    0  0.00000000000E+00  0.00000000000E+00  0.74396952588E+03  0.74396952589E+03  0.25500000920E-02 0. -1.
       -2   -1    0    0    0  501  0.00000000000E+00  0.00000000000E+00 -0.13870450907E+04  0.13870450907E+04  0.25500000920E-02 0.  1.
    10030    2    1    2    0    0  0.00000000000E+00  0.00000000000E+00 -0.64307556482E+03  0.21310146166E+04  0.20316685542E+04 0.  0.
        2    1    3    3  502    0 -0.72493886546E+02  0.10081752142E+04 -0.42771334475E+03  0.10975478721E+04  0.25500000920E-02 0.  1.
       -2    1    3    3    0  502  0.72493886546E+02 -0.10081752142E+04 -0.21536222007E+03  0.10334667445E+04  0.25500000920E-02 0. -1.
</event>
<event>
 5   0  0.1130848E-04  0.2127900E+04  0.7818609E-02  0.8549052E-01
       -1   -1    0    0    0  501  0.00000000000E+00  0.00000000000E+00  0.12257816361E+04  0.12257816361E+04  0.50400001928E-02 0. -1.
        1   -1    0    0  501    0  0.00000000000E+00  0.00000000000E+00 -0.92348395992E+03  0.92348395994E+03  0.50400001928E-02 0.  1.
    10030    2    1    2    0    0  0.00000000000E+00  0.00000000000E+00  0.30229767618E+03  0.21492655961E+04  0.21279000722E+04 0.  0.
        5    1    3    3  502    0 -0.23189552956E+03 -0.21468644413E+03 -0.87497581488E+03  0.93030670886E+03  0.46999998093E+01 0.  1.
       -5    1    3    3    0  502  0.23189552956E+03  0.21468644413E+03  0.11772734911E+04  0.12189588872E+04  0.46999998093E+01 0. -1.
</event>
<event>
 5   0  0.2448804E-04  0.2109258E+04  0.7818609E-02  0.8557176E-01
        2   -1    0    0  501    0  0.00000000000E+00  0.00000000000E+00  0.13758187477E+04  0.13758187477E+04  0.25500000920E-02 0. -1.
       -2   -1    0    0    0  501  0.00000000000E+00  0.00000000000E+00 -0.80842209006E+03  0.80842209007E+03  0.25500000920E-02 0.  1.
    10030    2    1    2    0    0  0.00000000000E+00  0.00000000000E+00  0.56739665764E+03  0.21842408378E+04  0.21092579430E+04 0.  0.
        2    1    3    3  502    0  0.54008405453E+03 -0.19053887752E+03  0.12007569568E+04  0.13303432336E+04  0.25500000920E-02 0. -1.
       -2    1    3    3    0  502 -0.54008405453E+03  0.19053887752E+03 -0.63336029919E+03  0.85389760417E+03  0.25500000920E-02 0.  1.
</event>
<event>
 5   0  0.1042395E-04  0.2396946E+04  0.7818609E-02  0.8440648E-01
       -1   -1    0    0    0  501  0.00000000000E+00  0.00000000000E+00  0.19363955920E+04  0.19363955920E+04  0.50400001928E-02 0. -1.
        1   -1    0    0  501    0  0.00000000000E+00  0.00000000000E+00 -0.74175858979E+03  0.74175858980E+03  0.50400001928E-02 0.  1.
    10030    2    1    2    0    0  0.00000000000E+00  0.00000000000E+00  0.11946370022E+04  0.26781541818E+04  0.23969464438E+04 0.  0.
        3    1    3    3  502    0  0.72226688077E+03  0.64256229779E+03  0.13887893326E+04  0.16921263469E+04  0.10100000352E+00 0. -1.
       -3    1    3    3    0  502 -0.72226688077E+03 -0.64256229779E+03 -0.19415233032E+03  0.98602783489E+03  0.10100000352E+00 0.  1.
</event>
<event>
 5   0  0.2512839E-04  0.2113655E+04  0.7818609E-02  0.8555252E-01
       -2   -1    0    0    0  501  0.00000000000E+00  0.00000000000E+00  0.11710486301E+04  0.11710486301E+04  0.25500000920E-02 0.  1.
        2   -1    0    0  501    0  0.00000000000E+00  0.00000000000E+00 -0.95374693550E+03  0.95374693550E+03  0.25500000920E-02 0. -1.
    10030    2    1    2    0    0  0.00000000000E+00  0.00000000000E+00  0.21730169459E+03  0.21247955656E+04  0.21136546949E+04 0.  0.
        3    1    3    3  502    0  0.70546066131E+03  0.48443864474E+03 -0.51472126903E+03  0.99864585323E+03  0.10100000352E+00 0. -1.
       -3    1    3    3    0  502 -0.70546066131E+03 -0.48443864474E+03  0.73202296361E+03  0.11261497124E+04  0.10100000352E+00 0.  1.
</event>
<event>
 5   0  0.1186038E-04  0.2071495E+04  0.7818609E-02  0.8573905E-01
        1   -1    0    0  501    0  0.00000000000E+00  0.00000000000E+00  0.22331266342E+04  0.22331266342E+04  0.50400001928E-02 0.  1.
       -1   -1    0    0    0  501  0.00000000000E+00  0.00000000000E+00 -0.48039032602E+03  0.48039032604E+03  0.50400001928E-02 0. -1.
    10030    2    1    2    0    0  0.00000000000E+00  0.00000000000E+00  0.17527363081E+04  0.27135169602E+04  0.20714945637E+04 0.  0.
        4    1    3    3  502    0 -0.37326627528E+03  0.78690861900E+02  0.21377522871E+04  0.21715216826E+04  0.12699999809E+01 0.  1.
       -4    1    3    3    0  502  0.37326627528E+03 -0.78690861900E+02 -0.38501597896E+03  0.54199527762E+03  0.12699999809E+01 0. -1.
</event>
<event>
 5   0  0.1122711E-04  0.2115833E+04  0.7818609E-02  0.8554301E-01
       -1   -1    0    0    0  501  0.00000000000E+00  0.00000000000E+00  0.66459012695E+03  0.66459012697E+03  0.50400001928E-02 0.  1.
        1   -1    0    0  501    0  0.00000000000E+00  0.00000000000E+00 -0.16840270318E+04  0.16840270318E+04  0.50400001928E-02 0. -1.
    10030    2    1    2    0    0  0.00000000000E+00  0.00000000000E+00 -0.10194369048E+04  0.23486171587E+04  0.21158333950E+04 0.  0.
        1    1    3    3  502    0 -0.10043356387E+02  0.49570204488E+03  0.52764033476E+03  0.72403432874E+03  0.50400001928E-02 0.  1.
       -1    1    3    3    0  502  0.10043356387E+02 -0.49570204488E+03 -0.15470772396E+04  0.16245828300E+04  0.50400001928E-02 0. -1.
</event>
<event>
 5   0  0.2448804E-04  0.2088209E+04  0.7818609E-02  0.8566455E-01
       -2   -1    0    0    0  501  0.00000000000E+00  0.00000000000E+00  0.69590921639E+03  0.69590921640E+03  0.25500000920E-02 0. -1.
        2   -1    0    0  501    0  0.00000000000E+00  0.00000000000E+00 -0.15665172907E+04  0.15665172907E+04  0.25500000920E-02 0.  1.
    10030    2    1    2    0    0  0.00000000000E+00  0.00000000000E+00 -0.87060807432E+03  0.22624265071E+04  0.20882086297E+04 0.  0.
        2    1    3    3  502    0  0.45204716915E+03 -0.54837630994E+03 -0.12640323084E+04  0.14501175459E+04  0.25500000920E-02 0.  1.
       -2    1    3    3    0  502 -0.45204716915E+03  0.54837630994E+03  0.39342423406E+03  0.81230896116E+03  0.25500000920E-02 0. -1.
</event>
<event>
 5   0  0.1042395E-04  0.2113638E+04  0.7818609E-02  0.8555259E-01
        1   -1    0    0  501    0  0.00000000000E+00  0.00000000000E+00  0.13859195016E+04  0.13859195016E+04  0.50400001928E-02 0.  1.
       -1   -1    0    0    0  501  0.00000000000E+00  0.00000000000E+00 -0.80586658747E+03  0.80586658749E+03  0.50400001928E-02 0. -1.
    10030    2    1    2    0    0  0.00000000000E+00  0.00000000000E+00  0.58005291411E+03  0.21917860891E+04  0.21136378302E+04 0.  0.
        3    1    3    3  502    0  0.14147634124E+03  0.29285793950E+03  0.13327313248E+04  0.13718433301E+04  0.10100000352E+00 0.  1.
       -3    1    3    3    0  502 -0.14147634124E+03 -0.29285793950E+03 -0.75267841073E+03  0.81994275901E+03  0.10100000352E+00 0. -1.
</event>
<event>
 5   0  0.2467483E-04  0.2106215E+04  0.7818609E-02  0.8558511E-01
       -2   -1    0    0    0  501  0.00000000000E+00  0.00000000000E+00  0.12153800105E+04  0.12153800105E+04  0.25500000920E-02 0.  1.
        2   -1    0    0  501    0  0.00000000000E+00  0.00000000000E+00 -0.91250076675E+03  0.91250076676E+03  0.25500000920E-02 0. -1.
    10030    2    1    2    0    0  0.00000000000E+00  0.00000000000E+00  0.30287924373E+03  0.21278807772E+04  0.21062147958E+04 0.  0.
        4    1    3    3  502    0  0.55766566989E+03 -0.74577919126E+03 -0.34540780430E+03  0.99321989794E+03  0.12699999809E+01 0. -1.
       -4    1    3    3    0  502 -0.55766566989E+03  0.74577919126E+03  0.64828704803E+03  0.11346608793E+04  0.12699999809E+01 0.  1.
</event>
<event>
 5   0  0.2512839E-04  0.2124440E+04  0.7818609E-02  0.8550553E-01
        2   -1    0    0  501    0  0.00000000000E+00  0.00000000000E+00  0.14866820808E+04  0.14866820808E+04  0.25500000920E-02 0.  1.
       -2   -1    0    0    0  501  0.00000000000E+00  0.00000000000E+00 -0.75894574598E+03  0.75894574598E+03  0.25500000920E-02 0. -1.
    10030    2    1    2    0    0  0.00000000000E+00  0.00000000000E+00  0.72773633478E+03  0.22456278267E+04  0.21244397293E+04 0.  0.
        3    1    3    3  502    0 -0.29442409491E+03  0.88398430542E+02 -0.71089799101E+03  0.77451649047E+03  0.10100000352E+00 0. -1.
       -3    1    3    3    0  502  0.29442409491E+03 -0.88398430542E+02  0.14386343258E+04  0.14711113363E+04  0.10100000352E+00 0.  1.
</event>
<event>
 5   0  0.8698750E-05  0.2028782E+04  0.7818609E-02  0.8593281E-01
        4   -1    0    0  501    0  0.00000000000E+00  0.00000000000E+00  0.79608227552E+03  0.79608328854E+03  0.12699999809E+01 0. -1.
       -4   -1    0    0    0  501  0.00000000000E+00  0.00000000000E+00 -0.12925644901E+04  0.12925651140E+04  0.12699999809E+01 0.  1.
    10030    2    1    2    0    0  0.00000000000E+00  0.00000000000E+00 -0.49648221453E+03  0.20886484025E+04  0.20287822850E+04 0.  0.
        4    1    3    3  502    0  0.67952604699E+03  0.57447494796E+03  0.25317351829E+03  0.92513542664E+03  0.12699999809E+01 0. -1.
       -4    1    3    3    0  502 -0.67952604699E+03 -0.57447494796E+03 -0.74965573282E+03  0.11635129759E+04  0.12699999809E+01 0.  1.
</event>
<event>
 5   0  0.1186038E-04  0.2086603E+04  0.7818609E-02  0.8567168E-01
       -1   -1    0    0    0  501  0.00000000000E+00  0.00000000000E+00  0.65055725427E+03  0.65055725429E+03  0.50400001928E-02 0. -1.
        1   -1    0    0  501    0  0.00000000000E+00  0.00000000000E+00 -0.16731472865E+04  0.16731472865E+04  0.50400001928E-02 0.  1.
    10030    2    1    2    0    0  0.00000000000E+00  0.00000000000E+00 -0.10225900322E+04  0.23237045408E+04  0.20866030813E+04 0.  0.
        4    1    3    3  502    0  0.79675901411E+03  0.62649152765E+03 -0.78670175053E+03  0.12830502009E+04  0.12699999809E+01 0.  1.
       -4    1    3    3    0  502 -0.79675901411E+03 -0.62649152765E+03 -0.23588828165E+03  0.10406543399E+04  0.12699999809E+01 0. -1.
</event>
<event>
 5   0  0.1042395E-04  0.1997034E+04  0.7818609E-02  0.8608009E-01
        1   -1    0    0  501    0  0.00000000000E+00  0.00000000000E+00  0.18259177474E+04  0.18259177474E+04  0.50400001928E-02 0. -1.
       -1   -1    0    0    0  501  0.00000000000E+00  0.00000000000E+00 -0.54604666326E+03  0.54604666328E+03  0.50400001928E-02 0.  1.
    10030    2    1    2    0    0  0.00000000000E+00  0.00000000000E+00  0.12798710842E+04  0.23719644107E+04  0.19970340943E+04 0.  0.
        3    1    3    3  502    0  0.26047588877E+03 -0.73358717363E+03  0.13826680326E+04  0.15867478465E+04  0.10100000352E+00 0. -1.
       -3    1    3    3    0  502 -0.26047588877E+03  0.73358717363E+03 -0.10279694837E+03  0.78521656423E+03  0.10100000352E+00 0.  1.
</event>
<event>
 5   0  0.1130848E-04  0.2150485E+04  0.7818609E-02  0.8539325E-01
       -1   -1    0    0    0  501  0.00000000000E+00  0.00000000000E+00  0.10990117182E+04  0.10990117182E+04  0.50400001928E-02 0.  1.
        1   -1    0    0  501    0  0.00000000000E+00  0.00000000000E+00 -0.10519870459E+04  0.10519870459E+04  0.50400001928E-02 0. -1.
    10030    2    1    2    0    0  0.00000000000E+00  0.00000000000E+00  0.47024672273E+02  0.21509987641E+04  0.21504846810E+04 0.  0.
        5    1    3    3  502    0  0.52900985550E+03 -0.46740299448E+03 -0.78773457785E+03  0.10577640765E+04  0.46999998093E+01 0. -1.
       -5    1    3    3    0  502 -0.52900985550E+03  0.46740299448E+03  0.83475925012E+03  0.10932346876E+04  0.46999998093E+01 0.  1.
</event>
<event>
 5   0  0.2467483E-04  0.2177390E+04  0.7818609E-02  0.8527898E-01
       -2   -1    0    0    0  501  0.00000000000E+00  0.00000000000E+00  0.11666113590E+04  0.11666113590E+04  0.25500000920E-02 0. -1.
        2   -1    0    0  501    0  0.00000000000E+00  0.00000000000E+00 -0.10159827299E+04  0.10159827299E+04  0.25500000920E-02 0.  1.
    10030    2    1    2    0    0  0.00000000000E+00  0.00000000000E+00  0.15062862913E+03  0.21825940889E+04  0.21773901747E+04 0.  0.
        4    1    3    3  502    0 -0.73301318906E+02 -0.78877512755E+03 -0.67327445036E+03  0.10396342547E+04  0.12699999809E+01 0.  1.
       -4    1    3    3    0  502  0.73301318906E+02  0.78877512755E+03  0.82390307949E+03  0.11429598342E+04  0.12699999809E+01 0. -1.
</event>
<event>
 5   0  0.2430898E-04  0.2127522E+04  0.7818609E-02  0.8549216E-01
        2   -1    0    0  501    0  0.00000000000E+00  0.00000000000E+00  0.17608411570E+04  0.17608411570E+04  0.25500000920E-02 0.  1.
       -2   -1    0    0    0  501  0.00000000000E+00  0.00000000000E+00 -0.64264040032E+03  0.64264040032E+03  0.25500000920E-02 0. -1.
    10030    2    1    2    0    0  0.00000000000E+00  0.00000000000E+00  0.11182007567E+04  0.24034815573E+04  0.21275221889E+04 0.  0.
        1    1    3    3  502    0 -0.96807641965E+03  0.74865284241E+02  0.68214851059E+02  0.97336017537E+03  0.50400001928E-02 0. -1.
       -1    1    3    3    0  502  0.96807641965E+03 -0.74865284241E+02  0.10499859056E+04  0.14301213819E+04  0.50400001928E-02 0.  1.
</event>
<event>
 5   0  0.2579241E-04  0.2076360E+04  0.7818609E-02  0.8571729E-01
       -2   -1    0    0    0  501  0.00000000000E+00  0.00000000000E+00  0.67196337481E+03  0.67196337481E+03  0.25500000920E-02 0.  1.
        2   -1    0    0  501    0  0.00000000000E+00  0.00000000000E+00 -0.16039827427E+04  0.16039827427E+04  0.25500000920E-02 0. -1.
    10030    2    1    2    0    0  0.00000000000E+00  0.00000000000E+00 -0.93201936793E+03  0.22759461176E+04  0.20763599466E+04 0.  0.
        5    1    3    3  502    0  0.98385616162E+03 -0.33076590468E+03 -0.44363865968E+03  0.11288119333E+04  0.46999998093E+01 0. -1.
       -5    1    3    3    0  502 -0.98385616162E+03  0.33076590468E+03 -0.48838070826E+03  0.11471341842E+04  0.46999998093E+01 0.  1.
</event>
<event>
 5   0  0.2467483E-04  0.2112813E+04  0.7818609E-02  0.8555620E-01
       -2   -1    0    0    0  501  0.00000000000E+00  0.00000000000E+00  0.90890914054E+03  0.90890914054E+03  0.25500000920E-02 0. -1.
        2   -1    0    0  501    0  0.00000000000E+00  0.00000000000E+00 -0.12278399681E+04  0.12278399681E+04  0.25500000920E-02 0.  1.
    10030    2    1    2    0    0  0.00000000000E+00  0.00000000000E+00 -0.31893082757E+03  0.21367491087E+04  0.21128132621E+04 0.  0.
        4    1    3    3  502    0  0.98431872998E+03  0.25184918093E+03  0.13309017851E+03  0.10247077538E+04  0.12699999809E+01 0. -1.
       -4    1    3    3    0  502 -0.98431872998E+03 -0.25184918093E+03 -0.45202100608E+03  0.11120413549E+04  0.12699999809E+01 0.  1.
</event>
<event>
 5   0  0.2448804E-04  0.2033551E+04  0.7818609E-02  0.8591093E-01
       -2   -1    0    0    0  501  0.00000000000E+00  0.00000000000E+00  0.10681160294E+04  0.10681160294E+04  0.25500000920E-02 0. -1.
        2   -1    0    0  501    0  0.00000000000E+00  0.00000000000E+00 -0.96790282747E+03  0.96790282748E+03  0.25500000920E-02 0.  1.
    10030    2    1    2    0    0  0.00000000000E+00  0.00000000000E+00  0.10021320190E+03  0.20360188569E+04  0.20335511057E+04 0.  0.
        2    1    3    3  502    0  0.49274583618E+03  0.48122405475E+03  0.79898317450E+03  0.10548692635E+04  0.25500000920E-02 0. -1.
       -2    1    3    3    0  502 -0.49274583618E+03 -0.48122405475E+03 -0.69876997260E+03  0.98114959336E+03  0.25500000920E-02 0.  1.
</event>
<event>
 5   0  0.2579241E-04  0.1844396E+04  0.7818609E-02  0.8683040E-01
       -2   -1    0    0    0  501  0.00000000000E+00  0.00000000000E+00  0.72174064818E+03  0.72174064818E+03  0.25500000920E-02 0.  1.
        2   -1    0    0  501    0  0.00000000000E+00  0.00000000000E+00 -0.11783309808E+04  0.11783309808E+04  0.25500000920E-02 0. -1.
    10030    2    1    2    0    0  0.00000000000E+00  0.00000000000E+00 -0.45659033259E+03  0.19000716290E+04  0.18443962327E+04 0.  0.
        5    1    3    3  502    0  0.40176399013E+03  0.20855426372E+03  0.59939911757E+03  0.75113951888E+03  0.46999998093E+01 0.  1.
       -5    1    3    3    0  502 -0.40176399013E+03 -0.20855426372E+03 -0.10559894502E+04  0.11489321101E+04  0.46999998093E+01 0. -1.
</event>
<event>
 5   0  0.2579241E-04  0.1263376E+04  0.7818609E-02  0.9059123E-01
       -2   -1    0    0    0  501  0.00000000000E+00  0.00000000000E+00  0.40676565076E+03  0.40676565076E+03  0.25500000920E-02 0. -1.
        2   -1    0    0  501    0  0.00000000000E+00  0.00000000000E+00 -0.98098187249E+03  0.98098187250E+03  0.25500000920E-02 0.  1.
    10030    2    1    2    0    0  0.00000000000E+00  0.00000000000E+00 -0.57421622174E+03  0.13877475233E+04  0.12633760006E+04 0.  0.
        5    1    3    3  502    0 -0.50913130631E+03 -0.35308279779E+03 -0.42220102596E+03  0.74977192897E+03  0.46999998093E+01 0. -1.
       -5    1    3    3    0  502  0.50913130631E+03  0.35308279779E+03 -0.15201519578E+03  0.63797559429E+03  0.46999998093E+01 0.  1.
</event>
<event>
 5   0  0.1156733E-04  0.2077154E+04  0.7818609E-02  0.8571374E-01
        1   -1    0    0  501    0  0.00000000000E+00  0.00000000000E+00  0.20809885362E+04  0.20809885362E+04  0.50400001928E-02 0.  1.
       -1   -1    0    0    0  501  0.00000000000E+00  0.00000000000E+00 -0.51833183428E+03  0.51833183431E+03  0.50400001928E-02 0. -1.
    10030    2    1    2    0    0  0.00000000000E+00  0.00000000000E+00  0.15626567019E+04  0.25993203705E+04  0.20771544046E+04 0.  0.
        2    1    3    3  502    0  0.10939673518E+03 -0.71068234968E+03 -0.15646408991E+03  0.73587910641E+03  0.25500000920E-02 0. -1.
       -2    1    3    3    0  502 -0.10939673518E+03  0.71068234968E+03  0.17191207918E+04  0.18634412641E+04  0.25500000920E-02 0.  1.
</event>
<event>
 5   0  0.1156733E-04  0.2060082E+04  0.7818609E-02  0.8579035E-01
        1   -1    0    0  501    0  0.00000000000E+00  0.00000000000E+00  0.14015133698E+04  0.14015133698E+04  0.50400001928E-02 0.  1.
       -1   -1    0    0    0  501  0.00000000000E+00  0.00000000000E+00 -0.75702735154E+03  0.75702735155E+03  0.50400001928E-02 0. -1.
    10030    2    1    2    0    0  0.00000000000E+00  0.00000000000E+00  0.64448601823E+03  0.21585407213E+04  0.20600815076E+04 0.  0.
        2    1    3    3  502    0 -0.84505132319E+01  0.60756159056E+03 -0.54924276218E+03  0.81906660859E+03  0.25500000920E-02 0. -1.
       -2    1    3    3    0  502  0.84505132319E+01 -0.60756159056E+03  0.11937287804E+04  0.13394741127E+04  0.25500000920E-02 0.  1.
</event>
<event>
 5   0  0.1156733E-04  0.2068429E+04  0.7818609E-02  0.8575280E-01
        1   -1    0    0  501    0  0.00000000000E+00  0.00000000000E+00  0.81245272553E+03  0.81245272555E+03  0.50400001928E-02 0. -1.
       -1   -1    0    0    0  501  0.00000000000E+00  0.00000000000E+00 -0.13165069094E+04  0.13165069094E+04  0.50400001928E-02 0.  1.
    10030    2    1    2    0    0  0.00000000000E+00  0.00000000000E+00 -0.50405418387E+03  0.21289596350E+04  0.20684289949E+04 0.  0.
        2    1    3    3  502    0  0.59692437604E+03 -0.34576024210E+02 -0.11205731538E+04  0.12701174769E+04  0.25500000920E-02 0.  1.
       -2    1    3    3    0  502 -0.59692437604E+03  0.34576024210E+02  0.61651896992E+03  0.85884215805E+03  0.25500000920E-02 0. -1.
</event>
<event>
 5   0  0.1130848E-04  0.2111290E+04  0.7818609E-02  0.8556286E-01
       -1   -1    0    0    0  501  0.00000000000E+00  0.00000000000E+00  0.77244330517E+03  0.77244330519E+03  0.50400001928E-02 0. -1.
        1   -1    0    0  501    0  0.00000000000E+00  0.00000000000E+00 -0.14426777515E+04  0.14426777515E+04  0.50400001928E-02 0.  1.
    10030    2    1    2    0    0  0.00000000000E+00  0.00000000000E+00 -0.67023444633E+03  0.22151210567E+04  0.21112903833E+04 0.  0.
        5    1    3    3  502    0  0.84073469700E+03 -0.27573233186E+03 -0.93919417418E+03  0.12903375281E+04  0.46999998093E+01 0.  1.
       -5    1    3    3    0  502 -0.84073469700E+03  0.27573233186E+03  0.26895972786E+03  0.92478352860E+03  0.46999998093E+01 0. -1.
</event>
<event>
 5   0  0.2512839E-04  0.1862897E+04  0.7818609E-02  0.8673549E-01
        2   -1    0    0  501    0  0.00000000000E+00  0.00000000000E+00  0.60850561877E+03  0.60850561877E+03  0.25500000920E-02 0.  1.
       -2   -1    0    0    0  501  0.00000000000E+00  0.00000000000E+00 -0.14257818702E+04  0.14257818702E+04  0.25500000920E-02 0. -1.
    10030    2    1    2    0    0  0.00000000000E+00  0.00000000000E+00 -0.81727625147E+03  0.20342874890E+04  0.18628969689E+04 0.  0.
        3    1    3    3  502    0  0.22840140866E+03 -0.57829588255E+03  0.34871314165E+03  0.71287740644E+03  0.10100000352E+00 0.  1.
       -3    1    3    3    0  502 -0.22840140866E+03  0.57829588255E+03 -0.11659893931E+04  0.13214100826E+04  0.10100000352E+00 0. -1.
</event>
<event>
 5   0  0.1042395E-04  0.2072661E+04  0.7818609E-02  0.8573383E-01
       -1   -1    0    0    0  501  0.00000000000E+00  0.00000000000E+00  0.71400352118E+03  0.71400352120E+03  0.50400001928E-02 0. -1.
        1   -1    0    0  501    0  0.00000000000E+00  0.00000000000E+00 -0.15041681984E+04  0.15041681984E+04  0.50400001928E-02 0.  1.
    10030    2    1    2    0    0  0.00000000000E+00  0.00000000000E+00 -0.79016467724E+03  0.22181717196E+04  0.20726614679E+04 0.  0.
        3    1    3    3  502    0  0.45073733207E+02  0.73111210330E+03 -0.11796414214E+04  0.13885641657E+04  0.10100000352E+00 0.  1.
       -3    1    3    3    0  502 -0.45073733207E+02 -0.73111210330E+03  0.38947674419E+03  0.82960755390E+03  0.10100000352E+00 0. -1.
</event>
<event>
 5   0  0.1156733E-04  0.1153013E+04  0.7818609E-02  0.9155008E-01
       -1   -1    0    0    0  501  0.00000000000E+00  0.00000000000E+00  0.25954476470E+03  0.25954476475E+03  0.50400001928E-02 0.  1.
        1   -1    0    0  501    0  0.00000000000E+00  0.00000000000E+00 -0.12805493493E+04  0.12805493493E+04  0.50400001928E-02 0. -1.
    10030    2    1    2    0    0  0.00000000000E+00  0.00000000000E+00 -0.10210045846E+04  0.15400941140E+04  0.11530132343E+04 0.  0.
        2    1    3    3  502    0 -0.83247490004E+02 -0.32801738058E+02 -0.12712181181E+04  0.12743632145E+04  0.25500000920E-02 0. -1.
       -2    1    3    3    0  502  0.83247490004E+02  0.32801738058E+02  0.25021353353E+03  0.26573089956E+03  0.25500000920E-02 0.  1.
</event>
<event>
 5   0  0.1130848E-04  0.2134076E+04  0.7818609E-02  0.8546379E-01
        1   -1    0    0  501    0  0.00000000000E+00  0.00000000000E+00  0.28527026535E+04  0.28527026536E+04  0.50400001928E-02 0.  1.
       -1   -1    0    0    0  501  0.00000000000E+00  0.00000000000E+00 -0.39911989668E+03  0.39911989671E+03  0.50400001928E-02 0. -1.
    10030    2    1    2    0    0  0.00000000000E+00  0.00000000000E+00  0.24535827569E+04  0.32518225503E+04  0.21340762764E+04 0.  0.
        5    1    3    3  502    0  0.11487117190E+03  0.84116483705E+03  0.24187734198E+03  0.88276860376E+03  0.46999998093E+01 0. -1.
       -5    1    3    3    0  502 -0.11487117190E+03 -0.84116483705E+03  0.22117054149E+04  0.23690539465E+04  0.46999998093E+01 0.  1.
</event>
<event>
 5   0  0.2448804E-04  0.2111540E+04  0.7818609E-02  0.8556177E-01
       -2   -1    0    0    0  501  0.00000000000E+00  0.00000000000E+00  0.78456290372E+03  0.78456290372E+03  0.25500000920E-02 0.  1.
        2   -1    0    0  501    0  0.00000000000E+00  0.00000000000E+00 -0.14207278135E+04  0.14207278135E+04  0.25500000920E-02 0. -1.
    10030    2    1    2    0    0  0.00000000000E+00  0.00000000000E+00 -0.63616490981E+03  0.22052907172E+04  0.21115400435E+04 0.  0.
        2    1    3    3  502    0  0.46726121000E+03  0.78723051104E+03 -0.86734650035E+03  0.12610927276E+04  0.25500000920E-02 0. -1.
       -2    1    3    3    0  502 -0.46726121000E+03 -0.78723051104E+03  0.23118159054E+03  0.94419798967E+03  0.25500000920E-02 0.  1.
</event>
<event>
 5   0  0.2467483E-04  0.1243958E+04  0.7818609E-02  0.9075227E-01
       -2   -1    0    0    0  501  0.00000000000E+00  0.00000000000E+00  0.90104894594E+03  0.90104894595E+03  0.25500000920E-02 0.  1.
        2   -1    0    0  501    0  0.00000000000E+00  0.00000000000E+00 -0.42934175747E+03  0.42934175748E+03  0.25500000920E-02 0. -1.
    10030    2    1    2    0    0  0.00000000000E+00  0.00000000000E+00  0.47170718848E+03  0.13303907034E+04  0.12439580990E+04 0.  0.
        4    1    3    3  502    0 -0.22172233701E+03 -0.10559442146E+03  0.84699991333E+03  0.88188516410E+03  0.12699999809E+01 0.  1.
       -4    1    3    3    0  502  0.22172233701E+03  0.10559442146E+03 -0.37529272486E+03  0.44850553932E+03  0.12699999809E+01 0. -1.
</event>
<event>
 5   0  0.1042395E-04  0.2049322E+04  0.7818609E-02  0.8583902E-01
        1   -1    0    0  501    0  0.00000000000E+00  0.00000000000E+00  0.12906388466E+04  0.12906388466E+04  0.50400001928E-02 0.  1.
       -1   -1    0    0    0  501  0.00000000000E+00  0.00000000000E+00 -0.81349634232E+03  0.81349634234E+03  0.50400001928E-02 0. -1.
    10030    2    1    2    0    0  0.00000000000E+00  0.00000000000E+00  0.47714250428E+03  0.21041351889E+04  0.20493218205E+04 0.  0.
        3    1    3    3  502    0  0.49949626216E+03  0.86706567075E+03  0.12149478227E+02  0.10007232451E+04  0.10100000352E+00 0.  1.
       -3    1    3    3    0  502 -0.49949626216E+03 -0.86706567075E+03  0.46499302605E+03  0.11034119438E+04  0.10100000352E+00 0. -1.
</event>
<event>
 5   0  0.2448804E-04  0.2087491E+04  0.7818609E-02  0.8566774E-01
        2   -1    0    0  501    0  0.00000000000E+00  0.00000000000E+00  0.17250242546E+04  0.17250242546E+04  0.25500000920E-02 0. -1.
       -2   -1    0    0    0  501  0.00000000000E+00  0.00000000000E+00 -0.63152979639E+03  0.63152979639E+03  0.25500000920E-02 0.  1.
    10030    2    1    2    0    0  0.00000000000E+00  0.00000000000E+00  0.10934944582E+04  0.23565540510E+04  0.20874905665E+04 0.  0.
        2    1    3    3  502    0 -0.29912203815E+03 -0.19979638000E+03 -0.55934446414E+03  0.66502542563E+03  0.25500000920E-02 0.  1.
       -2    1    3    3    0  502  0.29912203815E+03  0.19979638000E+03  0.16528389223E+04  0.16915286253E+04  0.25500000920E-02 0. -1.
</event>
<event>
 5   0  0.1130848E-04  0.1868223E+04  0.7818609E-02  0.8670838E-01
       -1   -1    0    0    0  501  0.00000000000E+00  0.00000000000E+00  0.12976539577E+04  0.12976539577E+04  0.50400001928E-02 0. -1.
        1   -1    0    0  501    0  0.00000000000E+00  0.00000000000E+00 -0.67241669259E+03  0.67241669260E+03  0.50400001928E-02 0.  1.
    10030    2    1    2    0    0  0.00000000000E+00  0.00000000000E+00  0.62523726511E+03  0.19700706503E+04  0.18682228800E+04 0.  0.
        5    1    3    3  502    0  0.58487553504E+03  0.19943363953E+02  0.10803648118E+04  0.12286933489E+04  0.46999998093E+01 0. -1.
       -5    1    3    3    0  502 -0.58487553504E+03 -0.19943363953E+02 -0.45512754666E+03  0.74137730136E+03  0.46999998093E+01 0.  1.
</event>
<event>
 5   0  0.1122711E-04  0.2076943E+04  0.7818609E-02  0.8571469E-01
       -1   -1    0    0    0  501  0.00000000000E+00  0.00000000000E+00  0.19237555042E+04  0.19237555042E+04  0.50400001928E-02 0.  1.
        1   -1    0    0  501    0  0.00000000000E+00  0.00000000000E+00 -0.56058210822E+03  0.56058210824E+03  0.50400001928E-02 0. -1.
    10030    2    1    2    0    0  0.00000000000E+00  0.00000000000E+00  0.13631733960E+04  0.24843376125E+04  0.20769428652E+04 0.  0.
        1    1    3    3  502    0 -0.19153318695E+03  0.43230172047E+03  0.17875273700E+04  0.18490061757E+04  0.50400001928E-02 0.  1.
       -1    1    3    3    0  502  0.19153318695E+03 -0.43230172047E+03 -0.42435397402E+03  0.63533143675E+03  0.50400001928E-02 0. -1.
</event>
<event>
 5   0  0.1156733E-04  0.2092031E+04  0.7818609E-02  0.8564762E-01
       -1   -1    0    0    0  501  0.00000000000E+00  0.00000000000E+00  0.12866990228E+04  0.12866990228E+04  0.50400001928E-02 0.  1.
        1   -1    0    0  501    0  0.00000000000E+00  0.00000000000E+00 -0.85035340112E+03  0.85035340114E+03  0.50400001928E-02 0. -1.
    10030    2    1    2    0    0  0.00000000000E+00  0.00000000000E+00  0.43634562171E+03  0.21370524240E+04  0.20920314437E+04 0.  0.
        2    1    3    3  502    0  0.69449181102E+03 -0.56242237971E+03 -0.33713509163E+03  0.95514285778E+03  0.25500000920E-02 0. -1.
       -2    1    3    3    0  502 -0.69449181102E+03  0.56242237971E+03  0.77348071334E+03  0.11819095662E+04  0.25500000920E-02 0.  1.
</event>
<event>
 5   0  0.1130848E-04  0.1609806E+04  0.7818609E-02  0.8814547E-01
        1   -1    0    0  501    0  0.00000000000E+00  0.00000000000E+00  0.10952916878E+04  0.10952916878E+04  0.50400001928E-02 0.  1.
       -1   -1    0    0    0  501  0.00000000000E+00  0.00000000000E+00 -0.59150315731E+03  0.59150315734E+03  0.50400001928E-02 0. -1.
    10030    2    1    2    0    0  0.00000000000E+00  0.00000000000E+00  0.50378853050E+03  0.16867948452E+04  0.16098055678E+04 0.  0.
        5    1    3    3  502    0  0.60338303768E+03 -0.62791434771E+02  0.80618542573E+03  0.10089454322E+04  0.46999998093E+01 0.  1.
       -5    1    3    3    0  502 -0.60338303768E+03  0.62791434771E+02 -0.30239689523E+03  0.67784941299E+03  0.46999998093E+01 0. -1.
</event>
<event>
 5   0  0.1122711E-04  0.1844711E+04  0.7818609E-02  0.8682877E-01
        1   -1    0    0  501    0  0.00000000000E+00  0.00000000000E+00  0.13733790555E+04  0.13733790555E+04  0.50400001928E-02 0.  1.
       -1   -1    0    0    0  501  0.00000000000E+00  0.00000000000E+00 -0.61945008703E+03  0.61945008705E+03  0.50400001928E-02 0. -1.
    10030    2    1    2    0    0  0.00000000000E+00  0.00000000000E+00  0.75392896844E+03  0.19928291425E+04  0.18447111161E+04 0.  0.
        1    1    3    3  502    0  0.32609683741E+03 -0.82736883386E+03  0.64127551209E+03  0.10964089643E+04  0.50400001928E-02 0.  1.
       -1    1    3    3    0  502 -0.32609683741E+03  0.82736883386E+03  0.11265345634E+03  0.89642017819E+03  0.50400001928E-02 0. -1.
</event>
<event>
 5   0  0.2512839E-04  0.2127028E+04  0.7818609E-02  0.8549430E-01
       -2   -1    0    0    0  501  0.00000000000E+00  0.00000000000E+00  0.18949642365E+04  0.18949642365E+04  0.25500000920E-02 0.  1.
        2   -1    0    0  501    0  0.00000000000E+00  0.00000000000E+00 -0.59687789620E+03  0.59687789621E+03  0.25500000920E-02 0. -1.
    10030    2    1    2    0    0  0.00000000000E+00  0.00000000000E+00  0.12980863403E+04  0.24918421327E+04  0.21270282244E+04 0.  0.
        3    1    3    3  502    0  0.79222933100E+02  0.73292802585E+03  0.15470695338E+04  0.17137339107E+04  0.10100000352E+00 0.  1.
       -3    1    3    3    0  502 -0.79222933100E+02 -0.73292802585E+03 -0.24898319352E+03  0.77810822195E+03  0.10100000352E+00 0. -1.
</event>
<event>
 5   0  0.2512839E-04  0.2076508E+04  0.7818609E-02  0.8571663E-01
        2   -1    0    0  501    0  0.00000000000E+00  0.00000000000E+00  0.16967815350E+04  0.16967815350E+04  0.25500000920E-02 0. -1.
       -2   -1    0    0    0  501  0.00000000000E+00  0.00000000000E+00 -0.63530367434E+03  0.63530367435E+03  0.25500000920E-02 0.  1.
    10030    2    1    2    0    0  0.00000000000E+00  0.00000000000E+00  0.10614778606E+04  0.23320852093E+04  0.20765081688E+04 0.  0.
        3    1    3    3  502    0 -0.88317173967E+02 -0.10317900247E+04  0.44683833500E+03  0.11278541954E+04  0.10100000352E+00 0.  1.
       -3    1    3    3    0  502  0.88317173967E+02  0.10317900247E+04  0.61463952563E+03  0.12042310139E+04  0.10100000352E+00 0. -1.
</event>
<event>
 5   0  0.1130848E-04  0.2107331E+04  0.7818609E-02  0.8558021E-01
       -1   -1    0    0    0  501  0.00000000000E+00  0.00000000000E+00  0.15968484681E+04  0.15968484681E+04  0.50400001928E-02 0. -1.
        1   -1    0    0  501    0  0.00000000000E+00  0.00000000000E+00 -0.69525136201E+03  0.69525136203E+03  0.50400001928E-02 0.  1.
    10030    2    1    2    0    0  0.00000000000E+00  0.00000000000E+00  0.90159710605E+03  0.22920998301E+04  0.21073310821E+04 0.  0.
        5    1    3    3  502    0 -0.80573252201E+03  0.65621021851E+03  0.26124185795E+03  0.10714878190E+04  0.46999998093E+01 0.  1.
       -5    1    3    3    0  502  0.80573252201E+03 -0.65621021851E+03  0.64035524811E+03  0.12206120111E+04  0.46999998093E+01 0. -1.
</event>
<event>
 5   0  0.1042395E-04  0.2084466E+04  0.7818609E-02  0.8568117E-01
       -1   -1    0    0    0  501  0.00000000000E+00  0.00000000000E+00  0.15884139066E+04  0.15884139066E+04  0.50400001928E-02 0. -1.
        1   -1    0    0  501    0  0.00000000000E+00  0.00000000000E+00 -0.68385771645E+03  0.68385771647E+03  0.50400001928E-02 0.  1.
    10030    2    1    2    0    0  0.00000000000E+00  0.00000000000E+00  0.90455619012E+03  0.22722716231E+04  0.20844655017E+04 0.  0.
        3    1    3    3  502    0  0.86022794573E+03  0.31269272796E+03 -0.91111675525E+02  0.91982074794E+03  0.10100000352E+00 0. -1.
       -3    1    3    3    0  502 -0.86022794573E+03 -0.31269272796E+03  0.99566786565E+03  0.13524508751E+04  0.10100000352E+00 0.  1.
</event>
<event>
 5   0  0.1042395E-04  0.1944392E+04  0.7818609E-02  0.8633070E-01
       -1   -1    0    0    0  501  0.00000000000E+00  0.00000000000E+00  0.10129971721E+04  0.10129971722E+04  0.50400001928E-02 0.  1.
        1   -1    0    0  501    0  0.00000000000E+00  0.00000000000E+00 -0.93303808995E+03  0.93303808996E+03  0.50400001928E-02 0. -1.
    10030    2    1    2    0    0  0.00000000000E+00  0.00000000000E+00  0.79959082197E+02  0.19460352621E+04  0.19443918809E+04 0.  0.
        3    1    3    3  502    0 -0.61618222522E+03 -0.61095784510E+03  0.47877330468E+03  0.99104687610E+03  0.10100000352E+00 0.  1.
       -3    1    3    3    0  502  0.61618222522E+03  0.61095784510E+03 -0.39881422248E+03  0.95498838601E+03  0.10100000352E+00 0. -1.
</event>
<event>
 5   0  0.2448804E-04  0.1821722E+04  0.7818609E-02  0.8694832E-01
       -2   -1    0    0    0  501  0.00000000000E+00  0.00000000000E+00  0.47132365073E+03  0.47132365073E+03  0.25500000920E-02 0.  1.
        2   -1    0    0  501    0  0.00000000000E+00  0.00000000000E+00 -0.17602931675E+04  0.17602931675E+04  0.25500000920E-02 0. -1.
    10030    2    1    2    0    0  0.00000000000E+00  0.00000000000E+00 -0.12889695167E+04  0.22316168182E+04  0.18217220447E+04 0.  0.
        2    1    3    3  502    0 -0.54514063356E+03  0.30413999997E+03  0.16808022271E+03  0.64647537557E+03  0.25500000920E-02 0.  1.
       -2    1    3    3    0  502  0.54514063356E+03 -0.30413999997E+03 -0.14570497395E+04  0.15851414426E+04  0.25500000920E-02 0. -1.
</event>
<event>
 5   0  0.2448804E-04  0.2058961E+04  0.7818609E-02  0.8579540E-01
       -2   -1    0    0    0  501  0.00000000000E+00  0.00000000000E+00  0.91297076199E+03  0.91297076199E+03  0.25500000920E-02 0. -1.
        2   -1    0    0  501    0  0.00000000000E+00  0.00000000000E+00 -0.11608587070E+04  0.11608587070E+04  0.25500000920E-02 0.  1.
    10030    2    1    2    0    0  0.00000000000E+00  0.00000000000E+00 -0.24788794503E+03  0.20738294690E+04  0.20589609596E+04 0.  0.
        2    1    3    3  502    0 -0.39953031149E+03 -0.79359424327E+02 -0.10762384405E+04  0.11507439197E+04  0.25500000920E-02 0.  1.
       -2    1    3    3    0  502  0.39953031149E+03  0.79359424327E+02  0.82835049543E+03  0.92308554930E+03  0.25500000920E-02 0. -1.
</event>
<event>
 5   0  0.1186038E-04  0.2027416E+04  0.7818609E-02  0.8593909E-01
        1   -1    0    0  501    0  0.00000000000E+00  0.00000000000E+00  0.14870617365E+04  0.14870617365E+04  0.50400001928E-02 0.  1.
       -1   -1    0    0    0  501  0.00000000000E+00  0.00000000000E+00 -0.69103005727E+03  0.69103005729E+03  0.50400001928E-02 0. -1.
    10030    2    1    2    0    0  0.00000000000E+00  0.00000000000E+00  0.79603167919E+03  0.21780917937E+04  0.20274164416E+04 0.  0.
        4    1    3    3  502    0 -0.65459419822E+03  0.47402014010E+03  0.10553849676E+04  0.13292959416E+04  0.12699999809E+01 0.  1.
       -4    1    3    3    0  502  0.65459419822E+03 -0.47402014010E+03 -0.25935328840E+03  0.84879585218E+03  0.12699999809E+01 0. -1.
</event>
<event>
 5   0  0.2430898E-04  0.2131718E+04  0.7818609E-02  0.8547399E-01
       -2   -1    0    0    0  501  0.00000000000E+00  0.00000000000E+00  0.12189337951E+04  0.12189337951E+04  0.25500000920E-02 0.  1.
        2   -1    0    0  501    0  0.00000000000E+00  0.00000000000E+00 -0.93200727035E+03  0.93200727035E+03  0.25500000920E-02 0. -1.
    10030    2    1    2    0    0  0.00000000000E+00  0.00000000000E+00  0.28692652475E+03  0.21509410655E+04  0.21317177666E+04 0.  0.
        1    1    3    3  502    0  0.70075970258E+03  0.39259522600E+03 -0.56346870694E+03  0.98116877037E+03  0.50400001928E-02 0. -1.
       -1    1    3    3    0  502 -0.70075970258E+03 -0.39259522600E+03  0.85039523169E+03  0.11697722951E+04  0.50400001928E-02 0.  1.
</event>
<event>
 5   0  0.8698750E-05  0.2115696E+04  0.7818609E-02  0.8554361E-01
       -3   -1    0    0    0  501  0.00000000000E+00  0.00000000000E+00  0.59850545945E+03  0.59850546798E+03  0.10100000352E+00 0.  1.
        3   -1    0    0  501    0  0.00000000000E+00  0.00000000000E+00 -0.18697276556E+04  0.18697276583E+04  0.10100000352E+00 0. -1.
    10030    2    1    2    0    0  0.00000000000E+00  0.00000000000E+00 -0.12712221962E+04  0.24682331263E+04  0.21156958415E+04 0.  0.
        5    1    3    3  502    0  0.31409216709E+03 -0.93714739284E+03 -0.10754180441E+04  0.14606317759E+04  0.46999998093E+01 0.  1.
       -5    1    3    3    0  502 -0.31409216709E+03  0.93714739284E+03 -0.19580415208E+03  0.10076013504E+04  0.46999998093E+01 0. -1.
</event>
<event>
 5   0  0.8698750E-05  0.1981644E+04  0.7818609E-02  0.8615251E-01
        4   -1    0    0  501    0  0.00000000000E+00  0.00000000000E+00  0.13207301991E+04  0.13207308097E+04  0.12699999809E+01 0. -1.
       -4   -1    0    0    0  501  0.00000000000E+00  0.00000000000E+00 -0.74332071604E+03  0.74332180097E+03  0.12699999809E+01 0.  1.
    10030    2    1    2    0    0  0.00000000000E+00  0.00000000000E+00  0.57740948309E+03  0.20640526107E+04  0.19816436281E+04 0.  0.
        2    1    3    3  502    0 -0.90054140090E+03  0.31614939620E+03  0.56585790917E+03  0.11095586640E+04  0.25500000920E-02 0.  1.
       -2    1    3    3    0  502  0.90054140090E+03 -0.31614939620E+03  0.11551573916E+02  0.95449394672E+03  0.25500000920E-02 0. -1.
</event>
<event>
 5   0  0.8698750E-05  0.1162658E+04  0.7818609E-02  0.9146185E-01
        4   -1    0    0  501    0  0.00000000000E+00  0.00000000000E+00  0.10439353802E+04  0.10439361527E+04  0.12699999809E+01 0. -1.
       -4   -1    0    0    0  501  0.00000000000E+00  0.00000000000E+00 -0.32371821497E+03  0.32372070617E+03  0.12699999809E+01 0.  1.
    10030    2    1    2    0    0  0.00000000000E+00  0.00000000000E+00  0.72021716519E+03  0.13676568588E+04  0.11626575242E+04 0.  0.
        2    1    3    3  502    0  0.33052916809E+03  0.25412746619E+03  0.83664556245E+03  0.93477596097E+03  0.25500000920E-02 0. -1.
       -2    1    3    3    0  502 -0.33052916809E+03 -0.25412746619E+03 -0.11642839727E+03  0.43288089786E+03  0.25500000920E-02 0.  1.
</event>
<event>
 5   0  0.2448804E-04  0.2166233E+04  0.7818609E-02  0.8532615E-01
       -2   -1    0    0    0  501  0.00000000000E+00  0.00000000000E+00  0.15713360926E+04  0.15713360926E+04  0.25500000920E-02 0.  1.
        2   -1    0    0  501    0  0.00000000000E+00  0.00000000000E+00 -0.74658860129E+03  0.74658860129E+03  0.25500000920E-02 0. -1.
    10030    2    1    2    0    0  0.00000000000E+00  0.00000000000E+00  0.82474749134E+03  0.23179246939E+04  0.21662332428E+04 0.  0.
        2    1    3    3  502    0  0.52356515651E+03 -0.48391799495E+03  0.12848510764E+04  0.14694010302E+04  0.25500000920E-02 0.  1.
       -2    1    3    3    0  502 -0.52356515651E+03  0.48391799495E+03 -0.46010358506E+03  0.84852366375E+03  0.25500000920E-02 0. -1.
</event>
<event>
 5   0  0.1130848E-04  0.2038695E+04  0.7818609E-02  0.8588740E-01
        1   -1    0    0  501    0  0.00000000000E+00  0.00000000000E+00  0.17354891435E+04  0.17354891435E+04  0.50400001928E-02 0. -1.
       -1   -1    0    0    0  501  0.00000000000E+00  0.00000000000E+00 -0.59871844125E+03  0.59871844127E+03  0.50400001928E-02 0.  1.
    10030    2    1    2    0    0  0.00000000000E+00  0.00000000000E+00  0.11367707022E+04  0.23342075848E+04  0.20386950285E+04 0.  0.
        5    1    3    3  502    0  0.64356194983E+03  0.26192596426E+03  0.14223306639E+04  0.15829794065E+04  0.46999998093E+01 0. -1.
       -5    1    3    3    0  502 -0.64356194983E+03 -0.26192596426E+03 -0.28555996170E+03  0.75122817821E+03  0.46999998093E+01 0.  1.
</event>
<event>
 5   0  0.2512839E-04  0.2076086E+04  0.7818609E-02  0.8571851E-01
       -2   -1    0    0    0  501  0.00000000000E+00  0.00000000000E+00  0.64538319890E+03  0.64538319891E+03  0.25500000920E-02 0. -1.
        2   -1    0    0  501    0  0.00000000000E+00  0.00000000000E+00 -0.16696030193E+04  0.16696030193E+04  0.25500000920E-02 0.  1.
    10030    2    1    2    0    0  0.00000000000E+00  0.00000000000E+00 -0.10242198204E+04  0.23149862182E+04  0.20760864505E+04 0.  0.
        3    1    3    3  502    0 -0.66085851090E+03  0.77236782321E+03 -0.74666687545E+03  0.12612681947E+04  0.10100000352E+00 0.  1.
       -3    1    3    3    0  502  0.66085851090E+03 -0.77236782321E+03 -0.27755294497E+03  0.10537180236E+04  0.10100000352E+00 0. -1.
</event>
<event>
 5   0  0.1042395E-04  0.2157904E+04  0.7818609E-02  0.8536156E-01
        1   -1    0    0  501    0  0.00000000000E+00  0.00000000000E+00  0.80805165864E+03  0.80805165865E+03  0.50400001928E-02 0. -1.
       -1   -1    0    0    0  501  0.00000000000E+00  0.00000000000E+00 -0.14406725704E+04  0.14406725704E+04  0.50400001928E-02 0.  1.
    10030    2    1    2    0    0  0.00000000000E+00  0.00000000000E+00 -0.63262091172E+03  0.22487242290E+04  0.21579044094E+04 0.  0.
        3    1    3    3  502    0 -0.46269785011E+03 -0.42984834371E+03 -0.12279305320E+04  0.13808230519E+04  0.10100000352E+00 0.  1.
       -3    1    3    3    0  502  0.46269785011E+03  0.42984834371E+03  0.59530962025E+03  0.86790117712E+03  0.10100000352E+00 0. -1.
</event>
<event>
 5   0  0.2467483E-04  0.2046761E+04  0.7818609E-02  0.8585065E-01
       -2   -1    0    0    0  501  0.00000000000E+00  0.00000000000E+00  0.11080287802E+04  0.11080287802E+04  0.25500000920E-02 0. -1.
        2   -1    0    0  501    0  0.00000000000E+00  0.00000000000E+00 -0.94519920652E+03  0.94519920652E+03  0.25500000920E-02 0.  1.
    10030    2    1    2    0    0  0.00000000000E+00  0.00000000000E+00  0.16282957364E+03  0.20532279867E+04  0.20467612697E+04 0.  0.
        4    1    3    3  502    0 -0.42365545422E+03 -0.92146104315E+02 -0.84851539063E+03  0.95286663782E+03  0.12699999809E+01 0.  1.
       -4    1    3    3    0  502  0.42365545422E+03  0.92146104315E+02  0.10113449643E+04  0.11003613489E+04  0.12699999809E+01 0. -1.
</event>
<event>
 5   0  0.1156733E-04  0.2007233E+04  0.7818609E-02  0.8603246E-01
        1   -1    0    0  501    0  0.00000000000E+00  0.00000000000E+00  0.15234819411E+04  0.15234819411E+04  0.50400001928E-02 0. -1.
       -1   -1    0    0    0  501  0.00000000000E+00  0.00000000000E+00 -0.66114735331E+03  0.66114735333E+03  0.50400001928E-02 0.  1.
    10030    2    1    2    0    0  0.00000000000E+00  0.00000000000E+00  0.86233458778E+03  0.21846292944E+04  0.20072329742E+04 0.  0.
        2    1    3    3  502    0 -0.10852248969E+03  0.29088315972E+03 -0.60756781378E+03  0.68229670359E+03  0.25500000920E-02 0.  1.
       -2    1    3    3    0  502  0.10852248969E+03 -0.29088315972E+03  0.14699024016E+04  0.15023325908E+04  0.25500000920E-02 0. -1.
</event>
<event>
 5   0  0.1122711E-04  0.2098822E+04  0.7818609E-02  0.8561763E-01
       -1   -1    0    0    0  501  0.00000000000E+00  0.00000000000E+00  0.67963537188E+03  0.67963537189E+03  0.50400001928E-02 0. -1.
        1   -1    0    0  501    0  0.00000000000E+00  0.00000000000E+00 -0.16203733027E+04  0.16203733027E+04  0.50400001928E-02 0.  1.
    10030    2    1    2    0    0  0.00000000000E+00  0.00000000000E+00 -0.94073793078E+03  0.23000086746E+04  0.20988215857E+04 0.  0.
        1    1    3    3  502    0 -0.38428605242E+03 -0.40771816785E+03  0.50201711449E+03  0.75228389438E+03  0.50400001928E-02 0. -1.
       -1    1    3    3    0  502  0.38428605242E+03  0.40771816785E+03 -0.14427550453E+04  0.15477247802E+04  0.50400001928E-02 0.  1.
</event>
<event>
 5   0  0.2579241E-04  0.2096077E+04  0.7818609E-02  0.8562973E-01
       -2   -1    0    0    0  501  0.00000000000E+00  0.00000000000E+00  0.10012134782E+04  0.10012134782E+04  0.25500000920E-02 0. -1.
        2   -1    0    0  501    0  0.00000000000E+00  0.00000000000E+00 -0.10970535617E+04  0.10970535617E+04  0.25500000920E-02 0.  1.
    10030    2    1    2    0    0  0.00000000000E+00  0.00000000000E+00 -0.95840083584E+02  0.20982670399E+04  0.20960771095E+04 0.  0.
        5    1    3    3  502    0  0.20958075908E+03  0.20287714279E+03  0.95974949641E+03  0.10031073798E+04  0.46999998093E+01 0. -1.
       -5    1    3    3    0  502 -0.20958075908E+03 -0.20287714279E+03 -0.10555895800E+04  0.10951596601E+04  0.46999998093E+01 0.  1.
</event>
<event>
 5   0  0.1130848E-04  0.2112261E+04  0.7818609E-02  0.8555862E-01
        1   -1    0    0  501    0  0.00000000000E+00  0.00000000000E+00  0.20668748449E+04  0.20668748449E+04  0.50400001928E-02 0.  1.
       -1   -1    0    0    0  501  0.00000000000E+00  0.00000000000E+00 -0.53966083508E+03  0.53966083510E+03  0.50400001928E-02 0. -1.
    10030    2    1    2    0    0  0.00000000000E+00  0.00000000000E+00  0.15272140098E+04  0.26065356800E+04  0.21122607839E+04 0.  0.
        5    1    3    3  502    0 -0.37207923249E+03  0.31421897319E+03 -0.39281412562E+03  0.62570084357E+03  0.46999998093E+01 0. -1.
       -5    1    3    3    0  502  0.37207923249E+03 -0.31421897319E+03  0.19200281354E+04  0.19808348364E+04  0.46999998093E+01 0.  1.
</event>
<event>
 5   0  0.2512839E-04  0.2111954E+04  0.7818609E-02  0.8555996E-01
       -2   -1    0    0    0  501  0.00000000000E+00  0.00000000000E+00  0.91825261790E+03  0.91825261791E+03  0.25500000920E-02 0.  1.
        2   -1    0    0  501    0  0.00000000000E+00  0.00000000000E+00 -0.12143583410E+04  0.12143583410E+04  0.25500000920E-02 0. -1.
    10030    2    1    2    0    0  0.00000000000E+00  0.00000000000E+00 -0.29610572314E+03  0.21326109590E+04  0.21119542852E+04 0.  0.
        3    1    3    3  502    0  0.26908187100E+03  0.81338928191E+03 -0.77140794901E+03  0.11528561971E+04  0.10100000352E+00 0. -1.
       -3    1    3    3    0  502 -0.26908187100E+03 -0.81338928191E+03  0.47530222587E+03  0.97975476184E+03  0.10100000352E+00 0.  1.
</event>
<event>
 5   0  0.2430898E-04  0.2130964E+04  0.7818609E-02  0.8547725E-01
       -2   -1    0    0    0  501  0.00000000000E+00  0.00000000000E+00  0.10287736886E+04  0.10287736886E+04  0.25500000920E-02 0.  1.
        2   -1    0    0  501    0  0.00000000000E+00  0.00000000000E+00 -0.11035004323E+04  0.11035004323E+04  0.25500000920E-02 0. -1.
    10030    2    1    2    0    0  0.00000000000E+00  0.00000000000E+00 -0.74726743780E+02  0.21322741209E+04  0.21309642982E+04 0.  0.
        1    1    3    3  502    0 -0.49539338299E+03 -0.91726306750E+02  0.90205547999E+03  0.10332145993E+04  0.50400001928E-02 0.  1.
       -1    1    3    3    0  502  0.49539338299E+03  0.91726306750E+02 -0.97678222377E+03  0.10990595216E+04  0.50400001928E-02 0. -1.
</event>
<event>
 5   0  0.1156733E-04  0.2006495E+04  0.7818609E-02  0.8603590E-01
        1   -1    0    0  501    0  0.00000000000E+00  0.00000000000E+00  0.11701697809E+04  0.11701697809E+04  0.50400001928E-02 0. -1.
       -1   -1    0    0    0  501  0.00000000000E+00  0.00000000000E+00 -0.86013606677E+03  0.86013606678E+03  0.50400001928E-02 0.  1.
    10030    2    1    2    0    0  0.00000000000E+00  0.00000000000E+00  0.31003371415E+03  0.20303058477E+04  0.20064946876E+04 0.  0.
        2    1    3    3  502    0 -0.47215013007E+03  0.29059909416E+02 -0.74020531662E+03  0.87844984741E+03  0.25500000920E-02 0.  1.
       -2    1    3    3    0  502  0.47215013007E+03 -0.29059909416E+02  0.10502390308E+04  0.11518560003E+04  0.25500000920E-02 0. -1.
</event>
<event>
 5   0  0.1156733E-04  0.2119599E+04  0.7818609E-02  0.8552659E-01
       -1   -1    0    0    0  501  0.00000000000E+00  0.00000000000E+00  0.58923309202E+03  0.58923309204E+03  0.50400001928E-02 0. -1.
        1   -1    0    0  501    0  0.00000000000E+00  0.00000000000E+00 -0.19061639521E+04  0.19061639521E+04  0.50400001928E-02 0.  1.
    10030    2    1    2    0    0  0.00000000000E+00  0.00000000000E+00 -0.13169308601E+04  0.24953970442E+04  0.21195989049E+04 0.  0.
        2    1    3    3  502    0 -0.63775094276E+03  0.84576779645E+03 -0.69796104349E+03  0.12685420958E+04  0.25500000920E-02 0. -1.
       -2    1    3    3    0  502  0.63775094276E+03 -0.84576779645E+03 -0.61896981661E+03  0.12268549484E+04  0.25500000920E-02 0.  1.
</event>
<event>
 5   0  0.2512839E-04  0.1495164E+04  0.7818609E-02  0.8887675E-01
        2   -1    0    0  501    0  0.00000000000E+00  0.00000000000E+00  0.63017878135E+03  0.63017878136E+03  0.25500000920E-02 0.  1.
       -2   -1    0    0    0  501  0.00000000000E+00  0.00000000000E+00 -0.88685778074E+03  0.88685778074E+03  0.25500000920E-02 0. -1.
    10030    2    1    2    0    0  0.00000000000E+00  0.00000000000E+00 -0.25667899938E+03  0.15170365621E+04  0.14951641455E+04 0.  0.
        3    1    3    3  502    0 -0.63478708704E+03 -0.38930084039E+03 -0.19540604024E+03  0.76986578114E+03  0.10100000352E+00 0. -1.
       -3    1    3    3    0  502  0.63478708704E+03  0.38930084039E+03 -0.61272959142E+02  0.74717078096E+03  0.10100000352E+00 0.  1.
</event>
<event>
 5   0  0.2579241E-04  0.2049606E+04  0.7818609E-02  0.8583773E-01
       -2   -1    0    0    0  501  0.00000000000E+00  0.00000000000E+00  0.47155477328E+03  0.47155477329E+03  0.25500000920E-02 0.  1.
        2   -1    0    0  501    0  0.00000000000E+00  0.00000000000E+00 -0.22271460934E+04  0.22271460934E+04  0.25500000920E-02 0. -1.
    10030    2    1    2    0    0  0.00000000000E+00  0.00000000000E+00 -0.17555913201E+04  0.26987008667E+04  0.20496061779E+04 0.  0.
        5    1    3    3  502    0  0.57869433666E+02  0.13261571975E+03  0.45802331729E+03  0.48035741866E+03  0.46999998093E+01 0.  1.
       -5    1    3    3    0  502 -0.57869433666E+02 -0.13261571975E+03 -0.22136146374E+04  0.22183434480E+04  0.46999998093E+01 0. -1.
</event>
<event>
 5   0  0.1186038E-04  0.1887682E+04  0.7818609E-02  0.8661012E-01
       -1   -1    0    0    0  501  0.00000000000E+00  0.00000000000E+00  0.99525354557E+03  0.99525354558E+03  0.50400001928E-02 0. -1.
        1   -1    0    0  501    0  0.00000000000E+00  0.00000000000E+00 -0.89508411737E+03  0.89508411738E+03  0.50400001928E-02 0.  1.
    10030    2    1    2    0    0  0.00000000000E+00  0.00000000000E+00  0.10016942820E+03  0.18903376630E+04  0.18876817967E+04 0.  0.
        4    1    3    3  502    0 -0.45310229814E+02  0.20069584552E+03  0.97252249640E+03  0.99404902205E+03  0.12699999809E+01 0. -1.
       -4    1    3    3    0  502  0.45310229814E+02 -0.20069584552E+03 -0.87235306820E+03  0.89628864092E+03  0.12699999809E+01 0.  1.
</event>
<event>
 5   0  0.1186038E-04  0.2134175E+04  0.7818609E-02  0.8546337E-01
       -1   -1    0    0    0  501  0.00000000000E+00  0.00000000000E+00  0.63443126729E+03  0.63443126731E+03  0.50400001928E-02 0.  1.
        1   -1    0    0  501    0  0.00000000000E+00  0.00000000000E+00 -0.17947974904E+04  0.17947974904E+04  0.50400001928E-02 0. -1.
    10030    2    1    2    0    0  0.00000000000E+00  0.00000000000E+00 -0.11603662231E+04  0.24292287577E+04  0.21341749192E+04 0.  0.
        4    1    3    3  502    0 -0.58930603063E+03  0.11682833391E+03 -0.15840049007E+04  0.16941084958E+04  0.12699999809E+01 0. -1.
       -4    1    3    3    0  502  0.58930603063E+03 -0.11682833391E+03  0.42363867759E+03  0.73512026186E+03  0.12699999809E+01 0.  1.
</event>
<event>
 5   0  0.1122711E-04  0.2076107E+04  0.7818609E-02  0.8571842E-01
       -1   -1    0    0    0  501  0.00000000000E+00  0.00000000000E+00  0.17641168838E+04  0.17641168839E+04  0.50400001928E-02 0.  1.
        1   -1    0    0  501    0  0.00000000000E+00  0.00000000000E+00 -0.61081817599E+03  0.61081817601E+03  0.50400001928E-02 0. -1.
    10030    2    1    2    0    0  0.00000000000E+00  0.00000000000E+00  0.11532987079E+04  0.23749350599E+04  0.20761066035E+04 0.  0.
        1    1    3    3  502    0  0.73532810646E+02 -0.46433818232E+03  0.16353552070E+04  0.17015885739E+04  0.50400001928E-02 0.  1.
       -1    1    3    3    0  502 -0.73532810646E+02  0.46433818232E+03 -0.48205649912E+03  0.67334648597E+03  0.50400001928E-02 0. -1.
</event>
<event>
 5   0  0.1122711E-04  0.2130332E+04  0.7818609E-02  0.8547998E-01
       -1   -1    0    0    0  501  0.00000000000E+00  0.00000000000E+00  0.16548279581E+04  0.16548279582E+04  0.50400001928E-02 0.  1.
        1   -1    0    0  501    0  0.00000000000E+00  0.00000000000E+00 -0.68561740738E+03  0.68561740740E+03  0.50400001928E-02 0. -1.
    10030    2    1    2    0    0  0.00000000000E+00  0.00000000000E+00  0.96921055077E+03  0.23404453655E+04  0.21303322317E+04 0.  0.
        1    1    3    3  502    0  0.81280790453E+03 -0.67544550717E+03  0.33846060731E+03  0.11097021697E+04  0.50400001928E-02 0.  1.
       -1    1    3    3    0  502 -0.81280790453E+03  0.67544550717E+03  0.63074994346E+03  0.12307431958E+04  0.50400001928E-02 0. -1.
</event>
<event>
 5   0  0.1156733E-04  0.1985246E+04  0.7818609E-02  0.8613550E-01
        1   -1    0    0  501    0  0.00000000000E+00  0.00000000000E+00  0.10184264134E+04  0.10184264134E+04  0.50400001928E-02 0. -1.
       -1   -1    0    0    0  501  0.00000000000E+00  0.00000000000E+00 -0.96747363768E+03  0.96747363769E+03  0.50400001928E-02 0.  1.
    10030    2    1    2    0    0  0.00000000000E+00  0.00000000000E+00  0.50952775730E+02  0.19859000511E+04  0.19852462889E+04 0.  0.
        2    1    3    3  502    0  0.48306370131E+03 -0.86160385617E+03 -0.72479106858E+02  0.99043675488E+03  0.25500000920E-02 0. -1.
       -2    1    3    3    0  502 -0.48306370131E+03  0.86160385617E+03  0.12343188259E+03  0.99546329623E+03  0.25500000920E-02 0.  1.
</event>
<event>
 5   0  0.1130848E-04  0.2109296E+04  0.7818609E-02  0.8557159E-01
        1   -1    0    0  501    0  0.00000000000E+00  0.00000000000E+00  0.12980312190E+04  0.12980312190E+04  0.50400001928E-02 0.  1.
       -1   -1    0    0    0  501  0.00000000000E+00  0.00000000000E+00 -0.85689975377E+03  0.85689975378E+03  0.50400001928E-02 0. -1.
    10030    2    1    2    0    0  0.00000000000E+00  0.00000000000E+00  0.44113146521E+03  0.21549309728E+04  0.21092962162E+04 0.  0.
        5    1    3    3  502    0  0.69874144990E+03 -0.78990970621E+03  0.21241924722E+03  0.10757978362E+04  0.46999998093E+01 0.  1.
       -5    1    3    3    0  502 -0.69874144990E+03  0.78990970621E+03  0.22871221799E+03  0.10791331366E+04  0.46999998093E+01 0. -1.
</event>
<event>
 5   0  0.1156733E-04  0.2253913E+04  0.7818609E-02  0.8496318E-01
       -1   -1    0    0    0  501  0.00000000000E+00  0.00000000000E+00  0.18270222158E+04  0.18270222158E+04  0.50400001928E-02 0.  1.
        1   -1    0    0  501    0  0.00000000000E+00  0.00000000000E+00 -0.69513691958E+03  0.69513691960E+03  0.50400001928E-02 0. -1.
    10030    2    1    2    0    0  0.00000000000E+00  0.00000000000E+00  0.11318852962E+04  0.25221591354E+04  0.22539126825E+04 0.  0.
        2    1    3    3  502    0 -0.12415949284E+03 -0.97205851200E+03  0.11886989129E+04  0.15405578327E+04  0.25500000920E-02 0.  1.
       -2    1    3    3    0  502  0.12415949284E+03  0.97205851200E+03 -0.56813616653E+02  0.98160130270E+03  0.25500000920E-02 0. -1.
</event>
<event>
 5   0  0.2430898E-04  0.1942728E+04  0.7818609E-02  0.8633876E-01
       -2   -1    0    0    0  501  0.00000000000E+00  0.00000000000E+00  0.51475478716E+03  0.51475478716E+03  0.25500000920E-02 0. -1.
        2   -1    0    0  501    0  0.00000000000E+00  0.00000000000E+00 -0.18330044142E+04  0.18330044142E+04  0.25500000920E-02 0.  1.
    10030    2    1    2    0    0  0.00000000000E+00  0.00000000000E+00 -0.13182496271E+04  0.23477592014E+04  0.19427277700E+04 0.  0.
        1    1    3    3  502    0 -0.77694848693E+03 -0.54751175208E+03 -0.41703600876E+03  0.10379485067E+04  0.50400001928E-02 0.  1.
       -1    1    3    3    0  502  0.77694848693E+03  0.54751175208E+03 -0.90121361833E+03  0.13098106947E+04  0.50400001928E-02 0. -1.
</event>
<event>
 5   0  0.2430898E-04  0.1929312E+04  0.7818609E-02  0.8640402E-01
        2   -1    0    0  501    0  0.00000000000E+00  0.00000000000E+00  0.21356343768E+04  0.21356343768E+04  0.25500000920E-02 0. -1.
       -2   -1    0    0    0  501  0.00000000000E+00  0.00000000000E+00 -0.43573042317E+03  0.43573042317E+03  0.25500000920E-02 0.  1.
    10030    2    1    2    0    0  0.00000000000E+00  0.00000000000E+00  0.16999039536E+04  0.25713647999E+04  0.19293116604E+04 0.  0.
        1    1    3    3  502    0 -0.62878876338E+03 -0.71450694207E+03  0.10592693672E+04  0.14240600660E+04  0.50400001928E-02 0.  1.
       -1    1    3    3    0  502  0.62878876338E+03  0.71450694207E+03  0.64063458637E+03  0.11473047339E+04  0.50400001928E-02 0. -1.
</event>
<event>
 5   0  0.2448804E-04  0.2123190E+04  0.7818609E-02  0.8551096E-01
       -2   -1    0    0    0  501  0.00000000000E+00  0.00000000000E+00  0.80756050319E+03  0.80756050320E+03  0.25500000920E-02 0.  1.
        2   -1    0    0  501    0  0.00000000000E+00  0.00000000000E+00 -0.13955413458E+04  0.13955413458E+04  0.25500000920E-02 0. -1.
    10030    2    1    2    0    0  0.00000000000E+00  0.00000000000E+00 -0.58798084265E+03  0.22031018490E+04  0.21231901201E+04 0.  0.
        2    1    3    3  502    0 -0.45979089284E+03 -0.90721029134E+03 -0.60965384828E+03  0.11857976187E+04  0.25500000920E-02 0. -1.
       -2    1    3    3    0  502  0.45979089284E+03  0.90721029134E+03  0.21673005628E+02  0.10173042303E+04  0.25500000920E-02 0.  1.
</event>
<event>
 5   0  0.1186038E-04  0.2204498E+04  0.7818609E-02  0.8516558E-01
        1   -1    0    0  501    0  0.00000000000E+00  0.00000000000E+00  0.10049314161E+04  0.10049314161E+04  0.50400001928E-02 0. -1.
       -1   -1    0    0    0  501  0.00000000000E+00  0.00000000000E+00 -0.12089903752E+04  0.12089903752E+04  0.50400001928E-02 0.  1.
    10030    2    1    2    0    0  0.00000000000E+00  0.00000000000E+00 -0.20405895913E+03  0.22139217913E+04  0.22044975934E+04 0.  0.
        4    1    3    3  502    0 -0.10908598112E+04  0.14826907371E+03 -0.15696204533E+03  0.11120240746E+04  0.12699999809E+01 0. -1.
       -4    1    3    3    0  502  0.10908598112E+04 -0.14826907371E+03 -0.47096913803E+02  0.11018977167E+04  0.12699999809E+01 0.  1.
</event>
<event>
 5   0  0.1186038E-04  0.2103168E+04  0.7818609E-02  0.8559849E-01
        1   -1    0    0  501    0  0.00000000000E+00  0.00000000000E+00  0.11026186403E+04  0.11026186404E+04  0.50400001928E-02 0.  1.
       -1   -1    0    0    0  501  0.00000000000E+00  0.00000000000E+00 -0.10029110850E+04  0.10029110850E+04  0.50400001928E-02 0. -1.
    10030    2    1    2    0    0  0.00000000000E+00  0.00000000000E+00  0.99707555339E+02  0.21055297254E+04  0.21031675701E+04 0.  0.
        4    1    3    3  502    0  0.10018519683E+04  0.12309243885E+03 -0.24538035480E+03  0.10387840230E+04  0.12699999809E+01 0. -1.
       -4    1    3    3    0  502 -0.10018519683E+04 -0.12309243885E+03  0.34508791014E+03  0.10667457024E+04  0.12699999809E+01 0.  1.
</event>
<event>
 5   0  0.1122711E-04  0.2086051E+04  0.7818609E-02  0.8567413E-01
       -1   -1    0    0    0  501  0.00000000000E+00  0.00000000000E+00  0.15780531168E+04  0.15780531168E+04  0.50400001928E-02 0. -1.
        1   -1    0    0  501    0  0.00000000000E+00  0.00000000000E+00 -0.68939512823E+03  0.68939512825E+03  0.50400001928E-02 0.  1.
    10030    2    1    2    0    0  0.00000000000E+00  0.00000000000E+00  0.88865798855E+03  0.22674482450E+04  0.20860509398E+04 0.  0.
        1    1    3    3  502    0 -0.93745792711E+03  0.38745582041E+03  0.18041372444E+03  0.10302904881E+04  0.50400001928E-02 0.  1.
       -1    1    3    3    0  502  0.93745792711E+03 -0.38745582041E+03  0.70824426411E+03  0.12371577569E+04  0.50400001928E-02 0. -1.
</event>
<event>
 5   0  0.1156733E-04  0.2067670E+04  0.7818609E-02  0.8575620E-01
        1   -1    0    0  501    0  0.00000000000E+00  0.00000000000E+00  0.10987051623E+04  0.10987051623E+04  0.50400001928E-02 0. -1.
       -1   -1    0    0    0  501  0.00000000000E+00  0.00000000000E+00 -0.97279495173E+03  0.97279495175E+03  0.50400001928E-02 0.  1.
    10030    2    1    2    0    0  0.00000000000E+00  0.00000000000E+00  0.12591021058E+03  0.20715001141E+04  0.20676700272E+04 0.  0.
        2    1    3    3  502    0  0.67047472659E+03 -0.68212666230E+02  0.84838787985E+03  0.10834903421E+04  0.25500000920E-02 0. -1.
       -2    1    3    3    0  502 -0.67047472659E+03  0.68212666230E+02 -0.72247766927E+03  0.98800977193E+03  0.25500000920E-02 0.  1.
</event>
<event>
 5   0  0.1156733E-04  0.2075910E+04  0.7818609E-02  0.8571930E-01
       -1   -1    0    0    0  501  0.00000000000E+00  0.00000000000E+00  0.53811041610E+03  0.53811041612E+03  0.50400001928E-02 0. -1.
        1   -1    0    0  501    0  0.00000000000E+00  0.00000000000E+00 -0.20020995703E+04  0.20020995703E+04  0.50400001928E-02 0.  1.
    10030    2    1    2    0    0  0.00000000000E+00  0.00000000000E+00 -0.14639891542E+04  0.25402099864E+04  0.20759100490E+04 0.  0.
        2    1    3    3  502    0 -0.40329344256E+02 -0.50431364984E+02  0.53565012563E+03  0.53952834557E+03  0.25500000920E-02 0. -1.
       -2    1    3    3    0  502  0.40329344256E+02  0.50431364984E+02 -0.19996392798E+04  0.20006816408E+04  0.25500000920E-02 0.  1.
</event>
<event>
 5   0  0.2512839E-04  0.2097724E+04  0.7818609E-02  0.8562247E-01
       -2   -1    0    0    0  501  0.00000000000E+00  0.00000000000E+00  0.62227282081E+03  0.62227282082E+03  0.25500000920E-02 0. -1.
        2   -1    0    0  501    0  0.00000000000E+00  0.00000000000E+00 -0.17678921958E+04  0.17678921958E+04  0.25500000920E-02 0.  1.
    10030    2    1    2    0    0  0.00000000000E+00  0.00000000000E+00 -0.11456193749E+04  0.23901650166E+04  0.20977237793E+04 0.  0.
        3    1    3    3  502    0  0.91046297909E+03  0.44571941746E+03 -0.87961044571E+03  0.13421338166E+04  0.10100000352E+00 0.  1.
       -3    1    3    3    0  502 -0.91046297909E+03 -0.44571941746E+03 -0.26600892923E+03  0.10480311999E+04  0.10100000352E+00 0. -1.
</event>
<event>
 5   0  0.2430898E-04  0.2186948E+04  0.7818609E-02  0.8523880E-01
        2   -1    0    0  501    0  0.00000000000E+00  0.00000000000E+00  0.15674589407E+04  0.15674589407E+04  0.25500000920E-02 0. -1.
       -2   -1    0    0    0  501  0.00000000000E+00  0.00000000000E+00 -0.76281791164E+03  0.76281791164E+03  0.25500000920E-02 0.  1.
    10030    2    1    2    0    0  0.00000000000E+00  0.00000000000E+00  0.80464102905E+03  0.23302768523E+04  0.21869483357E+04 0.  0.
        1    1    3    3  502    0  0.34714525152E+03 -0.67776771223E+02  0.15048215725E+04  0.15458303533E+04  0.50400001928E-02 0. -1.
       -1    1    3    3    0  502 -0.34714525152E+03  0.67776771223E+02 -0.70018054341E+03  0.78444649898E+03  0.50400001928E-02 0.  1.
</event>
<event>
 5   0  0.2512839E-04  0.2065245E+04  0.7818609E-02  0.8576710E-01
       -2   -1    0    0    0  501  0.00000000000E+00  0.00000000000E+00  0.72775885277E+03  0.72775885278E+03  0.25500000920E-02 0.  1.
        2   -1    0    0  501    0  0.00000000000E+00  0.00000000000E+00 -0.14651958845E+04  0.14651958845E+04  0.25500000920E-02 0. -1.
    10030    2    1    2    0    0  0.00000000000E+00  0.00000000000E+00 -0.73743703173E+03  0.21929547373E+04  0.20652450470E+04 0.  0.
        3    1    3    3  502    0 -0.23881898193E+02  0.39127630713E+03  0.64567917061E+03  0.75536024197E+03  0.10100000352E+00 0.  1.
       -3    1    3    3    0  502  0.23881898193E+02 -0.39127630713E+03 -0.13831162023E+04  0.14375944953E+04  0.10100000352E+00 0. -1.
</event>
<event>
 5   0  0.1122711E-04  0.2159741E+04  0.7818609E-02  0.8535374E-01
        1   -1    0    0  501    0  0.00000000000E+00  0.00000000000E+00  0.14862874409E+04  0.14862874409E+04  0.50400001928E-02 0. -1.
       -1   -1    0    0    0  501  0.00000000000E+00  0.00000000000E+00 -0.78458598779E+03  0.78458598780E+03  0.50400001928E-02 0.  1.
    10030    2    1    2    0    0  0.00000000000E+00  0.00000000000E+00  0.70170145308E+03  0.22708734287E+04  0.21597410030E+04 0.  0.
        1    1    3    3  502    0 -0.65464151141E+03 -0.81462491574E+03  0.63678314176E+03  0.12237900275E+04  0.50400001928E-02 0. -1.
       -1    1    3    3    0  502  0.65464151141E+03  0.81462491574E+03  0.64918311320E+02  0.10470834012E+04  0.50400001928E-02 0.  1.
</event>
<event>
 5   0  0.2448804E-04  0.2089577E+04  0.7818609E-02  0.8565849E-01
       -2   -1    0    0    0  501  0.00000000000E+00  0.00000000000E+00  0.55536999618E+03  0.55536999619E+03  0.25500000920E-02 0. -1.
        2   -1    0    0  501    0  0.00000000000E+00  0.00000000000E+00 -0.19655057697E+04  0.19655057697E+04  0.25500000920E-02 0.  1.
    10030    2    1    2    0    0  0.00000000000E+00  0.00000000000E+00 -0.14101357735E+04  0.25208757659E+04  0.20895769254E+04 0.  0.
        2    1    3    3  502    0  0.26627677008E+03 -0.32581128283E+03 -0.18587635377E+04  0.19057959490E+04  0.25500000920E-02 0.  1.
       -2    1    3    3    0  502 -0.26627677008E+03  0.32581128283E+03  0.44862776417E+03  0.61507981685E+03  0.25500000920E-02 0. -1.
</event>
<event>
 5   0  0.2448804E-04  0.1237298E+04  0.7818609E-02  0.9080822E-01
       -2   -1    0    0    0  501  0.00000000000E+00  0.00000000000E+00  0.30379809841E+03  0.30379809842E+03  0.25500000920E-02 0.  1.
        2   -1    0    0  501    0  0.00000000000E+00  0.00000000000E+00 -0.12598062997E+04  0.12598062997E+04  0.25500000920E-02 0. -1.
    10030    2    1    2    0    0  0.00000000000E+00  0.00000000000E+00 -0.95600820128E+03  0.15636043981E+04  0.12372982797E+04 0.  0.
        2    1    3    3  502    0 -0.49003359012E+03  0.23967760101E+03 -0.84676166712E+03  0.10072654033E+04  0.25500000920E-02 0. -1.
       -2    1    3    3    0  502  0.49003359012E+03 -0.23967760101E+03 -0.10924653416E+03  0.55633899477E+03  0.25500000920E-02 0.  1.
</event>
<event>
 5   0  0.1122711E-04  0.1539146E+04  0.7818609E-02  0.8858830E-01
       -1   -1    0    0    0  501  0.00000000000E+00  0.00000000000E+00  0.77547064459E+03  0.77547064460E+03  0.50400001928E-02 0. -1.
        1   -1    0    0  501    0  0.00000000000E+00  0.00000000000E+00 -0.76372066893E+03  0.76372066895E+03  0.50400001928E-02 0.  1.
    10030    2    1    2    0    0  0.00000000000E+00  0.00000000000E+00  0.11749975654E+02  0.15391913136E+04  0.15391464640E+04 0.  0.
        1    1    3    3  502    0  0.49196949942E+03  0.57813533365E+03 -0.12049525267E+03  0.76863096367E+03  0.50400001928E-02 0.  1.
       -1    1    3    3    0  502 -0.49196949942E+03 -0.57813533365E+03  0.13224522833E+03  0.77056034988E+03  0.50400001928E-02 0. -1.
</event>
<event>
 5   0  0.1186038E-04  0.2148378E+04  0.7818609E-02  0.8540227E-01
       -1   -1    0    0    0  501  0.00000000000E+00  0.00000000000E+00  0.36061964337E+03  0.36061964341E+03  0.50400001928E-02 0.  1.
        1   -1    0    0  501    0  0.00000000000E+00  0.00000000000E+00 -0.31997207047E+04  0.31997207047E+04  0.50400001928E-02 0. -1.
    10030    2    1    2    0    0  0.00000000000E+00  0.00000000000E+00 -0.28391010613E+04  0.35603403481E+04  0.21483781227E+04 0.  0.
        4    1    3    3  502    0  0.42121293891E+03 -0.18893381103E+03  0.18783918886E+03  0.49839893522E+03  0.12699999809E+01 0.  1.
       -4    1    3    3    0  502 -0.42121293891E+03  0.18893381103E+03 -0.30269402502E+04  0.30619414129E+04  0.12699999809E+01 0. -1.
</event>
<event>
 5   0  0.1130848E-04  0.1462715E+04  0.7818609E-02  0.8909633E-01
        1   -1    0    0  501    0  0.00000000000E+00  0.00000000000E+00  0.10685504616E+04  0.10685504616E+04  0.50400001928E-02 0. -1.
       -1   -1    0    0    0  501  0.00000000000E+00  0.00000000000E+00 -0.50056962069E+03  0.50056962072E+03  0.50400001928E-02 0.  1.
    10030    2    1    2    0    0  0.00000000000E+00  0.00000000000E+00  0.56798084089E+03  0.15691200823E+04  0.14627151456E+04 0.  0.
        5    1    3    3  502    0  0.15990156912E+03  0.50540694164E+03  0.82448469456E+03  0.98020497348E+03  0.46999998093E+01 0. -1.
       -5    1    3    3    0  502 -0.15990156912E+03 -0.50540694164E+03 -0.25650385368E+03  0.58891510883E+03  0.46999998093E+01 0.  1.
</event>
<event>
 5   0  0.2467483E-04  0.2084347E+04  0.7818609E-02  0.8568170E-01
        2   -1    0    0  501    0  0.00000000000E+00  0.00000000000E+00  0.13705299169E+04  0.13705299169E+04  0.25500000920E-02 0. -1.
       -2   -1    0    0    0  501  0.00000000000E+00  0.00000000000E+00 -0.79248575139E+03  0.79248575139E+03  0.25500000920E-02 0.  1.
    10030    2    1    2    0    0  0.00000000000E+00  0.00000000000E+00  0.57804416555E+03  0.21630156683E+04  0.20843468339E+04 0.  0.
        4    1    3    3  502    0 -0.92144877145E+03  0.46986320019E+03  0.42144940492E+03  0.11168977031E+04  0.12699999809E+01 0.  1.
       -4    1    3    3    0  502  0.92144877145E+03 -0.46986320019E+03  0.15659476063E+03  0.10461179653E+04  0.12699999809E+01 0. -1.
</event>
<event>
 5   0  0.1130848E-04  0.2048279E+04  0.7818609E-02  0.8584375E-01
       -1   -1    0    0    0  501  0.00000000000E+00  0.00000000000E+00  0.66903439210E+03  0.66903439212E+03  0.50400001928E-02 0.  1.
        1   -1    0    0  501    0  0.00000000000E+00  0.00000000000E+00 -0.15677252203E+04  0.15677252203E+04  0.50400001928E-02 0. -1.
    10030    2    1    2    0    0  0.00000000000E+00  0.00000000000E+00 -0.89869082819E+03  0.22367596124E+04  0.20482793655E+04 0.  0.
        5    1    3    3  502    0  0.89348826620E+03 -0.80747518948E+02 -0.98876132273E+03  0.13351076687E+04  0.46999998093E+01 0. -1.
       -5    1    3    3    0  502 -0.89348826620E+03  0.80747518948E+02  0.90070494535E+02  0.90165194374E+03  0.46999998093E+01 0.  1.
</event>
<event>
 5   0  0.2430898E-04  0.2109883E+04  0.7818609E-02  0.8556902E-01
       -2   -1    0    0    0  501  0.00000000000E+00  0.00000000000E+00  0.89593855909E+03  0.89593855910E+03  0.25500000920E-02 0.  1.
        2   -1    0    0  501    0  0.00000000000E+00  0.00000000000E+00 -0.12421625113E+04  0.12421625113E+04  0.25500000920E-02 0. -1.
    10030    2    1    2    0    0  0.00000000000E+00  0.00000000000E+00 -0.34622395218E+03  0.21381010704E+04  0.21098827366E+04 0.  0.
        1    1    3    3  502    0 -0.54925323620E+03 -0.80523470556E+03  0.23579335859E+03  0.10028362561E+04  0.50400001928E-02 0. -1.
       -1    1    3    3    0  502  0.54925323620E+03  0.80523470556E+03 -0.58201731077E+03  0.11352648143E+04  0.50400001928E-02 0.  1.
</event>
<event>
 5   0  0.1130848E-04  0.1422541E+04  0.7818609E-02  0.8937662E-01
       -1   -1    0    0    0  501  0.00000000000E+00  0.00000000000E+00  0.43236031951E+03  0.43236031954E+03  0.50400001928E-02 0.  1.
        1   -1    0    0  501    0  0.00000000000E+00  0.00000000000E+00 -0.11701027411E+04  0.11701027411E+04  0.50400001928E-02 0. -1.
    10030    2    1    2    0    0  0.00000000000E+00  0.00000000000E+00 -0.73774242156E+03  0.16024630606E+04  0.14225413808E+04 0.  0.
        5    1    3    3  502    0 -0.24943497048E+03 -0.54616781944E+03 -0.79836387842E+03  0.99896149267E+03  0.46999998093E+01 0. -1.
       -5    1    3    3    0  502  0.24943497048E+03  0.54616781944E+03  0.60621456854E+02  0.60350156795E+03  0.46999998093E+01 0.  1.
</event>
<event>
 5   0  0.1042395E-04  0.2161789E+04  0.7818609E-02  0.8534503E-01
        1   -1    0    0  501    0  0.00000000000E+00  0.00000000000E+00  0.12044624711E+04  0.12044624712E+04  0.50400001928E-02 0.  1.
       -1   -1    0    0    0  501  0.00000000000E+00  0.00000000000E+00 -0.97000323883E+03  0.97000323884E+03  0.50400001928E-02 0. -1.
    10030    2    1    2    0    0  0.00000000000E+00  0.00000000000E+00  0.23445923231E+03  0.21744657100E+04  0.21617886095E+04 0.  0.
        3    1    3    3  502    0  0.66647904980E+03  0.83734692286E+03  0.26973764874E+03  0.11036768560E+04  0.10100000352E+00 0.  1.
       -3    1    3    3    0  502 -0.66647904980E+03 -0.83734692286E+03 -0.35278416424E+02  0.10707888540E+04  0.10100000352E+00 0. -1.
</event>
<event>
 5   0  0.1042395E-04  0.2057967E+04  0.7818609E-02  0.8579989E-01
       -1   -1    0    0    0  501  0.00000000000E+00  0.00000000000E+00  0.68583028542E+03  0.68583028544E+03  0.50400001928E-02 0.  1.
        1   -1    0    0  501    0  0.00000000000E+00  0.00000000000E+00 -0.15438325787E+04  0.15438325787E+04  0.50400001928E-02 0. -1.
    10030    2    1    2    0    0  0.00000000000E+00  0.00000000000E+00 -0.85800229329E+03  0.22296628642E+04  0.20579670922E+04 0.  0.
        3    1    3    3  502    0  0.66694414131E+03  0.32074892561E+03 -0.12035684126E+04  0.14128946510E+04  0.10100000352E+00 0. -1.
       -3    1    3    3    0  502 -0.66694414131E+03 -0.32074892561E+03  0.34556611933E+03  0.81676821311E+03  0.10100000352E+00 0.  1.
</event>
<event>
 5   0  0.1130848E-04  0.2090833E+04  0.7818609E-02  0.8565292E-01
        1   -1    0    0  501    0  0.00000000000E+00  0.00000000000E+00  0.17187643741E+04  0.17187643741E+04  0.50400001928E-02 0. -1.
       -1   -1    0    0    0  501  0.00000000000E+00  0.00000000000E+00 -0.63586100270E+03  0.63586100272E+03  0.50400001928E-02 0.  1.
    10030    2    1    2    0    0  0.00000000000E+00  0.00000000000E+00  0.10829033714E+04  0.23546253769E+04  0.20908325981E+04 0.  0.
        5    1    3    3  502    0  0.53875359995E+03 -0.31659388838E+03 -0.40237116165E+03  0.74324408733E+03  0.46999998093E+01 0.  1.
       -5    1    3    3    0  502 -0.53875359995E+03  0.31659388838E+03  0.14852745331E+04  0.16113812895E+04  0.46999998093E+01 0. -1.
</event>
<event>
 5   0  0.2467483E-04  0.2004064E+04  0.7818609E-02  0.8604723E-01
       -2   -1    0    0    0  501  0.00000000000E+00  0.00000000000E+00  0.14944051556E+04  0.14944051556E+04  0.25500000920E-02 0.  1.
        2   -1    0    0  501    0  0.00000000000E+00  0.00000000000E+00 -0.67188482230E+03  0.67188482230E+03  0.25500000920E-02 0. -1.
    10030    2    1    2    0    0  0.00000000000E+00  0.00000000000E+00  0.82252033328E+03  0.21662899779E+04  0.20040640133E+04 0.  0.
        4    1    3    3  502    0  0.28979765649E+03 -0.90058462946E+03  0.76818794032E+03  0.12186671740E+04  0.12699999809E+01 0. -1.
       -4    1    3    3    0  502 -0.28979765649E+03  0.90058462946E+03  0.54332392964E+02  0.94762280384E+03  0.12699999809E+01 0.  1.
</event>
<event>
 5   0  0.2512839E-04  0.2076816E+04  0.7818609E-02  0.8571525E-01
        2   -1    0    0  501    0  0.00000000000E+00  0.00000000000E+00  0.16707108768E+04  0.16707108768E+04  0.25500000920E-02 0. -1.
       -2   -1    0    0    0  501  0.00000000000E+00  0.00000000000E+00 -0.64540875870E+03  0.64540875871E+03  0.25500000920E-02 0.  1.
    10030    2    1    2    0    0  0.00000000000E+00  0.00000000000E+00  0.10253021181E+04  0.23161196355E+04  0.20768162491E+04 0.  0.
        3    1    3    3  502    0  0.12339390231E+03 -0.90768846263E+03  0.10580490877E+04  0.13994971535E+04  0.10100000352E+00 0. -1.
       -3    1    3    3    0  502 -0.12339390231E+03  0.90768846263E+03 -0.32746969649E+02  0.91662248202E+03  0.10100000352E+00 0.  1.
</event>
<event>
 5   0  0.2448804E-04  0.2108991E+04  0.7818609E-02  0.8557293E-01
       -2   -1    0    0    0  501  0.00000000000E+00  0.00000000000E+00  0.50094572351E+03  0.50094572352E+03  0.25500000920E-02 0.  1.
        2   -1    0    0  501    0  0.00000000000E+00  0.00000000000E+00 -0.22197231236E+04  0.22197231236E+04  0.25500000920E-02 0. -1.
    10030    2    1    2    0    0  0.00000000000E+00  0.00000000000E+00 -0.17187774001E+04  0.27206688471E+04  0.21089910442E+04 0.  0.
        2    1    3    3  502    0  0.44924172420E+03 -0.50487352489E+03 -0.19036349870E+04  0.20200350409E+04  0.25500000920E-02 0. -1.
       -2    1    3    3    0  502 -0.44924172420E+03  0.50487352489E+03  0.18485758692E+03  0.70063380617E+03  0.25500000920E-02 0.  1.
</event>
<event>
 5   0  0.2430898E-04  0.2055133E+04  0.7818609E-02  0.8581269E-01
       -2   -1    0    0    0  501  0.00000000000E+00  0.00000000000E+00  0.63533581508E+03  0.63533581508E+03  0.25500000920E-02 0.  1.
        2   -1    0    0  501    0  0.00000000000E+00  0.00000000000E+00 -0.16619447559E+04  0.16619447559E+04  0.25500000920E-02 0. -1.
    10030    2    1    2    0    0  0.00000000000E+00  0.00000000000E+00 -0.10266089409E+04  0.22972805710E+04  0.20551331111E+04 0.  0.
        1    1    3    3  502    0  0.49654699376E+03 -0.32295984823E+03 -0.14518994001E+04  0.15680796691E+04  0.50400001928E-02 0. -1.
       -1    1    3    3    0  502 -0.49654699376E+03  0.32295984823E+03  0.42529045926E+03  0.72920090191E+03  0.50400001928E-02 0.  1.
</event>
<event>
 5   0  0.2579241E-04  0.2080616E+04  0.7818609E-02  0.8569831E-01
        2   -1    0    0  501    0  0.00000000000E+00  0.00000000000E+00  0.88704306821E+03  0.88704306821E+03  0.25500000920E-02 0. -1.
       -2   -1    0    0    0  501  0.00000000000E+00  0.00000000000E+00 -0.12200538385E+04  0.12200538385E+04  0.25500000920E-02 0.  1.
    10030    2    1    2    0    0  0.00000000000E+00  0.00000000000E+00 -0.33301077033E+03  0.21070969068E+04  0.20806155823E+04 0.  0.
        5    1    3    3  502    0  0.53407879902E+03 -0.16027447892E+01 -0.10706026227E+04  0.11964342013E+04  0.46999998093E+01 0.  1.
       -5    1    3    3    0  502 -0.53407879902E+03  0.16027447892E+01  0.73759185238E+03  0.91066270542E+03  0.46999998093E+01 0. -1.
</event>
<event>
 5   0  0.2512839E-04  0.2093635E+04  0.7818609E-02  0.8564052E-01
        2   -1    0    0  501    0  0.00000000000E+00  0.00000000000E+00  0.70240352526E+03  0.70240352527E+03  0.25500000920E-02 0.  1.
       -2   -1    0    0    0  501  0.00000000000E+00  0.00000000000E+00 -0.15601102417E+04  0.15601102417E+04  0.25500000920E-02 0. -1.
    10030    2    1    2    0    0  0.00000000000E+00  0.00000000000E+00 -0.85770671648E+03  0.22625137670E+04  0.20936350528E+04 0.  0.
        3    1    3    3  502    0  0.94219903201E+03  0.44094538385E+03 -0.30257256256E+03  0.10833845177E+04  0.10100000352E+00 0. -1.
       -3    1    3    3    0  502 -0.94219903201E+03 -0.44094538385E+03 -0.55513415393E+03  0.11791292493E+04  0.10100000352E+00 0.  1.
</event>
<event>
 5   0  0.1042395E-04  0.2131204E+04  0.7818609E-02  0.8547621E-01
        1   -1    0    0  501    0  0.00000000000E+00  0.00000000000E+00  0.10836773854E+04  0.10836773854E+04  0.50400001928E-02 0.  1.
       -1   -1    0    0    0  501  0.00000000000E+00  0.00000000000E+00 -0.10478285826E+04  0.10478285826E+04  0.50400001928E-02 0. -1.
    10030    2    1    2    0    0  0.00000000000E+00  0.00000000000E+00  0.35848802743E+02  0.21315059680E+04  0.21312044846E+04 0.  0.
        3    1    3    3  502    0 -0.92803154700E+03 -0.21087562275E+03  0.49736372761E+03  0.10738164500E+04  0.10100000352E+00 0. -1.
       -3    1    3    3    0  502  0.92803154700E+03  0.21087562275E+03 -0.46151492486E+03  0.10576895180E+04  0.10100000352E+00 0.  1.
</event>
<event>
 5   0  0.1042395E-04  0.2106661E+04  0.7818609E-02  0.8558315E-01
        1   -1    0    0  501    0  0.00000000000E+00  0.00000000000E+00  0.72784067516E+03  0.72784067518E+03  0.50400001928E-02 0.  1.
       -1   -1    0    0    0  501  0.00000000000E+00  0.00000000000E+00 -0.15243787631E+04  0.15243787631E+04  0.50400001928E-02 0. -1.
    10030    2    1    2    0    0  0.00000000000E+00  0.00000000000E+00 -0.79653808790E+03  0.22522194382E+04  0.21066607398E+04 0.  0.
        3    1    3    3  502    0  0.36890219854E+02  0.94619578331E+03 -0.89151165568E+03  0.13005538786E+04  0.10100000352E+00 0. -1.
       -3    1    3    3    0  502 -0.36890219854E+02 -0.94619578331E+03  0.94973567788E+02  0.95166555966E+03  0.10100000352E+00 0.  1.
</event>
<event>
 5   0  0.1130848E-04  0.2119384E+04  0.7818609E-02  0.8552752E-01
        1   -1    0    0  501    0  0.00000000000E+00  0.00000000000E+00  0.11498048386E+04  0.11498048386E+04  0.50400001928E-02 0.  1.
       -1   -1    0    0    0  501  0.00000000000E+00  0.00000000000E+00 -0.97664154381E+03  0.97664154383E+03  0.50400001928E-02 0. -1.
    10030    2    1    2    0    0  0.00000000000E+00  0.00000000000E+00  0.17316329474E+03  0.21264463824E+04  0.21193840356E+04 0.  0.
        5    1    3    3  502    0  0.75832298841E+03 -0.68419155127E+03 -0.19676558195E+03  0.10401493248E+04  0.46999998093E+01 0. -1.
       -5    1    3    3    0  502 -0.75832298841E+03  0.68419155127E+03  0.36992887669E+03  0.10862970576E+04  0.46999998093E+01 0.  1.
</event>
<event>
 5   0  0.1042395E-04  0.2096312E+04  0.7818609E-02  0.8562870E-01
        1   -1    0    0  501    0  0.00000000000E+00  0.00000000000E+00  0.12151304292E+04  0.12151304292E+04  0.50400001928E-02 0.  1.
       -1   -1    0    0    0  501  0.00000000000E+00  0.00000000000E+00 -0.90412635175E+03  0.90412635176E+03  0.50400001928E-02 0. -1.
    10030    2    1    2    0    0  0.00000000000E+00  0.00000000000E+00  0.31100407746E+03  0.21192567810E+04  0.20963124213E+04 0.  0.
        3    1    3    3  502    0 -0.95005631003E+03 -0.53603028179E+02 -0.28879787440E+03  0.99442671892E+03  0.10100000352E+00 0. -1.
       -3    1    3    3    0  502  0.95005631003E+03  0.53603028179E+02  0.59980195185E+03  0.11248300621E+04  0.10100000352E+00 0.  1.
</event>
<event>
 5   0  0.2448804E-04  0.1987954E+04  0.7818609E-02  0.8612273E-01
       -2   -1    0    0    0  501  0.00000000000E+00  0.00000000000E+00  0.11603108265E+04  0.11603108265E+04  0.25500000920E-02 0.  1.
        2   -1    0    0  501    0  0.00000000000E+00  0.00000000000E+00 -0.85148761694E+03  0.85148761694E+03  0.25500000920E-02 0. -1.
    10030    2    1    2    0    0  0.00000000000E+00  0.00000000000E+00  0.30882320954E+03  0.20117984434E+04  0.19879540242E+04 0.  0.
        2    1    3    3  502    0 -0.73511712136E+03 -0.55078947369E+03 -0.22991195769E+03  0.94690323409E+03  0.25500000920E-02 0. -1.
       -2    1    3    3    0  502  0.73511712136E+03  0.55078947369E+03  0.53873516722E+03  0.10648952093E+04  0.25500000920E-02 0.  1.
</event>
<event>
 5   0  0.2512839E-04  0.2099814E+04  0.7818609E-02  0.8561325E-01
       -2   -1    0    0    0  501  0.00000000000E+00  0.00000000000E+00  0.74600011875E+03  0.74600011875E+03  0.25500000920E-02 0.  1.
        2   -1    0    0  501    0  0.00000000000E+00  0.00000000000E+00 -0.14776204399E+04  0.14776204399E+04  0.25500000920E-02 0. -1.
    10030    2    1    2    0    0  0.00000000000E+00  0.00000000000E+00 -0.73162032119E+03  0.22236205587E+04  0.20998143000E+04 0.  0.
        3    1    3    3  502    0 -0.51724546024E+02  0.68296710116E+02 -0.14739126715E+04  0.14764005022E+04  0.10100000352E+00 0. -1.
       -3    1    3    3    0  502  0.51724546024E+02 -0.68296710116E+02  0.74229235035E+03  0.74722005652E+03  0.10100000352E+00 0.  1.
</event>
<event>
 5   0  0.1042395E-04  0.2096019E+04  0.7818609E-02  0.8562999E-01
       -1   -1    0    0    0  501  0.00000000000E+00  0.00000000000E+00  0.62501396063E+03  0.62501396066E+03  0.50400001928E-02 0. -1.
        1   -1    0    0  501    0  0.00000000000E+00  0.00000000000E+00 -0.17572791260E+04  0.17572791260E+04  0.50400001928E-02 0.  1.
    10030    2    1    2    0    0  0.00000000000E+00  0.00000000000E+00 -0.11322651653E+04  0.23822930866E+04  0.20960190710E+04 0.  0.
        3    1    3    3  502    0  0.97193025523E+02 -0.47511120001E+03 -0.16220800259E+04  0.16930211922E+04  0.10100000352E+00 0.  1.
       -3    1    3    3    0  502 -0.97193025523E+02  0.47511120001E+03  0.48981486059E+03  0.68927189442E+03  0.10100000352E+00 0. -1.
</event>
<event>
 5   0  0.1156733E-04  0.2122548E+04  0.7818609E-02  0.8551375E-01
       -1   -1    0    0    0  501  0.00000000000E+00  0.00000000000E+00  0.90305208388E+03  0.90305208389E+03  0.50400001928E-02 0.  1.
        1   -1    0    0  501    0  0.00000000000E+00  0.00000000000E+00 -0.12472179469E+04  0.12472179469E+04  0.50400001928E-02 0. -1.
    10030    2    1    2    0    0  0.00000000000E+00  0.00000000000E+00 -0.34416586305E+03  0.21502700308E+04  0.21225482478E+04 0.  0.
        2    1    3    3  502    0 -0.98217447198E+03 -0.69907891436E+02  0.22900330956E+03  0.10109383376E+04  0.25500000920E-02 0. -1.
       -2    1    3    3    0  502  0.98217447198E+03  0.69907891436E+02 -0.57316917261E+03  0.11393316932E+04  0.25500000920E-02 0.  1.
</event>
<event>
 5   0  0.2448804E-04  0.2150230E+04  0.7818609E-02  0.8539434E-01
        2   -1    0    0  501    0  0.00000000000E+00  0.00000000000E+00  0.20535454284E+04  0.20535454284E+04  0.25500000920E-02 0.  1.
       -2   -1    0    0    0  501  0.00000000000E+00  0.00000000000E+00 -0.56286656323E+03  0.56286656324E+03  0.25500000920E-02 0. -1.
    10030    2    1    2    0    0  0.00000000000E+00  0.00000000000E+00  0.14906788652E+04  0.26164119917E+04  0.21502298089E+04 0.  0.
        2    1    3    3  502    0  0.52998753893E+03  0.42716212969E+03  0.17579366210E+04  0.18851247810E+04  0.25500000920E-02 0.  1.
       -2    1    3    3    0  502 -0.52998753893E+03 -0.42716212969E+03 -0.26725775580E+03  0.73128721068E+03  0.25500000920E-02 0. -1.
</event>
<event>
 5   0  0.1186038E-04  0.2202013E+04  0.7818609E-02  0.8517591E-01
        1   -1    0    0  501    0  0.00000000000E+00  0.00000000000E+00  0.91049152119E+03  0.91049152120E+03  0.50400001928E-02 0.  1.
       -1   -1    0    0    0  501  0.00000000000E+00  0.00000000000E+00 -0.13313854131E+04  0.13313854132E+04  0.50400001928E-02 0. -1.
    10030    2    1    2    0    0  0.00000000000E+00  0.00000000000E+00 -0.42089389196E+03  0.22418769344E+04  0.22020128339E+04 0.  0.
        4    1    3    3  502    0 -0.25781065417E+03 -0.27956681785E+03 -0.12623944941E+04  0.13184329375E+04  0.12699999809E+01 0. -1.
       -4    1    3    3    0  502  0.25781065417E+03  0.27956681785E+03  0.84150060213E+03  0.92344399686E+03  0.12699999809E+01 0.  1.
</event>
<event>
 5   0  0.2430898E-04  0.1887282E+04  0.7818609E-02  0.8661213E-01
        2   -1    0    0  501    0  0.00000000000E+00  0.00000000000E+00  0.56576166124E+03  0.56576166125E+03  0.25500000920E-02 0. -1.
       -2   -1    0    0    0  501  0.00000000000E+00  0.00000000000E+00 -0.15739113761E+04  0.15739113761E+04  0.25500000920E-02 0.  1.
    10030    2    1    2    0    0  0.00000000000E+00  0.00000000000E+00 -0.10081497148E+04  0.21396730373E+04  0.18872824005E+04 0.  0.
        1    1    3    3  502    0  0.37616845828E+03 -0.53203272324E+03  0.26977297109E+03  0.70522264822E+03  0.50400001928E-02 0. -1.
       -1    1    3    3    0  502 -0.37616845828E+03  0.53203272324E+03 -0.12779226859E+04  0.14344503891E+04  0.50400001928E-02 0.  1.
</event>
<event>
 5   0  0.1186038E-04  0.2099836E+04  0.7818609E-02  0.8561316E-01
       -1   -1    0    0    0  501  0.00000000000E+00  0.00000000000E+00  0.10597293110E+04  0.10597293110E+04  0.50400001928E-02 0.  1.
        1   -1    0    0  501    0  0.00000000000E+00  0.00000000000E+00 -0.10401971614E+04  0.10401971614E+04  0.50400001928E-02 0. -1.
    10030    2    1    2    0    0  0.00000000000E+00  0.00000000000E+00  0.19532149547E+02  0.20999264724E+04  0.20998356328E+04 0.  0.
        4    1    3    3  502    0 -0.10589438487E+03 -0.10439684906E+04 -0.25477159742E+02  0.10496354266E+04  0.12699999809E+01 0. -1.
       -4    1    3    3    0  502  0.10589438487E+03  0.10439684906E+04  0.45009309290E+02  0.10502910458E+04  0.12699999809E+01 0.  1.
</event>
<event>
 5   0  0.1042395E-04  0.2176266E+04  0.7818609E-02  0.8528372E-01
       -1   -1    0    0    0  501  0.00000000000E+00  0.00000000000E+00  0.65620392473E+03  0.65620392474E+03  0.50400001928E-02 0. -1.
        1   -1    0    0  501    0  0.00000000000E+00  0.00000000000E+00 -0.18043673120E+04  0.18043673120E+04  0.50400001928E-02 0.  1.
    10030    2    1    2    0    0  0.00000000000E+00  0.00000000000E+00 -0.11481633873E+04  0.24605712368E+04  0.21762655278E+04 0.  0.
        3    1    3    3  502    0 -0.14425359483E+03 -0.28676976723E+03  0.60144981979E+03  0.68175354414E+03  0.10100000352E+00 0. -1.
       -3    1    3    3    0  502  0.14425359483E+03  0.28676976723E+03 -0.17496132071E+04  0.17788176926E+04  0.10100000352E+00 0.  1.
</event>
<event>
 5   0  0.1156733E-04  0.1988906E+04  0.7818609E-02  0.8611825E-01
       -1   -1    0    0    0  501  0.00000000000E+00  0.00000000000E+00  0.13351073805E+04  0.13351073805E+04  0.50400001928E-02 0.  1.
        1   -1    0    0  501    0  0.00000000000E+00  0.00000000000E+00 -0.74071696221E+03  0.74071696223E+03  0.50400001928E-02 0. -1.
    10030    2    1    2    0    0  0.00000000000E+00  0.00000000000E+00  0.59439041827E+03  0.20758243427E+04  0.19889059134E+04 0.  0.
        2    1    3    3  502    0  0.22137401451E+03 -0.87233945643E+03  0.73871196485E+03  0.11643358401E+04  0.25500000920E-02 0.  1.
       -2    1    3    3    0  502 -0.22137401451E+03  0.87233945643E+03 -0.14432154659E+03  0.91148850260E+03  0.25500000920E-02 0. -1.
</event>
<event>
 5   0  0.2430898E-04  0.2066311E+04  0.7818609E-02  0.8576231E-01
       -2   -1    0    0    0  501  0.00000000000E+00  0.00000000000E+00  0.70654171466E+03  0.70654171466E+03  0.25500000920E-02 0.  1.
        2   -1    0    0  501    0  0.00000000000E+00  0.00000000000E+00 -0.15107531889E+04  0.15107531889E+04  0.25500000920E-02 0. -1.
    10030    2    1    2    0    0  0.00000000000E+00  0.00000000000E+00 -0.80421147422E+03  0.22172949035E+04  0.20663108658E+04 0.  0.
        1    1    3    3  502    0 -0.48705989546E+03 -0.23192745908E+03  0.54340933021E+03  0.76570972844E+03  0.50400001928E-02 0.  1.
       -1    1    3    3    0  502  0.48705989546E+03  0.23192745908E+03 -0.13476208044E+04  0.14515851751E+04  0.50400001928E-02 0. -1.
</event>
<event>
 5   0  0.2579241E-04  0.2094390E+04  0.7818609E-02  0.8563719E-01
        2   -1    0    0  501    0  0.00000000000E+00  0.00000000000E+00  0.18898111859E+04  0.18898111859E+04  0.25500000920E-02 0. -1.
       -2   -1    0    0    0  501  0.00000000000E+00  0.00000000000E+00 -0.58027869305E+03  0.58027869305E+03  0.25500000920E-02 0.  1.
    10030    2    1    2    0    0  0.00000000000E+00  0.00000000000E+00  0.13095324929E+04  0.24700898790E+04  0.20943898062E+04 0.  0.
        5    1    3    3  502    0 -0.27630564046E+03 -0.33317207840E+03  0.17793611003E+04  0.18312554316E+04  0.46999998093E+01 0. -1.
       -5    1    3    3    0  502  0.27630564046E+03  0.33317207840E+03 -0.46982860739E+03  0.63883444733E+03  0.46999998093E+01 0.  1.
</event>
<event>
 5   0  0.1130848E-04  0.2011865E+04  0.7818609E-02  0.8601094E-01
       -1   -1    0    0    0  501  0.00000000000E+00  0.00000000000E+00  0.27519539521E+04  0.27519539521E+04  0.50400001928E-02 0. -1.
        1   -1    0    0  501    0  0.00000000000E+00  0.00000000000E+00 -0.36770228016E+03  0.36770228019E+03  0.50400001928E-02 0.  1.
    10030    2    1    2    0    0  0.00000000000E+00  0.00000000000E+00  0.23842516719E+04  0.31196562323E+04  0.20118645512E+04 0.  0.
        5    1    3    3  502    0  0.91606427626E+03 -0.37697800300E+03  0.92091424478E+03  0.13525499286E+04  0.46999998093E+01 0.  1.
       -5    1    3    3    0  502 -0.91606427626E+03  0.37697800300E+03  0.14633374272E+04  0.17671063037E+04  0.46999998093E+01 0. -1.
</event>
<event>
 5   0  0.2467483E-04  0.2075514E+04  0.7818609E-02  0.8572107E-01
       -2   -1    0    0    0  501  0.00000000000E+00  0.00000000000E+00  0.52577334709E+03  0.52577334710E+03  0.25500000920E-02 0.  1.
        2   -1    0    0  501    0  0.00000000000E+00  0.00000000000E+00 -0.20482954266E+04  0.20482954266E+04  0.25500000920E-02 0. -1.
    10030    2    1    2    0    0  0.00000000000E+00  0.00000000000E+00 -0.15225220795E+04  0.25740687737E+04  0.20755135676E+04 0.  0.
        4    1    3    3  502    0 -0.99106250105E+03 -0.64326008721E+02 -0.38797114282E+03  0.10662391556E+04  0.12699999809E+01 0. -1.
       -4    1    3    3    0  502  0.99106250105E+03  0.64326008721E+02 -0.11345509367E+04  0.15078296181E+04  0.12699999809E+01 0.  1.
</event>
<event>
 5   0  0.1122711E-04  0.2098350E+04  0.7818609E-02  0.8561971E-01
        1   -1    0    0  501    0  0.00000000000E+00  0.00000000000E+00  0.99661585573E+03  0.99661585575E+03  0.50400001928E-02 0.  1.
       -1   -1    0    0    0  501  0.00000000000E+00  0.00000000000E+00 -0.11045057056E+04  0.11045057056E+04  0.50400001928E-02 0. -1.
    10030    2    1    2    0    0  0.00000000000E+00  0.00000000000E+00 -0.10788984984E+03  0.21011215613E+04  0.20983497315E+04 0.  0.
        1    1    3    3  502    0  0.71792139301E+02 -0.63451510166E+03  0.77962357295E+03  0.10077581263E+04  0.50400001928E-02 0.  1.
       -1    1    3    3    0  502 -0.71792139301E+02  0.63451510166E+03 -0.88751342280E+03  0.10933634351E+04  0.50400001928E-02 0. -1.
</event>
<event>
 5   0  0.1130848E-04  0.2201775E+04  0.7818609E-02  0.8517690E-01
        1   -1    0    0  501    0  0.00000000000E+00  0.00000000000E+00  0.10793554115E+04  0.10793554115E+04  0.50400001928E-02 0.  1.
       -1   -1    0    0    0  501  0.00000000000E+00  0.00000000000E+00 -0.11228492598E+04  0.11228492599E+04  0.50400001928E-02 0. -1.
    10030    2    1    2    0    0  0.00000000000E+00  0.00000000000E+00 -0.43493848365E+02  0.22022046713E+04  0.22017751247E+04 0.  0.
        5    1    3    3  502    0 -0.39092042415E+03  0.50353901316E+03 -0.91945253589E+03  0.11188321463E+04  0.46999998093E+01 0. -1.
       -5    1    3    3    0  502  0.39092042415E+03 -0.50353901316E+03  0.87595868753E+03  0.10833725251E+04  0.46999998093E+01 0.  1.
</event>
<event>
 5   0  0.1156733E-04  0.2084571E+04  0.7818609E-02  0.8568071E-01
       -1   -1    0    0    0  501  0.00000000000E+00  0.00000000000E+00  0.12534544992E+04  0.12534544992E+04  0.50400001928E-02 0.  1.
        1   -1    0    0  501    0  0.00000000000E+00  0.00000000000E+00 -0.86669205981E+03  0.86669205983E+03  0.50400001928E-02 0. -1.
    10030    2    1    2    0    0  0.00000000000E+00  0.00000000000E+00  0.38676243936E+03  0.21201465590E+04  0.20845709984E+04 0.  0.
        2    1    3    3  502    0  0.19186577453E+03  0.93557575261E+03 -0.23116878771E+03  0.98262580504E+03  0.25500000920E-02 0. -1.
       -2    1    3    3    0  502 -0.19186577453E+03 -0.93557575261E+03  0.61793122707E+03  0.11375207540E+04  0.25500000920E-02 0.  1.
</event>
<event>
 5   0  0.1156733E-04  0.2113151E+04  0.7818609E-02  0.8555472E-01
       -1   -1    0    0    0  501  0.00000000000E+00  0.00000000000E+00  0.85461287951E+03  0.85461287952E+03  0.50400001928E-02 0.  1.
        1   -1    0    0  501    0  0.00000000000E+00  0.00000000000E+00 -0.13062660712E+04  0.13062660712E+04  0.50400001928E-02 0. -1.
    10030    2    1    2    0    0  0.00000000000E+00  0.00000000000E+00 -0.45165319167E+03  0.21608789507E+04  0.21131510202E+04 0.  0.
        2    1    3    3  502    0  0.84730076474E+03 -0.59758193044E+03 -0.43371375369E+03  0.11238907285E+04  0.25500000920E-02 0. -1.
       -2    1    3    3    0  502 -0.84730076474E+03  0.59758193044E+03 -0.17939437976E+02  0.10369882222E+04  0.25500000920E-02 0.  1.
</event>
<event>
 5   0  0.1130848E-04  0.2331906E+04  0.7818609E-02  0.8465446E-01
       -1   -1    0    0    0  501  0.00000000000E+00  0.00000000000E+00  0.16317531420E+04  0.16317531420E+04  0.50400001928E-02 0. -1.
        1   -1    0    0  501    0  0.00000000000E+00  0.00000000000E+00 -0.83311979174E+03  0.83311979175E+03  0.50400001928E-02 0.  1.
    10030    2    1    2    0    0  0.00000000000E+00  0.00000000000E+00  0.79863335028E+03  0.24648729338E+04  0.23319055194E+04 0.  0.
        5    1    3    3  502    0 -0.33603891263E+03 -0.48967367475E+03  0.14598839249E+04  0.15760665032E+04  0.46999998093E+01 0. -1.
       -5    1    3    3    0  502  0.33603891263E+03  0.48967367475E+03 -0.66125057460E+03  0.88880643053E+03  0.46999998093E+01 0.  1.
</event>
<event>
 5   0  0.1130848E-04  0.1963827E+04  0.7818609E-02  0.8623722E-01
       -1   -1    0    0    0  501  0.00000000000E+00  0.00000000000E+00  0.91245723574E+03  0.91245723576E+03  0.50400001928E-02 0. -1.
        1   -1    0    0  501    0  0.00000000000E+00  0.00000000000E+00 -0.10566563901E+04  0.10566563901E+04  0.50400001928E-02 0.  1.
    10030    2    1    2    0    0  0.00000000000E+00  0.00000000000E+00 -0.14419915431E+03  0.19691136258E+04  0.19638266408E+04 0.  0.
        5    1    3    3  502    0 -0.20480760698E+03 -0.58369477294E+03  0.69250560537E+03  0.92856440127E+03  0.46999998093E+01 0. -1.
       -5    1    3    3    0  502  0.20480760698E+03  0.58369477294E+03 -0.83670475968E+03  0.10405492246E+04  0.46999998093E+01 0.  1.
</event>
<event>
 5   0  0.1156733E-04  0.2045910E+04  0.7818609E-02  0.8585452E-01
        1   -1    0    0  501    0  0.00000000000E+00  0.00000000000E+00  0.92302807735E+03  0.92302807736E+03  0.50400001928E-02 0. -1.
       -1   -1    0    0    0  501  0.00000000000E+00  0.00000000000E+00 -0.11337003197E+04  0.11337003197E+04  0.50400001928E-02 0.  1.
    10030    2    1    2    0    0  0.00000000000E+00  0.00000000000E+00 -0.21067224236E+03  0.20567283971E+04  0.20459102878E+04 0.  0.
        2    1    3    3  502    0 -0.68403460393E+03  0.23771927306E+03  0.62099617922E+03  0.95396543270E+03  0.25500000920E-02 0. -1.
       -2    1    3    3    0  502  0.68403460393E+03 -0.23771927306E+03 -0.83166842159E+03  0.11027629644E+04  0.25500000920E-02 0.  1.
</event>
<event>
 5   0  0.1156733E-04  0.2177561E+04  0.7818609E-02  0.8527826E-01
        1   -1    0    0  501    0  0.00000000000E+00  0.00000000000E+00  0.13363937923E+04  0.13363937923E+04  0.50400001928E-02 0. -1.
       -1   -1    0    0    0  501  0.00000000000E+00  0.00000000000E+00 -0.88704580971E+03  0.88704580972E+03  0.50400001928E-02 0.  1.
    10030    2    1    2    0    0  0.00000000000E+00  0.00000000000E+00  0.44934798256E+03  0.22234396020E+04  0.21775605742E+04 0.  0.
        2    1    3    3  502    0 -0.41071585385E+03  0.93456542222E+03 -0.16190881786E+03  0.10335930081E+04  0.25500000920E-02 0.  1.
       -2    1    3    3    0  502  0.41071585385E+03 -0.93456542222E+03  0.61125680042E+03  0.11898465939E+04  0.25500000920E-02 0. -1.
</event>
<event>
 5   0  0.1156733E-04  0.2137572E+04  0.7818609E-02  0.8544871E-01
       -1   -1    0    0    0  501  0.00000000000E+00  0.00000000000E+00  0.76747334063E+03  0.76747334064E+03  0.50400001928E-02 0. -1.
        1   -1    0    0  501    0  0.00000000000E+00  0.00000000000E+00 -0.14883957268E+04  0.14883957268E+04  0.50400001928E-02 0.  1.
    10030    2    1    2    0    0  0.00000000000E+00  0.00000000000E+00 -0.72092238614E+03  0.22558690674E+04  0.21375724929E+04 0.  0.
        2    1    3    3  502    0 -0.18641279337E+03 -0.43552031718E+03 -0.13715402867E+04  0.14510514926E+04  0.25500000920E-02 0.  1.
       -2    1    3    3    0  502  0.18641279337E+03  0.43552031718E+03  0.65061790054E+03  0.80481757481E+03  0.25500000920E-02 0. -1.
</event>
<event>
 5   0  0.2430898E-04  0.1554701E+04  0.7818609E-02  0.8848871E-01
        2   -1    0    0  501    0  0.00000000000E+00  0.00000000000E+00  0.14381954506E+04  0.14381954506E+04  0.25500000920E-02 0. -1.
       -2   -1    0    0    0  501  0.00000000000E+00  0.00000000000E+00 -0.42016115875E+03  0.42016115876E+03  0.25500000920E-02 0.  1.
    10030    2    1    2    0    0  0.00000000000E+00  0.00000000000E+00  0.10180342918E+04  0.18583566094E+04  0.15547010864E+04 0.  0.
        1    1    3    3  502    0  0.44821765939E+03 -0.11402578342E+03  0.12558475580E+04  0.13383026707E+04  0.50400001928E-02 0. -1.
       -1    1    3    3    0  502 -0.44821765939E+03  0.11402578342E+03 -0.23781326618E+03  0.52005393862E+03  0.50400001928E-02 0.  1.
</event>
<event>
 5   0  0.1130848E-04  0.2200583E+04  0.7818609E-02  0.8518186E-01
       -1   -1    0    0    0  501  0.00000000000E+00  0.00000000000E+00  0.19181477121E+04  0.19181477121E+04  0.50400001928E-02 0. -1.
        1   -1    0    0  501    0  0.00000000000E+00  0.00000000000E+00 -0.63115124695E+03  0.63115124697E+03  0.50400001928E-02 0.  1.
    10030    2    1    2    0    0  0.00000000000E+00  0.00000000000E+00  0.12869964652E+04  0.25492989591E+04  0.22005829413E+04 0.  0.
        5    1    3    3  502    0  0.64781807652E+03 -0.62307447549E+03  0.13786712671E+04  0.16457966505E+04  0.46999998093E+01 0. -1.
       -5    1    3    3    0  502 -0.64781807652E+03  0.62307447549E+03 -0.91674801907E+02  0.90350230856E+03  0.46999998093E+01 0.  1.
</event>
<event>
 5   0  0.1156733E-04  0.2094102E+04  0.7818609E-02  0.8563846E-01
       -1   -1    0    0    0  501  0.00000000000E+00  0.00000000000E+00  0.91165722591E+03  0.91165722593E+03  0.50400001928E-02 0.  1.
        1   -1    0    0  501    0  0.00000000000E+00  0.00000000000E+00 -0.12025528298E+04  0.12025528298E+04  0.50400001928E-02 0. -1.
    10030    2    1    2    0    0  0.00000000000E+00  0.00000000000E+00 -0.29089560389E+03  0.21142100557E+04  0.20941021722E+04 0.  0.
        2    1    3    3  502    0 -0.85035938889E+03 -0.51483464958E+03  0.18657191151E+03  0.10114222090E+04  0.25500000920E-02 0.  1.
       -2    1    3    3    0  502  0.85035938889E+03  0.51483464958E+03 -0.47746751540E+03  0.11027878467E+04  0.25500000920E-02 0. -1.
</event>
<event>
 5   0  0.1122711E-04  0.2161653E+04  0.7818609E-02  0.8534561E-01
        1   -1    0    0  501    0  0.00000000000E+00  0.00000000000E+00  0.73244949222E+03  0.73244949224E+03  0.50400001928E-02 0. -1.
       -1   -1    0    0    0  501  0.00000000000E+00  0.00000000000E+00 -0.15949033633E+04  0.15949033633E+04  0.50400001928E-02 0.  1.
    10030    2    1    2    0    0  0.00000000000E+00  0.00000000000E+00 -0.86245387103E+03  0.23273528555E+04  0.21616532179E+04 0.  0.
        1    1    3    3  502    0  0.31975602832E+03 -0.91210663477E+03  0.89592996933E+02  0.97067468081E+03  0.50400001928E-02 0. -1.
       -1    1    3    3    0  502 -0.31975602832E+03  0.91210663477E+03 -0.95204686797E+03  0.13566781747E+04  0.50400001928E-02 0.  1.
</event>
<event>
 5   0  0.2579241E-04  0.2123047E+04  0.7818609E-02  0.8551159E-01
        2   -1    0    0  501    0  0.00000000000E+00  0.00000000000E+00  0.11260915845E+04  0.11260915845E+04  0.25500000920E-02 0. -1.
       -2   -1    0    0    0  501  0.00000000000E+00  0.00000000000E+00 -0.10006574136E+04  0.10006574136E+04  0.25500000920E-02 0.  1.
    10030    2    1    2    0    0  0.00000000000E+00  0.00000000000E+00  0.12543417084E+03  0.21267489981E+04  0.21230467658E+04 0.  0.
        5    1    3    3  502    0  0.98002290601E+03 -0.98514690981E+02  0.45920997832E+03  0.10867593730E+04  0.46999998093E+01 0.  1.
       -5    1    3    3    0  502 -0.98002290601E+03  0.98514690981E+02 -0.33377580748E+03  0.10399896251E+04  0.46999998093E+01 0. -1.
</event>
<event>
 5   0  0.2579241E-04  0.2128779E+04  0.7818609E-02  0.8548671E-01
       -2   -1    0    0    0  501  0.00000000000E+00  0.00000000000E+00  0.10023946957E+04  0.10023946957E+04  0.25500000920E-02 0.  1.
        2   -1    0    0  501    0  0.00000000000E+00  0.00000000000E+00 -0.11302185388E+04  0.11302185388E+04  0.25500000920E-02 0. -1.
    10030    2    1    2    0    0  0.00000000000E+00  0.00000000000E+00 -0.12782384318E+03  0.21326132345E+04  0.21287790569E+04 0.  0.
        5    1    3    3  502    0 -0.63795119232E+03 -0.21525280844E+03 -0.88976767114E+03  0.11158064769E+04  0.46999998093E+01 0. -1.
       -5    1    3    3    0  502  0.63795119232E+03  0.21525280844E+03  0.76194382796E+03  0.10168067576E+04  0.46999998093E+01 0.  1.
</event>
<event>
 5   0  0.2467483E-04  0.1978846E+04  0.7818609E-02  0.8616575E-01
       -2   -1    0    0    0  501  0.00000000000E+00  0.00000000000E+00  0.10684139426E+04  0.10684139426E+04  0.25500000920E-02 0.  1.
        2   -1    0    0  501    0  0.00000000000E+00  0.00000000000E+00 -0.91627252525E+03  0.91627252525E+03  0.25500000920E-02 0. -1.
    10030    2    1    2    0    0  0.00000000000E+00  0.00000000000E+00  0.15214141734E+03  0.19846864679E+04  0.19788464733E+04 0.  0.
        4    1    3    3  502    0  0.49844101298E+03 -0.81346320485E+03 -0.18698352789E+03  0.97217811211E+03  0.12699999809E+01 0. -1.
       -4    1    3    3    0  502 -0.49844101298E+03  0.81346320485E+03  0.33912494523E+03  0.10125083557E+04  0.12699999809E+01 0.  1.
</event>
<event>
 5   0  0.1130848E-04  0.2132190E+04  0.7818609E-02  0.8547194E-01
        1   -1    0    0  501    0  0.00000000000E+00  0.00000000000E+00  0.14525582388E+04  0.14525582388E+04  0.50400001928E-02 0. -1.
       -1   -1    0    0    0  501  0.00000000000E+00  0.00000000000E+00 -0.78245316394E+03  0.78245316396E+03  0.50400001928E-02 0.  1.
    10030    2    1    2    0    0  0.00000000000E+00  0.00000000000E+00  0.67010507482E+03  0.22350114027E+04  0.21321902258E+04 0.  0.
        5    1    3    3  502    0  0.10650200317E+04  0.44143648971E+02  0.31629051129E+03  0.11118804375E+04  0.46999998093E+01 0. -1.
       -5    1    3    3    0  502 -0.10650200317E+04 -0.44143648971E+02  0.35381456353E+03  0.11231309652E+04  0.46999998093E+01 0.  1.
</event>
<event>
 5   0  0.2448804E-04  0.2056138E+04  0.7818609E-02  0.8580815E-01
       -2   -1    0    0    0  501  0.00000000000E+00  0.00000000000E+00  0.93045240086E+03  0.93045240086E+03  0.25500000920E-02 0. -1.
        2   -1    0    0  501    0  0.00000000000E+00  0.00000000000E+00 -0.11359267247E+04  0.11359267247E+04  0.25500000920E-02 0.  1.
    10030    2    1    2    0    0  0.00000000000E+00  0.00000000000E+00 -0.20547432388E+03  0.20663791256E+04  0.20561378828E+04 0.  0.
        2    1    3    3  502    0  0.36043742390E+03  0.94754182258E+03 -0.27439514038E+03  0.10502586992E+04  0.25500000920E-02 0.  1.
       -2    1    3    3    0  502 -0.36043742390E+03 -0.94754182258E+03  0.68920816503E+02  0.10161204264E+04  0.25500000920E-02 0. -1.
</event>
<event>
 5   0  0.1156733E-04  0.1477979E+04  0.7818609E-02  0.8899230E-01
       -1   -1    0    0    0  501  0.00000000000E+00  0.00000000000E+00  0.25695981574E+03  0.25695981579E+03  0.50400001928E-02 0.  1.
        1   -1    0    0  501    0  0.00000000000E+00  0.00000000000E+00 -0.21252577285E+04  0.21252577286E+04  0.50400001928E-02 0. -1.
    10030    2    1    2    0    0  0.00000000000E+00  0.00000000000E+00 -0.18682979128E+04  0.23822175443E+04  0.14779794781E+04 0.  0.
        2    1    3    3  502    0  0.54639631174E+03 -0.48400310553E+03 -0.11200169135E+04  0.13368791352E+04  0.25500000920E-02 0. -1.
       -2    1    3    3    0  502 -0.54639631174E+03  0.48400310553E+03 -0.74828099929E+03  0.10453384091E+04  0.25500000920E-02 0.  1.
</event>
<event>
 5   0  0.2448804E-04  0.2149244E+04  0.7818609E-02  0.8539856E-01
       -2   -1    0    0    0  501  0.00000000000E+00  0.00000000000E+00  0.76096857687E+03  0.76096857688E+03  0.25500000920E-02 0. -1.
        2   -1    0    0  501    0  0.00000000000E+00  0.00000000000E+00 -0.15175565323E+04  0.15175565323E+04  0.25500000920E-02 0.  1.
    10030    2    1    2    0    0  0.00000000000E+00  0.00000000000E+00 -0.75658795538E+03  0.22785251091E+04  0.21492443646E+04 0.  0.
        2    1    3    3  502    0  0.81506644242E+03 -0.30876888419E+03 -0.10447081696E+04  0.13605464671E+04  0.25500000920E-02 0.  1.
       -2    1    3    3    0  502 -0.81506644242E+03  0.30876888419E+03  0.28812021423E+03  0.91797864205E+03  0.25500000920E-02 0. -1.
</event>
<event>
 5   0  0.1130848E-04  0.1760281E+04  0.7818609E-02  0.8727711E-01
        1   -1    0    0  501    0  0.00000000000E+00  0.00000000000E+00  0.11372750883E+04  0.11372750883E+04  0.50400001928E-02 0. -1.
       -1   -1    0    0    0  501  0.00000000000E+00  0.00000000000E+00 -0.68114328371E+03  0.68114328373E+03  0.50400001928E-02 0.  1.
    10030    2    1    2    0    0  0.00000000000E+00  0.00000000000E+00  0.45613180460E+03  0.18184183720E+04  0.17602809868E+04 0.  0.
        5    1    3    3  502    0  0.16813734978E+03 -0.43750162295E+03  0.99761743446E+03  0.11022433824E+04  0.46999998093E+01 0. -1.
       -5    1    3    3    0  502 -0.16813734978E+03  0.43750162295E+03 -0.54148562986E+03  0.71617498966E+03  0.46999998093E+01 0.  1.
</event>
<event>
 5   0  0.2467483E-04  0.2082665E+04  0.7818609E-02  0.8568918E-01
        2   -1    0    0  501    0  0.00000000000E+00  0.00000000000E+00  0.21192813023E+04  0.21192813023E+04  0.25500000920E-02 0. -1.
       -2   -1    0    0    0  501  0.00000000000E+00  0.00000000000E+00 -0.51167012390E+03  0.51167012390E+03  0.25500000920E-02 0.  1.
    10030    2    1    2    0    0  0.00000000000E+00  0.00000000000E+00  0.16076111784E+04  0.26309514262E+04  0.20826645688E+04 0.  0.
        4    1    3    3  502    0 -0.24843775218E+03  0.91907823652E+03  0.27091674268E+03  0.98986040223E+03  0.12699999809E+01 0.  1.
       -4    1    3    3    0  502  0.24843775218E+03 -0.91907823652E+03  0.13366944357E+04  0.16410910239E+04  0.12699999809E+01 0. -1.
</event>
<event>
 5   0  0.1122711E-04  0.2100440E+04  0.7818609E-02  0.8561050E-01
       -1   -1    0    0    0  501  0.00000000000E+00  0.00000000000E+00  0.83549892773E+03  0.83549892775E+03  0.50400001928E-02 0. -1.
        1   -1    0    0  501    0  0.00000000000E+00  0.00000000000E+00 -0.13201239162E+04  0.13201239162E+04  0.50400001928E-02 0.  1.
    10030    2    1    2    0    0  0.00000000000E+00  0.00000000000E+00 -0.48462498844E+03  0.21556228439E+04  0.21004400648E+04 0.  0.
        1    1    3    3  502    0  0.10992909686E+03 -0.76985352039E+03 -0.96669135725E+03  0.12406655590E+04  0.50400001928E-02 0.  1.
       -1    1    3    3    0  502 -0.10992909686E+03  0.76985352039E+03  0.48206636881E+03  0.91495728488E+03  0.50400001928E-02 0. -1.
</event>
<event>
 5   0  0.1130848E-04  0.2100758E+04  0.7818609E-02  0.8560910E-01
       -1   -1    0    0    0  501  0.00000000000E+00  0.00000000000E+00  0.83759486111E+03  0.83759486112E+03  0.50400001928E-02 0. -1.
        1   -1    0    0  501    0  0.00000000000E+00  0.00000000000E+00 -0.13172188610E+04  0.13172188610E+04  0.50400001928E-02 0.  1.
    10030    2    1    2    0    0  0.00000000000E+00  0.00000000000E+00 -0.47962399990E+03  0.21548137221E+04  0.21007577195E+04 0.  0.
        5    1    3    3  502    0  0.81194993568E+03  0.27078561756E+02  0.44311095751E+03  0.92540010656E+03  0.46999998093E+01 0. -1.
       -5    1    3    3    0  502 -0.81194993568E+03 -0.27078561756E+02 -0.92273495741E+03  0.12294136156E+04  0.46999998093E+01 0.  1.
</event>
<event>
 5   0  0.1122711E-04  0.1895076E+04  0.7818609E-02  0.8657311E-01
       -1   -1    0    0    0  501  0.00000000000E+00  0.00000000000E+00  0.64172764950E+03  0.64172764952E+03  0.50400001928E-02 0. -1.
        1   -1    0    0  501    0  0.00000000000E+00  0.00000000000E+00 -0.13990802262E+04  0.13990802262E+04  0.50400001928E-02 0.  1.
    10030    2    1    2    0    0  0.00000000000E+00  0.00000000000E+00 -0.75735257668E+03  0.20408078757E+04  0.18950762149E+04 0.  0.
        1    1    3    3  502    0  0.99013072401E+02 -0.14910897715E+03 -0.13807093980E+04  0.13922627329E+04  0.50400001928E-02 0.  1.
       -1    1    3    3    0  502 -0.99013072401E+02  0.14910897715E+03  0.62335682133E+03  0.64854514283E+03  0.50400001928E-02 0. -1.
</event>
<event>
 5   0  0.2448804E-04  0.2081920E+04  0.7818609E-02  0.8569250E-01
       -2   -1    0    0    0  501  0.00000000000E+00  0.00000000000E+00  0.58881348381E+03  0.58881348381E+03  0.25500000920E-02 0.  1.
        2   -1    0    0  501    0  0.00000000000E+00  0.00000000000E+00 -0.18403065476E+04  0.18403065476E+04  0.25500000920E-02 0. -1.
    10030    2    1    2    0    0  0.00000000000E+00  0.00000000000E+00 -0.12514930638E+04  0.24291200315E+04  0.20819196042E+04 0.  0.
        2    1    3    3  502    0 -0.69178389919E+03 -0.59963911035E+03 -0.12038160373E+04  0.15123839055E+04  0.25500000920E-02 0. -1.
       -2    1    3    3    0  502  0.69178389919E+03  0.59963911035E+03 -0.47677026547E+02  0.91673612600E+03  0.25500000920E-02 0.  1.
</event>
<event>
 5   0  0.2512839E-04  0.2123433E+04  0.7818609E-02  0.8550991E-01
       -2   -1    0    0    0  501  0.00000000000E+00  0.00000000000E+00  0.48551014308E+03  0.48551014308E+03  0.25500000920E-02 0. -1.
        2   -1    0    0  501    0  0.00000000000E+00  0.00000000000E+00 -0.23217670090E+04  0.23217670090E+04  0.25500000920E-02 0.  1.
    10030    2    1    2    0    0  0.00000000000E+00  0.00000000000E+00 -0.18362568659E+04  0.28072771521E+04  0.21234325351E+04 0.  0.
        3    1    3    3  502    0 -0.34664633002E+03  0.49709901746E+03 -0.20706395866E+04  0.21575030519E+04  0.10100000352E+00 0.  1.
       -3    1    3    3    0  502  0.34664633002E+03 -0.49709901746E+03  0.23438272068E+03  0.64977410015E+03  0.10100000352E+00 0. -1.
</event>
<event>
 5   0  0.1130848E-04  0.2159689E+04  0.7818609E-02  0.8535396E-01
        1   -1    0    0  501    0  0.00000000000E+00  0.00000000000E+00  0.29111358724E+04  0.29111358724E+04  0.50400001928E-02 0.  1.
       -1   -1    0    0    0  501  0.00000000000E+00  0.00000000000E+00 -0.40055314812E+03  0.40055314815E+03  0.50400001928E-02 0. -1.
    10030    2    1    2    0    0  0.00000000000E+00  0.00000000000E+00  0.25105827242E+04  0.33116890205E+04  0.21596894576E+04 0.  0.
        5    1    3    3  502    0 -0.60794903657E+03  0.67355483074E+03  0.21530427787E+04  0.23364274947E+04  0.46999998093E+01 0.  1.
       -5    1    3    3    0  502  0.60794903657E+03 -0.67355483074E+03  0.35753994554E+03  0.97526152581E+03  0.46999998093E+01 0. -1.
</event>
<event>
 5   0  0.2579241E-04  0.2096351E+04  0.7818609E-02  0.8562853E-01
       -2   -1    0    0    0  501  0.00000000000E+00  0.00000000000E+00  0.65834121787E+03  0.65834121788E+03  0.25500000920E-02 0.  1.
        2   -1    0    0  501    0  0.00000000000E+00  0.00000000000E+00 -0.16688480657E+04  0.16688480657E+04  0.25500000920E-02 0. -1.
    10030    2    1    2    0    0  0.00000000000E+00  0.00000000000E+00 -0.10105068478E+04  0.23271892836E+04  0.20963506081E+04 0.  0.
        5    1    3    3  502    0  0.47026022269E+03  0.26789180703E+03 -0.15017249564E+04  0.15962802486E+04  0.46999998093E+01 0. -1.
       -5    1    3    3    0  502 -0.47026022269E+03 -0.26789180703E+03  0.49121810855E+03  0.73090903503E+03  0.46999998093E+01 0.  1.
</event>
<event>
 5   0  0.2579241E-04  0.2063438E+04  0.7818609E-02  0.8577522E-01
       -2   -1    0    0    0  501  0.00000000000E+00  0.00000000000E+00  0.82653128832E+03  0.82653128833E+03  0.25500000920E-02 0. -1.
        2   -1    0    0  501    0  0.00000000000E+00  0.00000000000E+00 -0.12878448609E+04  0.12878448609E+04  0.25500000920E-02 0.  1.
    10030    2    1    2    0    0  0.00000000000E+00  0.00000000000E+00 -0.46131357261E+03  0.21143761493E+04  0.20634379778E+04 0.  0.
        5    1    3    3  502    0 -0.75844709302E+03 -0.18400116886E+03  0.46077747037E+03  0.90633128064E+03  0.46999998093E+01 0. -1.
       -5    1    3    3    0  502  0.75844709302E+03  0.18400116886E+03 -0.92209104298E+03  0.12080448686E+04  0.46999998093E+01 0.  1.
</event>
<event>
 5   0  0.2579241E-04  0.1086723E+04  0.7818609E-02  0.9218230E-01
        2   -1    0    0  501    0  0.00000000000E+00  0.00000000000E+00  0.78245495626E+03  0.78245495626E+03  0.25500000920E-02 0. -1.
       -2   -1    0    0    0  501  0.00000000000E+00  0.00000000000E+00 -0.37732731601E+03  0.37732731602E+03  0.25500000920E-02 0.  1.
    10030    2    1    2    0    0  0.00000000000E+00  0.00000000000E+00  0.40512764025E+03  0.11597822723E+04  0.10867228323E+04 0.  0.
        5    1    3    3  502    0  0.44987810002E+03 -0.26853362007E+03  0.48946098042E+02  0.52623038728E+03  0.46999998093E+01 0.  1.
       -5    1    3    3    0  502 -0.44987810002E+03  0.26853362007E+03  0.35618154221E+03  0.63355188500E+03  0.46999998093E+01 0. -1.
</event>
<event>
 5   0  0.1122711E-04  0.2075404E+04  0.7818609E-02  0.8572156E-01
       -1   -1    0    0    0  501  0.00000000000E+00  0.00000000000E+00  0.15910015641E+04  0.15910015641E+04  0.50400001928E-02 0.  1.
        1   -1    0    0  501    0  0.00000000000E+00  0.00000000000E+00 -0.67682261821E+03  0.67682261823E+03  0.50400001928E-02 0. -1.
    10030    2    1    2    0    0  0.00000000000E+00  0.00000000000E+00  0.91417894584E+03  0.22678241823E+04  0.20754043887E+04 0.  0.
        1    1    3    3  502    0  0.28837725479E+03 -0.85511657940E+03 -0.10269609529E+03  0.90825783424E+03  0.50400001928E-02 0. -1.
       -1    1    3    3    0  502 -0.28837725479E+03  0.85511657940E+03  0.10168750411E+04  0.13595663480E+04  0.50400001928E-02 0.  1.
</event>
<event>
 5   0  0.2467483E-04  0.2041802E+04  0.7818609E-02  0.8587322E-01
       -2   -1    0    0    0  501  0.00000000000E+00  0.00000000000E+00  0.10376623181E+04  0.10376623181E+04  0.25500000920E-02 0. -1.
        2   -1    0    0  501    0  0.00000000000E+00  0.00000000000E+00 -0.10044103722E+04  0.10044103722E+04  0.25500000920E-02 0.  1.
    10030    2    1    2    0    0  0.00000000000E+00  0.00000000000E+00  0.33251945918E+02  0.20420726903E+04  0.20418019445E+04 0.  0.
        4    1    3    3  502    0 -0.89492564268E+03  0.34022566333E+03 -0.33781031730E+03  0.10152649070E+04  0.12699999809E+01 0.  1.
       -4    1    3    3    0  502  0.89492564268E+03 -0.34022566333E+03  0.37106226322E+03  0.10268077834E+04  0.12699999809E+01 0. -1.
</event>
<event>
 5   0  0.1122711E-04  0.2098733E+04  0.7818609E-02  0.8561802E-01
       -1   -1    0    0    0  501  0.00000000000E+00  0.00000000000E+00  0.10835374781E+04  0.10835374781E+04  0.50400001928E-02 0. -1.
        1   -1    0    0  501    0  0.00000000000E+00  0.00000000000E+00 -0.10162730158E+04  0.10162730159E+04  0.50400001928E-02 0.  1.
    10030    2    1    2    0    0  0.00000000000E+00  0.00000000000E+00  0.67264462222E+02  0.20998104939E+04  0.20987328564E+04 0.  0.
        1    1    3    3  502    0  0.10356427736E+04  0.92921720657E+02  0.17505366874E+03  0.10544354829E+04  0.50400001928E-02 0. -1.
       -1    1    3    3    0  502 -0.10356427736E+04 -0.92921720657E+02 -0.10778920652E+03  0.10453750110E+04  0.50400001928E-02 0.  1.
</event>
<event>
 5   0  0.1042395E-04  0.2047539E+04  0.7818609E-02  0.8584712E-01
       -1   -1    0    0    0  501  0.00000000000E+00  0.00000000000E+00  0.10099278603E+04  0.10099278603E+04  0.50400001928E-02 0.  1.
        1   -1    0    0  501    0  0.00000000000E+00  0.00000000000E+00 -0.10378006234E+04  0.10378006234E+04  0.50400001928E-02 0. -1.
    10030    2    1    2    0    0  0.00000000000E+00  0.00000000000E+00 -0.27872763054E+02  0.20477284837E+04  0.20475387792E+04 0.  0.
        3    1    3    3  502    0 -0.16462171371E+03 -0.51558269243E+03 -0.88302663721E+03  0.10356939092E+04  0.10100000352E+00 0. -1.
       -3    1    3    3    0  502  0.16462171371E+03  0.51558269243E+03  0.85515387415E+03  0.10120345745E+04  0.10100000352E+00 0.  1.
</event>
<event>
 5   0  0.1186038E-04  0.2097866E+04  0.7818609E-02  0.8562184E-01
        1   -1    0    0  501    0  0.00000000000E+00  0.00000000000E+00  0.76327542189E+03  0.76327542190E+03  0.50400001928E-02 0. -1.
       -1   -1    0    0    0  501  0.00000000000E+00  0.00000000000E+00 -0.14414988631E+04  0.14414988631E+04  0.50400001928E-02 0.  1.
    10030    2    1    2    0    0  0.00000000000E+00  0.00000000000E+00 -0.67822344120E+03  0.22047742850E+04  0.20978662044E+04 0.  0.
        4    1    3    3  502    0 -0.44465262158E+03  0.50025101521E+03 -0.11879156412E+04  0.13634926533E+04  0.12699999809E+01 0.  1.
       -4    1    3    3    0  502  0.44465262158E+03 -0.50025101521E+03  0.50969220004E+03  0.84128163166E+03  0.12699999809E+01 0. -1.
</event>
<event>
 5   0  0.2467483E-04  0.2190815E+04  0.7818609E-02  0.8522261E-01
        2   -1    0    0  501    0  0.00000000000E+00  0.00000000000E+00  0.14097273202E+04  0.14097273202E+04  0.25500000920E-02 0. -1.
       -2   -1    0    0    0  501  0.00000000000E+00  0.00000000000E+00 -0.85117023728E+03  0.85117023728E+03  0.25500000920E-02 0.  1.
    10030    2    1    2    0    0  0.00000000000E+00  0.00000000000E+00  0.55855708293E+03  0.22608975575E+04  0.21908153164E+04 0.  0.
        4    1    3    3  502    0 -0.79955954733E+03 -0.22052567631E+03  0.10177021113E+04  0.13128770864E+04  0.12699999809E+01 0. -1.
       -4    1    3    3    0  502  0.79955954733E+03  0.22052567631E+03 -0.45914502840E+03  0.94802047111E+03  0.12699999809E+01 0.  1.
</event>
<event>
 5   0  0.1186038E-04  0.2109178E+04  0.7818609E-02  0.8557211E-01
       -1   -1    0    0    0  501  0.00000000000E+00  0.00000000000E+00  0.76980917591E+03  0.76980917593E+03  0.50400001928E-02 0. -1.
        1   -1    0    0  501    0  0.00000000000E+00  0.00000000000E+00 -0.14447184289E+04  0.14447184290E+04  0.50400001928E-02 0.  1.
    10030    2    1    2    0    0  0.00000000000E+00  0.00000000000E+00 -0.67490925304E+03  0.22145276049E+04  0.21091775679E+04 0.  0.
        4    1    3    3  502    0  0.79473696379E+03  0.60000750525E+03 -0.70198491933E+03  0.12183596710E+04  0.12699999809E+01 0.  1.
       -4    1    3    3    0  502 -0.79473696379E+03 -0.60000750525E+03  0.27075666291E+02  0.99616793392E+03  0.12699999809E+01 0. -1.
</event>
<event>
 5   0  0.1042395E-04  0.2081926E+04  0.7818609E-02  0.8569247E-01
       -1   -1    0    0    0  501  0.00000000000E+00  0.00000000000E+00  0.94894439494E+03  0.94894439495E+03  0.50400001928E-02 0.  1.
        1   -1    0    0  501    0  0.00000000000E+00  0.00000000000E+00 -0.11419047398E+04  0.11419047398E+04  0.50400001928E-02 0. -1.
    10030    2    1    2    0    0  0.00000000000E+00  0.00000000000E+00 -0.19296034485E+03  0.20908491348E+04  0.20819261297E+04 0.  0.
        3    1    3    3  502    0  0.35382336987E+03 -0.77181144186E+03 -0.70132401053E+03  0.11012444128E+04  0.10100000352E+00 0. -1.
       -3    1    3    3    0  502 -0.35382336987E+03  0.77181144186E+03  0.50836366568E+03  0.98960472192E+03  0.10100000352E+00 0.  1.
</event>
<event>
 5   0  0.2430898E-04  0.2060061E+04  0.7818609E-02  0.8579044E-01
        2   -1    0    0  501    0  0.00000000000E+00  0.00000000000E+00  0.19769479462E+04  0.19769479462E+04  0.25500000920E-02 0. -1.
       -2   -1    0    0    0  501  0.00000000000E+00  0.00000000000E+00 -0.53666704671E+03  0.53666704672E+03  0.25500000920E-02 0.  1.
    10030    2    1    2    0    0  0.00000000000E+00  0.00000000000E+00  0.14402808995E+04  0.25136149929E+04  0.20600609853E+04 0.  0.
        1    1    3    3  502    0  0.19358467563E+03  0.28522473521E+03  0.19044770938E+04  0.19354227386E+04  0.50400001928E-02 0. -1.
       -1    1    3    3    0  502 -0.19358467563E+03 -0.28522473521E+03 -0.46419619427E+03  0.57819225437E+03  0.50400001928E-02 0.  1.
</event>
<event>
 5   0  0.2579241E-04  0.2084047E+04  0.7818609E-02  0.8568304E-01
        2   -1    0    0  501    0  0.00000000000E+00  0.00000000000E+00  0.13352698316E+04  0.13352698316E+04  0.25500000920E-02 0. -1.
       -2   -1    0    0    0  501  0.00000000000E+00  0.00000000000E+00 -0.81317831529E+03  0.81317831529E+03  0.25500000920E-02 0.  1.
    10030    2    1    2    0    0  0.00000000000E+00  0.00000000000E+00  0.52209151627E+03  0.21484481469E+04  0.20840465178E+04 0.  0.
        5    1    3    3  502    0 -0.58402002249E+03  0.60622521557E+02  0.11484818623E+04  0.12898787365E+04  0.46999998093E+01 0. -1.
       -5    1    3    3    0  502  0.58402002249E+03 -0.60622521557E+02 -0.62639034605E+03  0.85856941036E+03  0.46999998093E+01 0.  1.
</event>
<event>
 5   0  0.1186038E-04  0.2093332E+04  0.7818609E-02  0.8564186E-01
       -1   -1    0    0    0  501  0.00000000000E+00  0.00000000000E+00  0.17259932642E+04  0.17259932642E+04  0.50400001928E-02 0. -1.
        1   -1    0    0  501    0  0.00000000000E+00  0.00000000000E+00 -0.63471257286E+03  0.63471257288E+03  0.50400001928E-02 0.  1.
    10030    2    1    2    0    0  0.00000000000E+00  0.00000000000E+00  0.10912806914E+04  0.23607058371E+04  0.20933319140E+04 0.  0.
        4    1    3    3  502    0  0.17661661681E+03 -0.52446507357E+03  0.15475102745E+04  0.16434861440E+04  0.12699999809E+01 0. -1.
       -4    1    3    3    0  502 -0.17661661681E+03  0.52446507357E+03 -0.45622958319E+03  0.71721969312E+03  0.12699999809E+01 0.  1.
</event>
<event>
 5   0  0.2467483E-04  0.2090893E+04  0.7818609E-02  0.8565266E-01
        2   -1    0    0  501    0  0.00000000000E+00  0.00000000000E+00  0.12036303607E+04  0.12036303607E+04  0.25500000920E-02 0.  1.
       -2   -1    0    0    0  501  0.00000000000E+00  0.00000000000E+00 -0.90805161624E+03  0.90805161624E+03  0.25500000920E-02 0. -1.
    10030    2    1    2    0    0  0.00000000000E+00  0.00000000000E+00  0.29557874449E+03  0.21116819770E+04  0.20908931053E+04 0.  0.
        4    1    3    3  502    0  0.28102517862E+02  0.84895408872E+03  0.76331112596E+03  0.11419974974E+04  0.12699999809E+01 0.  1.
       -4    1    3    3    0  502 -0.28102517862E+02 -0.84895408872E+03 -0.46773238147E+03  0.96968447953E+03  0.12699999809E+01 0. -1.
</event>
<event>
 5   0  0.2448804E-04  0.2161234E+04  0.7818609E-02  0.8534739E-01
        2   -1    0    0  501    0  0.00000000000E+00  0.00000000000E+00  0.13730947340E+04  0.13730947340E+04  0.25500000920E-02 0. -1.
       -2   -1    0    0    0  501  0.00000000000E+00  0.00000000000E+00 -0.85043899261E+03  0.85043899261E+03  0.25500000920E-02 0.  1.
    10030    2    1    2    0    0  0.00000000000E+00  0.00000000000E+00  0.52265574141E+03  0.22235337266E+04  0.21612341866E+04 0.  0.
        2    1    3    3  502    0 -0.25313830677E+03  0.10459874330E+04  0.16071001215E+03  0.10881159959E+04  0.25500000920E-02 0. -1.
       -2    1    3    3    0  502  0.25313830677E+03 -0.10459874330E+04  0.36194572927E+03  0.11354177308E+04  0.25500000920E-02 0.  1.
</event>
<event>
 5   0  0.1122711E-04  0.2063645E+04  0.7818609E-02  0.8577429E-01
        1   -1    0    0  501    0  0.00000000000E+00  0.00000000000E+00  0.95037599030E+03  0.95037599031E+03  0.50400001928E-02 0. -1.
       -1   -1    0    0    0  501  0.00000000000E+00  0.00000000000E+00 -0.11202494195E+04  0.11202494195E+04  0.50400001928E-02 0.  1.
    10030    2    1    2    0    0  0.00000000000E+00  0.00000000000E+00 -0.16987342920E+03  0.20706254098E+04  0.20636454652E+04 0.  0.
        1    1    3    3  502    0 -0.66152647559E+03 -0.57632259134E+03  0.45994067890E+03  0.99061114234E+03  0.50400001928E-02 0. -1.
       -1    1    3    3    0  502  0.66152647559E+03  0.57632259134E+03 -0.62981410810E+03  0.10800142675E+04  0.50400001928E-02 0.  1.
</event>
<event>
 5   0  0.2448804E-04  0.2115342E+04  0.7818609E-02  0.8554515E-01
        2   -1    0    0  501    0  0.00000000000E+00  0.00000000000E+00  0.11425296474E+04  0.11425296474E+04  0.25500000920E-02 0. -1.
       -2   -1    0    0    0  501  0.00000000000E+00  0.00000000000E+00 -0.97911534233E+03  0.97911534234E+03  0.25500000920E-02 0.  1.
    10030    2    1    2    0    0  0.00000000000E+00  0.00000000000E+00  0.16341430506E+03  0.21216449897E+04  0.21153423428E+04 0.  0.
        2    1    3    3  502    0  0.32970549324E+03  0.81677278790E+03 -0.50556693869E+03  0.10155892028E+04  0.25500000920E-02 0.  1.
       -2    1    3    3    0  502 -0.32970549324E+03 -0.81677278790E+03  0.66898124374E+03  0.11060557869E+04  0.25500000920E-02 0. -1.
</event>
<event>
 5   0  0.1156733E-04  0.2030644E+04  0.7818609E-02  0.8592426E-01
       -1   -1    0    0    0  501  0.00000000000E+00  0.00000000000E+00  0.67658821899E+03  0.67658821900E+03  0.50400001928E-02 0. -1.
        1   -1    0    0  501    0  0.00000000000E+00  0.00000000000E+00 -0.15236429446E+04  0.15236429446E+04  0.50400001928E-02 0.  1.
    10030    2    1    2    0    0  0.00000000000E+00  0.00000000000E+00 -0.84705472565E+03  0.22002311636E+04  0.20306441011E+04 0.  0.
        2    1    3    3  502    0  0.26242720898E+03 -0.35812622400E+03  0.56583206576E+03  0.71922761278E+03  0.25500000920E-02 0. -1.
       -2    1    3    3    0  502 -0.26242720898E+03  0.35812622400E+03 -0.14128867914E+04  0.14810035509E+04  0.25500000920E-02 0.  1.
</event>
<event>
 5   0  0.1122711E-04  0.2100397E+04  0.7818609E-02  0.8561068E-01
        1   -1    0    0  501    0  0.00000000000E+00  0.00000000000E+00  0.10846724234E+04  0.10846724234E+04  0.50400001928E-02 0. -1.
       -1   -1    0    0    0  501  0.00000000000E+00  0.00000000000E+00 -0.10168205739E+04  0.10168205739E+04  0.50400001928E-02 0.  1.
    10030    2    1    2    0    0  0.00000000000E+00  0.00000000000E+00  0.67851849487E+02  0.21014929972E+04  0.21003973300E+04 0.  0.
        1    1    3    3  502    0  0.88947564681E+03  0.28672867058E+03 -0.44542417327E+03  0.10352695064E+04  0.50400001928E-02 0.  1.
       -1    1    3    3    0  502 -0.88947564681E+03 -0.28672867058E+03  0.51327602276E+03  0.10662234908E+04  0.50400001928E-02 0. -1.
</event>
<event>
 5   0  0.2430898E-04  0.1266908E+04  0.7818609E-02  0.9056227E-01
        2   -1    0    0  501    0  0.00000000000E+00  0.00000000000E+00  0.17339862087E+04  0.17339862087E+04  0.25500000920E-02 0. -1.
       -2   -1    0    0    0  501  0.00000000000E+00  0.00000000000E+00 -0.23141131630E+03  0.23141131631E+03  0.25500000920E-02 0.  1.
    10030    2    1    2    0    0  0.00000000000E+00  0.00000000000E+00  0.15025748924E+04  0.19653975250E+04  0.12669080961E+04 0.  0.
        1    1    3    3  502    0  0.23758551578E+03  0.16589614211E+03 -0.12256344683E+03  0.31462709006E+03  0.50400001928E-02 0.  1.
       -1    1    3    3    0  502 -0.23758551578E+03 -0.16589614211E+03  0.16251383392E+04  0.16507704350E+04  0.50400001928E-02 0. -1.
</event>
<event>
 5   0  0.2448804E-04  0.1616121E+04  0.7818609E-02  0.8810705E-01
       -2   -1    0    0    0  501  0.00000000000E+00  0.00000000000E+00  0.23571100561E+03  0.23571100562E+03  0.25500000920E-02 0. -1.
        2   -1    0    0  501    0  0.00000000000E+00  0.00000000000E+00 -0.27701783613E+04  0.27701783613E+04  0.25500000920E-02 0.  1.
    10030    2    1    2    0    0  0.00000000000E+00  0.00000000000E+00 -0.25344673556E+04  0.30058893669E+04  0.16161206975E+04 0.  0.
        2    1    3    3  502    0  0.61609840834E+03  0.47667044091E+03 -0.86758616802E+03  0.11659750070E+04  0.25500000920E-02 0. -1.
       -2    1    3    3    0  502 -0.61609840834E+03 -0.47667044091E+03 -0.16668811876E+04  0.18399143599E+04  0.25500000920E-02 0.  1.
</event>
<event>
 5   0  0.1122711E-04  0.2148934E+04  0.7818609E-02  0.8539989E-01
        1   -1    0    0  501    0  0.00000000000E+00  0.00000000000E+00  0.13798116530E+04  0.13798116530E+04  0.50400001928E-02 0. -1.
       -1   -1    0    0    0  501  0.00000000000E+00  0.00000000000E+00 -0.83669316454E+03  0.83669316456E+03  0.50400001928E-02 0.  1.
    10030    2    1    2    0    0  0.00000000000E+00  0.00000000000E+00  0.54311848847E+03  0.22165048176E+04  0.21489336690E+04 0.  0.
        1    1    3    3  502    0  0.74519100768E+03  0.67595013410E+03 -0.11747535405E+03  0.10129258021E+04  0.50400001928E-02 0. -1.
       -1    1    3    3    0  502 -0.74519100768E+03 -0.67595013410E+03  0.66059384252E+03  0.12035790155E+04  0.50400001928E-02 0.  1.
</event>
<event>
 5   0  0.1156733E-04  0.2116576E+04  0.7818609E-02  0.8553977E-01
       -1   -1    0    0    0  501  0.00000000000E+00  0.00000000000E+00  0.58900040272E+03  0.58900040275E+03  0.50400001928E-02 0. -1.
        1   -1    0    0  501    0  0.00000000000E+00  0.00000000000E+00 -0.19014812075E+04  0.19014812075E+04  0.50400001928E-02 0.  1.
    10030    2    1    2    0    0  0.00000000000E+00  0.00000000000E+00 -0.13124808048E+04  0.24904816103E+04  0.21165757223E+04 0.  0.
        2    1    3    3  502    0  0.23456548755E+03  0.53195826969E+03  0.38426731262E+03  0.69689449430E+03  0.25500000920E-02 0. -1.
       -2    1    3    3    0  502 -0.23456548755E+03 -0.53195826969E+03 -0.16967481174E+04  0.17935871160E+04  0.25500000920E-02 0.  1.
</event>
<event>
 5   0  0.2430898E-04  0.2077872E+04  0.7818609E-02  0.8571054E-01
        2   -1    0    0  501    0  0.00000000000E+00  0.00000000000E+00  0.26075580742E+04  0.26075580742E+04  0.25500000920E-02 0. -1.
       -2   -1    0    0    0  501  0.00000000000E+00  0.00000000000E+00 -0.41394606758E+03  0.41394606759E+03  0.25500000920E-02 0.  1.
    10030    2    1    2    0    0  0.00000000000E+00  0.00000000000E+00  0.21936120066E+04  0.30215041418E+04  0.20778723838E+04 0.  0.
        1    1    3    3  502    0 -0.20347992315E+03  0.30092948880E+03  0.25121986028E+04  0.25383270980E+04  0.50400001928E-02 0. -1.
       -1    1    3    3    0  502  0.20347992315E+03 -0.30092948880E+03 -0.31858659620E+03  0.48317704381E+03  0.50400001928E-02 0.  1.
</event>
<event>
 5   0  0.1156733E-04  0.2120263E+04  0.7818609E-02  0.8552369E-01
       -1   -1    0    0    0  501  0.00000000000E+00  0.00000000000E+00  0.90863348991E+03  0.90863348992E+03  0.50400001928E-02 0. -1.
        1   -1    0    0  501    0  0.00000000000E+00  0.00000000000E+00 -0.12368892880E+04  0.12368892880E+04  0.50400001928E-02 0.  1.
    10030    2    1    2    0    0  0.00000000000E+00  0.00000000000E+00 -0.32825579808E+03  0.21455227779E+04  0.21202632199E+04 0.  0.
        2    1    3    3  502    0 -0.17981156018E+03 -0.83714044162E+02 -0.12179465852E+04  0.12339911356E+04  0.25500000920E-02 0.  1.
       -2    1    3    3    0  502  0.17981156018E+03  0.83714044162E+02  0.88969078709E+03  0.91153164235E+03  0.25500000920E-02 0. -1.
</event>
<event>
 5   0  0.1042395E-04  0.2061219E+04  0.7818609E-02  0.8578522E-01
        1   -1    0    0  501    0  0.00000000000E+00  0.00000000000E+00  0.21304278743E+04  0.21304278743E+04  0.50400001928E-02 0.  1.
       -1   -1    0    0    0  501  0.00000000000E+00  0.00000000000E+00 -0.49856475476E+03  0.49856475479E+03  0.50400001928E-02 0. -1.
    10030    2    1    2    0    0  0.00000000000E+00  0.00000000000E+00  0.16318631195E+04  0.26289926291E+04  0.20612193000E+04 0.  0.
        3    1    3    3  502    0  0.13261406250E+03  0.55186598046E+03 -0.28126653652E+03  0.63344567623E+03  0.10100000352E+00 0. -1.
       -3    1    3    3    0  502 -0.13261406250E+03 -0.55186598046E+03  0.19131296561E+04  0.19955469529E+04  0.10100000352E+00 0.  1.
</event>
<event>
 5   0  0.2467483E-04  0.2114607E+04  0.7818609E-02  0.8554836E-01
        2   -1    0    0  501    0  0.00000000000E+00  0.00000000000E+00  0.12617033014E+04  0.12617033014E+04  0.25500000920E-02 0. -1.
       -2   -1    0    0    0  501  0.00000000000E+00  0.00000000000E+00 -0.88601745590E+03  0.88601745590E+03  0.25500000920E-02 0.  1.
    10030    2    1    2    0    0  0.00000000000E+00  0.00000000000E+00  0.37568584551E+03  0.21477207573E+04  0.21146074333E+04 0.  0.
        4    1    3    3  502    0 -0.39185665497E+03  0.37979400621E+03  0.11076145026E+04  0.12347496202E+04  0.12699999809E+01 0. -1.
       -4    1    3    3    0  502  0.39185665497E+03 -0.37979400621E+03 -0.73192865712E+03  0.91297113712E+03  0.12699999809E+01 0.  1.
</event>
<event>
 5   0  0.2467483E-04  0.2115026E+04  0.7818609E-02  0.8554653E-01
       -2   -1    0    0    0  501  0.00000000000E+00  0.00000000000E+00  0.93360025706E+03  0.93360025707E+03  0.25500000920E-02 0.  1.
        2   -1    0    0  501    0  0.00000000000E+00  0.00000000000E+00 -0.11978726374E+04  0.11978726374E+04  0.25500000920E-02 0. -1.
    10030    2    1    2    0    0  0.00000000000E+00  0.00000000000E+00 -0.26427238031E+03  0.21314728944E+04  0.21150264322E+04 0.  0.
        4    1    3    3  502    0 -0.50274384274E+03  0.21634671866E+03  0.77976206633E+03  0.95267400882E+03  0.12699999809E+01 0.  1.
       -4    1    3    3    0  502  0.50274384274E+03 -0.21634671866E+03 -0.10440344466E+04  0.11787988856E+04  0.12699999809E+01 0. -1.
</event>
<event>
 5   0  0.2467483E-04  0.2051813E+04  0.7818609E-02  0.8582772E-01
       -2   -1    0    0    0  501  0.00000000000E+00  0.00000000000E+00  0.99528607366E+03  0.99528607366E+03  0.25500000920E-02 0. -1.
        2   -1    0    0  501    0  0.00000000000E+00  0.00000000000E+00 -0.10574688242E+04  0.10574688242E+04  0.25500000920E-02 0.  1.
    10030    2    1    2    0    0  0.00000000000E+00  0.00000000000E+00 -0.62182750586E+02  0.20527548979E+04  0.20518128512E+04 0.  0.
        4    1    3    3  502    0 -0.79810726313E+03  0.64412356389E+03 -0.55841613351E+02  0.10271271916E+04  0.12699999809E+01 0.  1.
       -4    1    3    3    0  502  0.79810726313E+03 -0.64412356389E+03 -0.63411372348E+01  0.10256277063E+04  0.12699999809E+01 0. -1.
</event>
<event>
 5   0  0.2512839E-04  0.2093388E+04  0.7818609E-02  0.8564161E-01
       -2   -1    0    0    0  501  0.00000000000E+00  0.00000000000E+00  0.57130731290E+03  0.57130731291E+03  0.25500000920E-02 0. -1.
        2   -1    0    0  501    0  0.00000000000E+00  0.00000000000E+00 -0.19176520265E+04  0.19176520265E+04  0.25500000920E-02 0.  1.
    10030    2    1    2    0    0  0.00000000000E+00  0.00000000000E+00 -0.13463447136E+04  0.24889593394E+04  0.20933882835E+04 0.  0.
        3    1    3    3  502    0 -0.73300491727E+03  0.23327730197E+03 -0.15171295411E+04  0.17009986958E+04  0.10100000352E+00 0.  1.
       -3    1    3    3    0  502  0.73300491727E+03 -0.23327730197E+03  0.17078482753E+03  0.78796064361E+03  0.10100000352E+00 0. -1.
</event>
<event>
 5   0  0.1122711E-04  0.1992487E+04  0.7818609E-02  0.8610141E-01
        1   -1    0    0  501    0  0.00000000000E+00  0.00000000000E+00  0.14618978599E+04  0.14618978599E+04  0.50400001928E-02 0. -1.
       -1   -1    0    0    0  501  0.00000000000E+00  0.00000000000E+00 -0.67891271348E+03  0.67891271350E+03  0.50400001928E-02 0.  1.
    10030    2    1    2    0    0  0.00000000000E+00  0.00000000000E+00  0.78298514642E+03  0.21408105734E+04  0.19924869314E+04 0.  0.
        1    1    3    3  502    0  0.67871319674E+02  0.89487946100E+03  0.85622455999E+03  0.12403774679E+04  0.50400001928E-02 0. -1.
       -1    1    3    3    0  502 -0.67871319674E+02 -0.89487946100E+03 -0.73239413572E+02  0.90043310550E+03  0.50400001928E-02 0.  1.
</event>
<event>
 5   0  0.2448804E-04  0.1698210E+04  0.7818609E-02  0.8762386E-01
       -2   -1    0    0    0  501  0.00000000000E+00  0.00000000000E+00  0.44797264360E+03  0.44797264361E+03  0.25500000920E-02 0. -1.
        2   -1    0    0  501    0  0.00000000000E+00  0.00000000000E+00 -0.16094261745E+04  0.16094261745E+04  0.25500000920E-02 0.  1.
    10030    2    1    2    0    0  0.00000000000E+00  0.00000000000E+00 -0.11614535309E+04  0.20573988181E+04  0.16982095254E+04 0.  0.
        2    1    3    3  502    0  0.37813445295E+01  0.73053253155E+03 -0.11050279285E+04  0.13246806411E+04  0.25500000920E-02 0.  1.
       -2    1    3    3    0  502 -0.37813445295E+01 -0.73053253155E+03 -0.56425602382E+02  0.73271817695E+03  0.25500000920E-02 0. -1.
</event>
<event>
 5   0  0.2430898E-04  0.2172175E+04  0.7818609E-02  0.8530100E-01
       -2   -1    0    0    0  501  0.00000000000E+00  0.00000000000E+00  0.14305120368E+04  0.14305120368E+04  0.25500000920E-02 0.  1.
        2   -1    0    0  501    0  0.00000000000E+00  0.00000000000E+00 -0.82459009552E+03  0.82459009552E+03  0.25500000920E-02 0. -1.
    10030    2    1    2    0    0  0.00000000000E+00  0.00000000000E+00  0.60592194126E+03  0.22551021323E+04  0.21721749994E+04 0.  0.
        1    1    3    3  502    0 -0.48692595765E+02  0.29601962297E+03 -0.78072251477E+03  0.83637684757E+03  0.50400001928E-02 0. -1.
       -1    1    3    3    0  502  0.48692595765E+02 -0.29601962297E+03  0.13866444560E+04  0.14187252847E+04  0.50400001928E-02 0.  1.
</event>
<event>
 5   0  0.1156733E-04  0.2150544E+04  0.7818609E-02  0.8539299E-01
        1   -1    0    0  501    0  0.00000000000E+00  0.00000000000E+00  0.12766022273E+04  0.12766022273E+04  0.50400001928E-02 0. -1.
       -1   -1    0    0    0  501  0.00000000000E+00  0.00000000000E+00 -0.90569325786E+03  0.90569325787E+03  0.50400001928E-02 0.  1.
    10030    2    1    2    0    0  0.00000000000E+00  0.00000000000E+00  0.37090896945E+03  0.21822954852E+04  0.21505441453E+04 0.  0.
        2    1    3    3  502    0  0.63215519837E+03  0.41361039129E+03 -0.59103339209E+03  0.95917371793E+03  0.25500000920E-02 0.  1.
       -2    1    3    3    0  502 -0.63215519837E+03 -0.41361039129E+03  0.96194236154E+03  0.12231217673E+04  0.25500000920E-02 0. -1.
</event>
<event>
 5   0  0.1156733E-04  0.2041910E+04  0.7818609E-02  0.8587273E-01
       -1   -1    0    0    0  501  0.00000000000E+00  0.00000000000E+00  0.10700360731E+04  0.10700360731E+04  0.50400001928E-02 0.  1.
        1   -1    0    0  501    0  0.00000000000E+00  0.00000000000E+00 -0.97412508177E+03  0.97412508178E+03  0.50400001928E-02 0. -1.
    10030    2    1    2    0    0  0.00000000000E+00  0.00000000000E+00  0.95910991286E+02  0.20441611549E+04  0.20419098679E+04 0.  0.
        2    1    3    3  502    0 -0.21132219602E+03  0.26077418159E+03 -0.91731125540E+03  0.97679075733E+03  0.25500000920E-02 0. -1.
       -2    1    3    3    0  502  0.21132219602E+03 -0.26077418159E+03  0.10132222467E+04  0.10673703975E+04  0.25500000920E-02 0.  1.
</event>
<event>
 5   0  0.2430898E-04  0.2181350E+04  0.7818609E-02  0.8526231E-01
        2   -1    0    0  501    0  0.00000000000E+00  0.00000000000E+00  0.19647121604E+04  0.19647121604E+04  0.25500000920E-02 0. -1.
       -2   -1    0    0    0  501  0.00000000000E+00  0.00000000000E+00 -0.60546870969E+03  0.60546870969E+03  0.25500000920E-02 0.  1.
    10030    2    1    2    0    0  0.00000000000E+00  0.00000000000E+00  0.13592434507E+04  0.25701808701E+04  0.21813497992E+04 0.  0.
        1    1    3    3  502    0  0.74621805765E+03 -0.59839562843E+03  0.62130826248E+02  0.95852958081E+03  0.50400001928E-02 0.  1.
       -1    1    3    3    0  502 -0.74621805765E+03  0.59839562843E+03  0.12971126244E+04  0.16116512893E+04  0.50400001928E-02 0. -1.
</event>
<event>
 5   0  0.2467483E-04  0.2119166E+04  0.7818609E-02  0.8552847E-01
        2   -1    0    0  501    0  0.00000000000E+00  0.00000000000E+00  0.20551405880E+04  0.20551405880E+04  0.25500000920E-02 0. -1.
       -2   -1    0    0    0  501  0.00000000000E+00  0.00000000000E+00 -0.54629640059E+03  0.54629640059E+03  0.25500000920E-02 0.  1.
    10030    2    1    2    0    0  0.00000000000E+00  0.00000000000E+00  0.15088441874E+04  0.26014369886E+04  0.21191657849E+04 0.  0.
        4    1    3    3  502    0  0.58152279453E+03 -0.62505528669E+03  0.15248190991E+04  0.17475519362E+04  0.12699999809E+01 0. -1.
       -4    1    3    3    0  502 -0.58152279453E+03  0.62505528669E+03 -0.15974911659E+02  0.85388505238E+03  0.12699999809E+01 0.  1.
</event>
<event>
 5   0  0.2467483E-04  0.2135133E+04  0.7818609E-02  0.8545923E-01
       -2   -1    0    0    0  501  0.00000000000E+00  0.00000000000E+00  0.10242269971E+04  0.10242269971E+04  0.25500000920E-02 0. -1.
        2   -1    0    0  501    0  0.00000000000E+00  0.00000000000E+00 -0.11127402856E+04  0.11127402856E+04  0.25500000920E-02 0.  1.
    10030    2    1    2    0    0  0.00000000000E+00  0.00000000000E+00 -0.88513288589E+02  0.21369672827E+04  0.21351333834E+04 0.  0.
        4    1    3    3  502    0 -0.90065326343E+03  0.56536773827E+03  0.50058301197E+02  0.10645771117E+04  0.12699999809E+01 0. -1.
       -4    1    3    3    0  502  0.90065326343E+03 -0.56536773827E+03 -0.13857158979E+03  0.10723901710E+04  0.12699999809E+01 0.  1.
</event>
<event>
 5   0  0.1042395E-04  0.2109407E+04  0.7818609E-02  0.8557111E-01
        1   -1    0    0  501    0  0.00000000000E+00  0.00000000000E+00  0.19560922330E+04  0.19560922330E+04  0.50400001928E-02 0. -1.
       -1   -1    0    0    0  501  0.00000000000E+00  0.00000000000E+00 -0.56868449112E+03  0.56868449115E+03  0.50400001928E-02 0.  1.
    10030    2    1    2    0    0  0.00000000000E+00  0.00000000000E+00  0.13874077419E+04  0.25247767242E+04  0.21094068514E+04 0.  0.
        3    1    3    3  502    0  0.10274152958E+04  0.23782947214E+03  0.71278921740E+03  0.12728760845E+04  0.10100000352E+00 0.  1.
       -3    1    3    3    0  502 -0.10274152958E+04 -0.23782947214E+03  0.67461852450E+03  0.12519006397E+04  0.10100000352E+00 0. -1.
</event>
<event>
 5   0  0.1130848E-04  0.2082961E+04  0.7818609E-02  0.8568787E-01
       -1   -1    0    0    0  501  0.00000000000E+00  0.00000000000E+00  0.86955337531E+03  0.86955337533E+03  0.50400001928E-02 0. -1.
        1   -1    0    0  501    0  0.00000000000E+00  0.00000000000E+00 -0.12474007954E+04  0.12474007954E+04  0.50400001928E-02 0.  1.
    10030    2    1    2    0    0  0.00000000000E+00  0.00000000000E+00 -0.37784742006E+03  0.21169541707E+04  0.20829609425E+04 0.  0.
        5    1    3    3  502    0 -0.17286826166E+02  0.82821093564E+03  0.45258841668E+03  0.94397592828E+03  0.46999998093E+01 0. -1.
       -5    1    3    3    0  502  0.17286826166E+02 -0.82821093564E+03 -0.83043583673E+03  0.11729782424E+04  0.46999998093E+01 0.  1.
</event>
<event>
 5   0  0.2448804E-04  0.1553854E+04  0.7818609E-02  0.8849410E-01
        2   -1    0    0  501    0  0.00000000000E+00  0.00000000000E+00  0.26136139404E+03  0.26136139405E+03  0.25500000920E-02 0.  1.
       -2   -1    0    0    0  501  0.00000000000E+00  0.00000000000E+00 -0.23095043202E+04  0.23095043202E+04  0.25500000920E-02 0. -1.
    10030    2    1    2    0    0  0.00000000000E+00  0.00000000000E+00 -0.20481429262E+04  0.25708657143E+04  0.15538536208E+04 0.  0.
        2    1    3    3  502    0  0.32800956671E+03  0.30482965371E+03 -0.20745272426E+04  0.21223040956E+04  0.25500000920E-02 0. -1.
       -2    1    3    3    0  502 -0.32800956671E+03 -0.30482965371E+03  0.26384316436E+02  0.44856161872E+03  0.25500000920E-02 0.  1.
</event>
<event>
 5   0  0.1156733E-04  0.1494799E+04  0.7818609E-02  0.8887919E-01
        1   -1    0    0  501    0  0.00000000000E+00  0.00000000000E+00  0.65834075802E+03  0.65834075804E+03  0.50400001928E-02 0. -1.
       -1   -1    0    0    0  501  0.00000000000E+00  0.00000000000E+00 -0.84850604958E+03  0.84850604960E+03  0.50400001928E-02 0.  1.
    10030    2    1    2    0    0  0.00000000000E+00  0.00000000000E+00 -0.19016529157E+03  0.15068468076E+04  0.14947991382E+04 0.  0.
        2    1    3    3  502    0  0.13927906241E+03  0.50364339532E+03 -0.63375904178E+03  0.82140480271E+03  0.25500000920E-02 0.  1.
       -2    1    3    3    0  502 -0.13927906241E+03 -0.50364339532E+03  0.44359375021E+03  0.68544200492E+03  0.25500000920E-02 0. -1.
</event>
<event>
 5   0  0.1156733E-04  0.2077428E+04  0.7818609E-02  0.8571252E-01
        1   -1    0    0  501    0  0.00000000000E+00  0.00000000000E+00  0.98919248766E+03  0.98919248767E+03  0.50400001928E-02 0.  1.
       -1   -1    0    0    0  501  0.00000000000E+00  0.00000000000E+00 -0.10907144133E+04  0.10907144133E+04  0.50400001928E-02 0. -1.
    10030    2    1    2    0    0  0.00000000000E+00  0.00000000000E+00 -0.10152192568E+03  0.20799069010E+04  0.20774277401E+04 0.  0.
        2    1    3    3  502    0  0.30091302913E+03  0.14216155155E+03  0.93436852587E+03  0.99186848926E+03  0.25500000920E-02 0.  1.
       -2    1    3    3    0  502 -0.30091302913E+03 -0.14216155155E+03 -0.10358904515E+04  0.10880384118E+04  0.25500000920E-02 0. -1.
</event>
<event>
 5   0  0.1122711E-04  0.2085958E+04  0.7818609E-02  0.8567454E-01
       -1   -1    0    0    0  501  0.00000000000E+00  0.00000000000E+00  0.70277142275E+03  0.70277142277E+03  0.50400001928E-02 0. -1.
        1   -1    0    0  501    0  0.00000000000E+00  0.00000000000E+00 -0.15478785279E+04  0.15478785279E+04  0.50400001928E-02 0.  1.
    10030    2    1    2    0    0  0.00000000000E+00  0.00000000000E+00 -0.84510710514E+03  0.22506499507E+04  0.20859576173E+04 0.  0.
        1    1    3    3  502    0 -0.69211197709E+03 -0.68111998605E+03 -0.11896988753E+02  0.97112561628E+03  0.50400001928E-02 0. -1.
       -1    1    3    3    0  502  0.69211197709E+03  0.68111998605E+03 -0.83321011639E+03  0.12795243344E+04  0.50400001928E-02 0.  1.
</event>
<event>
 5   0  0.2448804E-04  0.1080206E+04  0.7818609E-02  0.9224702E-01
        2   -1    0    0  501    0  0.00000000000E+00  0.00000000000E+00  0.81061580574E+03  0.81061580575E+03  0.25500000920E-02 0. -1.
       -2   -1    0    0    0  501  0.00000000000E+00  0.00000000000E+00 -0.35986388630E+03  0.35986388631E+03  0.25500000920E-02 0.  1.
    10030    2    1    2    0    0  0.00000000000E+00  0.00000000000E+00  0.45075191945E+03  0.11704796921E+04  0.10802061917E+04 0.  0.
        2    1    3    3  502    0 -0.30229887413E+03 -0.37953473722E+03  0.48243611133E+03  0.68423375214E+03  0.25500000920E-02 0. -1.
       -2    1    3    3    0  502  0.30229887413E+03  0.37953473722E+03 -0.31684191882E+02  0.48624593991E+03  0.25500000920E-02 0.  1.
</event>
<event>
 5   0  0.2467483E-04  0.2023085E+04  0.7818609E-02  0.8595903E-01
       -2   -1    0    0    0  501  0.00000000000E+00  0.00000000000E+00  0.87638036581E+03  0.87638036582E+03  0.25500000920E-02 0.  1.
        2   -1    0    0  501    0  0.00000000000E+00  0.00000000000E+00 -0.11675499078E+04  0.11675499078E+04  0.25500000920E-02 0. -1.
    10030    2    1    2    0    0  0.00000000000E+00  0.00000000000E+00 -0.29116954202E+03  0.20439302736E+04  0.20230845907E+04 0.  0.
        4    1    3    3  502    0  0.70887214470E+03  0.12709763073E+03  0.57206011637E+03  0.91973252357E+03  0.12699999809E+01 0.  1.
       -4    1    3    3    0  502 -0.70887214470E+03 -0.12709763073E+03 -0.86322965839E+03  0.11241977501E+04  0.12699999809E+01 0. -1.
</event>
<event>
 5   0  0.1042395E-04  0.1335203E+04  0.7818609E-02  0.9002105E-01
        1   -1    0    0  501    0  0.00000000000E+00  0.00000000000E+00  0.87006980778E+03  0.87006980780E+03  0.50400001928E-02 0. -1.
       -1   -1    0    0    0  501  0.00000000000E+00  0.00000000000E+00 -0.51224830673E+03  0.51224830676E+03  0.50400001928E-02 0.  1.
    10030    2    1    2    0    0  0.00000000000E+00  0.00000000000E+00  0.35782150105E+03  0.13823181146E+04  0.13352030345E+04 0.  0.
        3    1    3    3  502    0  0.44476300708E+03  0.11605631938E+03 -0.32233122723E+03  0.56140950471E+03  0.10100000352E+00 0.  1.
       -3    1    3    3    0  502 -0.44476300708E+03 -0.11605631938E+03  0.68015272828E+03  0.82090860985E+03  0.10100000352E+00 0. -1.
</event>
<event>
 5   0  0.2430898E-04  0.2060213E+04  0.7818609E-02  0.8578975E-01
        2   -1    0    0  501    0  0.00000000000E+00  0.00000000000E+00  0.12506297096E+04  0.12506297097E+04  0.25500000920E-02 0.  1.
       -2   -1    0    0    0  501  0.00000000000E+00  0.00000000000E+00 -0.84846804817E+03  0.84846804817E+03  0.25500000920E-02 0. -1.
    10030    2    1    2    0    0  0.00000000000E+00  0.00000000000E+00  0.40216166148E+03  0.20990977578E+04  0.20602129489E+04 0.  0.
        1    1    3    3  502    0 -0.34600694559E+03  0.83801982883E+03 -0.29714895996E+03  0.95409409617E+03  0.50400001928E-02 0. -1.
       -1    1    3    3    0  502  0.34600694559E+03 -0.83801982883E+03  0.69931062144E+03  0.11450036617E+04  0.50400001928E-02 0.  1.
</event>
<event>
 5   0  0.1156733E-04  0.2107770E+04  0.7818609E-02  0.8557828E-01
        1   -1    0    0  501    0  0.00000000000E+00  0.00000000000E+00  0.13040358336E+04  0.13040358336E+04  0.50400001928E-02 0. -1.
       -1   -1    0    0    0  501  0.00000000000E+00  0.00000000000E+00 -0.85171989760E+03  0.85171989762E+03  0.50400001928E-02 0.  1.
    10030    2    1    2    0    0  0.00000000000E+00  0.00000000000E+00  0.45231593598E+03  0.21557557312E+04  0.21077696901E+04 0.  0.
        2    1    3    3  502    0  0.11547356649E+03 -0.37014574354E+03 -0.77611709526E+03  0.86758271167E+03  0.25500000920E-02 0.  1.
       -2    1    3    3    0  502 -0.11547356649E+03  0.37014574354E+03  0.12284330312E+04  0.12881730195E+04  0.25500000920E-02 0. -1.
</event>
<event>
 5   0  0.1122711E-04  0.2094596E+04  0.7818609E-02  0.8563628E-01
       -1   -1    0    0    0  501  0.00000000000E+00  0.00000000000E+00  0.11603384032E+04  0.11603384032E+04  0.50400001928E-02 0. -1.
        1   -1    0    0  501    0  0.00000000000E+00  0.00000000000E+00 -0.94526972716E+03  0.94526972717E+03  0.50400001928E-02 0.  1.
    10030    2    1    2    0    0  0.00000000000E+00  0.00000000000E+00  0.21506867600E+03  0.21056081303E+04  0.20945956801E+04 0.  0.
        1    1    3    3  502    0 -0.57172288698E+03  0.74669196639E+03  0.57084446200E+03  0.11001269708E+04  0.50400001928E-02 0. -1.
       -1    1    3    3    0  502  0.57172288698E+03 -0.74669196639E+03 -0.35577578600E+03  0.10054811595E+04  0.50400001928E-02 0.  1.
</event>
<event>
 5   0  0.1042395E-04  0.2075208E+04  0.7818609E-02  0.8572244E-01
       -1   -1    0    0    0  501  0.00000000000E+00  0.00000000000E+00  0.64737725214E+03  0.64737725216E+03  0.50400001928E-02 0. -1.
        1   -1    0    0  501    0  0.00000000000E+00  0.00000000000E+00 -0.16630514345E+04  0.16630514345E+04  0.50400001928E-02 0.  1.
    10030    2    1    2    0    0  0.00000000000E+00  0.00000000000E+00 -0.10156741824E+04  0.23104286867E+04  0.20752076213E+04 0.  0.
        3    1    3    3  502    0  0.39937127784E+03 -0.87041973472E+03 -0.63202940918E+02  0.95975129804E+03  0.10100000352E+00 0. -1.
       -3    1    3    3    0  502 -0.39937127784E+03  0.87041973472E+03 -0.95247124145E+03  0.13506773886E+04  0.10100000352E+00 0.  1.
</event>
<event>
 5   0  0.1122711E-04  0.2047988E+04  0.7818609E-02  0.8584508E-01
       -1   -1    0    0    0  501  0.00000000000E+00  0.00000000000E+00  0.83076652800E+03  0.83076652801E+03  0.50400001928E-02 0.  1.
        1   -1    0    0  501    0  0.00000000000E+00  0.00000000000E+00 -0.12621642985E+04  0.12621642986E+04  0.50400001928E-02 0. -1.
    10030    2    1    2    0    0  0.00000000000E+00  0.00000000000E+00 -0.43139777055E+03  0.20929308266E+04  0.20479881368E+04 0.  0.
        1    1    3    3  502    0  0.72790824039E+03  0.60248538482E+03  0.18758079336E+03  0.96334085319E+03  0.50400001928E-02 0.  1.
       -1    1    3    3    0  502 -0.72790824039E+03 -0.60248538482E+03 -0.61897856391E+03  0.11295899734E+04  0.50400001928E-02 0. -1.
</event>
<event>
 5   0  0.1122711E-04  0.1980630E+04  0.7818609E-02  0.8615731E-01
       -1   -1    0    0    0  501  0.00000000000E+00  0.00000000000E+00  0.61536595962E+03  0.61536595964E+03  0.50400001928E-02 0. -1.
        1   -1    0    0  501    0  0.00000000000E+00  0.00000000000E+00 -0.15937250380E+04  0.15937250380E+04  0.50400001928E-02 0.  1.
    10030    2    1    2    0    0  0.00000000000E+00  0.00000000000E+00 -0.97835907833E+03  0.22090909976E+04  0.19806303415E+04 0.  0.
        1    1    3    3  502    0 -0.20869698751E+03  0.95924015454E+03 -0.34363618144E+03  0.10400874636E+04  0.50400001928E-02 0. -1.
       -1    1    3    3    0  502  0.20869698751E+03 -0.95924015454E+03 -0.63472289689E+03  0.11690035340E+04  0.50400001928E-02 0.  1.
</event>
<event>
 5   0  0.1156733E-04  0.2103111E+04  0.7818609E-02  0.8559874E-01
        1   -1    0    0  501    0  0.00000000000E+00  0.00000000000E+00  0.17097419499E+04  0.17097419499E+04  0.50400001928E-02 0. -1.
       -1   -1    0    0    0  501  0.00000000000E+00  0.00000000000E+00 -0.64674614111E+03  0.64674614113E+03  0.50400001928E-02 0.  1.
    10030    2    1    2    0    0  0.00000000000E+00  0.00000000000E+00  0.10629958087E+04  0.23564880910E+04  0.21031110369E+04 0.  0.
        2    1    3    3  502    0 -0.68268551233E+03 -0.79820087350E+03  0.47453108189E+03  0.11525466979E+04  0.25500000920E-02 0.  1.
       -2    1    3    3    0  502  0.68268551233E+03  0.79820087350E+03  0.58846472684E+03  0.12039413931E+04  0.25500000920E-02 0. -1.
</event>
<event>
 5   0  0.1122711E-04  0.2095933E+04  0.7818609E-02  0.8563037E-01
       -1   -1    0    0    0  501  0.00000000000E+00  0.00000000000E+00  0.16778805700E+04  0.16778805700E+04  0.50400001928E-02 0. -1.
        1   -1    0    0  501    0  0.00000000000E+00  0.00000000000E+00 -0.65453612709E+03  0.65453612710E+03  0.50400001928E-02 0.  1.
    10030    2    1    2    0    0  0.00000000000E+00  0.00000000000E+00  0.10233444429E+04  0.23324166971E+04  0.20959326802E+04 0.  0.
        1    1    3    3  502    0  0.63723212207E+03  0.82661054208E+03  0.40678432615E+03  0.11201889366E+04  0.50400001928E-02 0. -1.
       -1    1    3    3    0  502 -0.63723212207E+03 -0.82661054208E+03  0.61656011674E+03  0.12122277605E+04  0.50400001928E-02 0.  1.
</event>
<event>
 5   0  0.2448804E-04  0.2091524E+04  0.7818609E-02  0.8564986E-01
        2   -1    0    0  501    0  0.00000000000E+00  0.00000000000E+00  0.16030170381E+04  0.16030170381E+04  0.25500000920E-02 0.  1.
       -2   -1    0    0    0  501  0.00000000000E+00  0.00000000000E+00 -0.68222521188E+03  0.68222521188E+03  0.25500000920E-02 0. -1.
    10030    2    1    2    0    0  0.00000000000E+00  0.00000000000E+00  0.92079182627E+03  0.22852422500E+04  0.20915244569E+04 0.  0.
        2    1    3    3  502    0  0.41143175395E+03  0.86850153555E+03  0.91095794656E+03  0.13241659208E+04  0.25500000920E-02 0.  1.
       -2    1    3    3    0  502 -0.41143175395E+03 -0.86850153555E+03  0.98338797027E+01  0.96107632923E+03  0.25500000920E-02 0. -1.
</event>
<event>
 5   0  0.1156733E-04  0.1703603E+04  0.7818609E-02  0.8759312E-01
        1   -1    0    0  501    0  0.00000000000E+00  0.00000000000E+00  0.18048215832E+04  0.18048215832E+04  0.50400001928E-02 0. -1.
       -1   -1    0    0    0  501  0.00000000000E+00  0.00000000000E+00 -0.40201503731E+03  0.40201503734E+03  0.50400001928E-02 0.  1.
    10030    2    1    2    0    0  0.00000000000E+00  0.00000000000E+00  0.14028065459E+04  0.22068366206E+04  0.17036025548E+04 0.  0.
        2    1    3    3  502    0  0.36864296446E+03 -0.18524010616E+03 -0.26395118435E+03  0.48977725539E+03  0.25500000920E-02 0.  1.
       -2    1    3    3    0  502 -0.36864296446E+03  0.18524010616E+03  0.16667577303E+04  0.17170593652E+04  0.25500000920E-02 0. -1.
</event>
<event>
 5   0  0.1130848E-04  0.2130830E+04  0.7818609E-02  0.8547783E-01
       -1   -1    0    0    0  501  0.00000000000E+00  0.00000000000E+00  0.88047511079E+03  0.88047511081E+03  0.50400001928E-02 0. -1.
        1   -1    0    0  501    0  0.00000000000E+00  0.00000000000E+00 -0.12892002725E+04  0.12892002725E+04  0.50400001928E-02 0.  1.
    10030    2    1    2    0    0  0.00000000000E+00  0.00000000000E+00 -0.40872516171E+03  0.21696753833E+04  0.21308296533E+04 0.  0.
        5    1    3    3  502    0  0.18730688933E+03 -0.60565174742E+03 -0.10762369823E+04  0.12490820798E+04  0.46999998093E+01 0.  1.
       -5    1    3    3    0  502 -0.18730688933E+03  0.60565174742E+03  0.66751182058E+03  0.92059330356E+03  0.46999998093E+01 0. -1.
</event>
<event>
 5   0  0.2430898E-04  0.1366743E+04  0.7818609E-02  0.8978250E-01
        2   -1    0    0  501    0  0.00000000000E+00  0.00000000000E+00  0.19647621123E+04  0.19647621123E+04  0.25500000920E-02 0.  1.
       -2   -1    0    0    0  501  0.00000000000E+00  0.00000000000E+00 -0.23768611614E+03  0.23768611615E+03  0.25500000920E-02 0. -1.
    10030    2    1    2    0    0  0.00000000000E+00  0.00000000000E+00  0.17270759962E+04  0.22024482285E+04  0.13667431004E+04 0.  0.
        1    1    3    3  502    0  0.17995679308E+03 -0.63407020980E+03  0.11543477800E+04  0.13292660665E+04  0.50400001928E-02 0. -1.
       -1    1    3    3    0  502 -0.17995679308E+03  0.63407020980E+03  0.57272821616E+03  0.87318216195E+03  0.50400001928E-02 0.  1.
</event>
<event>
 5   0  0.2430898E-04  0.2105660E+04  0.7818609E-02  0.8558754E-01
       -2   -1    0    0    0  501  0.00000000000E+00  0.00000000000E+00  0.66636230394E+03  0.66636230395E+03  0.25500000920E-02 0.  1.
        2   -1    0    0  501    0  0.00000000000E+00  0.00000000000E+00 -0.16634358346E+04  0.16634358346E+04  0.25500000920E-02 0. -1.
    10030    2    1    2    0    0  0.00000000000E+00  0.00000000000E+00 -0.99707353068E+03  0.23297981386E+04  0.21056599300E+04 0.  0.
        1    1    3    3  502    0  0.16920184726E+03 -0.10388878005E+04 -0.47297313157E+03  0.11539587126E+04  0.50400001928E-02 0. -1.
       -1    1    3    3    0  502 -0.16920184726E+03  0.10388878005E+04 -0.52410039911E+03  0.11758394259E+04  0.50400001928E-02 0.  1.
</event>
<event>
 5   0  0.2448804E-04  0.2124166E+04  0.7818609E-02  0.8550672E-01
       -2   -1    0    0    0  501  0.00000000000E+00  0.00000000000E+00  0.90174698969E+03  0.90174698969E+03  0.25500000920E-02 0.  1.
        2   -1    0    0  501    0  0.00000000000E+00  0.00000000000E+00 -0.12509282295E+04  0.12509282295E+04  0.25500000920E-02 0. -1.
    10030    2    1    2    0    0  0.00000000000E+00  0.00000000000E+00 -0.34918123976E+03  0.21526752192E+04  0.21241664391E+04 0.  0.
        2    1    3    3  502    0  0.68532972490E+03 -0.21594902650E+03 -0.96720644917E+03  0.12049062740E+04  0.25500000920E-02 0. -1.
       -2    1    3    3    0  502 -0.68532972490E+03  0.21594902650E+03  0.61802520940E+03  0.94776894512E+03  0.25500000920E-02 0.  1.
</event>
<event>
 5   0  0.2579241E-04  0.2074142E+04  0.7818609E-02  0.8572720E-01
       -2   -1    0    0    0  501  0.00000000000E+00  0.00000000000E+00  0.68617830312E+03  0.68617830312E+03  0.25500000920E-02 0. -1.
        2   -1    0    0  501    0  0.00000000000E+00  0.00000000000E+00 -0.15674010419E+04  0.15674010419E+04  0.25500000920E-02 0.  1.
    10030    2    1    2    0    0  0.00000000000E+00  0.00000000000E+00 -0.88122273879E+03  0.22535793450E+04  0.20741423165E+04 0.  0.
        5    1    3    3  502    0 -0.31880324376E+03  0.90948527511E+03 -0.24468236912E+02  0.96406418795E+03  0.46999998093E+01 0.  1.
       -5    1    3    3    0  502  0.31880324376E+03 -0.90948527511E+03 -0.85675450187E+03  0.12895151571E+04  0.46999998093E+01 0. -1.
</event>
<event>
 5   0  0.1186038E-04  0.1153275E+04  0.7818609E-02  0.9154768E-01
        1   -1    0    0  501    0  0.00000000000E+00  0.00000000000E+00  0.18913964113E+04  0.18913964113E+04  0.50400001928E-02 0. -1.
       -1   -1    0    0    0  501  0.00000000000E+00  0.00000000000E+00 -0.17580165022E+03  0.17580165030E+03  0.50400001928E-02 0.  1.
    10030    2    1    2    0    0  0.00000000000E+00  0.00000000000E+00  0.17155947611E+04  0.20671980616E+04  0.11532746601E+04 0.  0.
        4    1    3    3  502    0  0.24672274570E+03  0.41986600599E+03  0.14112855851E+04  0.14929461450E+04  0.12699999809E+01 0. -1.
       -4    1    3    3    0  502 -0.24672274570E+03 -0.41986600599E+03  0.30430917593E+03  0.57425191657E+03  0.12699999809E+01 0.  1.
</event>
<event>
 5   0  0.2430898E-04  0.2141913E+04  0.7818609E-02  0.8543002E-01
        2   -1    0    0  501    0  0.00000000000E+00  0.00000000000E+00  0.15328852577E+04  0.15328852577E+04  0.25500000920E-02 0. -1.
       -2   -1    0    0    0  501  0.00000000000E+00  0.00000000000E+00 -0.74822817779E+03  0.74822817779E+03  0.25500000920E-02 0.  1.
    10030    2    1    2    0    0  0.00000000000E+00  0.00000000000E+00  0.78465707993E+03  0.22811134355E+04  0.21419131104E+04 0.  0.
        1    1    3    3  502    0 -0.14265473256E+03  0.17809534051E+03  0.15066954799E+04  0.15238765016E+04  0.50400001928E-02 0. -1.
       -1    1    3    3    0  502  0.14265473256E+03 -0.17809534051E+03 -0.72203839995E+03  0.75723693390E+03  0.50400001928E-02 0.  1.
</event>
<event>
 5   0  0.1122711E-04  0.2087226E+04  0.7818609E-02  0.8566891E-01
       -1   -1    0    0    0  501  0.00000000000E+00  0.00000000000E+00  0.50591272687E+03  0.50591272689E+03  0.50400001928E-02 0.  1.
        1   -1    0    0  501    0  0.00000000000E+00  0.00000000000E+00 -0.21527988074E+04  0.21527988074E+04  0.50400001928E-02 0. -1.
    10030    2    1    2    0    0  0.00000000000E+00  0.00000000000E+00 -0.16468860805E+04  0.26587115343E+04  0.20872262121E+04 0.  0.
        1    1    3    3  502    0  0.85266238233E+03 -0.51847376187E+03 -0.43440122530E+03  0.10883715379E+04  0.50400001928E-02 0.  1.
       -1    1    3    3    0  502 -0.85266238233E+03  0.51847376187E+03 -0.12124848552E+04  0.15703399963E+04  0.50400001928E-02 0. -1.
</event>
<event>
 5   0  0.1156733E-04  0.1114310E+04  0.7818609E-02  0.9191356E-01
       -1   -1    0    0    0  501  0.00000000000E+00  0.00000000000E+00  0.21215376934E+03  0.21215376940E+03  0.50400001928E-02 0. -1.
        1   -1    0    0  501    0  0.00000000000E+00  0.00000000000E+00 -0.14631917003E+04  0.14631917003E+04  0.50400001928E-02 0.  1.
    10030    2    1    2    0    0  0.00000000000E+00  0.00000000000E+00 -0.12510379310E+04  0.16753454697E+04  0.11143098933E+04 0.  0.
        2    1    3    3  502    0 -0.28358396488E+03 -0.44905514545E+03 -0.87867277236E+03  0.10267113663E+04  0.25500000920E-02 0. -1.
       -2    1    3    3    0  502  0.28358396488E+03  0.44905514545E+03 -0.37236515864E+03  0.64863410345E+03  0.25500000920E-02 0.  1.
</event>
<event>
 5   0  0.1042395E-04  0.2109432E+04  0.7818609E-02  0.8557100E-01
        1   -1    0    0  501    0  0.00000000000E+00  0.00000000000E+00  0.83407996334E+03  0.83407996335E+03  0.50400001928E-02 0.  1.
       -1   -1    0    0    0  501  0.00000000000E+00  0.00000000000E+00 -0.13337160494E+04  0.13337160494E+04  0.50400001928E-02 0. -1.
    10030    2    1    2    0    0  0.00000000000E+00  0.00000000000E+00 -0.49963608608E+03  0.21677960128E+04  0.21094319933E+04 0.  0.
        3    1    3    3  502    0 -0.33507787443E+03 -0.31085832205E+03  0.72701591146E+03  0.85875620758E+03  0.10100000352E+00 0.  1.
       -3    1    3    3    0  502  0.33507787443E+03  0.31085832205E+03 -0.12266519975E+04  0.13090398052E+04  0.10100000352E+00 0. -1.
</event>
<event>
 5   0  0.1130848E-04  0.2126292E+04  0.7818609E-02  0.8549749E-01
        1   -1    0    0  501    0  0.00000000000E+00  0.00000000000E+00  0.16308870943E+04  0.16308870944E+04  0.50400001928E-02 0.  1.
       -1   -1    0    0    0  501  0.00000000000E+00  0.00000000000E+00 -0.69304585695E+03  0.69304585697E+03  0.50400001928E-02 0. -1.
    10030    2    1    2    0    0  0.00000000000E+00  0.00000000000E+00  0.93784123740E+03  0.23239329513E+04  0.21262921191E+04 0.  0.
        5    1    3    3  502    0 -0.34633574482E+03  0.35976292712E+03 -0.55687053860E+03  0.74800046700E+03  0.46999998093E+01 0. -1.
       -5    1    3    3    0  502  0.34633574482E+03 -0.35976292712E+03  0.14947117760E+04  0.15759324843E+04  0.46999998093E+01 0.  1.
</event>
<event>
 5   0  0.1156733E-04  0.1948081E+04  0.7818609E-02  0.8631287E-01
       -1   -1    0    0    0  501  0.00000000000E+00  0.00000000000E+00  0.47833196518E+03  0.47833196521E+03  0.50400001928E-02 0.  1.
        1   -1    0    0  501    0  0.00000000000E+00  0.00000000000E+00 -0.19834660208E+04  0.19834660208E+04  0.50400001928E-02 0. -1.
    10030    2    1    2    0    0  0.00000000000E+00  0.00000000000E+00 -0.15051340556E+04  0.24617979860E+04  0.19480813121E+04 0.  0.
        2    1    3    3  502    0  0.37099587546E+03 -0.90122861909E+02 -0.18849720518E+04  0.19232471776E+04  0.25500000920E-02 0. -1.
       -2    1    3    3    0  502 -0.37099587546E+03  0.90122861909E+02  0.37983799624E+03  0.53855080841E+03  0.25500000920E-02 0.  1.
</event>
<event>
 5   0  0.2430898E-04  0.2108736E+04  0.7818609E-02  0.8557405E-01
       -2   -1    0    0    0  501  0.00000000000E+00  0.00000000000E+00  0.55134944819E+03  0.55134944819E+03  0.25500000920E-02 0. -1.
        2   -1    0    0  501    0  0.00000000000E+00  0.00000000000E+00 -0.20163099179E+04  0.20163099179E+04  0.25500000920E-02 0.  1.
    10030    2    1    2    0    0  0.00000000000E+00  0.00000000000E+00 -0.14649604697E+04  0.25676593661E+04  0.21087355080E+04 0.  0.
        1    1    3    3  502    0  0.83894249944E+03  0.42255132070E+03 -0.13155676067E+04  0.16165061905E+04  0.50400001928E-02 0.  1.
       -1    1    3    3    0  502 -0.83894249944E+03 -0.42255132070E+03 -0.14939286302E+03  0.95115317564E+03  0.50400001928E-02 0. -1.
</event>
<event>
 5   0  0.2512839E-04  0.1509948E+04  0.7818609E-02  0.8877864E-01
       -2   -1    0    0    0  501  0.00000000000E+00  0.00000000000E+00  0.29318491890E+03  0.29318491891E+03  0.25500000920E-02 0.  1.
        2   -1    0    0  501    0  0.00000000000E+00  0.00000000000E+00 -0.19441176898E+04  0.19441176898E+04  0.25500000920E-02 0. -1.
    10030    2    1    2    0    0  0.00000000000E+00  0.00000000000E+00 -0.16509327709E+04  0.22373026087E+04  0.15099483266E+04 0.  0.
        3    1    3    3  502    0  0.66690077392E+03 -0.16132388522E+03 -0.12921548882E+04  0.14630264193E+04  0.10100000352E+00 0. -1.
       -3    1    3    3    0  502 -0.66690077392E+03  0.16132388522E+03 -0.35877788270E+03  0.77427618943E+03  0.10100000352E+00 0.  1.
</event>
<event>
 5   0  0.1122711E-04  0.2098285E+04  0.7818609E-02  0.8561999E-01
        1   -1    0    0  501    0  0.00000000000E+00  0.00000000000E+00  0.15794978276E+04  0.15794978276E+04  0.50400001928E-02 0. -1.
       -1   -1    0    0    0  501  0.00000000000E+00  0.00000000000E+00 -0.69686732293E+03  0.69686732295E+03  0.50400001928E-02 0.  1.
    10030    2    1    2    0    0  0.00000000000E+00  0.00000000000E+00  0.88263050466E+03  0.22763651505E+04  0.20982854169E+04 0.  0.
        1    1    3    3  502    0  0.36530439552E+03 -0.29321494849E+03 -0.57712102016E+03  0.74329736938E+03  0.50400001928E-02 0.  1.
       -1    1    3    3    0  502 -0.36530439552E+03  0.29321494849E+03  0.14597515248E+04  0.15330677812E+04  0.50400001928E-02 0. -1.
</event>
<event>
 5   0  0.1156733E-04  0.2095124E+04  0.7818609E-02  0.8563394E-01
       -1   -1    0    0    0  501  0.00000000000E+00  0.00000000000E+00  0.52609546969E+03  0.52609546971E+03  0.50400001928E-02 0. -1.
        1   -1    0    0  501    0  0.00000000000E+00  0.00000000000E+00 -0.20859071803E+04  0.20859071803E+04  0.50400001928E-02 0.  1.
    10030    2    1    2    0    0  0.00000000000E+00  0.00000000000E+00 -0.15598117106E+04  0.26120026500E+04  0.20951241660E+04 0.  0.
        2    1    3    3  502    0  0.41739650875E+03 -0.46226142803E+03 -0.18300143801E+04  0.19330954722E+04  0.25500000920E-02 0.  1.
       -2    1    3    3    0  502 -0.41739650875E+03  0.46226142803E+03  0.27020266953E+03  0.67890717774E+03  0.25500000920E-02 0. -1.
</event>
<event>
 5   0  0.1122711E-04  0.1732598E+04  0.7818609E-02  0.8742988E-01
        1   -1    0    0  501    0  0.00000000000E+00  0.00000000000E+00  0.69785111586E+03  0.69785111588E+03  0.50400001928E-02 0. -1.
       -1   -1    0    0    0  501  0.00000000000E+00  0.00000000000E+00 -0.10754071873E+04  0.10754071873E+04  0.50400001928E-02 0.  1.
    10030    2    1    2    0    0  0.00000000000E+00  0.00000000000E+00 -0.37755607146E+03  0.17732583032E+04  0.17325981712E+04 0.  0.
        1    1    3    3  502    0 -0.59798006782E+03 -0.29387809940E+03  0.37786605561E+03  0.76598123660E+03  0.50400001928E-02 0. -1.
       -1    1    3    3    0  502  0.59798006782E+03  0.29387809940E+03 -0.75542212708E+03  0.10072770666E+04  0.50400001928E-02 0.  1.
</event>
<event>
 5   0  0.1186038E-04  0.2092591E+04  0.7818609E-02  0.8564514E-01
        1   -1    0    0  501    0  0.00000000000E+00  0.00000000000E+00  0.15367060206E+04  0.15367060206E+04  0.50400001928E-02 0.  1.
       -1   -1    0    0    0  501  0.00000000000E+00  0.00000000000E+00 -0.71239041007E+03  0.71239041009E+03  0.50400001928E-02 0. -1.
    10030    2    1    2    0    0  0.00000000000E+00  0.00000000000E+00  0.82431561054E+03  0.22490964307E+04  0.20925913430E+04 0.  0.
        4    1    3    3  502    0  0.60535302980E+01 -0.10022895962E+03 -0.70719906293E+03  0.71429308906E+03  0.12699999809E+01 0. -1.
       -4    1    3    3    0  502 -0.60535302980E+01  0.10022895962E+03  0.15315146735E+04  0.15348033416E+04  0.12699999809E+01 0.  1.
</event>
<event>
 5   0  0.1042395E-04  0.1189850E+04  0.7818609E-02  0.9121788E-01
        1   -1    0    0  501    0  0.00000000000E+00  0.00000000000E+00  0.86407780815E+03  0.86407780817E+03  0.50400001928E-02 0.  1.
       -1   -1    0    0    0  501  0.00000000000E+00  0.00000000000E+00 -0.40961077236E+03  0.40961077239E+03  0.50400001928E-02 0. -1.
    10030    2    1    2    0    0  0.00000000000E+00  0.00000000000E+00  0.45446703580E+03  0.12736885806E+04  0.11898497021E+04 0.  0.
        3    1    3    3  502    0 -0.60959776028E+02  0.51124168364E+03 -0.91849229425E+02  0.52299182072E+03  0.10100000352E+00 0. -1.
       -3    1    3    3    0  502  0.60959776028E+02 -0.51124168364E+03  0.54631626522E+03  0.75069675984E+03  0.10100000352E+00 0.  1.
</event>
<event>
 5   0  0.2430898E-04  0.2104469E+04  0.7818609E-02  0.8559277E-01
       -2   -1    0    0    0  501  0.00000000000E+00  0.00000000000E+00  0.92508991299E+03  0.92508991299E+03  0.25500000920E-02 0. -1.
        2   -1    0    0  501    0  0.00000000000E+00  0.00000000000E+00 -0.11968535134E+04  0.11968535134E+04  0.25500000920E-02 0.  1.
    10030    2    1    2    0    0  0.00000000000E+00  0.00000000000E+00 -0.27176360038E+03  0.21219434264E+04  0.21044686860E+04 0.  0.
        1    1    3    3  502    0 -0.55680299386E+03  0.79965822894E+03  0.26454838498E+03  0.10096874294E+04  0.50400001928E-02 0. -1.
       -1    1    3    3    0  502  0.55680299386E+03 -0.79965822894E+03 -0.53631198536E+03  0.11122559970E+04  0.50400001928E-02 0.  1.
</event>
<event>
 5   0  0.1130848E-04  0.2138603E+04  0.7818609E-02  0.8544427E-01
        1   -1    0    0  501    0  0.00000000000E+00  0.00000000000E+00  0.12243442629E+04  0.12243442629E+04  0.50400001928E-02 0.  1.
       -1   -1    0    0    0  501  0.00000000000E+00  0.00000000000E+00 -0.93389200071E+03  0.93389200072E+03  0.50400001928E-02 0. -1.
    10030    2    1    2    0    0  0.00000000000E+00  0.00000000000E+00  0.29045226221E+03  0.21582362637E+04  0.21386026403E+04 0.  0.
        5    1    3    3  502    0  0.67256354057E+03  0.32193639456E+03 -0.62822929483E+03  0.97502763814E+03  0.46999998093E+01 0. -1.
       -5    1    3    3    0  502 -0.67256354057E+03 -0.32193639456E+03  0.91868155704E+03  0.11832086255E+04  0.46999998093E+01 0.  1.
</event>
<event>
 5   0  0.2448804E-04  0.2099585E+04  0.7818609E-02  0.8561426E-01
        2   -1    0    0  501    0  0.00000000000E+00  0.00000000000E+00  0.22734197990E+04  0.22734197990E+04  0.25500000920E-02 0. -1.
       -2   -1    0    0    0  501  0.00000000000E+00  0.00000000000E+00 -0.48476050517E+03  0.48476050518E+03  0.25500000920E-02 0.  1.
    10030    2    1    2    0    0  0.00000000000E+00  0.00000000000E+00  0.17886592938E+04  0.27581803042E+04  0.20995848449E+04 0.  0.
        2    1    3    3  502    0 -0.85154039588E+03 -0.24599672794E+03  0.16333002347E+04  0.18583070502E+04  0.25500000920E-02 0. -1.
       -2    1    3    3    0  502  0.85154039588E+03  0.24599672794E+03  0.15535905907E+03  0.89987325398E+03  0.25500000920E-02 0.  1.
</event>
<event>
 5   0  0.1186038E-04  0.1153483E+04  0.7818609E-02  0.9154576E-01
       -1   -1    0    0    0  501  0.00000000000E+00  0.00000000000E+00  0.53339276669E+03  0.53339276671E+03  0.50400001928E-02 0.  1.
        1   -1    0    0  501    0  0.00000000000E+00  0.00000000000E+00 -0.62361356915E+03  0.62361356917E+03  0.50400001928E-02 0. -1.
    10030    2    1    2    0    0  0.00000000000E+00  0.00000000000E+00 -0.90220802461E+02  0.11570063359E+04  0.11534833627E+04 0.  0.
        4    1    3    3  502    0 -0.16561811587E+03  0.50059017714E+03 -0.27951081645E+03  0.59678119538E+03  0.12699999809E+01 0. -1.
       -4    1    3    3    0  502  0.16561811587E+03 -0.50059017714E+03  0.18929001399E+03  0.56022514050E+03  0.12699999809E+01 0.  1.
</event>
<event>
 5   0  0.2512839E-04  0.1985587E+04  0.7818609E-02  0.8613389E-01
       -2   -1    0    0    0  501  0.00000000000E+00  0.00000000000E+00  0.12516753124E+04  0.12516753124E+04  0.25500000920E-02 0. -1.
        2   -1    0    0  501    0  0.00000000000E+00  0.00000000000E+00 -0.78745585131E+03  0.78745585131E+03  0.25500000920E-02 0.  1.
    10030    2    1    2    0    0  0.00000000000E+00  0.00000000000E+00  0.46421946112E+03  0.20391311637E+04  0.19855871159E+04 0.  0.
        3    1    3    3  502    0  0.18875920754E+03  0.63645199693E+03  0.99021533121E+03  0.11921525050E+04  0.10100000352E+00 0. -1.
       -3    1    3    3    0  502 -0.18875920754E+03 -0.63645199693E+03 -0.52599587009E+03  0.84697865875E+03  0.10100000352E+00 0.  1.
</event>
<event>
 5   0  0.1122711E-04  0.2078155E+04  0.7818609E-02  0.8570928E-01
        1   -1    0    0  501    0  0.00000000000E+00  0.00000000000E+00  0.69292288883E+03  0.69292288884E+03  0.50400001928E-02 0.  1.
       -1   -1    0    0    0  501  0.00000000000E+00  0.00000000000E+00 -0.15581556797E+04  0.15581556798E+04  0.50400001928E-02 0. -1.
    10030    2    1    2    0    0  0.00000000000E+00  0.00000000000E+00 -0.86523279092E+03  0.22510785686E+04  0.20781546958E+04 0.  0.
        1    1    3    3  502    0  0.38187509191E+01  0.58033321338E+03 -0.13662409466E+04  0.14843906311E+04  0.50400001928E-02 0. -1.
       -1    1    3    3    0  502 -0.38187509191E+01 -0.58033321338E+03  0.50100815570E+03  0.76668793751E+03  0.50400001928E-02 0.  1.
</event>
<event>
 5   0  0.2512839E-04  0.2119952E+04  0.7818609E-02  0.8552505E-01
       -2   -1    0    0    0  501  0.00000000000E+00  0.00000000000E+00  0.14179437964E+04  0.14179437964E+04  0.25500000920E-02 0.  1.
        2   -1    0    0  501    0  0.00000000000E+00  0.00000000000E+00 -0.79237942831E+03  0.79237942831E+03  0.25500000920E-02 0. -1.
    10030    2    1    2    0    0  0.00000000000E+00  0.00000000000E+00  0.62556436806E+03  0.22103232247E+04  0.21199523530E+04 0.  0.
        3    1    3    3  502    0 -0.59447525898E+03  0.42168039068E+03 -0.48965884754E+03  0.87805522753E+03  0.10100000352E+00 0. -1.
       -3    1    3    3    0  502  0.59447525898E+03 -0.42168039068E+03  0.11152232156E+04  0.13322679971E+04  0.10100000352E+00 0.  1.
</event>
<event>
 5   0  0.1042395E-04  0.2087043E+04  0.7818609E-02  0.8566973E-01
        1   -1    0    0  501    0  0.00000000000E+00  0.00000000000E+00  0.10853401592E+04  0.10853401592E+04  0.50400001928E-02 0.  1.
       -1   -1    0    0    0  501  0.00000000000E+00  0.00000000000E+00 -0.10033141200E+04  0.10033141200E+04  0.50400001928E-02 0. -1.
    10030    2    1    2    0    0  0.00000000000E+00  0.00000000000E+00  0.82026039216E+02  0.20886542792E+04  0.20870429864E+04 0.  0.
        3    1    3    3  502    0  0.10184572889E+04  0.79982515274E+02 -0.17195316323E+03  0.10359634900E+04  0.10100000352E+00 0. -1.
       -3    1    3    3    0  502 -0.10184572889E+04 -0.79982515274E+02  0.25397920245E+03  0.10526907892E+04  0.10100000352E+00 0.  1.
</event>
<event>
 5   0  0.1130848E-04  0.2087015E+04  0.7818609E-02  0.8566985E-01
        1   -1    0    0  501    0  0.00000000000E+00  0.00000000000E+00  0.92202595424E+03  0.92202595425E+03  0.50400001928E-02 0.  1.
       -1   -1    0    0    0  501  0.00000000000E+00  0.00000000000E+00 -0.11809942919E+04  0.11809942919E+04  0.50400001928E-02 0. -1.
    10030    2    1    2    0    0  0.00000000000E+00  0.00000000000E+00 -0.25896833763E+03  0.21030202461E+04  0.20870145078E+04 0.  0.
        5    1    3    3  502    0  0.77252102325E+03 -0.16804780729E+03 -0.81577754929E+03  0.11360210811E+04  0.46999998093E+01 0. -1.
       -5    1    3    3    0  502 -0.77252102325E+03  0.16804780729E+03  0.55680921166E+03  0.96699916498E+03  0.46999998093E+01 0.  1.
</event>
<event>
 5   0  0.1042395E-04  0.1932847E+04  0.7818609E-02  0.8638677E-01
        1   -1    0    0  501    0  0.00000000000E+00  0.00000000000E+00  0.54115652996E+03  0.54115652998E+03  0.50400001928E-02 0.  1.
       -1   -1    0    0    0  501  0.00000000000E+00  0.00000000000E+00 -0.17258858031E+04  0.17258858031E+04  0.50400001928E-02 0. -1.
    10030    2    1    2    0    0  0.00000000000E+00  0.00000000000E+00 -0.11847292731E+04  0.22670423331E+04  0.19328469907E+04 0.  0.
        3    1    3    3  502    0 -0.25404586800E+03 -0.82740047164E+03 -0.88093317515E+02  0.86999499212E+03  0.10100000352E+00 0.  1.
       -3    1    3    3    0  502  0.25404586800E+03  0.82740047164E+03 -0.10966359556E+04  0.13970473409E+04  0.10100000352E+00 0. -1.
</event>
<event>
 5   0  0.2579241E-04  0.2061637E+04  0.7818609E-02  0.8578334E-01
       -2   -1    0    0    0  501  0.00000000000E+00  0.00000000000E+00  0.89257379175E+03  0.89257379176E+03  0.25500000920E-02 0.  1.
        2   -1    0    0  501    0  0.00000000000E+00  0.00000000000E+00 -0.11904745724E+04  0.11904745724E+04  0.25500000920E-02 0. -1.
    10030    2    1    2    0    0  0.00000000000E+00  0.00000000000E+00 -0.29790078065E+03  0.20830483642E+04  0.20616366344E+04 0.  0.
        5    1    3    3  502    0  0.57157057968E+03 -0.33983596739E+03  0.64687380762E+03  0.92771182232E+03  0.46999998093E+01 0.  1.
       -5    1    3    3    0  502 -0.57157057968E+03  0.33983596739E+03 -0.94477458827E+03  0.11553365418E+04  0.46999998093E+01 0. -1.
</event>
<event>
 5   0  0.2430898E-04  0.2079190E+04  0.7818609E-02  0.8570466E-01
       -2   -1    0    0    0  501  0.00000000000E+00  0.00000000000E+00  0.75355681391E+03  0.75355681392E+03  0.25500000920E-02 0.  1.
        2   -1    0    0  501    0  0.00000000000E+00  0.00000000000E+00 -0.14342080880E+04  0.14342080880E+04  0.25500000920E-02 0. -1.
    10030    2    1    2    0    0  0.00000000000E+00  0.00000000000E+00 -0.68065127408E+03  0.21877649019E+04  0.20791895318E+04 0.  0.
        1    1    3    3  502    0  0.89463199482E+03  0.20087680460E+03  0.17519709390E+03  0.93349446625E+03  0.50400001928E-02 0.  1.
       -1    1    3    3    0  502 -0.89463199482E+03 -0.20087680460E+03 -0.85584836797E+03  0.12542704357E+04  0.50400001928E-02 0. -1.
</event>
<event>
 5   0  0.2430898E-04  0.2118428E+04  0.7818609E-02  0.8553169E-01
        2   -1    0    0  501    0  0.00000000000E+00  0.00000000000E+00  0.81180617050E+03  0.81180617051E+03  0.25500000920E-02 0. -1.
       -2   -1    0    0    0  501  0.00000000000E+00  0.00000000000E+00 -0.13820229885E+04  0.13820229885E+04  0.25500000920E-02 0.  1.
    10030    2    1    2    0    0  0.00000000000E+00  0.00000000000E+00 -0.57021681795E+03  0.21938291590E+04  0.21184284645E+04 0.  0.
        1    1    3    3  502    0  0.10202206726E+04 -0.27151899364E+03 -0.37396447010E+03  0.11200099150E+04  0.50400001928E-02 0. -1.
       -1    1    3    3    0  502 -0.10202206726E+04  0.27151899364E+03 -0.19625234785E+03  0.10738192440E+04  0.50400001928E-02 0.  1.
</event>
<event>
 5   0  0.1156733E-04  0.2072593E+04  0.7818609E-02  0.8573414E-01
        1   -1    0    0  501    0  0.00000000000E+00  0.00000000000E+00  0.89623325297E+03  0.89623325299E+03  0.50400001928E-02 0.  1.
       -1   -1    0    0    0  501  0.00000000000E+00  0.00000000000E+00 -0.11982484943E+04  0.11982484943E+04  0.50400001928E-02 0. -1.
    10030    2    1    2    0    0  0.00000000000E+00  0.00000000000E+00 -0.30201524134E+03  0.20944817473E+04  0.20725927202E+04 0.  0.
        2    1    3    3  502    0  0.79344293194E+03 -0.39182418121E+03 -0.69599181705E+03  0.11258252460E+04  0.25500000920E-02 0. -1.
       -2    1    3    3    0  502 -0.79344293194E+03  0.39182418121E+03  0.39397657571E+03  0.96865650126E+03  0.25500000920E-02 0.  1.
</event>
<event>
 5   0  0.1156733E-04  0.2211907E+04  0.7818609E-02  0.8513488E-01
        1   -1    0    0  501    0  0.00000000000E+00  0.00000000000E+00  0.56645217356E+03  0.56645217358E+03  0.50400001928E-02 0.  1.
       -1   -1    0    0    0  501  0.00000000000E+00  0.00000000000E+00 -0.21592879729E+04  0.21592879729E+04  0.50400001928E-02 0. -1.
    10030    2    1    2    0    0  0.00000000000E+00  0.00000000000E+00 -0.15928357993E+04  0.27257401465E+04  0.22119072002E+04 0.  0.
        2    1    3    3  502    0 -0.62036572153E+03 -0.89054391257E+03 -0.53439398236E+03  0.12097516345E+04  0.25500000920E-02 0. -1.
       -2    1    3    3    0  502  0.62036572153E+03  0.89054391257E+03 -0.10584418170E+04  0.15159885120E+04  0.25500000920E-02 0.  1.
</event>
<event>
 5   0  0.2448804E-04  0.1682969E+04  0.7818609E-02  0.8771138E-01
       -2   -1    0    0    0  501  0.00000000000E+00  0.00000000000E+00  0.41337343154E+03  0.41337343155E+03  0.25500000920E-02 0. -1.
        2   -1    0    0  501    0  0.00000000000E+00  0.00000000000E+00 -0.17129687991E+04  0.17129687991E+04  0.25500000920E-02 0.  1.
    10030    2    1    2    0    0  0.00000000000E+00  0.00000000000E+00 -0.12995953675E+04  0.21263422306E+04  0.16829685566E+04 0.  0.
        2    1    3    3  502    0 -0.29668285849E+02 -0.37920065356E+03  0.29856451676E+03  0.48354329022E+03  0.25500000920E-02 0. -1.
       -2    1    3    3    0  502  0.29668285849E+02  0.37920065356E+03 -0.15981598843E+04  0.16427989404E+04  0.25500000920E-02 0.  1.
</event>
<event>
 5   0  0.1130848E-04  0.1842039E+04  0.7818609E-02  0.8684257E-01
       -1   -1    0    0    0  501  0.00000000000E+00  0.00000000000E+00  0.54350547659E+03  0.54350547662E+03  0.50400001928E-02 0.  1.
        1   -1    0    0  501    0  0.00000000000E+00  0.00000000000E+00 -0.15607519813E+04  0.15607519813E+04  0.50400001928E-02 0. -1.
    10030    2    1    2    0    0  0.00000000000E+00  0.00000000000E+00 -0.10172465047E+04  0.21042574579E+04  0.18420393584E+04 0.  0.
        5    1    3    3  502    0 -0.41052559364E+03  0.55368990652E+03  0.18919527820E+03  0.71478718435E+03  0.46999998093E+01 0.  1.
       -5    1    3    3    0  502  0.41052559364E+03 -0.55368990652E+03 -0.12064417829E+04  0.13894702736E+04  0.46999998093E+01 0. -1.
</event>
<event>
 5   0  0.1186038E-04  0.1872175E+04  0.7818609E-02  0.8668832E-01
       -1   -1    0    0    0  501  0.00000000000E+00  0.00000000000E+00  0.78949338698E+03  0.78949338699E+03  0.50400001928E-02 0.  1.
        1   -1    0    0  501    0  0.00000000000E+00  0.00000000000E+00 -0.11099017950E+04  0.11099017950E+04  0.50400001928E-02 0. -1.
    10030    2    1    2    0    0  0.00000000000E+00  0.00000000000E+00 -0.32040840802E+03  0.18993951820E+04  0.18721753415E+04 0.  0.
        4    1    3    3  502    0  0.66277181910E+03  0.37806570599E+03 -0.71035984566E+03  0.10425031825E+04  0.12699999809E+01 0. -1.
       -4    1    3    3    0  502 -0.66277181910E+03 -0.37806570599E+03  0.38995143764E+03  0.85689199953E+03  0.12699999809E+01 0.  1.
</event>
<event>
 5   0  0.1042395E-04  0.2161025E+04  0.7818609E-02  0.8534828E-01
        1   -1    0    0  501    0  0.00000000000E+00  0.00000000000E+00  0.81050388907E+03  0.81050388909E+03  0.50400001928E-02 0.  1.
       -1   -1    0    0    0  501  0.00000000000E+00  0.00000000000E+00 -0.14404712933E+04  0.14404712933E+04  0.50400001928E-02 0. -1.
    10030    2    1    2    0    0  0.00000000000E+00  0.00000000000E+00 -0.62996740422E+03  0.22509751824E+04  0.21610252986E+04 0.  0.
        3    1    3    3  502    0  0.10703616020E+04 -0.60849487126E+02 -0.45523962435E+03  0.11647402049E+04  0.10100000352E+00 0.  1.
       -3    1    3    3    0  502 -0.10703616020E+04  0.60849487126E+02 -0.17472777987E+03  0.10862349775E+04  0.10100000352E+00 0. -1.
</event>
<event>
 5   0  0.1130848E-04  0.2085536E+04  0.7818609E-02  0.8567642E-01
       -1   -1    0    0    0  501  0.00000000000E+00  0.00000000000E+00  0.95434819998E+03  0.95434820000E+03  0.50400001928E-02 0.  1.
        1   -1    0    0  501    0  0.00000000000E+00  0.00000000000E+00 -0.11393797927E+04  0.11393797927E+04  0.50400001928E-02 0. -1.
    10030    2    1    2    0    0  0.00000000000E+00  0.00000000000E+00 -0.18503159268E+03  0.20937279927E+04  0.20855359544E+04 0.  0.
        5    1    3    3  502    0 -0.10302281212E+03 -0.10194621555E+04  0.10170257891E+03  0.10297000976E+04  0.46999998093E+01 0.  1.
       -5    1    3    3    0  502  0.10302281212E+03  0.10194621555E+04 -0.28673417159E+03  0.10640278951E+04  0.46999998093E+01 0. -1.
</event>
<event>
 5   0  0.2448804E-04  0.2143314E+04  0.7818609E-02  0.8542400E-01
       -2   -1    0    0    0  501  0.00000000000E+00  0.00000000000E+00  0.60536327023E+03  0.60536327023E+03  0.25500000920E-02 0. -1.
        2   -1    0    0  501    0  0.00000000000E+00  0.00000000000E+00 -0.18971228088E+04  0.18971228088E+04  0.25500000920E-02 0.  1.
    10030    2    1    2    0    0  0.00000000000E+00  0.00000000000E+00 -0.12917595386E+04  0.25024860790E+04  0.21433137592E+04 0.  0.
        2    1    3    3  502    0 -0.55814923970E+02 -0.54069390032E+03 -0.17242209092E+04  0.18078724909E+04  0.25500000920E-02 0.  1.
       -2    1    3    3    0  502  0.55814923970E+02  0.54069390032E+03  0.43246137070E+03  0.69461358807E+03  0.25500000920E-02 0. -1.
</event>
<event>
 5   0  0.2448804E-04  0.2145943E+04  0.7818609E-02  0.8541271E-01
       -2   -1    0    0    0  501  0.00000000000E+00  0.00000000000E+00  0.77820825044E+03  0.77820825044E+03  0.25500000920E-02 0. -1.
        2   -1    0    0  501    0  0.00000000000E+00  0.00000000000E+00 -0.14793826147E+04  0.14793826147E+04  0.25500000920E-02 0.  1.
    10030    2    1    2    0    0  0.00000000000E+00  0.00000000000E+00 -0.70117436427E+03  0.22575908652E+04  0.21459429222E+04 0.  0.
        2    1    3    3  502    0  0.15442673949E+03 -0.94460987938E+03  0.15954559863E+03  0.97035572866E+03  0.25500000920E-02 0. -1.
       -2    1    3    3    0  502 -0.15442673949E+03  0.94460987938E+03 -0.86071996290E+03  0.12872351365E+04  0.25500000920E-02 0.  1.
</event>
<event>
 5   0  0.1186038E-04  0.2172277E+04  0.7818609E-02  0.8530057E-01
       -1   -1    0    0    0  501  0.00000000000E+00  0.00000000000E+00  0.71924739884E+03  0.71924739886E+03  0.50400001928E-02 0.  1.
        1   -1    0    0  501    0  0.00000000000E+00  0.00000000000E+00 -0.16401815299E+04  0.16401815299E+04  0.50400001928E-02 0. -1.
    10030    2    1    2    0    0  0.00000000000E+00  0.00000000000E+00 -0.92093413103E+03  0.23594289287E+04  0.21722765008E+04 0.  0.
        4    1    3    3  502    0  0.17358125486E+03  0.70938244776E+03  0.41275072210E+03  0.83887941966E+03  0.12699999809E+01 0.  1.
       -4    1    3    3    0  502 -0.17358125486E+03 -0.70938244776E+03 -0.13336848531E+04  0.15205495091E+04  0.12699999809E+01 0. -1.
</event>
<event>
 5   0  0.1122711E-04  0.2091491E+04  0.7818609E-02  0.8565001E-01
        1   -1    0    0  501    0  0.00000000000E+00  0.00000000000E+00  0.19071451084E+04  0.19071451084E+04  0.50400001928E-02 0.  1.
       -1   -1    0    0    0  501  0.00000000000E+00  0.00000000000E+00 -0.57341375349E+03  0.57341375351E+03  0.50400001928E-02 0. -1.
    10030    2    1    2    0    0  0.00000000000E+00  0.00000000000E+00  0.13337313549E+04  0.24805588620E+04  0.20914906025E+04 0.  0.
        1    1    3    3  502    0  0.50100435694E+03  0.18963395493E+03  0.17320561169E+04  0.18130043559E+04  0.50400001928E-02 0.  1.
       -1    1    3    3    0  502 -0.50100435694E+03 -0.18963395493E+03 -0.39832476193E+03  0.66755450603E+03  0.50400001928E-02 0. -1.
</event>
<event>
 5   0  0.1122711E-04  0.1834728E+04  0.7818609E-02  0.8688047E-01
        1   -1    0    0  501    0  0.00000000000E+00  0.00000000000E+00  0.76832901223E+03  0.76832901225E+03  0.50400001928E-02 0. -1.
       -1   -1    0    0    0  501  0.00000000000E+00  0.00000000000E+00 -0.10953072512E+04  0.10953072512E+04  0.50400001928E-02 0.  1.
    10030    2    1    2    0    0  0.00000000000E+00  0.00000000000E+00 -0.32697823895E+03  0.18636362634E+04  0.18347275966E+04 0.  0.
        1    1    3    3  502    0 -0.26346241320E+03  0.55772593949E+03  0.52624287583E+03  0.81080344790E+03  0.50400001928E-02 0. -1.
       -1    1    3    3    0  502  0.26346241320E+03 -0.55772593949E+03 -0.85322111478E+03  0.10528328155E+04  0.50400001928E-02 0.  1.
</event>
<event>
 5   0  0.1130848E-04  0.2031563E+04  0.7818609E-02  0.8592005E-01
        1   -1    0    0  501    0  0.00000000000E+00  0.00000000000E+00  0.74816549420E+03  0.74816549422E+03  0.50400001928E-02 0. -1.
       -1   -1    0    0    0  501  0.00000000000E+00  0.00000000000E+00 -0.13791222820E+04  0.13791222820E+04  0.50400001928E-02 0.  1.
    10030    2    1    2    0    0  0.00000000000E+00  0.00000000000E+00 -0.63095678775E+03  0.21272877762E+04  0.20315626534E+04 0.  0.
        5    1    3    3  502    0 -0.35355814669E+03  0.95044472726E+03 -0.37690306510E+03  0.10818625389E+04  0.46999998093E+01 0. -1.
       -5    1    3    3    0  502  0.35355814669E+03 -0.95044472726E+03 -0.25405372265E+03  0.10454252372E+04  0.46999998093E+01 0.  1.
</event>
<event>
 5   0  0.2430898E-04  0.2129207E+04  0.7818609E-02  0.8548486E-01
       -2   -1    0    0    0  501  0.00000000000E+00  0.00000000000E+00  0.83574538182E+03  0.83574538183E+03  0.25500000920E-02 0.  1.
        2   -1    0    0  501    0  0.00000000000E+00  0.00000000000E+00 -0.13561312081E+04  0.13561312081E+04  0.25500000920E-02 0. -1.
    10030    2    1    2    0    0  0.00000000000E+00  0.00000000000E+00 -0.52038582624E+03  0.21918765899E+04  0.21292067953E+04 0.  0.
        1    1    3    3  502    0 -0.31398605277E+03 -0.10170164806E+04 -0.23786035035E+03  0.10906361948E+04  0.50400001928E-02 0. -1.
       -1    1    3    3    0  502  0.31398605277E+03  0.10170164806E+04 -0.28252547589E+03  0.11012403951E+04  0.50400001928E-02 0.  1.
</event>
<event>
 5   0  0.2512839E-04  0.2090480E+04  0.7818609E-02  0.8565448E-01
        2   -1    0    0  501    0  0.00000000000E+00  0.00000000000E+00  0.94490745674E+03  0.94490745675E+03  0.25500000920E-02 0. -1.
       -2   -1    0    0    0  501  0.00000000000E+00  0.00000000000E+00 -0.11562265347E+04  0.11562265347E+04  0.25500000920E-02 0.  1.
    10030    2    1    2    0    0  0.00000000000E+00  0.00000000000E+00 -0.21131907795E+03  0.21011339914E+04  0.20904803987E+04 0.  0.
        3    1    3    3  502    0  0.23001480414E+03  0.67386233366E+02 -0.11282328912E+04  0.11534111070E+04  0.10100000352E+00 0.  1.
       -3    1    3    3    0  502 -0.23001480414E+03 -0.67386233366E+02  0.91691381329E+03  0.94772288448E+03  0.10100000352E+00 0. -1.
</event>
<event>
 5   0  0.2430898E-04  0.2127254E+04  0.7818609E-02  0.8549332E-01
        2   -1    0    0  501    0  0.00000000000E+00  0.00000000000E+00  0.95166773820E+03  0.95166773820E+03  0.25500000920E-02 0.  1.
       -2   -1    0    0    0  501  0.00000000000E+00  0.00000000000E+00 -0.11887578800E+04  0.11887578800E+04  0.25500000920E-02 0. -1.
    10030    2    1    2    0    0  0.00000000000E+00  0.00000000000E+00 -0.23709014181E+03  0.21404256182E+04  0.21272541202E+04 0.  0.
        1    1    3    3  502    0 -0.23822553663E+03  0.10027563553E+03  0.91958737822E+03  0.95522120768E+03  0.50400001928E-02 0.  1.
       -1    1    3    3    0  502  0.23822553663E+03 -0.10027563553E+03 -0.11566775200E+04  0.11852044105E+04  0.50400001928E-02 0. -1.
</event>
<event>
 5   0  0.2512839E-04  0.1254759E+04  0.7818609E-02  0.9066232E-01
       -2   -1    0    0    0  501  0.00000000000E+00  0.00000000000E+00  0.37721757402E+03  0.37721757403E+03  0.25500000920E-02 0. -1.
        2   -1    0    0  501    0  0.00000000000E+00  0.00000000000E+00 -0.10434431604E+04  0.10434431604E+04  0.25500000920E-02 0.  1.
    10030    2    1    2    0    0  0.00000000000E+00  0.00000000000E+00 -0.66622558637E+03  0.14206607344E+04  0.12547590966E+04 0.  0.
        3    1    3    3  502    0 -0.49198553953E+03  0.38701906261E+03 -0.28545783026E+03  0.68798234643E+03  0.10100000352E+00 0. -1.
       -3    1    3    3    0  502  0.49198553953E+03 -0.38701906261E+03 -0.38076775611E+03  0.73267838799E+03  0.10100000352E+00 0.  1.
</event>
<event>
 5   0  0.2579241E-04  0.2098981E+04  0.7818609E-02  0.8561692E-01
        2   -1    0    0  501    0  0.00000000000E+00  0.00000000000E+00  0.84917276623E+03  0.84917276623E+03  0.25500000920E-02 0. -1.
       -2   -1    0    0    0  501  0.00000000000E+00  0.00000000000E+00 -0.12970627509E+04  0.12970627509E+04  0.25500000920E-02 0.  1.
    10030    2    1    2    0    0  0.00000000000E+00  0.00000000000E+00 -0.44788998467E+03  0.21462355171E+04  0.20989810520E+04 0.  0.
        5    1    3    3  502    0 -0.17558660191E+02 -0.32882273788E+03  0.79497044535E+03  0.86048404893E+03  0.46999998093E+01 0. -1.
       -5    1    3    3    0  502  0.17558660191E+02  0.32882273788E+03 -0.12428604300E+04  0.12857514682E+04  0.46999998093E+01 0.  1.
</event>
<event>
 5   0  0.1156733E-04  0.2142842E+04  0.7818609E-02  0.8542603E-01
        1   -1    0    0  501    0  0.00000000000E+00  0.00000000000E+00  0.25199835186E+04  0.25199835186E+04  0.50400001928E-02 0.  1.
       -1   -1    0    0    0  501  0.00000000000E+00  0.00000000000E+00 -0.45553576212E+03  0.45553576214E+03  0.50400001928E-02 0. -1.
    10030    2    1    2    0    0  0.00000000000E+00  0.00000000000E+00  0.20644477565E+04  0.29755192807E+04  0.21428416766E+04 0.  0.
        2    1    3    3  502    0 -0.46851237465E+03  0.13323925450E+03 -0.29290168079E+03  0.56837306301E+03  0.25500000920E-02 0. -1.
       -2    1    3    3    0  502  0.46851237465E+03 -0.13323925450E+03  0.23573494372E+04  0.24071462177E+04  0.25500000920E-02 0.  1.
</event>
<event>
 5   0  0.1042395E-04  0.1802969E+04  0.7818609E-02  0.8704722E-01
       -1   -1    0    0    0  501  0.00000000000E+00  0.00000000000E+00  0.53117056528E+03  0.53117056531E+03  0.50400001928E-02 0.  1.
        1   -1    0    0  501    0  0.00000000000E+00  0.00000000000E+00 -0.15299694418E+04  0.15299694418E+04  0.50400001928E-02 0. -1.
    10030    2    1    2    0    0  0.00000000000E+00  0.00000000000E+00 -0.99879887650E+03  0.20611400071E+04  0.18029694765E+04 0.  0.
        3    1    3    3  502    0 -0.79102542736E+03 -0.42347050520E+03 -0.59923241011E+03  0.10789476294E+04  0.10100000352E+00 0. -1.
       -3    1    3    3    0  502  0.79102542736E+03  0.42347050520E+03 -0.39956646639E+03  0.98219237768E+03  0.10100000352E+00 0.  1.
</event>
<event>
 5   0  0.2430898E-04  0.1735214E+04  0.7818609E-02  0.8741531E-01
        2   -1    0    0  501    0  0.00000000000E+00  0.00000000000E+00  0.16414600156E+04  0.16414600156E+04  0.25500000920E-02 0. -1.
       -2   -1    0    0    0  501  0.00000000000E+00  0.00000000000E+00 -0.45858089752E+03  0.45858089752E+03  0.25500000920E-02 0.  1.
    10030    2    1    2    0    0  0.00000000000E+00  0.00000000000E+00  0.11828791181E+04  0.21000409131E+04  0.17352143466E+04 0.  0.
        1    1    3    3  502    0  0.85992813313E+03  0.58099394078E+02  0.71179861580E+03  0.11178144762E+04  0.50400001928E-02 0. -1.
       -1    1    3    3    0  502 -0.85992813313E+03 -0.58099394078E+02  0.47108050228E+03  0.98222643692E+03  0.50400001928E-02 0.  1.
</event>
<event>
 5   0  0.1042395E-04  0.2192409E+04  0.7818609E-02  0.8521594E-01
        1   -1    0    0  501    0  0.00000000000E+00  0.00000000000E+00  0.21275791766E+04  0.21275791766E+04  0.50400001928E-02 0.  1.
       -1   -1    0    0    0  501  0.00000000000E+00  0.00000000000E+00 -0.56480356281E+03  0.56480356283E+03  0.50400001928E-02 0. -1.
    10030    2    1    2    0    0  0.00000000000E+00  0.00000000000E+00  0.15627756138E+04  0.26923827395E+04  0.21924089939E+04 0.  0.
        3    1    3    3  502    0 -0.44029448998E+03 -0.29360505508E+03 -0.39753866683E+03  0.66189135672E+03  0.10100000352E+00 0. -1.
       -3    1    3    3    0  502  0.44029448998E+03  0.29360505508E+03  0.19603142806E+04  0.20304913827E+04  0.10100000352E+00 0.  1.
</event>
<event>
 5   0  0.1156733E-04  0.2070969E+04  0.7818609E-02  0.8574141E-01
        1   -1    0    0  501    0  0.00000000000E+00  0.00000000000E+00  0.16879058973E+04  0.16879058973E+04  0.50400001928E-02 0. -1.
       -1   -1    0    0    0  501  0.00000000000E+00  0.00000000000E+00 -0.63524166199E+03  0.63524166201E+03  0.50400001928E-02 0.  1.
    10030    2    1    2    0    0  0.00000000000E+00  0.00000000000E+00  0.10526642353E+04  0.23231475594E+04  0.20709689979E+04 0.  0.
        2    1    3    3  502    0  0.38173238917E+03  0.20404487855E+03  0.15815544380E+04  0.16397159418E+04  0.25500000920E-02 0. -1.
       -2    1    3    3    0  502 -0.38173238917E+03 -0.20404487855E+03 -0.52889020266E+03  0.68343161756E+03  0.25500000920E-02 0.  1.
</event>
<event>
 5   0  0.1186038E-04  0.1946780E+04  0.7818609E-02  0.8631915E-01
       -1   -1    0    0    0  501  0.00000000000E+00  0.00000000000E+00  0.17641859112E+04  0.17641859112E+04  0.50400001928E-02 0. -1.
        1   -1    0    0  501    0  0.00000000000E+00  0.00000000000E+00 -0.53706831737E+03  0.53706831739E+03  0.50400001928E-02 0.  1.
    10030    2    1    2    0    0  0.00000000000E+00  0.00000000000E+00  0.12271175938E+04  0.23012542286E+04  0.19467802741E+04 0.  0.
        4    1    3    3  502    0 -0.68490755818E+03  0.55012870789E+03  0.11800437010E+03  0.88637836321E+03  0.12699999809E+01 0.  1.
       -4    1    3    3    0  502  0.68490755818E+03 -0.55012870789E+03  0.11091132237E+04  0.14148758654E+04  0.12699999809E+01 0. -1.
</event>
<event>
 5   0  0.2467483E-04  0.2151289E+04  0.7818609E-02  0.8538981E-01
       -2   -1    0    0    0  501  0.00000000000E+00  0.00000000000E+00  0.13024678239E+04  0.13024678239E+04  0.25500000920E-02 0.  1.
        2   -1    0    0  501    0  0.00000000000E+00  0.00000000000E+00 -0.88832189377E+03  0.88832189377E+03  0.25500000920E-02 0. -1.
    10030    2    1    2    0    0  0.00000000000E+00  0.00000000000E+00  0.41414593013E+03  0.21907897177E+04  0.21512886221E+04 0.  0.
        4    1    3    3  502    0 -0.27684841307E+02 -0.80706649270E+03  0.93067337711E+03  0.12321839643E+04  0.12699999809E+01 0.  1.
       -4    1    3    3    0  502  0.27684841307E+02  0.80706649270E+03 -0.51652744697E+03  0.95860575340E+03  0.12699999809E+01 0. -1.
</event>
<event>
 5   0  0.1130848E-04  0.1692592E+04  0.7818609E-02  0.8765601E-01
       -1   -1    0    0    0  501  0.00000000000E+00  0.00000000000E+00  0.61464072609E+03  0.61464072611E+03  0.50400001928E-02 0. -1.
        1   -1    0    0  501    0  0.00000000000E+00  0.00000000000E+00 -0.11652606883E+04  0.11652606884E+04  0.50400001928E-02 0.  1.
    10030    2    1    2    0    0  0.00000000000E+00  0.00000000000E+00 -0.55061996225E+03  0.17799014145E+04  0.16925917117E+04 0.  0.
        5    1    3    3  502    0  0.83441453718E+03  0.75136587672E+02 -0.40106748543E+03  0.92885431825E+03  0.46999998093E+01 0.  1.
       -5    1    3    3    0  502 -0.83441453718E+03 -0.75136587672E+02 -0.14955247682E+03  0.85104709622E+03  0.46999998093E+01 0. -1.
</event>
<event>
 5   0  0.1130848E-04  0.1979185E+04  0.7818609E-02  0.8616415E-01
       -1   -1    0    0    0  501  0.00000000000E+00  0.00000000000E+00  0.87805093634E+03  0.87805093636E+03  0.50400001928E-02 0.  1.
        1   -1    0    0  501    0  0.00000000000E+00  0.00000000000E+00 -0.11153032553E+04  0.11153032553E+04  0.50400001928E-02 0. -1.
    10030    2    1    2    0    0  0.00000000000E+00  0.00000000000E+00 -0.23725231893E+03  0.19933541916E+04  0.19791847490E+04 0.  0.
        5    1    3    3  502    0  0.25515113288E+03  0.94524475141E+03  0.26213132552E+02  0.97943808328E+03  0.46999998093E+01 0.  1.
       -5    1    3    3    0  502 -0.25515113288E+03 -0.94524475141E+03 -0.26346545148E+03  0.10139161084E+04  0.46999998093E+01 0. -1.
</event>
<event>
 5   0  0.1130848E-04  0.2164419E+04  0.7818609E-02  0.8533385E-01
        1   -1    0    0  501    0  0.00000000000E+00  0.00000000000E+00  0.85515530729E+03  0.85515530731E+03  0.50400001928E-02 0.  1.
       -1   -1    0    0    0  501  0.00000000000E+00  0.00000000000E+00 -0.13695493348E+04  0.13695493348E+04  0.50400001928E-02 0. -1.
    10030    2    1    2    0    0  0.00000000000E+00  0.00000000000E+00 -0.51439402748E+03  0.22247046421E+04  0.21644189819E+04 0.  0.
        5    1    3    3  502    0  0.95109024785E+03 -0.25386348796E+03  0.20492091704E+03  0.10055018659E+04  0.46999998093E+01 0.  1.
       -5    1    3    3    0  502 -0.95109024785E+03  0.25386348796E+03 -0.71931494452E+03  0.12192027762E+04  0.46999998093E+01 0. -1.
</event>
<event>
 5   0  0.2579241E-04  0.2013453E+04  0.7818609E-02  0.8600357E-01
        2   -1    0    0  501    0  0.00000000000E+00  0.00000000000E+00  0.18007543104E+04  0.18007543104E+04  0.25500000920E-02 0.  1.
       -2   -1    0    0    0  501  0.00000000000E+00  0.00000000000E+00 -0.56281868703E+03  0.56281868703E+03  0.25500000920E-02 0. -1.
    10030    2    1    2    0    0  0.00000000000E+00  0.00000000000E+00  0.12379356234E+04  0.23635729974E+04  0.20134529313E+04 0.  0.
        5    1    3    3  502    0  0.21088660617E+03  0.70311336112E+03 -0.18976898253E+03  0.75820572141E+03  0.46999998093E+01 0. -1.
       -5    1    3    3    0  502 -0.21088660617E+03 -0.70311336112E+03  0.14277046059E+04  0.16053672760E+04  0.46999998093E+01 0.  1.
</event>
<event>
 5   0  0.2430898E-04  0.2070423E+04  0.7818609E-02  0.8574385E-01
        2   -1    0    0  501    0  0.00000000000E+00  0.00000000000E+00  0.15719134350E+04  0.15719134350E+04  0.25500000920E-02 0.  1.
       -2   -1    0    0    0  501  0.00000000000E+00  0.00000000000E+00 -0.68175683416E+03  0.68175683416E+03  0.25500000920E-02 0. -1.
    10030    2    1    2    0    0  0.00000000000E+00  0.00000000000E+00  0.89015660080E+03  0.22536702691E+04  0.20704228814E+04 0.  0.
        1    1    3    3  502    0  0.22465012553E+03 -0.38072094971E+03  0.14640086338E+04  0.15292931048E+04  0.50400001928E-02 0. -1.
       -1    1    3    3    0  502 -0.22465012553E+03  0.38072094971E+03 -0.57385203299E+03  0.72437716436E+03  0.50400001928E-02 0.  1.
</event>
<event>
 5   0  0.1156733E-04  0.2081220E+04  0.7818609E-02  0.8569562E-01
       -1   -1    0    0    0  501  0.00000000000E+00  0.00000000000E+00  0.15674054837E+04  0.15674054837E+04  0.50400001928E-02 0. -1.
        1   -1    0    0  501    0  0.00000000000E+00  0.00000000000E+00 -0.69086703472E+03  0.69086703474E+03  0.50400001928E-02 0.  1.
    10030    2    1    2    0    0  0.00000000000E+00  0.00000000000E+00  0.87653844899E+03  0.22582725185E+04  0.20812196220E+04 0.  0.
        2    1    3    3  502    0 -0.86036224152E+03  0.19332256301E+02 -0.19654117475E+03  0.88273742197E+03  0.25500000920E-02 0.  1.
       -2    1    3    3    0  502  0.86036224152E+03 -0.19332256301E+02  0.10730796237E+04  0.13755350965E+04  0.25500000920E-02 0. -1.
</event>
<event>
 5   0  0.8698750E-05  0.1469254E+04  0.7818609E-02  0.8905160E-01
       -4   -1    0    0    0  501  0.00000000000E+00  0.00000000000E+00  0.52343011835E+03  0.52343165905E+03  0.12699999809E+01 0. -1.
        4   -1    0    0  501    0  0.00000000000E+00  0.00000000000E+00 -0.10310359262E+04  0.10310367084E+04  0.12699999809E+01 0.  1.
    10030    2    1    2    0    0  0.00000000000E+00  0.00000000000E+00 -0.50760580789E+03  0.15544683675E+04  0.14692543174E+04 0.  0.
        5    1    3    3  502    0 -0.18480618097E+03  0.66759235081E+02 -0.10027018434E+04  0.10217843201E+04  0.46999998093E+01 0.  1.
       -5    1    3    3    0  502  0.18480618097E+03 -0.66759235081E+02  0.49509603549E+03  0.53268404740E+03  0.46999998093E+01 0. -1.
</event>
<event>
 5   0  0.2430898E-04  0.2204167E+04  0.7818609E-02  0.8516696E-01
        2   -1    0    0  501    0  0.00000000000E+00  0.00000000000E+00  0.13179355602E+04  0.13179355602E+04  0.25500000920E-02 0. -1.
       -2   -1    0    0    0  501  0.00000000000E+00  0.00000000000E+00 -0.92158403267E+03  0.92158403267E+03  0.25500000920E-02 0.  1.
    10030    2    1    2    0    0  0.00000000000E+00  0.00000000000E+00  0.39635152749E+03  0.22395195928E+04  0.22041672970E+04 0.  0.
        1    1    3    3  502    0 -0.75031772486E+03  0.22183708317E+03 -0.59041700301E+03  0.98019417320E+03  0.50400001928E-02 0.  1.
       -1    1    3    3    0  502  0.75031772486E+03 -0.22183708317E+03  0.98676853050E+03  0.12593254196E+04  0.50400001928E-02 0. -1.
</event>
<event>
 5   0  0.8698750E-05  0.1497796E+04  0.7818609E-02  0.8885920E-01
       -3   -1    0    0    0  501  0.00000000000E+00  0.00000000000E+00  0.49961517936E+03  0.49961518957E+03  0.10100000352E+00 0. -1.
        3   -1    0    0  501    0  0.00000000000E+00  0.00000000000E+00 -0.11225599358E+04  0.11225599404E+04  0.10100000352E+00 0.  1.
    10030    2    1    2    0    0  0.00000000000E+00  0.00000000000E+00 -0.62294475646E+03  0.16221751299E+04  0.14977957079E+04 0.  0.
        5    1    3    3  502    0 -0.70734013585E+02 -0.67702348783E+03 -0.64958577230E+03  0.94092925840E+03  0.46999998093E+01 0.  1.
       -5    1    3    3    0  502  0.70734013585E+02  0.67702348783E+03  0.26641015832E+02  0.68124587153E+03  0.46999998093E+01 0. -1.
</event>
<event>
 5   0  0.2430898E-04  0.2060211E+04  0.7818609E-02  0.8578976E-01
       -2   -1    0    0    0  501  0.00000000000E+00  0.00000000000E+00  0.13034897004E+04  0.13034897004E+04  0.25500000920E-02 0. -1.
        2   -1    0    0  501    0  0.00000000000E+00  0.00000000000E+00 -0.81405893491E+03  0.81405893491E+03  0.25500000920E-02 0.  1.
    10030    2    1    2    0    0  0.00000000000E+00  0.00000000000E+00  0.48943076544E+03  0.21175486353E+04  0.20602110932E+04 0.  0.
        1    1    3    3  502    0  0.13617150783E+03 -0.37864399207E+02  0.12934762078E+04  0.13011752736E+04  0.50400001928E-02 0. -1.
       -1    1    3    3    0  502 -0.13617150783E+03  0.37864399207E+02 -0.80404544238E+03  0.81637336171E+03  0.50400001928E-02 0.  1.
</event>
<event>
 5   0  0.2512839E-04  0.1330606E+04  0.7818609E-02  0.9005641E-01
       -2   -1    0    0    0  501  0.00000000000E+00  0.00000000000E+00  0.60209501212E+03  0.60209501213E+03  0.25500000920E-02 0.  1.
        2   -1    0    0  501    0  0.00000000000E+00  0.00000000000E+00 -0.73514610886E+03  0.73514610886E+03  0.25500000920E-02 0. -1.
    10030    2    1    2    0    0  0.00000000000E+00  0.00000000000E+00 -0.13305109674E+03  0.13372411210E+04  0.13306055844E+04 0.  0.
        3    1    3    3  502    0 -0.10248256193E+03  0.54864208279E+03 -0.43043208582E+03  0.70482806500E+03  0.10100000352E+00 0. -1.
       -3    1    3    3    0  502  0.10248256193E+03 -0.54864208279E+03  0.29738098909E+03  0.63241305598E+03  0.10100000352E+00 0.  1.
</event>
<event>
 5   0  0.1186038E-04  0.2094237E+04  0.7818609E-02  0.8563786E-01
        1   -1    0    0  501    0  0.00000000000E+00  0.00000000000E+00  0.14966881024E+04  0.14966881024E+04  0.50400001928E-02 0.  1.
       -1   -1    0    0    0  501  0.00000000000E+00  0.00000000000E+00 -0.73258885319E+03  0.73258885321E+03  0.50400001928E-02 0. -1.
    10030    2    1    2    0    0  0.00000000000E+00  0.00000000000E+00  0.76409924924E+03  0.22292769556E+04  0.20942368735E+04 0.  0.
        4    1    3    3  502    0 -0.44470189390E+03 -0.37635731713E+03 -0.54414176008E+03  0.79718032625E+03  0.12699999809E+01 0. -1.
       -4    1    3    3    0  502  0.44470189390E+03  0.37635731713E+03  0.13082410093E+04  0.14320966294E+04  0.12699999809E+01 0.  1.
</event>
<event>
 5   0  0.1186038E-04  0.1211831E+04  0.7818609E-02  0.9102563E-01
       -1   -1    0    0    0  501  0.00000000000E+00  0.00000000000E+00  0.43976023733E+03  0.43976023736E+03  0.50400001928E-02 0. -1.
        1   -1    0    0  501    0  0.00000000000E+00  0.00000000000E+00 -0.83485006374E+03  0.83485006376E+03  0.50400001928E-02 0.  1.
    10030    2    1    2    0    0  0.00000000000E+00  0.00000000000E+00 -0.39508982641E+03  0.12746103011E+04  0.12118314440E+04 0.  0.
        4    1    3    3  502    0 -0.28778128238E+03  0.33443038343E+03  0.23926513472E+03  0.50190752678E+03  0.12699999809E+01 0. -1.
       -4    1    3    3    0  502  0.28778128238E+03 -0.33443038343E+03 -0.63435496113E+03  0.77270277433E+03  0.12699999809E+01 0.  1.
</event>
<event>
 5   0  0.1122711E-04  0.2085695E+04  0.7818609E-02  0.8567571E-01
       -1   -1    0    0    0  501  0.00000000000E+00  0.00000000000E+00  0.85765494362E+03  0.85765494363E+03  0.50400001928E-02 0.  1.
        1   -1    0    0  501    0  0.00000000000E+00  0.00000000000E+00 -0.12680282904E+04  0.12680282904E+04  0.50400001928E-02 0. -1.
    10030    2    1    2    0    0  0.00000000000E+00  0.00000000000E+00 -0.41037334676E+03  0.21256832340E+04  0.20856948309E+04 0.  0.
        1    1    3    3  502    0  0.50563010982E+02  0.18222398795E+03 -0.12504070526E+04  0.12646264259E+04  0.50400001928E-02 0. -1.
       -1    1    3    3    0  502 -0.50563010982E+02 -0.18222398795E+03  0.84003370583E+03  0.86105680813E+03  0.50400001928E-02 0.  1.
</event>
<event>
 5   0  0.2579241E-04  0.2184426E+04  0.7818609E-02  0.8524939E-01
       -2   -1    0    0    0  501  0.00000000000E+00  0.00000000000E+00  0.11821645381E+04  0.11821645381E+04  0.25500000920E-02 0.  1.
        2   -1    0    0  501    0  0.00000000000E+00  0.00000000000E+00 -0.10091056521E+04  0.10091056521E+04  0.25500000920E-02 0. -1.
    10030    2    1    2    0    0  0.00000000000E+00  0.00000000000E+00  0.17305888601E+03  0.21912701902E+04  0.21844257068E+04 0.  0.
        5    1    3    3  502    0  0.25111511465E+03  0.10102072756E+04 -0.24515637982E+03  0.10694397043E+04  0.46999998093E+01 0. -1.
       -5    1    3    3    0  502 -0.25111511465E+03 -0.10102072756E+04  0.41821526583E+03  0.11218304859E+04  0.46999998093E+01 0.  1.
</event>
<event>
 5   0  0.1042395E-04  0.2077396E+04  0.7818609E-02  0.8571266E-01
       -1   -1    0    0    0  501  0.00000000000E+00  0.00000000000E+00  0.98406256698E+03  0.98406256699E+03  0.50400001928E-02 0. -1.
        1   -1    0    0  501    0  0.00000000000E+00  0.00000000000E+00 -0.10963672649E+04  0.10963672649E+04  0.50400001928E-02 0.  1.
    10030    2    1    2    0    0  0.00000000000E+00  0.00000000000E+00 -0.11230469793E+03  0.20804298319E+04  0.20773964331E+04 0.  0.
        3    1    3    3  502    0 -0.49480026311E+03 -0.23307934153E+03  0.82816631572E+03  0.99247807861E+03  0.10100000352E+00 0. -1.
       -3    1    3    3    0  502  0.49480026311E+03  0.23307934153E+03 -0.94047101365E+03  0.10879517533E+04  0.10100000352E+00 0.  1.
</event>
<event>
 5   0  0.2579241E-04  0.1929562E+04  0.7818609E-02  0.8640280E-01
       -2   -1    0    0    0  501  0.00000000000E+00  0.00000000000E+00  0.93952103863E+03  0.93952103864E+03  0.25500000920E-02 0.  1.
        2   -1    0    0  501    0  0.00000000000E+00  0.00000000000E+00 -0.99071965636E+03  0.99071965636E+03  0.25500000920E-02 0. -1.
    10030    2    1    2    0    0  0.00000000000E+00  0.00000000000E+00 -0.51198617727E+02  0.19302406950E+04  0.19295615673E+04 0.  0.
        5    1    3    3  502    0 -0.20543893945E+03  0.31595955192E+03  0.86282603080E+03  0.94155533332E+03  0.46999998093E+01 0.  1.
       -5    1    3    3    0  502  0.20543893945E+03 -0.31595955192E+03 -0.91402464852E+03  0.98868536168E+03  0.46999998093E+01 0. -1.
</event>
<event>
 5   0  0.2430898E-04  0.2027117E+04  0.7818609E-02  0.8594047E-01
        2   -1    0    0  501    0  0.00000000000E+00  0.00000000000E+00  0.13655573389E+04  0.13655573389E+04  0.25500000920E-02 0.  1.
       -2   -1    0    0    0  501  0.00000000000E+00  0.00000000000E+00 -0.75229390755E+03  0.75229390755E+03  0.25500000920E-02 0. -1.
    10030    2    1    2    0    0  0.00000000000E+00  0.00000000000E+00  0.61326343131E+03  0.21178512464E+04  0.20271166384E+04 0.  0.
        1    1    3    3  502    0 -0.76189827197E+02 -0.65341921840E+02 -0.74708881695E+03  0.75380113886E+03  0.50400001928E-02 0. -1.
       -1    1    3    3    0  502  0.76189827197E+02  0.65341921840E+02  0.13603522483E+04  0.13640501075E+04  0.50400001928E-02 0.  1.
</event>
<event>
 5   0  0.2467483E-04  0.2000963E+04  0.7818609E-02  0.8606171E-01
       -2   -1    0    0    0  501  0.00000000000E+00  0.00000000000E+00  0.50902426639E+03  0.50902426640E+03  0.25500000920E-02 0.  1.
        2   -1    0    0  501    0  0.00000000000E+00  0.00000000000E+00 -0.19664347412E+04  0.19664347412E+04  0.25500000920E-02 0. -1.
    10030    2    1    2    0    0  0.00000000000E+00  0.00000000000E+00 -0.14574104748E+04  0.24754590076E+04  0.20009627698E+04 0.  0.
        4    1    3    3  502    0  0.48416222668E+03 -0.80223780335E+03 -0.11625193364E+04  0.14931347479E+04  0.12699999809E+01 0. -1.
       -4    1    3    3    0  502 -0.48416222668E+03  0.80223780335E+03 -0.29489113842E+03  0.98232425974E+03  0.12699999809E+01 0.  1.
</event>
<event>
 5   0  0.2579241E-04  0.2062736E+04  0.7818609E-02  0.8577838E-01
       -2   -1    0    0    0  501  0.00000000000E+00  0.00000000000E+00  0.16950364096E+04  0.16950364096E+04  0.25500000920E-02 0. -1.
        2   -1    0    0  501    0  0.00000000000E+00  0.00000000000E+00 -0.62755000095E+03  0.62755000095E+03  0.25500000920E-02 0.  1.
    10030    2    1    2    0    0  0.00000000000E+00  0.00000000000E+00  0.10674864086E+04  0.23225864105E+04  0.20627361445E+04 0.  0.
        5    1    3    3  502    0 -0.21785693360E+03  0.30135572997E+03 -0.54942997695E+03  0.66345482821E+03  0.46999998093E+01 0.  1.
       -5    1    3    3    0  502  0.21785693360E+03 -0.30135572997E+03  0.16169163856E+04  0.16591315823E+04  0.46999998093E+01 0. -1.
</event>
<event>
 5   0  0.1186038E-04  0.2107112E+04  0.7818609E-02  0.8558117E-01
       -1   -1    0    0    0  501  0.00000000000E+00  0.00000000000E+00  0.60642696401E+03  0.60642696403E+03  0.50400001928E-02 0. -1.
        1   -1    0    0  501    0  0.00000000000E+00  0.00000000000E+00 -0.18303608980E+04  0.18303608980E+04  0.50400001928E-02 0.  1.
    10030    2    1    2    0    0  0.00000000000E+00  0.00000000000E+00 -0.12239339340E+04  0.24367878620E+04  0.21071119595E+04 0.  0.
        4    1    3    3  502    0 -0.17024937987E+02 -0.23431316753E+03  0.57574820891E+03  0.62183608930E+03  0.12699999809E+01 0. -1.
       -4    1    3    3    0  502  0.17024937987E+02  0.23431316753E+03 -0.17996821429E+04  0.18149517727E+04  0.12699999809E+01 0.  1.
</event>
<event>
 5   0  0.2430898E-04  0.2100494E+04  0.7818609E-02  0.8561026E-01
       -2   -1    0    0    0  501  0.00000000000E+00  0.00000000000E+00  0.15030419697E+04  0.15030419697E+04  0.25500000920E-02 0. -1.
        2   -1    0    0  501    0  0.00000000000E+00  0.00000000000E+00 -0.73385761308E+03  0.73385761309E+03  0.25500000920E-02 0.  1.
    10030    2    1    2    0    0  0.00000000000E+00  0.00000000000E+00  0.76918435658E+03  0.22368995827E+04  0.21004940297E+04 0.  0.
        1    1    3    3  502    0  0.71096413686E+03  0.61753703811E+03 -0.11057250589E+03  0.94818156300E+03  0.50400001928E-02 0.  1.
       -1    1    3    3    0  502 -0.71096413686E+03 -0.61753703811E+03  0.87975686247E+03  0.12887180197E+04  0.50400001928E-02 0. -1.
</event>
<event>
 5   0  0.1122711E-04  0.2051254E+04  0.7818609E-02  0.8583026E-01
       -1   -1    0    0    0  501  0.00000000000E+00  0.00000000000E+00  0.67229953977E+03  0.67229953979E+03  0.50400001928E-02 0. -1.
        1   -1    0    0  501    0  0.00000000000E+00  0.00000000000E+00 -0.15646459809E+04  0.15646459809E+04  0.50400001928E-02 0.  1.
    10030    2    1    2    0    0  0.00000000000E+00  0.00000000000E+00 -0.89234644117E+03  0.22369455207E+04  0.20512540290E+04 0.  0.
        1    1    3    3  502    0  0.17004597493E+03  0.94975165589E+03 -0.82546138615E+03  0.12697757052E+04  0.50400001928E-02 0.  1.
       -1    1    3    3    0  502 -0.17004597493E+03 -0.94975165589E+03 -0.66885055018E+02  0.96716981553E+03  0.50400001928E-02 0. -1.
</event>
<event>
 5   0  0.1156733E-04  0.2084049E+04  0.7818609E-02  0.8568302E-01
       -1   -1    0    0    0  501  0.00000000000E+00  0.00000000000E+00  0.10157421286E+04  0.10157421286E+04  0.50400001928E-02 0. -1.
        1   -1    0    0  501    0  0.00000000000E+00  0.00000000000E+00 -0.10689873662E+04  0.10689873662E+04  0.50400001928E-02 0.  1.
    10030    2    1    2    0    0  0.00000000000E+00  0.00000000000E+00 -0.53245237597E+02  0.20847294947E+04  0.20840494262E+04 0.  0.
        2    1    3    3  502    0  0.30954246338E+03  0.21532690840E+03  0.94510226165E+03  0.10175463130E+04  0.25500000920E-02 0. -1.
       -2    1    3    3    0  502 -0.30954246338E+03 -0.21532690840E+03 -0.99834749925E+03  0.10671831817E+04  0.25500000920E-02 0.  1.
</event>
<event>
 5   0  0.1156733E-04  0.2054960E+04  0.7818609E-02  0.8581348E-01
       -1   -1    0    0    0  501  0.00000000000E+00  0.00000000000E+00  0.99599227298E+03  0.99599227299E+03  0.50400001928E-02 0.  1.
        1   -1    0    0  501    0  0.00000000000E+00  0.00000000000E+00 -0.10599632039E+04  0.10599632039E+04  0.50400001928E-02 0. -1.
    10030    2    1    2    0    0  0.00000000000E+00  0.00000000000E+00 -0.63970930883E+02  0.20559554769E+04  0.20549600100E+04 0.  0.
        2    1    3    3  502    0  0.76029721126E+03 -0.28943465823E+03 -0.65989676550E+03  0.10475151607E+04  0.25500000920E-02 0. -1.
       -2    1    3    3    0  502 -0.76029721126E+03  0.28943465823E+03  0.59592583461E+03  0.10084403161E+04  0.25500000920E-02 0.  1.
</event>
<event>
 5   0  0.1122711E-04  0.2204463E+04  0.7818609E-02  0.8516573E-01
        1   -1    0    0  501    0  0.00000000000E+00  0.00000000000E+00  0.16292772793E+04  0.16292772793E+04  0.50400001928E-02 0. -1.
       -1   -1    0    0    0  501  0.00000000000E+00  0.00000000000E+00 -0.74567690302E+03  0.74567690304E+03  0.50400001928E-02 0.  1.
    10030    2    1    2    0    0  0.00000000000E+00  0.00000000000E+00  0.88360037630E+03  0.23749541824E+04  0.22044631417E+04 0.  0.
        1    1    3    3  502    0 -0.37370769729E+03  0.24193969571E+03  0.15281095990E+04  0.15916379004E+04  0.50400001928E-02 0. -1.
       -1    1    3    3    0  502  0.37370769729E+03 -0.24193969571E+03 -0.64450922272E+03  0.78331628195E+03  0.50400001928E-02 0.  1.
</event>
<event>
 5   0  0.1186038E-04  0.1539121E+04  0.7818609E-02  0.8858847E-01
        1   -1    0    0  501    0  0.00000000000E+00  0.00000000000E+00  0.76333134729E+03  0.76333134730E+03  0.50400001928E-02 0.  1.
       -1   -1    0    0    0  501  0.00000000000E+00  0.00000000000E+00 -0.77584046316E+03  0.77584046318E+03  0.50400001928E-02 0. -1.
    10030    2    1    2    0    0  0.00000000000E+00  0.00000000000E+00 -0.12509115876E+02  0.15391718105E+04  0.15391209778E+04 0.  0.
        4    1    3    3  502    0 -0.71406297777E+03 -0.24184812208E+03 -0.16067883671E+03  0.77084093810E+03  0.12699999809E+01 0. -1.
       -4    1    3    3    0  502  0.71406297777E+03  0.24184812208E+03  0.14816972083E+03  0.76833087238E+03  0.12699999809E+01 0.  1.
</event>
<event>
 5   0  0.2467483E-04  0.1973991E+04  0.7818609E-02  0.8618878E-01
       -2   -1    0    0    0  501  0.00000000000E+00  0.00000000000E+00  0.12726579933E+04  0.12726579933E+04  0.25500000920E-02 0. -1.
        2   -1    0    0  501    0  0.00000000000E+00  0.00000000000E+00 -0.76545288395E+03  0.76545288396E+03  0.25500000920E-02 0.  1.
    10030    2    1    2    0    0  0.00000000000E+00  0.00000000000E+00  0.50720510937E+03  0.20381108773E+04  0.19739906092E+04 0.  0.
        4    1    3    3  502    0  0.82525591884E+03 -0.31379798741E+02 -0.30444074908E+03  0.88018055304E+03  0.12699999809E+01 0.  1.
       -4    1    3    3    0  502 -0.82525591884E+03  0.31379798741E+02  0.81164585846E+03  0.11579303242E+04  0.12699999809E+01 0. -1.
</event>
<event>
 5   0  0.2467483E-04  0.1795765E+04  0.7818609E-02  0.8708555E-01
       -2   -1    0    0    0  501  0.00000000000E+00  0.00000000000E+00  0.14882154418E+04  0.14882154418E+04  0.25500000920E-02 0.  1.
        2   -1    0    0  501    0  0.00000000000E+00  0.00000000000E+00 -0.54171801894E+03  0.54171801894E+03  0.25500000920E-02 0. -1.
    10030    2    1    2    0    0  0.00000000000E+00  0.00000000000E+00  0.94649742286E+03  0.20299334607E+04  0.17957651527E+04 0.  0.
        4    1    3    3  502    0 -0.13758505428E+03  0.69375450955E+03  0.10985210715E+04  0.13065125809E+04  0.12699999809E+01 0.  1.
       -4    1    3    3    0  502  0.13758505428E+03 -0.69375450955E+03 -0.15202364867E+03  0.72342087980E+03  0.12699999809E+01 0. -1.
</event>
<event>
 5   0  0.1130848E-04  0.2011547E+04  0.7818609E-02  0.8601241E-01
       -1   -1    0    0    0  501  0.00000000000E+00  0.00000000000E+00  0.12126646992E+04  0.12126646992E+04  0.50400001928E-02 0.  1.
        1   -1    0    0  501    0  0.00000000000E+00  0.00000000000E+00 -0.83417945487E+03  0.83417945489E+03  0.50400001928E-02 0. -1.
    10030    2    1    2    0    0  0.00000000000E+00  0.00000000000E+00  0.37848524433E+03  0.20468441541E+04  0.20115466465E+04 0.  0.
        5    1    3    3  502    0  0.60314554518E+03 -0.25028433980E+03 -0.58911871483E+03  0.87949403044E+03  0.46999998093E+01 0. -1.
       -5    1    3    3    0  502 -0.60314554518E+03  0.25028433980E+03  0.96760395916E+03  0.11673501237E+04  0.46999998093E+01 0.  1.
</event>
<event>
 5   0  0.2448804E-04  0.2020943E+04  0.7818609E-02  0.8596891E-01
       -2   -1    0    0    0  501  0.00000000000E+00  0.00000000000E+00  0.10267390031E+04  0.10267390031E+04  0.25500000920E-02 0. -1.
        2   -1    0    0  501    0  0.00000000000E+00  0.00000000000E+00 -0.99446134262E+03  0.99446134262E+03  0.25500000920E-02 0.  1.
    10030    2    1    2    0    0  0.00000000000E+00  0.00000000000E+00  0.32277660525E+02  0.20212003458E+04  0.20209425995E+04 0.  0.
        2    1    3    3  502    0 -0.40645817797E+03  0.36883564158E+03 -0.83238216692E+03  0.99704967417E+03  0.25500000920E-02 0.  1.
       -2    1    3    3    0  502  0.40645817797E+03 -0.36883564158E+03  0.86465982744E+03  0.10241506716E+04  0.25500000920E-02 0. -1.
</event>
<event>
 5   0  0.1130848E-04  0.2140931E+04  0.7818609E-02  0.8543424E-01
       -1   -1    0    0    0  501  0.00000000000E+00  0.00000000000E+00  0.77603464675E+03  0.77603464677E+03  0.50400001928E-02 0. -1.
        1   -1    0    0  501    0  0.00000000000E+00  0.00000000000E+00 -0.14766052173E+04  0.14766052173E+04  0.50400001928E-02 0.  1.
    10030    2    1    2    0    0  0.00000000000E+00  0.00000000000E+00 -0.70057057058E+03  0.22526398641E+04  0.21409313938E+04 0.  0.
        5    1    3    3  502    0  0.66767638207E+03 -0.82201993041E+03 -0.51452679443E+03  0.11773990103E+04  0.46999998093E+01 0.  1.
       -5    1    3    3    0  502 -0.66767638207E+03  0.82201993041E+03 -0.18604377615E+03  0.10752408539E+04  0.46999998093E+01 0. -1.
</event>
<event>
 5   0  0.2430898E-04  0.1938500E+04  0.7818609E-02  0.8635926E-01
        2   -1    0    0  501    0  0.00000000000E+00  0.00000000000E+00  0.69316608542E+03  0.69316608543E+03  0.25500000920E-02 0.  1.
       -2   -1    0    0    0  501  0.00000000000E+00  0.00000000000E+00 -0.13552969629E+04  0.13552969629E+04  0.25500000920E-02 0. -1.
    10030    2    1    2    0    0  0.00000000000E+00  0.00000000000E+00 -0.66213087751E+03  0.20484630484E+04  0.19385003383E+04 0.  0.
        1    1    3    3  502    0 -0.80010229429E+03 -0.13535994360E+03 -0.89118974479E+03  0.12052821897E+04  0.50400001928E-02 0. -1.
       -1    1    3    3    0  502  0.80010229429E+03  0.13535994360E+03  0.22905886728E+03  0.84318085863E+03  0.50400001928E-02 0.  1.
</event>
<event>
 5   0  0.2467483E-04  0.2094183E+04  0.7818609E-02  0.8563810E-01
        2   -1    0    0  501    0  0.00000000000E+00  0.00000000000E+00  0.25031409629E+04  0.25031409629E+04  0.25500000920E-02 0. -1.
       -2   -1    0    0    0  501  0.00000000000E+00  0.00000000000E+00 -0.43800981560E+03  0.43800981560E+03  0.25500000920E-02 0.  1.
    10030    2    1    2    0    0  0.00000000000E+00  0.00000000000E+00  0.20651311473E+04  0.29411507785E+04  0.20941827156E+04 0.  0.
        4    1    3    3  502    0  0.43316287952E+03 -0.33812232614E+02  0.23705653086E+04  0.24100528713E+04  0.12699999809E+01 0. -1.
       -4    1    3    3    0  502 -0.43316287952E+03  0.33812232614E+02 -0.30543416128E+03  0.53109790721E+03  0.12699999809E+01 0.  1.
</event>
<event>
 5   0  0.1130848E-04  0.2094980E+04  0.7818609E-02  0.8563458E-01
        1   -1    0    0  501    0  0.00000000000E+00  0.00000000000E+00  0.17132820774E+04  0.17132820774E+04  0.50400001928E-02 0.  1.
       -1   -1    0    0    0  501  0.00000000000E+00  0.00000000000E+00 -0.64042891447E+03  0.64042891449E+03  0.50400001928E-02 0. -1.
    10030    2    1    2    0    0  0.00000000000E+00  0.00000000000E+00  0.10728531629E+04  0.23537109919E+04  0.20949800773E+04 0.  0.
        5    1    3    3  502    0 -0.46159306170E+03  0.38862437509E+03  0.14983924337E+04  0.16153324843E+04  0.46999998093E+01 0.  1.
       -5    1    3    3    0  502  0.46159306170E+03 -0.38862437509E+03 -0.42553927075E+03  0.73837850759E+03  0.46999998093E+01 0. -1.
</event>
<event>
 5   0  0.2467483E-04  0.2134942E+04  0.7818609E-02  0.8546006E-01
       -2   -1    0    0    0  501  0.00000000000E+00  0.00000000000E+00  0.78263907830E+03  0.78263907831E+03  0.25500000920E-02 0. -1.
        2   -1    0    0  501    0  0.00000000000E+00  0.00000000000E+00 -0.14559636800E+04  0.14559636800E+04  0.25500000920E-02 0.  1.
    10030    2    1    2    0    0  0.00000000000E+00  0.00000000000E+00 -0.67332460174E+03  0.22386027584E+04  0.21349417534E+04 0.  0.
        4    1    3    3  502    0  0.26671187066E+03 -0.11237672304E+03  0.74071338381E+03  0.79524944495E+03  0.12699999809E+01 0. -1.
       -4    1    3    3    0  502 -0.26671187066E+03  0.11237672304E+03 -0.14140379856E+04  0.14433533134E+04  0.12699999809E+01 0.  1.
</event>
<event>
 5   0  0.2579241E-04  0.2100891E+04  0.7818609E-02  0.8560851E-01
        2   -1    0    0  501    0  0.00000000000E+00  0.00000000000E+00  0.84081827131E+03  0.84081827131E+03  0.25500000920E-02 0. -1.
       -2   -1    0    0    0  501  0.00000000000E+00  0.00000000000E+00 -0.13123356033E+04  0.13123356033E+04  0.25500000920E-02 0.  1.
    10030    2    1    2    0    0  0.00000000000E+00  0.00000000000E+00 -0.47151733202E+03  0.21531538746E+04  0.21008910047E+04 0.  0.
        5    1    3    3  502    0  0.94454476603E+03  0.13425741226E+03  0.21474865259E+03  0.97792072356E+03  0.46999998093E+01 0. -1.
       -5    1    3    3    0  502 -0.94454476603E+03 -0.13425741226E+03 -0.68626598461E+03  0.11752331511E+04  0.46999998093E+01 0.  1.
</event>
<event>
 5   0  0.2430898E-04  0.2122031E+04  0.7818609E-02  0.8551600E-01
        2   -1    0    0  501    0  0.00000000000E+00  0.00000000000E+00  0.10492951935E+04  0.10492951935E+04  0.25500000920E-02 0. -1.
       -2   -1    0    0    0  501  0.00000000000E+00  0.00000000000E+00 -0.10728665986E+04  0.10728665986E+04  0.25500000920E-02 0.  1.
    10030    2    1    2    0    0  0.00000000000E+00  0.00000000000E+00 -0.23571405026E+02  0.21221617921E+04  0.21220308812E+04 0.  0.
        1    1    3    3  502    0  0.91077940576E+03 -0.42388671329E+03  0.32963643319E+03  0.10572886313E+04  0.50400001928E-02 0. -1.
       -1    1    3    3    0  502 -0.91077940576E+03  0.42388671329E+03 -0.35320783822E+03  0.10648731608E+04  0.50400001928E-02 0.  1.
</event>
<event>
 5   0  0.1186038E-04  0.2017928E+04  0.7818609E-02  0.8598284E-01
        1   -1    0    0  501    0  0.00000000000E+00  0.00000000000E+00  0.75574134371E+03  0.75574134373E+03  0.50400001928E-02 0. -1.
       -1   -1    0    0    0  501  0.00000000000E+00  0.00000000000E+00 -0.13470329914E+04  0.13470329914E+04  0.50400001928E-02 0.  1.
    10030    2    1    2    0    0  0.00000000000E+00  0.00000000000E+00 -0.59129164766E+03  0.21027743351E+04  0.20179281681E+04 0.  0.
        4    1    3    3  502    0 -0.21669458131E+03  0.54265561210E+03  0.56148086865E+03  0.81036660449E+03  0.12699999809E+01 0. -1.
       -4    1    3    3    0  502  0.21669458131E+03 -0.54265561210E+03 -0.11527725163E+04  0.12924077306E+04  0.12699999809E+01 0.  1.
</event>
<event>
 5   0  0.2430898E-04  0.2114067E+04  0.7818609E-02  0.8555072E-01
        2   -1    0    0  501    0  0.00000000000E+00  0.00000000000E+00  0.93418624440E+03  0.93418624441E+03  0.25500000920E-02 0. -1.
       -2   -1    0    0    0  501  0.00000000000E+00  0.00000000000E+00 -0.11960357536E+04  0.11960357536E+04  0.25500000920E-02 0.  1.
    10030    2    1    2    0    0  0.00000000000E+00  0.00000000000E+00 -0.26184950923E+03  0.21302219980E+04  0.21140673110E+04 0.  0.
        1    1    3    3  502    0  0.87867845605E+03  0.51249262448E+03  0.15866593034E+03  0.10295141557E+04  0.50400001928E-02 0. -1.
       -1    1    3    3    0  502 -0.87867845605E+03 -0.51249262448E+03 -0.42051543957E+03  0.11007078424E+04  0.50400001928E-02 0.  1.
</event>
<event>
 5   0  0.1156733E-04  0.2085298E+04  0.7818609E-02  0.8567747E-01
        1   -1    0    0  501    0  0.00000000000E+00  0.00000000000E+00  0.90430137262E+03  0.90430137263E+03  0.50400001928E-02 0. -1.
       -1   -1    0    0    0  501  0.00000000000E+00  0.00000000000E+00 -0.12021624763E+04  0.12021624763E+04  0.50400001928E-02 0.  1.
    10030    2    1    2    0    0  0.00000000000E+00  0.00000000000E+00 -0.29786110366E+03  0.21064638489E+04  0.20852982304E+04 0.  0.
        2    1    3    3  502    0  0.86397827570E+03 -0.54537324457E+03  0.61090138052E+02  0.10235342895E+04  0.25500000920E-02 0.  1.
       -2    1    3    3    0  502 -0.86397827570E+03  0.54537324457E+03 -0.35895124171E+03  0.10829295594E+04  0.25500000920E-02 0. -1.
</event>
<event>
 5   0  0.2512839E-04  0.2123767E+04  0.7818609E-02  0.8550846E-01
       -2   -1    0    0    0  501  0.00000000000E+00  0.00000000000E+00  0.74266163219E+03  0.74266163219E+03  0.25500000920E-02 0. -1.
        2   -1    0    0  501    0  0.00000000000E+00  0.00000000000E+00 -0.15183173554E+04  0.15183173554E+04  0.25500000920E-02 0.  1.
    10030    2    1    2    0    0  0.00000000000E+00  0.00000000000E+00 -0.77565572322E+03  0.22609789876E+04  0.21237665082E+04 0.  0.
        3    1    3    3  502    0  0.92676023257E+03  0.14470109299E+03 -0.91775582361E+03  0.13122875817E+04  0.10100000352E+00 0.  1.
       -3    1    3    3    0  502 -0.92676023257E+03 -0.14470109299E+03  0.14210010039E+03  0.94869140595E+03  0.10100000352E+00 0. -1.
</event>
<event>
 5   0  0.1186038E-04  0.2058848E+04  0.7818609E-02  0.8579591E-01
       -1   -1    0    0    0  501  0.00000000000E+00  0.00000000000E+00  0.10070505502E+04  0.10070505502E+04  0.50400001928E-02 0. -1.
        1   -1    0    0  501    0  0.00000000000E+00  0.00000000000E+00 -0.10522946344E+04  0.10522946344E+04  0.50400001928E-02 0.  1.
    10030    2    1    2    0    0  0.00000000000E+00  0.00000000000E+00 -0.45244084189E+02  0.20593451846E+04  0.20588481154E+04 0.  0.
        4    1    3    3  502    0 -0.72657090639E+03  0.72924822812E+03 -0.24626889471E+02  0.10297166391E+04  0.12699999809E+01 0.  1.
       -4    1    3    3    0  502  0.72657090639E+03 -0.72924822812E+03 -0.20617194717E+02  0.10296285456E+04  0.12699999809E+01 0. -1.
</event>
<event>
 5   0  0.1122711E-04  0.1983649E+04  0.7818609E-02  0.8614304E-01
       -1   -1    0    0    0  501  0.00000000000E+00  0.00000000000E+00  0.44465740883E+03  0.44465740886E+03  0.50400001928E-02 0. -1.
        1   -1    0    0  501    0  0.00000000000E+00  0.00000000000E+00 -0.22123009657E+04  0.22123009657E+04  0.50400001928E-02 0.  1.
    10030    2    1    2    0    0  0.00000000000E+00  0.00000000000E+00 -0.17676435569E+04  0.26569583746E+04  0.19836491777E+04 0.  0.
        1    1    3    3  502    0 -0.40158871203E+03 -0.24616540133E+03 -0.20529259981E+04  0.21062706503E+04  0.50400001928E-02 0.  1.
       -1    1    3    3    0  502  0.40158871203E+03  0.24616540133E+03  0.28528244121E+03  0.55068772433E+03  0.50400001928E-02 0. -1.
</event>
<event>
 5   0  0.2430898E-04  0.2116888E+04  0.7818609E-02  0.8553840E-01
        2   -1    0    0  501    0  0.00000000000E+00  0.00000000000E+00  0.16045475209E+04  0.16045475209E+04  0.25500000920E-02 0.  1.
       -2   -1    0    0    0  501  0.00000000000E+00  0.00000000000E+00 -0.69820566780E+03  0.69820566780E+03  0.25500000920E-02 0. -1.
    10030    2    1    2    0    0  0.00000000000E+00  0.00000000000E+00  0.90634185305E+03  0.23027531887E+04  0.21168884461E+04 0.  0.
        1    1    3    3  502    0  0.10655053924E+03 -0.82326792811E+03  0.11674686483E+04  0.14325174148E+04  0.50400001928E-02 0.  1.
       -1    1    3    3    0  502 -0.10655053924E+03  0.82326792811E+03 -0.26112679527E+03  0.87023577385E+03  0.50400001928E-02 0. -1.
</event>
<event>
 5   0  0.2467483E-04  0.2122647E+04  0.7818609E-02  0.8551332E-01
       -2   -1    0    0    0  501  0.00000000000E+00  0.00000000000E+00  0.89086869135E+03  0.89086869135E+03  0.25500000920E-02 0. -1.
        2   -1    0    0  501    0  0.00000000000E+00  0.00000000000E+00 -0.12643928830E+04  0.12643928830E+04  0.25500000920E-02 0.  1.
    10030    2    1    2    0    0  0.00000000000E+00  0.00000000000E+00 -0.37352419168E+03  0.21552615744E+04  0.21226474348E+04 0.  0.
        4    1    3    3  502    0  0.28652325092E+02  0.79350189297E+03 -0.90181270639E+03  0.12015548178E+04  0.12699999809E+01 0.  1.
       -4    1    3    3    0  502 -0.28652325092E+02 -0.79350189297E+03  0.52828851471E+03  0.95370675658E+03  0.12699999809E+01 0. -1.
</event>
<event>
 5   0  0.1130848E-04  0.2097715E+04  0.7818609E-02  0.8562251E-01
       -1   -1    0    0    0  501  0.00000000000E+00  0.00000000000E+00  0.54441139472E+03  0.54441139474E+03  0.50400001928E-02 0.  1.
        1   -1    0    0  501    0  0.00000000000E+00  0.00000000000E+00 -0.20207174580E+04  0.20207174580E+04  0.50400001928E-02 0. -1.
    10030    2    1    2    0    0  0.00000000000E+00  0.00000000000E+00 -0.14763060633E+04  0.25651288528E+04  0.20977145751E+04 0.  0.
        5    1    3    3  502    0 -0.18675009298E+03  0.66270993514E+03 -0.17056658069E+04  0.18393960939E+04  0.46999998093E+01 0. -1.
       -5    1    3    3    0  502  0.18675009298E+03 -0.66270993514E+03  0.22935974358E+03  0.72573275889E+03  0.46999998093E+01 0.  1.
</event>
<event>
 5   0  0.2430898E-04  0.2132487E+04  0.7818609E-02  0.8547066E-01
        2   -1    0    0  501    0  0.00000000000E+00  0.00000000000E+00  0.12338907392E+04  0.12338907392E+04  0.25500000920E-02 0. -1.
       -2   -1    0    0    0  501  0.00000000000E+00  0.00000000000E+00 -0.92137440711E+03  0.92137440712E+03  0.25500000920E-02 0.  1.
    10030    2    1    2    0    0  0.00000000000E+00  0.00000000000E+00  0.31251633204E+03  0.21552651463E+04  0.21324871378E+04 0.  0.
        1    1    3    3  502    0  0.74977729342E+03 -0.36313531353E+03  0.82883009528E+03  0.11751564034E+04  0.50400001928E-02 0. -1.
       -1    1    3    3    0  502 -0.74977729342E+03  0.36313531353E+03 -0.51631376324E+03  0.98010874284E+03  0.50400001928E-02 0.  1.
</event>
<event>
 5   0  0.2512839E-04  0.2102462E+04  0.7818609E-02  0.8560160E-01
        2   -1    0    0  501    0  0.00000000000E+00  0.00000000000E+00  0.23946576835E+04  0.23946576835E+04  0.25500000920E-02 0.  1.
       -2   -1    0    0    0  501  0.00000000000E+00  0.00000000000E+00 -0.46147999689E+03  0.46147999690E+03  0.25500000920E-02 0. -1.
    10030    2    1    2    0    0  0.00000000000E+00  0.00000000000E+00  0.19331776866E+04  0.28561376804E+04  0.21024620047E+04 0.  0.
        3    1    3    3  502    0  0.12518358716E+03 -0.33111956035E+03  0.23112543796E+04  0.23382061310E+04  0.10100000352E+00 0.  1.
       -3    1    3    3    0  502 -0.12518358716E+03  0.33111956035E+03 -0.37807669305E+03  0.51793154931E+03  0.10100000352E+00 0. -1.
</event>
<event>
 5   0  0.1122711E-04  0.1497841E+04  0.7818609E-02  0.8885890E-01
        1   -1    0    0  501    0  0.00000000000E+00  0.00000000000E+00  0.56387338432E+03  0.56387338434E+03  0.50400001928E-02 0. -1.
       -1   -1    0    0    0  501  0.00000000000E+00  0.00000000000E+00 -0.99469414749E+03  0.99469414750E+03  0.50400001928E-02 0.  1.
    10030    2    1    2    0    0  0.00000000000E+00  0.00000000000E+00 -0.43082076317E+03  0.15585675318E+04  0.14978405193E+04 0.  0.
        1    1    3    3  502    0  0.58463443370E+03 -0.26533316516E+03 -0.61663714827E+03  0.89019126161E+03  0.50400001928E-02 0.  1.
       -1    1    3    3    0  502 -0.58463443370E+03  0.26533316516E+03  0.18581638509E+03  0.66837627023E+03  0.50400001928E-02 0. -1.
</event>
<event>
 5   0  0.1122711E-04  0.2141822E+04  0.7818609E-02  0.8543041E-01
        1   -1    0    0  501    0  0.00000000000E+00  0.00000000000E+00  0.29386109686E+04  0.29386109686E+04  0.50400001928E-02 0. -1.
       -1   -1    0    0    0  501  0.00000000000E+00  0.00000000000E+00 -0.39026946629E+03  0.39026946632E+03  0.50400001928E-02 0.  1.
    10030    2    1    2    0    0  0.00000000000E+00  0.00000000000E+00  0.25483415023E+04  0.33288804349E+04  0.21418217801E+04 0.  0.
        1    1    3    3  502    0 -0.34216166753E+02 -0.76543336435E+02 -0.38516052464E+03  0.39418048935E+03  0.50400001928E-02 0.  1.
       -1    1    3    3    0  502  0.34216166753E+02  0.76543336435E+02  0.29335020270E+04  0.29346999456E+04  0.50400001928E-02 0. -1.
</event>
<event>
 5   0  0.1042395E-04  0.2092906E+04  0.7818609E-02  0.8564375E-01
        1   -1    0    0  501    0  0.00000000000E+00  0.00000000000E+00  0.71759177370E+03  0.71759177371E+03  0.50400001928E-02 0.  1.
       -1   -1    0    0    0  501  0.00000000000E+00  0.00000000000E+00 -0.15260257896E+04  0.15260257896E+04  0.50400001928E-02 0. -1.
    10030    2    1    2    0    0  0.00000000000E+00  0.00000000000E+00 -0.80843401592E+03  0.22436175633E+04  0.20929056865E+04 0.  0.
        3    1    3    3  502    0 -0.86330029207E+03 -0.18461678665E+03  0.19810884628E+03  0.90477504241E+03  0.10100000352E+00 0.  1.
       -3    1    3    3    0  502  0.86330029207E+03  0.18461678665E+03 -0.10065428622E+04  0.13388425209E+04  0.10100000352E+00 0. -1.
</event>
<event>
 5   0  0.1130848E-04  0.1543819E+04  0.7818609E-02  0.8855826E-01
       -1   -1    0    0    0  501  0.00000000000E+00  0.00000000000E+00  0.39600109683E+03  0.39600109686E+03  0.50400001928E-02 0. -1.
        1   -1    0    0  501    0  0.00000000000E+00  0.00000000000E+00 -0.15046528122E+04  0.15046528123E+04  0.50400001928E-02 0.  1.
    10030    2    1    2    0    0  0.00000000000E+00  0.00000000000E+00 -0.11086517154E+04  0.19006539091E+04  0.15438188547E+04 0.  0.
        5    1    3    3  502    0  0.67360495543E+03  0.36396854294E+03 -0.43366594017E+03  0.87994600624E+03  0.46999998093E+01 0.  1.
       -5    1    3    3    0  502 -0.67360495543E+03 -0.36396854294E+03 -0.67498577524E+03  0.10207079029E+04  0.46999998093E+01 0. -1.
</event>
<event>
 5   0  0.1042395E-04  0.2173931E+04  0.7818609E-02  0.8529358E-01
        1   -1    0    0  501    0  0.00000000000E+00  0.00000000000E+00  0.95698936352E+03  0.95698936353E+03  0.50400001928E-02 0. -1.
       -1   -1    0    0    0  501  0.00000000000E+00  0.00000000000E+00 -0.12345946869E+04  0.12345946869E+04  0.50400001928E-02 0.  1.
    10030    2    1    2    0    0  0.00000000000E+00  0.00000000000E+00 -0.27760532336E+03  0.21915840504E+04  0.21739309866E+04 0.  0.
        3    1    3    3  502    0 -0.40243305084E+03 -0.77817787625E+03  0.50983547745E+03  0.10136298100E+04  0.10100000352E+00 0. -1.
       -3    1    3    3    0  502  0.40243305084E+03  0.77817787625E+03 -0.78744080081E+03  0.11779542404E+04  0.10100000352E+00 0.  1.
</event>
<event>
 5   0  0.2467483E-04  0.2088701E+04  0.7818609E-02  0.8566237E-01
        2   -1    0    0  501    0  0.00000000000E+00  0.00000000000E+00  0.12438068394E+04  0.12438068394E+04  0.25500000920E-02 0. -1.
       -2   -1    0    0    0  501  0.00000000000E+00  0.00000000000E+00 -0.87687887337E+03  0.87687887337E+03  0.25500000920E-02 0.  1.
    10030    2    1    2    0    0  0.00000000000E+00  0.00000000000E+00  0.36692796598E+03  0.21206857127E+04  0.20887009743E+04 0.  0.
        4    1    3    3  502    0  0.19431795655E+03  0.10057701363E+04 -0.22955192205E+02  0.10246275367E+04  0.12699999809E+01 0.  1.
       -4    1    3    3    0  502 -0.19431795655E+03 -0.10057701363E+04  0.38988315819E+03  0.10960581760E+04  0.12699999809E+01 0. -1.
</event>
<event>
 5   0  0.2430898E-04  0.2093664E+04  0.7818609E-02  0.8564040E-01
        2   -1    0    0  501    0  0.00000000000E+00  0.00000000000E+00  0.13011027874E+04  0.13011027874E+04  0.25500000920E-02 0. -1.
       -2   -1    0    0    0  501  0.00000000000E+00  0.00000000000E+00 -0.84225266168E+03  0.84225266168E+03  0.25500000920E-02 0.  1.
    10030    2    1    2    0    0  0.00000000000E+00  0.00000000000E+00  0.45885012568E+03  0.21433554490E+04  0.20936640473E+04 0.  0.
        1    1    3    3  502    0 -0.63356508299E+03 -0.79771906172E+03  0.47617870481E+03  0.11245028122E+04  0.50400001928E-02 0. -1.
       -1    1    3    3    0  502  0.63356508299E+03  0.79771906172E+03 -0.17328579131E+02  0.10188526368E+04  0.50400001928E-02 0.  1.
</event>
<event>
 5   0  0.1156733E-04  0.2055203E+04  0.7818609E-02  0.8581238E-01
       -1   -1    0    0    0  501  0.00000000000E+00  0.00000000000E+00  0.74007749105E+03  0.74007749107E+03  0.50400001928E-02 0.  1.
        1   -1    0    0  501    0  0.00000000000E+00  0.00000000000E+00 -0.14268301582E+04  0.14268301582E+04  0.50400001928E-02 0. -1.
    10030    2    1    2    0    0  0.00000000000E+00  0.00000000000E+00 -0.68675266710E+03  0.21669076492E+04  0.20552030397E+04 0.  0.
        2    1    3    3  502    0 -0.38516317821E+03  0.31823959173E+03 -0.12901456427E+04  0.13835110737E+04  0.25500000920E-02 0. -1.
       -2    1    3    3    0  502  0.38516317821E+03 -0.31823959173E+03  0.60339297560E+03  0.78339657556E+03  0.25500000920E-02 0.  1.
</event>
<event>
 5   0  0.2579241E-04  0.2035028E+04  0.7818609E-02  0.8590417E-01
       -2   -1    0    0    0  501  0.00000000000E+00  0.00000000000E+00  0.18334278682E+04  0.18334278682E+04  0.25500000920E-02 0. -1.
        2   -1    0    0  501    0  0.00000000000E+00  0.00000000000E+00 -0.56469896765E+03  0.56469896766E+03  0.25500000920E-02 0.  1.
    10030    2    1    2    0    0  0.00000000000E+00  0.00000000000E+00  0.12687289006E+04  0.23981268359E+04  0.20350280828E+04 0.  0.
        5    1    3    3  502    0 -0.21270910886E+03 -0.70561648353E+03  0.14610885764E+04  0.16364417817E+04  0.46999998093E+01 0. -1.
       -5    1    3    3    0  502  0.21270910886E+03  0.70561648353E+03 -0.19235967587E+03  0.76168505415E+03  0.46999998093E+01 0.  1.
</event>
<event>
 5   0  0.1156733E-04  0.1349927E+04  0.7818609E-02  0.8990883E-01
        1   -1    0    0  501    0  0.00000000000E+00  0.00000000000E+00  0.61820733906E+03  0.61820733908E+03  0.50400001928E-02 0.  1.
       -1   -1    0    0    0  501  0.00000000000E+00  0.00000000000E+00 -0.73693051195E+03  0.73693051196E+03  0.50400001928E-02 0. -1.
    10030    2    1    2    0    0  0.00000000000E+00  0.00000000000E+00 -0.11872317289E+03  0.13551378510E+04  0.13499271845E+04 0.  0.
        2    1    3    3  502    0 -0.66625472581E+03  0.76474307826E+02 -0.13602502139E+03  0.68428538336E+03  0.25500000920E-02 0. -1.
       -2    1    3    3    0  502  0.66625472581E+03 -0.76474307826E+02  0.17301848504E+02  0.67085246768E+03  0.25500000920E-02 0.  1.
</event>
<event>
 5   0  0.2448804E-04  0.2104940E+04  0.7818609E-02  0.8559070E-01
        2   -1    0    0  501    0  0.00000000000E+00  0.00000000000E+00  0.20678162613E+04  0.20678162613E+04  0.25500000920E-02 0.  1.
       -2   -1    0    0    0  501  0.00000000000E+00  0.00000000000E+00 -0.53568254447E+03  0.53568254448E+03  0.25500000920E-02 0. -1.
    10030    2    1    2    0    0  0.00000000000E+00  0.00000000000E+00  0.15321337168E+04  0.26034988058E+04  0.21049399767E+04 0.  0.
        2    1    3    3  502    0 -0.58559836864E+03 -0.60454009991E+03  0.15476347701E+04  0.17616945147E+04  0.25500000920E-02 0.  1.
       -2    1    3    3    0  502  0.58559836864E+03  0.60454009991E+03 -0.15501053234E+02  0.84180429104E+03  0.25500000920E-02 0. -1.
</event>
<event>
 5   0  0.2512839E-04  0.2258879E+04  0.7818609E-02  0.8494313E-01
        2   -1    0    0  501    0  0.00000000000E+00  0.00000000000E+00  0.23421509197E+04  0.23421509197E+04  0.25500000920E-02 0. -1.
       -2   -1    0    0    0  501  0.00000000000E+00  0.00000000000E+00 -0.54464188826E+03  0.54464188827E+03  0.25500000920E-02 0.  1.
    10030    2    1    2    0    0  0.00000000000E+00  0.00000000000E+00  0.17975090314E+04  0.28867928079E+04  0.22588789250E+04 0.  0.
        3    1    3    3  502    0 -0.46396711027E+03  0.24003854302E+03  0.21784861035E+04  0.22402423295E+04  0.10100000352E+00 0. -1.
       -3    1    3    3    0  502  0.46396711027E+03 -0.24003854302E+03 -0.38097707207E+03  0.64655047846E+03  0.10100000352E+00 0.  1.
</event>
<event>
 5   0  0.8698750E-05  0.2123108E+04  0.7818609E-02  0.8551132E-01
       -3   -1    0    0    0  501  0.00000000000E+00  0.00000000000E+00  0.12138721123E+04  0.12138721165E+04  0.10100000352E+00 0.  1.
        3   -1    0    0  501    0  0.00000000000E+00  0.00000000000E+00 -0.92834871016E+03  0.92834871566E+03  0.10100000352E+00 0. -1.
    10030    2    1    2    0    0  0.00000000000E+00  0.00000000000E+00  0.28552340217E+03  0.21422208322E+04  0.21231077412E+04 0.  0.
        5    1    3    3  502    0 -0.54820421080E+03  0.32758216894E+03  0.99835564499E+03  0.11851472558E+04  0.46999998093E+01 0.  1.
       -5    1    3    3    0  502  0.54820421080E+03 -0.32758216894E+03 -0.71283224282E+03  0.95707357635E+03  0.46999998093E+01 0. -1.
</event>
<event>
 5   0  0.2430898E-04  0.2130010E+04  0.7818609E-02  0.8548138E-01
        2   -1    0    0  501    0  0.00000000000E+00  0.00000000000E+00  0.18620842477E+04  0.18620842477E+04  0.25500000920E-02 0. -1.
       -2   -1    0    0    0  501  0.00000000000E+00  0.00000000000E+00 -0.60912160089E+03  0.60912160089E+03  0.25500000920E-02 0.  1.
    10030    2    1    2    0    0  0.00000000000E+00  0.00000000000E+00  0.12529626468E+04  0.24712058486E+04  0.21300100825E+04 0.  0.
        1    1    3    3  502    0  0.63610681934E+03  0.21964969586E+03  0.15841491562E+04  0.17211642640E+04  0.50400001928E-02 0. -1.
       -1    1    3    3    0  502 -0.63610681934E+03 -0.21964969586E+03 -0.33118650944E+03  0.75004158456E+03  0.50400001928E-02 0.  1.
</event>
<event>
 5   0  0.2467483E-04  0.2141210E+04  0.7818609E-02  0.8543304E-01
        2   -1    0    0  501    0  0.00000000000E+00  0.00000000000E+00  0.19513558274E+04  0.19513558274E+04  0.25500000920E-02 0.  1.
       -2   -1    0    0    0  501  0.00000000000E+00  0.00000000000E+00 -0.58738408541E+03  0.58738408542E+03  0.25500000920E-02 0. -1.
    10030    2    1    2    0    0  0.00000000000E+00  0.00000000000E+00  0.13639717420E+04  0.25387399128E+04  0.21412102727E+04 0.  0.
        4    1    3    3  502    0 -0.47845219268E+03 -0.40306024250E+03  0.17120885140E+04  0.18228062849E+04  0.12699999809E+01 0.  1.
       -4    1    3    3    0  502  0.47845219268E+03  0.40306024250E+03 -0.34811677196E+03  0.71593362792E+03  0.12699999809E+01 0. -1.
</event>
<event>
 5   0  0.1130848E-04  0.2087548E+04  0.7818609E-02  0.8566748E-01
       -1   -1    0    0    0  501  0.00000000000E+00  0.00000000000E+00  0.89707191750E+03  0.89707191751E+03  0.50400001928E-02 0.  1.
        1   -1    0    0  501    0  0.00000000000E+00  0.00000000000E+00 -0.12144671924E+04  0.12144671924E+04  0.50400001928E-02 0. -1.
    10030    2    1    2    0    0  0.00000000000E+00  0.00000000000E+00 -0.31739527488E+03  0.21115391099E+04  0.20875482395E+04 0.  0.
        5    1    3    3  502    0 -0.95082468072E+03 -0.43046946484E+03 -0.15018730000E+03  0.10544903265E+04  0.46999998093E+01 0.  1.
       -5    1    3    3    0  502  0.95082468072E+03  0.43046946484E+03 -0.16720797488E+03  0.10570487834E+04  0.46999998093E+01 0. -1.
</event>
<event>
 5   0  0.1186038E-04  0.2189974E+04  0.7818609E-02  0.8522613E-01
        1   -1    0    0  501    0  0.00000000000E+00  0.00000000000E+00  0.17495964155E+04  0.17495964155E+04  0.50400001928E-02 0.  1.
       -1   -1    0    0    0  501  0.00000000000E+00  0.00000000000E+00 -0.68529864500E+03  0.68529864502E+03  0.50400001928E-02 0. -1.
    10030    2    1    2    0    0  0.00000000000E+00  0.00000000000E+00  0.10642977705E+04  0.24348950605E+04  0.21899735641E+04 0.  0.
        4    1    3    3  502    0  0.76038127200E+03 -0.52365608799E+03 -0.12241956421E+03  0.93133427935E+03  0.12699999809E+01 0. -1.
       -4    1    3    3    0  502 -0.76038127200E+03  0.52365608799E+03  0.11867173347E+04  0.15035607812E+04  0.12699999809E+01 0.  1.
</event>
<event>
 5   0  0.1130848E-04  0.2102872E+04  0.7818609E-02  0.8559979E-01
       -1   -1    0    0    0  501  0.00000000000E+00  0.00000000000E+00  0.97176862763E+03  0.97176862764E+03  0.50400001928E-02 0.  1.
        1   -1    0    0  501    0  0.00000000000E+00  0.00000000000E+00 -0.11376343249E+04  0.11376343249E+04  0.50400001928E-02 0. -1.
    10030    2    1    2    0    0  0.00000000000E+00  0.00000000000E+00 -0.16586569722E+03  0.21094029525E+04  0.21028717000E+04 0.  0.
        5    1    3    3  502    0  0.40542224690E+03  0.97009367003E+03 -0.76105114286E+02  0.10541646007E+04  0.46999998093E+01 0. -1.
       -5    1    3    3    0  502 -0.40542224690E+03 -0.97009367003E+03 -0.89760582939E+02  0.10552383518E+04  0.46999998093E+01 0.  1.
</event>
<event>
 5   0  0.2512839E-04  0.2010449E+04  0.7818609E-02  0.8601751E-01
        2   -1    0    0  501    0  0.00000000000E+00  0.00000000000E+00  0.14130459536E+04  0.14130459536E+04  0.25500000920E-02 0.  1.
       -2   -1    0    0    0  501  0.00000000000E+00  0.00000000000E+00 -0.71510500047E+03  0.71510500048E+03  0.25500000920E-02 0. -1.
    10030    2    1    2    0    0  0.00000000000E+00  0.00000000000E+00  0.69794095315E+03  0.21281509541E+04  0.20104489323E+04 0.  0.
        3    1    3    3  502    0 -0.58233407440E+02  0.97965782717E+03  0.57932417484E+03  0.11396214713E+04  0.10100000352E+00 0.  1.
       -3    1    3    3    0  502  0.58233407440E+02 -0.97965782717E+03  0.11861677831E+03  0.98852948281E+03  0.10100000352E+00 0. -1.
</event>
<event>
 5   0  0.2448804E-04  0.1699610E+04  0.7818609E-02  0.8761587E-01
       -2   -1    0    0    0  501  0.00000000000E+00  0.00000000000E+00  0.91038691266E+03  0.91038691266E+03  0.25500000920E-02 0. -1.
        2   -1    0    0  501    0  0.00000000000E+00  0.00000000000E+00 -0.79325471010E+03  0.79325471010E+03  0.25500000920E-02 0.  1.
    10030    2    1    2    0    0  0.00000000000E+00  0.00000000000E+00  0.11713220256E+03  0.17036416228E+04  0.16996101982E+04 0.  0.
        2    1    3    3  502    0 -0.28436821270E+02 -0.77751105791E+03 -0.28405837497E+03  0.82826400283E+03  0.25500000920E-02 0.  1.
       -2    1    3    3    0  502  0.28436821270E+02  0.77751105791E+03  0.40119057753E+03  0.87537761994E+03  0.25500000920E-02 0. -1.
</event>
<event>
 5   0  0.2579241E-04  0.2130727E+04  0.7818609E-02  0.8547827E-01
       -2   -1    0    0    0  501  0.00000000000E+00  0.00000000000E+00  0.70664872526E+03  0.70664872527E+03  0.25500000920E-02 0.  1.
        2   -1    0    0  501    0  0.00000000000E+00  0.00000000000E+00 -0.16061724682E+04  0.16061724682E+04  0.25500000920E-02 0. -1.
    10030    2    1    2    0    0  0.00000000000E+00  0.00000000000E+00 -0.89952374294E+03  0.23128211935E+04  0.21307273192E+04 0.  0.
        5    1    3    3  502    0 -0.70148769913E+03 -0.77290722000E+03 -0.68131659375E+03  0.12464689943E+04  0.46999998093E+01 0. -1.
       -5    1    3    3    0  502  0.70148769913E+03  0.77290722000E+03 -0.21820714919E+03  0.10663521992E+04  0.46999998093E+01 0.  1.
</event>
<event>
 5   0  0.1186038E-04  0.2115403E+04  0.7818609E-02  0.8554488E-01
        1   -1    0    0  501    0  0.00000000000E+00  0.00000000000E+00  0.71780343199E+03  0.71780343201E+03  0.50400001928E-02 0. -1.
       -1   -1    0    0    0  501  0.00000000000E+00  0.00000000000E+00 -0.15585500389E+04  0.15585500389E+04  0.50400001928E-02 0.  1.
    10030    2    1    2    0    0  0.00000000000E+00  0.00000000000E+00 -0.84074660693E+03  0.22763534709E+04  0.21154030981E+04 0.  0.
        4    1    3    3  502    0  0.75126115193E+03  0.23785388009E+03 -0.11795763506E+04  0.14185801939E+04  0.12699999809E+01 0.  1.
       -4    1    3    3    0  502 -0.75126115193E+03 -0.23785388009E+03  0.33882974371E+03  0.85777327703E+03  0.12699999809E+01 0. -1.
</event>
<event>
 5   0  0.1122711E-04  0.2066258E+04  0.7818609E-02  0.8576254E-01
        1   -1    0    0  501    0  0.00000000000E+00  0.00000000000E+00  0.14092484233E+04  0.14092484233E+04  0.50400001928E-02 0.  1.
       -1   -1    0    0    0  501  0.00000000000E+00  0.00000000000E+00 -0.75739354659E+03  0.75739354661E+03  0.50400001928E-02 0. -1.
    10030    2    1    2    0    0  0.00000000000E+00  0.00000000000E+00  0.65185487672E+03  0.21666419699E+04  0.20662581266E+04 0.  0.
        1    1    3    3  502    0  0.66475961510E+03  0.22645244492E+03 -0.46862520419E+03  0.84427225331E+03  0.50400001928E-02 0. -1.
       -1    1    3    3    0  502 -0.66475961510E+03 -0.22645244492E+03  0.11204800809E+04  0.13223697166E+04  0.50400001928E-02 0.  1.
</event>
<event>
 5   0  0.2448804E-04  0.1316536E+04  0.7818609E-02  0.9016554E-01
        2   -1    0    0  501    0  0.00000000000E+00  0.00000000000E+00  0.21377808740E+04  0.21377808740E+04  0.25500000920E-02 0.  1.
       -2   -1    0    0    0  501  0.00000000000E+00  0.00000000000E+00 -0.20269468466E+03  0.20269468468E+03  0.25500000920E-02 0. -1.
    10030    2    1    2    0    0  0.00000000000E+00  0.00000000000E+00  0.19350861893E+04  0.23404755587E+04  0.13165360916E+04 0.  0.
        2    1    3    3  502    0 -0.24537766264E+03 -0.27909089950E+03  0.19334615679E+04  0.19688513306E+04  0.25500000920E-02 0.  1.
       -2    1    3    3    0  502  0.24537766264E+03  0.27909089950E+03  0.16246214728E+01  0.37162422810E+03  0.25500000920E-02 0. -1.
</event>
<event>
 5   0  0.8698750E-05  0.2104370E+04  0.7818609E-02  0.8559321E-01
        3   -1    0    0  501    0  0.00000000000E+00  0.00000000000E+00  0.42370562646E+03  0.42370563850E+03  0.10100000352E+00 0.  1.
       -3   -1    0    0    0  501  0.00000000000E+00  0.00000000000E+00 -0.26128836472E+04  0.26128836492E+04  0.10100000352E+00 0. -1.
    10030    2    1    2    0    0  0.00000000000E+00  0.00000000000E+00 -0.21891780208E+04  0.30365892877E+04  0.21043702372E+04 0.  0.
        3    1    3    3  502    0 -0.34368560473E+03  0.86770318064E+03 -0.17956884531E+04  0.20237405060E+04  0.10100000352E+00 0. -1.
       -3    1    3    3    0  502  0.34368560473E+03 -0.86770318064E+03 -0.39348956766E+03  0.10128487817E+04  0.10100000352E+00 0.  1.
</event>
<event>
 5   0  0.1186038E-04  0.2062038E+04  0.7818609E-02  0.8578153E-01
        1   -1    0    0  501    0  0.00000000000E+00  0.00000000000E+00  0.94585272534E+03  0.94585272535E+03  0.50400001928E-02 0. -1.
       -1   -1    0    0    0  501  0.00000000000E+00  0.00000000000E+00 -0.11238533428E+04  0.11238533428E+04  0.50400001928E-02 0.  1.
    10030    2    1    2    0    0  0.00000000000E+00  0.00000000000E+00 -0.17800061742E+03  0.20697060681E+04  0.20620375818E+04 0.  0.
        4    1    3    3  502    0  0.27874027415E+03 -0.90801694472E+03  0.31349875208E+03  0.10002369683E+04  0.12699999809E+01 0. -1.
       -4    1    3    3    0  502 -0.27874027415E+03  0.90801694472E+03 -0.49149936950E+03  0.10694690998E+04  0.12699999809E+01 0.  1.
</event>
<event>
 5   0  0.2467483E-04  0.2095612E+04  0.7818609E-02  0.8563179E-01
        2   -1    0    0  501    0  0.00000000000E+00  0.00000000000E+00  0.13126001859E+04  0.13126001859E+04  0.25500000920E-02 0. -1.
       -2   -1    0    0    0  501  0.00000000000E+00  0.00000000000E+00 -0.83642936117E+03  0.83642936117E+03  0.25500000920E-02 0.  1.
    10030    2    1    2    0    0  0.00000000000E+00  0.00000000000E+00  0.47617082473E+03  0.21490295471E+04  0.20956119249E+04 0.  0.
        4    1    3    3  502    0 -0.82874083644E+03 -0.60760590950E+02 -0.41645737200E+03  0.92948457705E+03  0.12699999809E+01 0. -1.
       -4    1    3    3    0  502  0.82874083644E+03  0.60760590950E+02  0.89262819673E+03  0.12195449700E+04  0.12699999809E+01 0.  1.
</event>
<event>
 5   0  0.1130848E-04  0.2071705E+04  0.7818609E-02  0.8573811E-01
       -1   -1    0    0    0  501  0.00000000000E+00  0.00000000000E+00  0.75818731506E+03  0.75818731508E+03  0.50400001928E-02 0. -1.
        1   -1    0    0  501    0  0.00000000000E+00  0.00000000000E+00 -0.14152052177E+04  0.14152052177E+04  0.50400001928E-02 0.  1.
    10030    2    1    2    0    0  0.00000000000E+00  0.00000000000E+00 -0.65701790261E+03  0.21733925328E+04  0.20717052341E+04 0.  0.
        5    1    3    3  502    0  0.64421296738E+03 -0.62803400175E+03  0.21004159897E+03  0.92389210300E+03  0.46999998093E+01 0. -1.
       -5    1    3    3    0  502 -0.64421296738E+03  0.62803400175E+03 -0.86705950158E+03  0.12495004298E+04  0.46999998093E+01 0.  1.
</event>
<event>
 5   0  0.2579241E-04  0.1645064E+04  0.7818609E-02  0.8793332E-01
       -2   -1    0    0    0  501  0.00000000000E+00  0.00000000000E+00  0.57332958969E+03  0.57332958970E+03  0.25500000920E-02 0.  1.
        2   -1    0    0  501    0  0.00000000000E+00  0.00000000000E+00 -0.11800522762E+04  0.11800522762E+04  0.25500000920E-02 0. -1.
    10030    2    1    2    0    0  0.00000000000E+00  0.00000000000E+00 -0.60672268655E+03  0.17533818659E+04  0.16450639955E+04 0.  0.
        5    1    3    3  502    0  0.73959351530E+03  0.19624940903E+03 -0.62492919422E+03  0.98796304900E+03  0.46999998093E+01 0. -1.
       -5    1    3    3    0  502 -0.73959351530E+03 -0.19624940903E+03  0.18206507669E+02  0.76541881694E+03  0.46999998093E+01 0.  1.
</event>
<event>
 5   0  0.2430898E-04  0.2168007E+04  0.7818609E-02  0.8531864E-01
        2   -1    0    0  501    0  0.00000000000E+00  0.00000000000E+00  0.16600237819E+04  0.16600237819E+04  0.25500000920E-02 0. -1.
       -2   -1    0    0    0  501  0.00000000000E+00  0.00000000000E+00 -0.70785932363E+03  0.70785932363E+03  0.25500000920E-02 0.  1.
    10030    2    1    2    0    0  0.00000000000E+00  0.00000000000E+00  0.95216445830E+03  0.23678831056E+04  0.21680067449E+04 0.  0.
        1    1    3    3  502    0  0.14938271550E+03  0.49135851769E+03 -0.56655654318E+03  0.76467947876E+03  0.50400001928E-02 0.  1.
       -1    1    3    3    0  502 -0.14938271550E+03 -0.49135851769E+03  0.15187210015E+04  0.16032036268E+04  0.50400001928E-02 0. -1.
</event>
<event>
 5   0  0.1042395E-04  0.2080538E+04  0.7818609E-02  0.8569865E-01
       -1   -1    0    0    0  501  0.00000000000E+00  0.00000000000E+00  0.14280570913E+04  0.14280570913E+04  0.50400001928E-02 0.  1.
        1   -1    0    0  501    0  0.00000000000E+00  0.00000000000E+00 -0.75778433113E+03  0.75778433114E+03  0.50400001928E-02 0. -1.
    10030    2    1    2    0    0  0.00000000000E+00  0.00000000000E+00  0.67027276021E+03  0.21858414225E+04  0.20805377072E+04 0.  0.
        3    1    3    3  502    0  0.54888732754E+03  0.28102461659E+03  0.12153394762E+04  0.13628287442E+04  0.10100000352E+00 0.  1.
       -3    1    3    3    0  502 -0.54888732754E+03 -0.28102461659E+03 -0.54506671601E+03  0.82301267825E+03  0.10100000352E+00 0. -1.
</event>
<event>
 5   0  0.1186038E-04  0.2131747E+04  0.7818609E-02  0.8547386E-01
        1   -1    0    0  501    0  0.00000000000E+00  0.00000000000E+00  0.15887819052E+04  0.15887819052E+04  0.50400001928E-02 0. -1.
       -1   -1    0    0    0  501  0.00000000000E+00  0.00000000000E+00 -0.71506728549E+03  0.71506728551E+03  0.50400001928E-02 0.  1.
    10030    2    1    2    0    0  0.00000000000E+00  0.00000000000E+00  0.87371461968E+03  0.23038491907E+04  0.21317466681E+04 0.  0.
        4    1    3    3  502    0 -0.63811040932E+03  0.56709326518E+03 -0.25287116691E+03  0.89035111380E+03  0.12699999809E+01 0.  1.
       -4    1    3    3    0  502  0.63811040932E+03 -0.56709326518E+03  0.11265857866E+04  0.14134980769E+04  0.12699999809E+01 0. -1.
</event>
<event>
 5   0  0.1186038E-04  0.2075829E+04  0.7818609E-02  0.8571966E-01
       -1   -1    0    0    0  501  0.00000000000E+00  0.00000000000E+00  0.74428143525E+03  0.74428143527E+03  0.50400001928E-02 0. -1.
        1   -1    0    0  501    0  0.00000000000E+00  0.00000000000E+00 -0.14473914679E+04  0.14473914679E+04  0.50400001928E-02 0.  1.
    10030    2    1    2    0    0  0.00000000000E+00  0.00000000000E+00 -0.70311003264E+03  0.21916729032E+04  0.20758290865E+04 0.  0.
        4    1    3    3  502    0  0.73216746083E+03  0.73478999036E+03 -0.31378923711E+03  0.10837208215E+04  0.12699999809E+01 0. -1.
       -4    1    3    3    0  502 -0.73216746083E+03 -0.73478999036E+03 -0.38932079553E+03  0.11079520817E+04  0.12699999809E+01 0.  1.
</event>
<event>
 5   0  0.1186038E-04  0.2084190E+04  0.7818609E-02  0.8568240E-01
        1   -1    0    0  501    0  0.00000000000E+00  0.00000000000E+00  0.83710317960E+03  0.83710317961E+03  0.50400001928E-02 0. -1.
       -1   -1    0    0    0  501  0.00000000000E+00  0.00000000000E+00 -0.12972859292E+04  0.12972859292E+04  0.50400001928E-02 0.  1.
    10030    2    1    2    0    0  0.00000000000E+00  0.00000000000E+00 -0.46018274958E+03  0.21343891088E+04  0.20841901796E+04 0.  0.
        4    1    3    3  502    0  0.39589608457E+03  0.42324670952E+03 -0.11170281681E+04  0.12584216416E+04  0.12699999809E+01 0.  1.
       -4    1    3    3    0  502 -0.39589608457E+03 -0.42324670952E+03  0.65684541849E+03  0.87596746720E+03  0.12699999809E+01 0. -1.
</event>
<event>
 5   0  0.1042395E-04  0.2100491E+04  0.7818609E-02  0.8561027E-01
       -1   -1    0    0    0  501  0.00000000000E+00  0.00000000000E+00  0.92289471536E+03  0.92289471538E+03  0.50400001928E-02 0. -1.
        1   -1    0    0  501    0  0.00000000000E+00  0.00000000000E+00 -0.11951691222E+04  0.11951691222E+04  0.50400001928E-02 0.  1.
    10030    2    1    2    0    0  0.00000000000E+00  0.00000000000E+00 -0.27227440684E+03  0.21180638376E+04  0.21004906730E+04 0.  0.
        3    1    3    3  502    0  0.84394248472E+03  0.42944166765E+03 -0.59420213221E+03  0.11179155816E+04  0.10100000352E+00 0.  1.
       -3    1    3    3    0  502 -0.84394248472E+03 -0.42944166765E+03  0.32192772537E+03  0.10001482560E+04  0.10100000352E+00 0. -1.
</event>
<event>
 5   0  0.2579241E-04  0.2054274E+04  0.7818609E-02  0.8581658E-01
        2   -1    0    0  501    0  0.00000000000E+00  0.00000000000E+00  0.17569619124E+04  0.17569619124E+04  0.25500000920E-02 0.  1.
       -2   -1    0    0    0  501  0.00000000000E+00  0.00000000000E+00 -0.60047449773E+03  0.60047449774E+03  0.25500000920E-02 0. -1.
    10030    2    1    2    0    0  0.00000000000E+00  0.00000000000E+00  0.11564874147E+04  0.23574364102E+04  0.20542743944E+04 0.  0.
        5    1    3    3  502    0  0.82052724270E+03  0.61157415247E+03  0.47753886444E+03  0.11293154373E+04  0.46999998093E+01 0. -1.
       -5    1    3    3    0  502 -0.82052724270E+03 -0.61157415247E+03  0.67894855026E+03  0.12281209728E+04  0.46999998093E+01 0.  1.
</event>
<event>
 5   0  0.2448804E-04  0.2097496E+04  0.7818609E-02  0.8562347E-01
        2   -1    0    0  501    0  0.00000000000E+00  0.00000000000E+00  0.18757826603E+04  0.18757826603E+04  0.25500000920E-02 0.  1.
       -2   -1    0    0    0  501  0.00000000000E+00  0.00000000000E+00 -0.58635393380E+03  0.58635393380E+03  0.25500000920E-02 0. -1.
    10030    2    1    2    0    0  0.00000000000E+00  0.00000000000E+00  0.12894287265E+04  0.24621365941E+04  0.20974961662E+04 0.  0.
        2    1    3    3  502    0  0.92270495547E+03  0.48187177464E+03  0.49490434907E+03  0.11526123185E+04  0.25500000920E-02 0. -1.
       -2    1    3    3    0  502 -0.92270495547E+03 -0.48187177464E+03  0.79452437743E+03  0.13095242756E+04  0.25500000920E-02 0.  1.
</event>
<event>
 5   0  0.1156733E-04  0.2070693E+04  0.7818609E-02  0.8574265E-01
        1   -1    0    0  501    0  0.00000000000E+00  0.00000000000E+00  0.91091173957E+03  0.91091173959E+03  0.50400001928E-02 0. -1.
       -1   -1    0    0    0  501  0.00000000000E+00  0.00000000000E+00 -0.11767791845E+04  0.11767791845E+04  0.50400001928E-02 0.  1.
    10030    2    1    2    0    0  0.00000000000E+00  0.00000000000E+00 -0.26586744489E+03  0.20876909241E+04  0.20706926127E+04 0.  0.
        2    1    3    3  502    0 -0.90509683489E+03  0.50129275529E+03 -0.17128897961E+03  0.10487300041E+04  0.25500000920E-02 0. -1.
       -2    1    3    3    0  502  0.90509683489E+03 -0.50129275529E+03 -0.94578465277E+02  0.10389609199E+04  0.25500000920E-02 0.  1.
</event>
<event>
 5   0  0.1122711E-04  0.2225089E+04  0.7818609E-02  0.8508058E-01
       -1   -1    0    0    0  501  0.00000000000E+00  0.00000000000E+00  0.95911692399E+03  0.95911692400E+03  0.50400001928E-02 0.  1.
        1   -1    0    0  501    0  0.00000000000E+00  0.00000000000E+00 -0.12905154523E+04  0.12905154523E+04  0.50400001928E-02 0. -1.
    10030    2    1    2    0    0  0.00000000000E+00  0.00000000000E+00 -0.33139852832E+03  0.22496323763E+04  0.22250889519E+04 0.  0.
        1    1    3    3  502    0 -0.85877471588E+03 -0.47237790988E+03  0.36652951361E+03  0.10464123407E+04  0.50400001928E-02 0.  1.
       -1    1    3    3    0  502  0.85877471588E+03  0.47237790988E+03 -0.69792804194E+03  0.12032200356E+04  0.50400001928E-02 0. -1.
</event>
<event>
 5   0  0.1042395E-04  0.2087903E+04  0.7818609E-02  0.8566591E-01
       -1   -1    0    0    0  501  0.00000000000E+00  0.00000000000E+00  0.10416260567E+04  0.10416260567E+04  0.50400001928E-02 0.  1.
        1   -1    0    0  501    0  0.00000000000E+00  0.00000000000E+00 -0.10462817325E+04  0.10462817325E+04  0.50400001928E-02 0. -1.
    10030    2    1    2    0    0  0.00000000000E+00  0.00000000000E+00 -0.46556757399E+01  0.20879077892E+04  0.20879025985E+04 0.  0.
        3    1    3    3  502    0 -0.16973002671E+02 -0.10224571324E+04  0.20773847075E+03  0.10434854828E+04  0.10100000352E+00 0.  1.
       -3    1    3    3    0  502  0.16973002671E+02  0.10224571324E+04 -0.21239414649E+03  0.10444223064E+04  0.10100000352E+00 0. -1.
</event>
<event>
 5   0  0.1122711E-04  0.1672758E+04  0.7818609E-02  0.8777056E-01
        1   -1    0    0  501    0  0.00000000000E+00  0.00000000000E+00  0.85905010088E+03  0.85905010090E+03  0.50400001928E-02 0. -1.
       -1   -1    0    0    0  501  0.00000000000E+00  0.00000000000E+00 -0.81430664912E+03  0.81430664913E+03  0.50400001928E-02 0.  1.
    10030    2    1    2    0    0  0.00000000000E+00  0.00000000000E+00  0.44743451769E+02  0.16733567500E+04  0.16727584513E+04 0.  0.
        1    1    3    3  502    0 -0.45656735527E+03  0.33454807615E+03  0.63834682111E+03  0.85314877319E+03  0.50400001928E-02 0. -1.
       -1    1    3    3    0  502  0.45656735527E+03 -0.33454807615E+03 -0.59360336934E+03  0.82020797684E+03  0.50400001928E-02 0.  1.
</event>
<event>
 5   0  0.1186038E-04  0.2106290E+04  0.7818609E-02  0.8558478E-01
        1   -1    0    0  501    0  0.00000000000E+00  0.00000000000E+00  0.11349582355E+04  0.11349582355E+04  0.50400001928E-02 0. -1.
       -1   -1    0    0    0  501  0.00000000000E+00  0.00000000000E+00 -0.97722916121E+03  0.97722916122E+03  0.50400001928E-02 0.  1.
    10030    2    1    2    0    0  0.00000000000E+00  0.00000000000E+00  0.15772907425E+03  0.21121873967E+04  0.21062898988E+04 0.  0.
        4    1    3    3  502    0 -0.29877623631E+03 -0.35152912899E+03  0.10282320953E+04  0.11269883861E+04  0.12699999809E+01 0. -1.
       -4    1    3    3    0  502  0.29877623631E+03  0.35152912899E+03 -0.87050302100E+03  0.98519901055E+03  0.12699999809E+01 0.  1.
</event>
<event>
 5   0  0.1186038E-04  0.2065497E+04  0.7818609E-02  0.8576597E-01
        1   -1    0    0  501    0  0.00000000000E+00  0.00000000000E+00  0.17798808303E+04  0.17798808303E+04  0.50400001928E-02 0. -1.
       -1   -1    0    0    0  501  0.00000000000E+00  0.00000000000E+00 -0.59923617629E+03  0.59923617631E+03  0.50400001928E-02 0.  1.
    10030    2    1    2    0    0  0.00000000000E+00  0.00000000000E+00  0.11806446540E+04  0.23791170066E+04  0.20654965341E+04 0.  0.
        4    1    3    3  502    0 -0.13678737582E+03  0.40710638914E+03  0.16721433195E+04  0.17264157356E+04  0.12699999809E+01 0. -1.
       -4    1    3    3    0  502  0.13678737582E+03 -0.40710638914E+03 -0.49149866542E+03  0.65270127108E+03  0.12699999809E+01 0.  1.
</event>
<event>
 5   0  0.1042395E-04  0.1764067E+04  0.7818609E-02  0.8725645E-01
        1   -1    0    0  501    0  0.00000000000E+00  0.00000000000E+00  0.11727217500E+04  0.11727217500E+04  0.50400001928E-02 0. -1.
       -1   -1    0    0    0  501  0.00000000000E+00  0.00000000000E+00 -0.66339961438E+03  0.66339961440E+03  0.50400001928E-02 0.  1.
    10030    2    1    2    0    0  0.00000000000E+00  0.00000000000E+00  0.50932213561E+03  0.18361213644E+04  0.17640670699E+04 0.  0.
        3    1    3    3  502    0  0.11623068791E+03 -0.22676792730E+03 -0.62425265790E+03  0.67425859784E+03  0.10100000352E+00 0.  1.
       -3    1    3    3    0  502 -0.11623068791E+03  0.22676792730E+03  0.11335747935E+04  0.11618627666E+04  0.10100000352E+00 0. -1.
</event>
<event>
 5   0  0.2448804E-04  0.2048945E+04  0.7818609E-02  0.8584073E-01
       -2   -1    0    0    0  501  0.00000000000E+00  0.00000000000E+00  0.70177497609E+03  0.70177497609E+03  0.25500000920E-02 0.  1.
        2   -1    0    0  501    0  0.00000000000E+00  0.00000000000E+00 -0.14955558458E+04  0.14955558458E+04  0.25500000920E-02 0. -1.
    10030    2    1    2    0    0  0.00000000000E+00  0.00000000000E+00 -0.79378086973E+03  0.21973308219E+04  0.20489447703E+04 0.  0.
        2    1    3    3  502    0  0.36178935099E+03  0.30688993374E+03  0.57687153497E+03  0.74689606625E+03  0.25500000920E-02 0.  1.
       -2    1    3    3    0  502 -0.36178935099E+03 -0.30688993374E+03 -0.13706524047E+04  0.14504347557E+04  0.25500000920E-02 0. -1.
</event>
<event>
 5   0  0.1130848E-04  0.2086165E+04  0.7818609E-02  0.8567362E-01
        1   -1    0    0  501    0  0.00000000000E+00  0.00000000000E+00  0.73689585598E+03  0.73689585600E+03  0.50400001928E-02 0. -1.
       -1   -1    0    0    0  501  0.00000000000E+00  0.00000000000E+00 -0.14764924613E+04  0.14764924613E+04  0.50400001928E-02 0.  1.
    10030    2    1    2    0    0  0.00000000000E+00  0.00000000000E+00 -0.73959660536E+03  0.22133883173E+04  0.20861650713E+04 0.  0.
        5    1    3    3  502    0 -0.51161880905E+03 -0.39482384369E+03  0.49888765173E+03  0.81642553388E+03  0.46999998093E+01 0. -1.
       -5    1    3    3    0  502  0.51161880905E+03  0.39482384369E+03 -0.12384842571E+04  0.13969627835E+04  0.46999998093E+01 0.  1.
</event>
<event>
 5   0  0.2430898E-04  0.2054039E+04  0.7818609E-02  0.8581764E-01
        2   -1    0    0  501    0  0.00000000000E+00  0.00000000000E+00  0.86728990299E+03  0.86728990300E+03  0.25500000920E-02 0.  1.
       -2   -1    0    0    0  501  0.00000000000E+00  0.00000000000E+00 -0.12161660686E+04  0.12161660686E+04  0.25500000920E-02 0. -1.
    10030    2    1    2    0    0  0.00000000000E+00  0.00000000000E+00 -0.34887616558E+03  0.20834559716E+04  0.20540385115E+04 0.  0.
        1    1    3    3  502    0 -0.43067780026E+03  0.75509686641E+03  0.38030774871E+03  0.94883540672E+03  0.50400001928E-02 0.  1.
       -1    1    3    3    0  502  0.43067780026E+03 -0.75509686641E+03 -0.72918391429E+03  0.11346205649E+04  0.50400001928E-02 0. -1.
</event>
<event>
 5   0  0.1042395E-04  0.2111930E+04  0.7818609E-02  0.8556006E-01
       -1   -1    0    0    0  501  0.00000000000E+00  0.00000000000E+00  0.83937308344E+03  0.83937308346E+03  0.50400001928E-02 0.  1.
        1   -1    0    0  501    0  0.00000000000E+00  0.00000000000E+00 -0.13284461432E+04  0.13284461432E+04  0.50400001928E-02 0. -1.
    10030    2    1    2    0    0  0.00000000000E+00  0.00000000000E+00 -0.48907305973E+03  0.21678192266E+04  0.21119298619E+04 0.  0.
        3    1    3    3  502    0  0.56115424033E+03  0.37272729464E+03  0.59015086759E+03  0.89559911475E+03  0.10100000352E+00 0.  1.
       -3    1    3    3    0  502 -0.56115424033E+03 -0.37272729464E+03 -0.10792239273E+04  0.12722201119E+04  0.10100000352E+00 0. -1.
</event>
<event>
 5   0  0.2430898E-04  0.2118028E+04  0.7818609E-02  0.8553343E-01
        2   -1    0    0  501    0  0.00000000000E+00  0.00000000000E+00  0.91664839741E+03  0.91664839742E+03  0.25500000920E-02 0.  1.
       -2   -1    0    0    0  501  0.00000000000E+00  0.00000000000E+00 -0.12234910052E+04  0.12234910052E+04  0.25500000920E-02 0. -1.
    10030    2    1    2    0    0  0.00000000000E+00  0.00000000000E+00 -0.30684260781E+03  0.21401394026E+04  0.21180283938E+04 0.  0.
        1    1    3    3  502    0 -0.32616655115E+03  0.10072060737E+04 -0.12741597591E+03  0.10663411860E+04  0.50400001928E-02 0. -1.
       -1    1    3    3    0  502  0.32616655115E+03 -0.10072060737E+04 -0.17942663190E+03  0.10737982167E+04  0.50400001928E-02 0.  1.
</event>
<event>
 5   0  0.1122711E-04  0.2080718E+04  0.7818609E-02  0.8569785E-01
       -1   -1    0    0    0  501  0.00000000000E+00  0.00000000000E+00  0.54302488877E+03  0.54302488879E+03  0.50400001928E-02 0. -1.
        1   -1    0    0  501    0  0.00000000000E+00  0.00000000000E+00 -0.19931805780E+04  0.19931805780E+04  0.50400001928E-02 0.  1.
    10030    2    1    2    0    0  0.00000000000E+00  0.00000000000E+00 -0.14501556893E+04  0.25362054668E+04  0.20807178201E+04 0.  0.
        1    1    3    3  502    0 -0.10313057532E+04 -0.12651370752E+03 -0.66116484743E+03  0.12315584559E+04  0.50400001928E-02 0. -1.
       -1    1    3    3    0  502  0.10313057532E+04  0.12651370752E+03 -0.78899084183E+03  0.13046470110E+04  0.50400001928E-02 0.  1.
</event>
<event>
 5   0  0.2579241E-04  0.2041370E+04  0.7818609E-02  0.8587519E-01
       -2   -1    0    0    0  501  0.00000000000E+00  0.00000000000E+00  0.64376014487E+03  0.64376014488E+03  0.25500000920E-02 0. -1.
        2   -1    0    0  501    0  0.00000000000E+00  0.00000000000E+00 -0.16183011345E+04  0.16183011345E+04  0.25500000920E-02 0.  1.
    10030    2    1    2    0    0  0.00000000000E+00  0.00000000000E+00 -0.97454098959E+03  0.22620612793E+04  0.20413699055E+04 0.  0.
        5    1    3    3  502    0  0.97124547370E+03 -0.27703350638E+03 -0.65054412907E+03  0.12013721687E+04  0.46999998093E+01 0. -1.
       -5    1    3    3    0  502 -0.97124547370E+03  0.27703350638E+03 -0.32399686053E+03  0.10606891107E+04  0.46999998093E+01 0.  1.
</event>
<event>
 5   0  0.1156733E-04  0.2090380E+04  0.7818609E-02  0.8565493E-01
        1   -1    0    0  501    0  0.00000000000E+00  0.00000000000E+00  0.98065390724E+03  0.98065390725E+03  0.50400001928E-02 0.  1.
       -1   -1    0    0    0  501  0.00000000000E+00  0.00000000000E+00 -0.11139735771E+04  0.11139735771E+04  0.50400001928E-02 0. -1.
    10030    2    1    2    0    0  0.00000000000E+00  0.00000000000E+00 -0.13331966986E+03  0.20946274844E+04  0.20903803874E+04 0.  0.
        2    1    3    3  502    0 -0.27931970784E+03 -0.84565027702E+02 -0.10723182716E+04  0.11113222839E+04  0.25500000920E-02 0. -1.
       -2    1    3    3    0  502  0.27931970784E+03  0.84565027702E+02  0.93899860176E+03  0.98330520044E+03  0.25500000920E-02 0.  1.
</event>
<event>
 5   0  0.2512839E-04  0.2079663E+04  0.7818609E-02  0.8570255E-01
       -2   -1    0    0    0  501  0.00000000000E+00  0.00000000000E+00  0.79739544326E+03  0.79739544327E+03  0.25500000920E-02 0. -1.
        2   -1    0    0  501    0  0.00000000000E+00  0.00000000000E+00 -0.13559767846E+04  0.13559767846E+04  0.25500000920E-02 0.  1.
    10030    2    1    2    0    0  0.00000000000E+00  0.00000000000E+00 -0.55858134137E+03  0.21533722279E+04  0.20796631547E+04 0.  0.
        3    1    3    3  502    0 -0.77384372545E+03  0.68214549152E+03 -0.14391621283E+03  0.10415701942E+04  0.10100000352E+00 0. -1.
       -3    1    3    3    0  502  0.77384372545E+03 -0.68214549152E+03 -0.41466512854E+03  0.11118020337E+04  0.10100000352E+00 0.  1.
</event>
<event>
 5   0  0.2448804E-04  0.2123144E+04  0.7818609E-02  0.8551116E-01
        2   -1    0    0  501    0  0.00000000000E+00  0.00000000000E+00  0.14242562136E+04  0.14242562136E+04  0.25500000920E-02 0. -1.
       -2   -1    0    0    0  501  0.00000000000E+00  0.00000000000E+00 -0.79124482414E+03  0.79124482414E+03  0.25500000920E-02 0.  1.
    10030    2    1    2    0    0  0.00000000000E+00  0.00000000000E+00  0.63301138946E+03  0.22155010377E+04  0.21231442318E+04 0.  0.
        2    1    3    3  502    0 -0.21595218156E+03  0.90061143391E+03  0.85791937761E+03  0.12624428534E+04  0.25500000920E-02 0. -1.
       -2    1    3    3    0  502  0.21595218156E+03 -0.90061143391E+03 -0.22490798815E+03  0.95305818435E+03  0.25500000920E-02 0.  1.
</event>
<event>
 5   0  0.1156733E-04  0.1171547E+04  0.7818609E-02  0.9138133E-01
       -1   -1    0    0    0  501  0.00000000000E+00  0.00000000000E+00  0.25310399181E+03  0.25310399186E+03  0.50400001928E-02 0.  1.
        1   -1    0    0  501    0  0.00000000000E+00  0.00000000000E+00 -0.13556895776E+04  0.13556895776E+04  0.50400001928E-02 0. -1.
    10030    2    1    2    0    0  0.00000000000E+00  0.00000000000E+00 -0.11025855857E+04  0.16087935694E+04  0.11715467447E+04 0.  0.
        2    1    3    3  502    0  0.35432600959E+03 -0.44482254331E+03 -0.74411400779E+03  0.93654667407E+03  0.25500000920E-02 0. -1.
       -2    1    3    3    0  502 -0.35432600959E+03  0.44482254331E+03 -0.35847157795E+03  0.67224689536E+03  0.25500000920E-02 0.  1.
</event>
<event>
 5   0  0.8698750E-05  0.2113757E+04  0.7818609E-02  0.8555207E-01
        4   -1    0    0  501    0  0.00000000000E+00  0.00000000000E+00  0.11879286128E+04  0.11879292917E+04  0.12699999809E+01 0. -1.
       -4   -1    0    0    0  501  0.00000000000E+00  0.00000000000E+00 -0.94028419188E+03  0.94028504955E+03  0.12699999809E+01 0.  1.
    10030    2    1    2    0    0  0.00000000000E+00  0.00000000000E+00  0.24764442090E+03  0.21282143412E+04  0.21137569687E+04 0.  0.
        2    1    3    3  502    0 -0.33486183056E+03  0.29857142424E+03  0.10872971596E+04  0.11762195604E+04  0.25500000920E-02 0. -1.
       -2    1    3    3    0  502  0.33486183056E+03 -0.29857142424E+03 -0.83965273874E+03  0.95199478078E+03  0.25500000920E-02 0.  1.
</event>
<event>
 5   0  0.2579241E-04  0.2049604E+04  0.7818609E-02  0.8583774E-01
       -2   -1    0    0    0  501  0.00000000000E+00  0.00000000000E+00  0.56261401337E+03  0.56261401337E+03  0.25500000920E-02 0.  1.
        2   -1    0    0  501    0  0.00000000000E+00  0.00000000000E+00 -0.18666769962E+04  0.18666769963E+04  0.25500000920E-02 0. -1.
    10030    2    1    2    0    0  0.00000000000E+00  0.00000000000E+00 -0.13040629829E+04  0.24292910096E+04  0.20496035095E+04 0.  0.
        5    1    3    3  502    0 -0.20664273959E+03  0.70117057394E+03 -0.15033137308E+04  0.16716206683E+04  0.46999998093E+01 0. -1.
       -5    1    3    3    0  502  0.20664273959E+03 -0.70117057394E+03  0.19925074788E+03  0.75767034132E+03  0.46999998093E+01 0.  1.
</event>
<event>
 5   0  0.2512839E-04  0.2142859E+04  0.7818609E-02  0.8542595E-01
        2   -1    0    0  501    0  0.00000000000E+00  0.00000000000E+00  0.75236327166E+03  0.75236327166E+03  0.25500000920E-02 0. -1.
       -2   -1    0    0    0  501  0.00000000000E+00  0.00000000000E+00 -0.15258074383E+04  0.15258074383E+04  0.25500000920E-02 0.  1.
    10030    2    1    2    0    0  0.00000000000E+00  0.00000000000E+00 -0.77344416660E+03  0.22781707099E+04  0.21428592825E+04 0.  0.
        3    1    3    3  502    0  0.10663976629E+03  0.43969154369E+01  0.74669752922E+03  0.75428680418E+03  0.10100000352E+00 0. -1.
       -3    1    3    3    0  502 -0.10663976629E+03 -0.43969154369E+01 -0.15201416958E+04  0.15238839057E+04  0.10100000352E+00 0.  1.
</event>
<event>
 5   0  0.2430898E-04  0.1623693E+04  0.7818609E-02  0.8806123E-01
       -2   -1    0    0    0  501  0.00000000000E+00  0.00000000000E+00  0.82965676472E+03  0.82965676473E+03  0.25500000920E-02 0.  1.
        2   -1    0    0  501    0  0.00000000000E+00  0.00000000000E+00 -0.79441866979E+03  0.79441866979E+03  0.25500000920E-02 0. -1.
    10030    2    1    2    0    0  0.00000000000E+00  0.00000000000E+00  0.35238094938E+02  0.16240754345E+04  0.16236931033E+04 0.  0.
        1    1    3    3  502    0  0.21164513754E+03 -0.11605681714E+03  0.79293508859E+03  0.82886000253E+03  0.50400001928E-02 0.  1.
       -1    1    3    3    0  502 -0.21164513754E+03  0.11605681714E+03 -0.75769699365E+03  0.79521543199E+03  0.50400001928E-02 0. -1.
</event>
<event>
 5   0  0.1130848E-04  0.2130362E+04  0.7818609E-02  0.8547985E-01
       -1   -1    0    0    0  501  0.00000000000E+00  0.00000000000E+00  0.11711553734E+04  0.11711553734E+04  0.50400001928E-02 0. -1.
        1   -1    0    0  501    0  0.00000000000E+00  0.00000000000E+00 -0.96879633167E+03  0.96879633168E+03  0.50400001928E-02 0.  1.
    10030    2    1    2    0    0  0.00000000000E+00  0.00000000000E+00  0.20235904173E+03  0.21399517051E+04  0.21303624383E+04 0.  0.
        5    1    3    3  502    0 -0.64093532464E+03 -0.71727643350E+03  0.56073786773E+03  0.11134328084E+04  0.46999998093E+01 0. -1.
       -5    1    3    3    0  502  0.64093532464E+03  0.71727643350E+03 -0.35837882601E+03  0.10265188967E+04  0.46999998093E+01 0.  1.
</event>
<event>
 5   0  0.1122711E-04  0.2067827E+04  0.7818609E-02  0.8575550E-01
       -1   -1    0    0    0  501  0.00000000000E+00  0.00000000000E+00  0.11714667764E+04  0.11714667764E+04  0.50400001928E-02 0. -1.
        1   -1    0    0  501    0  0.00000000000E+00  0.00000000000E+00 -0.91251131496E+03  0.91251131498E+03  0.50400001928E-02 0.  1.
    10030    2    1    2    0    0  0.00000000000E+00  0.00000000000E+00  0.25895546147E+03  0.20839780914E+04  0.20678265775E+04 0.  0.
        1    1    3    3  502    0  0.74012471664E+03  0.92284252475E+02  0.85108418072E+03  0.11316559822E+04  0.50400001928E-02 0. -1.
       -1    1    3    3    0  502 -0.74012471664E+03 -0.92284252475E+02 -0.59212871925E+03  0.95232210918E+03  0.50400001928E-02 0.  1.
</event>
<event>
 5   0  0.2448804E-04  0.1371473E+04  0.7818609E-02  0.8974731E-01
       -2   -1    0    0    0  501  0.00000000000E+00  0.00000000000E+00  0.66832853774E+03  0.66832853774E+03  0.25500000920E-02 0. -1.
        2   -1    0    0  501    0  0.00000000000E+00  0.00000000000E+00 -0.70359739220E+03  0.70359739221E+03  0.25500000920E-02 0.  1.
    10030    2    1    2    0    0  0.00000000000E+00  0.00000000000E+00 -0.35268854467E+02  0.13719259300E+04  0.13714725171E+04 0.  0.
        2    1    3    3  502    0 -0.44106647888E+02 -0.18318042425E+03  0.64192697863E+03  0.66900725714E+03  0.25500000920E-02 0. -1.
       -2    1    3    3    0  502  0.44106647888E+02  0.18318042425E+03 -0.67719583309E+03  0.70291867281E+03  0.25500000920E-02 0.  1.
</event>
<event>
 5   0  0.1156733E-04  0.2317542E+04  0.7818609E-02  0.8471036E-01
       -1   -1    0    0    0  501  0.00000000000E+00  0.00000000000E+00  0.12210906357E+04  0.12210906357E+04  0.50400001928E-02 0.  1.
        1   -1    0    0  501    0  0.00000000000E+00  0.00000000000E+00 -0.10996322345E+04  0.10996322345E+04  0.50400001928E-02 0. -1.
    10030    2    1    2    0    0  0.00000000000E+00  0.00000000000E+00  0.12145840117E+03  0.23207228702E+04  0.23175423399E+04 0.  0.
        2    1    3    3  502    0 -0.34268539414E+03  0.32976120779E+03  0.11188604335E+04  0.12157402696E+04  0.25500000920E-02 0.  1.
       -2    1    3    3    0  502  0.34268539414E+03 -0.32976120779E+03 -0.99740203232E+03  0.11049826006E+04  0.25500000920E-02 0. -1.
</event>
<event>
 5   0  0.2430898E-04  0.2108193E+04  0.7818609E-02  0.8557643E-01
       -2   -1    0    0    0  501  0.00000000000E+00  0.00000000000E+00  0.63609108386E+03  0.63609108386E+03  0.25500000920E-02 0.  1.
        2   -1    0    0  501    0  0.00000000000E+00  0.00000000000E+00 -0.17467932744E+04  0.17467932744E+04  0.25500000920E-02 0. -1.
    10030    2    1    2    0    0  0.00000000000E+00  0.00000000000E+00 -0.11107021905E+04  0.23828843582E+04  0.21081931858E+04 0.  0.
        1    1    3    3  502    0  0.68459974864E+03  0.49257602753E+03 -0.12700453544E+04  0.15245731078E+04  0.50400001928E-02 0. -1.
       -1    1    3    3    0  502 -0.68459974864E+03 -0.49257602753E+03  0.15934316389E+03  0.85831125044E+03  0.50400001928E-02 0.  1.
</event>
<event>
 5   0  0.2579241E-04  0.2019780E+04  0.7818609E-02  0.8597428E-01
       -2   -1    0    0    0  501  0.00000000000E+00  0.00000000000E+00  0.11742459990E+04  0.11742459990E+04  0.25500000920E-02 0.  1.
        2   -1    0    0  501    0  0.00000000000E+00  0.00000000000E+00 -0.86853878058E+03  0.86853878059E+03  0.25500000920E-02 0. -1.
    10030    2    1    2    0    0  0.00000000000E+00  0.00000000000E+00  0.30570721841E+03  0.20427847796E+04  0.20197803723E+04 0.  0.
        5    1    3    3  502    0 -0.34280086131E+03  0.61775999828E+03 -0.57697188857E+03  0.91217240486E+03  0.46999998093E+01 0. -1.
       -5    1    3    3    0  502  0.34280086131E+03 -0.61775999828E+03  0.88267910698E+03  0.11306123747E+04  0.46999998093E+01 0.  1.
</event>
<event>
 5   0  0.1042395E-04  0.1845954E+04  0.7818609E-02  0.8682236E-01
        1   -1    0    0  501    0  0.00000000000E+00  0.00000000000E+00  0.43410471935E+03  0.43410471938E+03  0.50400001928E-02 0. -1.
       -1   -1    0    0    0  501  0.00000000000E+00  0.00000000000E+00 -0.19623995046E+04  0.19623995046E+04  0.50400001928E-02 0.  1.
    10030    2    1    2    0    0  0.00000000000E+00  0.00000000000E+00 -0.15282947853E+04  0.23965042240E+04  0.18459543724E+04 0.  0.
        3    1    3    3  502    0 -0.70896383263E+03 -0.35194190572E+01 -0.15313714188E+04  0.16875249731E+04  0.10100000352E+00 0.  1.
       -3    1    3    3    0  502  0.70896383263E+03  0.35194190572E+01  0.30766335734E+01  0.70897925087E+03  0.10100000352E+00 0. -1.
</event>
<event>
 5   0  0.1130848E-04  0.2077291E+04  0.7818609E-02  0.8571313E-01
        1   -1    0    0  501    0  0.00000000000E+00  0.00000000000E+00  0.11597667162E+04  0.11597667162E+04  0.50400001928E-02 0. -1.
       -1   -1    0    0    0  501  0.00000000000E+00  0.00000000000E+00 -0.93017389635E+03  0.93017389637E+03  0.50400001928E-02 0.  1.
    10030    2    1    2    0    0  0.00000000000E+00  0.00000000000E+00  0.22959281987E+03  0.20899406126E+04  0.20772912413E+04 0.  0.
        5    1    3    3  502    0 -0.38844895023E+03 -0.71170265059E+03 -0.53827058838E+03  0.97322688316E+03  0.46999998093E+01 0.  1.
       -5    1    3    3    0  502  0.38844895023E+03  0.71170265059E+03  0.76786340826E+03  0.11167137294E+04  0.46999998093E+01 0. -1.
</event>
<event>
 5   0  0.2430898E-04  0.2024987E+04  0.7818609E-02  0.8595027E-01
       -2   -1    0    0    0  501  0.00000000000E+00  0.00000000000E+00  0.96896516149E+03  0.96896516150E+03  0.25500000920E-02 0. -1.
        2   -1    0    0  501    0  0.00000000000E+00  0.00000000000E+00 -0.10579770294E+04  0.10579770294E+04  0.25500000920E-02 0.  1.
    10030    2    1    2    0    0  0.00000000000E+00  0.00000000000E+00 -0.89011867856E+02  0.20269421909E+04  0.20249867981E+04 0.  0.
        1    1    3    3  502    0  0.27629387803E+03 -0.97406310110E+03 -0.46885436588E+02  0.10135755898E+04  0.50400001928E-02 0.  1.
       -1    1    3    3    0  502 -0.27629387803E+03  0.97406310110E+03 -0.42126431268E+02  0.10133666011E+04  0.50400001928E-02 0. -1.
</event>
<event>
 5   0  0.2467483E-04  0.2111191E+04  0.7818609E-02  0.8556330E-01
       -2   -1    0    0    0  501  0.00000000000E+00  0.00000000000E+00  0.75176703339E+03  0.75176703340E+03  0.25500000920E-02 0.  1.
        2   -1    0    0  501    0  0.00000000000E+00  0.00000000000E+00 -0.14822164534E+04  0.14822164534E+04  0.25500000920E-02 0. -1.
    10030    2    1    2    0    0  0.00000000000E+00  0.00000000000E+00 -0.73044941997E+03  0.22339834868E+04  0.21111906271E+04 0.  0.
        4    1    3    3  502    0  0.77072394076E+01  0.28305282038E+03 -0.14412788048E+04  0.14688310001E+04  0.12699999809E+01 0. -1.
       -4    1    3    3    0  502 -0.77072394076E+01 -0.28305282038E+03  0.71082938483E+03  0.76515248670E+03  0.12699999809E+01 0.  1.
</event>
<event>
 5   0  0.1156733E-04  0.2046552E+04  0.7818609E-02  0.8585160E-01
       -1   -1    0    0    0  501  0.00000000000E+00  0.00000000000E+00  0.66137016852E+03  0.66137016854E+03  0.50400001928E-02 0.  1.
        1   -1    0    0  501    0  0.00000000000E+00  0.00000000000E+00 -0.15832188721E+04  0.15832188721E+04  0.50400001928E-02 0. -1.
    10030    2    1    2    0    0  0.00000000000E+00  0.00000000000E+00 -0.92184870357E+03  0.22445890406E+04  0.20465519610E+04 0.  0.
        2    1    3    3  502    0 -0.67207378865E+03  0.64751402142E+02 -0.13042354522E+04  0.14686408806E+04  0.25500000920E-02 0. -1.
       -2    1    3    3    0  502  0.67207378865E+03 -0.64751402142E+02  0.38238674863E+03  0.77594816000E+03  0.25500000920E-02 0.  1.
</event>
<event>
 5   0  0.1186038E-04  0.2061182E+04  0.7818609E-02  0.8578538E-01
       -1   -1    0    0    0  501  0.00000000000E+00  0.00000000000E+00  0.84349494652E+03  0.84349494653E+03  0.50400001928E-02 0.  1.
        1   -1    0    0  501    0  0.00000000000E+00  0.00000000000E+00 -0.12591874619E+04  0.12591874619E+04  0.50400001928E-02 0. -1.
    10030    2    1    2    0    0  0.00000000000E+00  0.00000000000E+00 -0.41569251542E+03  0.21026824085E+04  0.20611824382E+04 0.  0.
        4    1    3    3  502    0  0.47780339658E+03 -0.72971416278E+03 -0.76784113796E+03  0.11620501156E+04  0.12699999809E+01 0. -1.
       -4    1    3    3    0  502 -0.47780339658E+03  0.72971416278E+03  0.35214862255E+03  0.94063229287E+03  0.12699999809E+01 0.  1.
</event>
<event>
 5   0  0.2512839E-04  0.2072616E+04  0.7818609E-02  0.8573403E-01
        2   -1    0    0  501    0  0.00000000000E+00  0.00000000000E+00  0.14716522456E+04  0.14716522456E+04  0.25500000920E-02 0.  1.
       -2   -1    0    0    0  501  0.00000000000E+00  0.00000000000E+00 -0.72974727484E+03  0.72974727485E+03  0.25500000920E-02 0. -1.
    10030    2    1    2    0    0  0.00000000000E+00  0.00000000000E+00  0.74190497072E+03  0.22013995204E+04  0.20726159468E+04 0.  0.
        3    1    3    3  502    0 -0.52086732397E+03  0.26619371114E+03  0.12795426439E+04  0.14069084010E+04  0.10100000352E+00 0.  1.
       -3    1    3    3    0  502  0.52086732397E+03 -0.26619371114E+03 -0.53763767317E+03  0.79449111943E+03  0.10100000352E+00 0. -1.
</event>
<event>
 5   0  0.1122711E-04  0.2091912E+04  0.7818609E-02  0.8564815E-01
       -1   -1    0    0    0  501  0.00000000000E+00  0.00000000000E+00  0.16403470364E+04  0.16403470364E+04  0.50400001928E-02 0. -1.
        1   -1    0    0  501    0  0.00000000000E+00  0.00000000000E+00 -0.66694656529E+03  0.66694656531E+03  0.50400001928E-02 0.  1.
    10030    2    1    2    0    0  0.00000000000E+00  0.00000000000E+00  0.97340047110E+03  0.23072936017E+04  0.20919118737E+04 0.  0.
        1    1    3    3  502    0  0.54668217991E+03 -0.36835467640E+03  0.13823936588E+04  0.15315217273E+04  0.50400001928E-02 0. -1.
       -1    1    3    3    0  502 -0.54668217991E+03  0.36835467640E+03 -0.40899318768E+03  0.77577187436E+03  0.50400001928E-02 0.  1.
</event>
<event>
 5   0  0.2579241E-04  0.1696749E+04  0.7818609E-02  0.8763220E-01
       -2   -1    0    0    0  501  0.00000000000E+00  0.00000000000E+00  0.47305397393E+03  0.47305397394E+03  0.25500000920E-02 0.  1.
        2   -1    0    0  501    0  0.00000000000E+00  0.00000000000E+00 -0.15214748059E+04  0.15214748059E+04  0.25500000920E-02 0. -1.
    10030    2    1    2    0    0  0.00000000000E+00  0.00000000000E+00 -0.10484208320E+04  0.19945287798E+04  0.16967494844E+04 0.  0.
        5    1    3    3  502    0 -0.17410559427E+03 -0.20132252983E+03 -0.14711075438E+04  0.14949993359E+04  0.46999998093E+01 0. -1.
       -5    1    3    3    0  502  0.17410559427E+03  0.20132252983E+03  0.42268671184E+03  0.49952944391E+03  0.46999998093E+01 0.  1.
</event>
<event>
 5   0  0.1156733E-04  0.2026030E+04  0.7818609E-02  0.8594546E-01
       -1   -1    0    0    0  501  0.00000000000E+00  0.00000000000E+00  0.71590793833E+03  0.71590793835E+03  0.50400001928E-02 0.  1.
        1   -1    0    0  501    0  0.00000000000E+00  0.00000000000E+00 -0.14334241668E+04  0.14334241668E+04  0.50400001928E-02 0. -1.
    10030    2    1    2    0    0  0.00000000000E+00  0.00000000000E+00 -0.71751622842E+03  0.21493321051E+04  0.20260303453E+04 0.  0.
        2    1    3    3  502    0  0.14675690805E+03  0.99897160924E+03 -0.27180733011E+03  0.10456390825E+04  0.25500000920E-02 0.  1.
       -2    1    3    3    0  502 -0.14675690805E+03 -0.99897160924E+03 -0.44570889831E+03  0.11036930226E+04  0.25500000920E-02 0. -1.
</event>
<event>
 5   0  0.2430898E-04  0.2223632E+04  0.7818609E-02  0.8508656E-01
        2   -1    0    0  501    0  0.00000000000E+00  0.00000000000E+00  0.13419318167E+04  0.13419318167E+04  0.25500000920E-02 0.  1.
       -2   -1    0    0    0  501  0.00000000000E+00  0.00000000000E+00 -0.92116056319E+03  0.92116056319E+03  0.25500000920E-02 0. -1.
    10030    2    1    2    0    0  0.00000000000E+00  0.00000000000E+00  0.42077125352E+03  0.22630923799E+04  0.22236318653E+04 0.  0.
        1    1    3    3  502    0  0.95390211580E+03 -0.47217036613E+03 -0.11665871951E+03  0.10707396313E+04  0.50400001928E-02 0. -1.
       -1    1    3    3    0  502 -0.95390211580E+03  0.47217036613E+03  0.53742997303E+03  0.11923527486E+04  0.50400001928E-02 0.  1.
</event>
<event>
 5   0  0.2448804E-04  0.1638473E+04  0.7818609E-02  0.8797255E-01
        2   -1    0    0  501    0  0.00000000000E+00  0.00000000000E+00  0.14541936177E+04  0.14541936177E+04  0.25500000920E-02 0.  1.
       -2   -1    0    0    0  501  0.00000000000E+00  0.00000000000E+00 -0.46152598288E+03  0.46152598289E+03  0.25500000920E-02 0. -1.
    10030    2    1    2    0    0  0.00000000000E+00  0.00000000000E+00  0.99266763485E+03  0.19157196006E+04  0.16384726287E+04 0.  0.
        2    1    3    3  502    0  0.27212349003E+03  0.73061456689E+03  0.20216800092E+03  0.80543202058E+03  0.25500000920E-02 0. -1.
       -2    1    3    3    0  502 -0.27212349003E+03 -0.73061456689E+03  0.79049963393E+03  0.11102875801E+04  0.25500000920E-02 0.  1.
</event>
<event>
 5   0  0.8698750E-05  0.2087632E+04  0.7818609E-02  0.8566711E-01
        3   -1    0    0  501    0  0.00000000000E+00  0.00000000000E+00  0.65102272364E+03  0.65102273148E+03  0.10100000352E+00 0.  1.
       -3   -1    0    0    0  501  0.00000000000E+00  0.00000000000E+00 -0.16735998299E+04  0.16735998330E+04  0.10100000352E+00 0. -1.
    10030    2    1    2    0    0  0.00000000000E+00  0.00000000000E+00 -0.10225771063E+04  0.23246225645E+04  0.20876317034E+04 0.  0.
        4    1    3    3  502    0  0.29037782715E+03 -0.70610788513E+03 -0.13038798243E+04  0.15109638768E+04  0.12699999809E+01 0. -1.
       -4    1    3    3    0  502 -0.29037782715E+03  0.70610788513E+03  0.28130271799E+03  0.81365868765E+03  0.12699999809E+01 0.  1.
</event>
<event>
 5   0  0.1186038E-04  0.1063497E+04  0.7818609E-02  0.9241519E-01
       -1   -1    0    0    0  501  0.00000000000E+00  0.00000000000E+00  0.28766927469E+03  0.28766927473E+03  0.50400001928E-02 0. -1.
        1   -1    0    0  501    0  0.00000000000E+00  0.00000000000E+00 -0.98292260073E+03  0.98292260074E+03  0.50400001928E-02 0.  1.
    10030    2    1    2    0    0  0.00000000000E+00  0.00000000000E+00 -0.69525332604E+03  0.12705918755E+04  0.10634973092E+04 0.  0.
        4    1    3    3  502    0  0.48537281421E+03 -0.21291715103E+03 -0.39879872190E+03  0.66329670244E+03  0.12699999809E+01 0. -1.
       -4    1    3    3    0  502 -0.48537281421E+03  0.21291715103E+03 -0.29645460414E+03  0.60729517303E+03  0.12699999809E+01 0.  1.
</event>
<event>
 5   0  0.2467483E-04  0.2045556E+04  0.7818609E-02  0.8585613E-01
        2   -1    0    0  501    0  0.00000000000E+00  0.00000000000E+00  0.11821385960E+04  0.11821385960E+04  0.25500000920E-02 0. -1.
       -2   -1    0    0    0  501  0.00000000000E+00  0.00000000000E+00 -0.88490007720E+03  0.88490007721E+03  0.25500000920E-02 0.  1.
    10030    2    1    2    0    0  0.00000000000E+00  0.00000000000E+00  0.29723851884E+03  0.20670386733E+04  0.20455557044E+04 0.  0.
        4    1    3    3  502    0 -0.31743470989E+03 -0.28534796978E+03  0.10878345912E+04  0.11685777551E+04  0.12699999809E+01 0. -1.
       -4    1    3    3    0  502  0.31743470989E+03  0.28534796978E+03 -0.79059607239E+03  0.89846091817E+03  0.12699999809E+01 0.  1.
</event>
<event>
 5   0  0.2579241E-04  0.2065244E+04  0.7818609E-02  0.8576710E-01
        2   -1    0    0  501    0  0.00000000000E+00  0.00000000000E+00  0.73159658991E+03  0.73159658991E+03  0.25500000920E-02 0. -1.
       -2   -1    0    0    0  501  0.00000000000E+00  0.00000000000E+00 -0.14575089476E+04  0.14575089476E+04  0.25500000920E-02 0.  1.
    10030    2    1    2    0    0  0.00000000000E+00  0.00000000000E+00 -0.72591235767E+03  0.21891055375E+04  0.20652443689E+04 0.  0.
        5    1    3    3  502    0  0.38370893476E+03 -0.12076772408E+01 -0.13791239313E+04  0.14315162985E+04  0.46999998093E+01 0.  1.
       -5    1    3    3    0  502 -0.38370893476E+03  0.12076772408E+01  0.65321157361E+03  0.75758923897E+03  0.46999998093E+01 0. -1.
</event>
<event>
 5   0  0.1122711E-04  0.2169361E+04  0.7818609E-02  0.8531290E-01
       -1   -1    0    0    0  501  0.00000000000E+00  0.00000000000E+00  0.89381668078E+03  0.89381668079E+03  0.50400001928E-02 0. -1.
        1   -1    0    0  501    0  0.00000000000E+00  0.00000000000E+00 -0.13163008409E+04  0.13163008409E+04  0.50400001928E-02 0.  1.
    10030    2    1    2    0    0  0.00000000000E+00  0.00000000000E+00 -0.42248416008E+03  0.22101175217E+04  0.21693608722E+04 0.  0.
        1    1    3    3  502    0  0.45422427161E+02 -0.84710575542E+03  0.47738607740E+03  0.97342119593E+03  0.50400001928E-02 0. -1.
       -1    1    3    3    0  502 -0.45422427161E+02  0.84710575542E+03 -0.89987023749E+03  0.12366963257E+04  0.50400001928E-02 0.  1.
</event>
<event>
 5   0  0.2467483E-04  0.2081591E+04  0.7818609E-02  0.8569396E-01
       -2   -1    0    0    0  501  0.00000000000E+00  0.00000000000E+00  0.14809780533E+04  0.14809780533E+04  0.25500000920E-02 0. -1.
        2   -1    0    0  501    0  0.00000000000E+00  0.00000000000E+00 -0.73144585363E+03  0.73144585363E+03  0.25500000920E-02 0.  1.
    10030    2    1    2    0    0  0.00000000000E+00  0.00000000000E+00  0.74953219967E+03  0.22124239069E+04  0.20815909842E+04 0.  0.
        4    1    3    3  502    0  0.56886535776E+03  0.59532981116E+03  0.10513517915E+04  0.13354278646E+04  0.12699999809E+01 0. -1.
       -4    1    3    3    0  502 -0.56886535776E+03 -0.59532981116E+03 -0.30181959181E+03  0.87699604230E+03  0.12699999809E+01 0.  1.
</event>
<event>
 5   0  0.8698750E-05  0.2100371E+04  0.7818609E-02  0.8561080E-01
       -3   -1    0    0    0  501  0.00000000000E+00  0.00000000000E+00  0.96233813939E+03  0.96233814469E+03  0.10100000352E+00 0. -1.
        3   -1    0    0  501    0  0.00000000000E+00  0.00000000000E+00 -0.11460517047E+04  0.11460517091E+04  0.10100000352E+00 0.  1.
    10030    2    1    2    0    0  0.00000000000E+00  0.00000000000E+00 -0.18371356527E+03  0.21083898538E+04  0.21003707057E+04 0.  0.
        5    1    3    3  502    0  0.38311565359E+03  0.50411705393E+03 -0.93288347509E+03  0.11274773950E+04  0.46999998093E+01 0.  1.
       -5    1    3    3    0  502 -0.38311565359E+03 -0.50411705393E+03  0.74916990982E+03  0.98091245882E+03  0.46999998093E+01 0. -1.
</event>
<event>
 5   0  0.1042395E-04  0.2085275E+04  0.7818609E-02  0.8567758E-01
       -1   -1    0    0    0  501  0.00000000000E+00  0.00000000000E+00  0.15374445919E+04  0.15374445919E+04  0.50400001928E-02 0. -1.
        1   -1    0    0  501    0  0.00000000000E+00  0.00000000000E+00 -0.70707759715E+03  0.70707759716E+03  0.50400001928E-02 0.  1.
    10030    2    1    2    0    0  0.00000000000E+00  0.00000000000E+00  0.83036699479E+03  0.22445221891E+04  0.20852746849E+04 0.  0.
        3    1    3    3  502    0  0.86177576265E+03  0.32967124814E+03  0.93780628748E+03  0.13156067954E+04  0.10100000352E+00 0.  1.
       -3    1    3    3    0  502 -0.86177576265E+03 -0.32967124814E+03 -0.10743929269E+03  0.92891539375E+03  0.10100000352E+00 0. -1.
</event>
<event>
 5   0  0.1156733E-04  0.2013367E+04  0.7818609E-02  0.8600397E-01
       -1   -1    0    0    0  501  0.00000000000E+00  0.00000000000E+00  0.61176486019E+03  0.61176486021E+03  0.50400001928E-02 0. -1.
        1   -1    0    0  501    0  0.00000000000E+00  0.00000000000E+00 -0.16565378657E+04  0.16565378657E+04  0.50400001928E-02 0.  1.
    10030    2    1    2    0    0  0.00000000000E+00  0.00000000000E+00 -0.10447730055E+04  0.22683027259E+04  0.20133669867E+04 0.  0.
        2    1    3    3  502    0 -0.58565736230E+03  0.76464565802E+03 -0.19250729893E+03  0.98221005314E+03  0.25500000920E-02 0. -1.
       -2    1    3    3    0  502  0.58565736230E+03 -0.76464565802E+03 -0.85226570654E+03  0.12860926727E+04  0.25500000920E-02 0.  1.
</event>
<event>
 5   0  0.1156733E-04  0.2106986E+04  0.7818609E-02  0.8558172E-01
       -1   -1    0    0    0  501  0.00000000000E+00  0.00000000000E+00  0.73246748687E+03  0.73246748688E+03  0.50400001928E-02 0. -1.
        1   -1    0    0  501    0  0.00000000000E+00  0.00000000000E+00 -0.15152176446E+04  0.15152176446E+04  0.50400001928E-02 0.  1.
    10030    2    1    2    0    0  0.00000000000E+00  0.00000000000E+00 -0.78275015772E+03  0.22476851315E+04  0.21069861511E+04 0.  0.
        2    1    3    3  502    0  0.78564491073E+03 -0.29994605968E+03  0.28553874078E+03  0.88810919203E+03  0.25500000920E-02 0. -1.
       -2    1    3    3    0  502 -0.78564491073E+03  0.29994605968E+03 -0.10682888985E+04  0.13595759395E+04  0.25500000920E-02 0.  1.
</event>
<event>
 5   0  0.1122711E-04  0.2146074E+04  0.7818609E-02  0.8541215E-01
        1   -1    0    0  501    0  0.00000000000E+00  0.00000000000E+00  0.97005832535E+03  0.97005832536E+03  0.50400001928E-02 0. -1.
       -1   -1    0    0    0  501  0.00000000000E+00  0.00000000000E+00 -0.11869476924E+04  0.11869476924E+04  0.50400001928E-02 0.  1.
    10030    2    1    2    0    0  0.00000000000E+00  0.00000000000E+00 -0.21688936704E+03  0.21570060178E+04  0.21460740815E+04 0.  0.
        1    1    3    3  502    0 -0.23738876643E+03  0.75769943500E+03  0.61699826545E+03  0.10055589092E+04  0.50400001928E-02 0. -1.
       -1    1    3    3    0  502  0.23738876643E+03 -0.75769943500E+03 -0.83388763250E+03  0.11514471086E+04  0.50400001928E-02 0.  1.
</event>
<event>
 5   0  0.1130848E-04  0.2182503E+04  0.7818609E-02  0.8525746E-01
        1   -1    0    0  501    0  0.00000000000E+00  0.00000000000E+00  0.10299800516E+04  0.10299800516E+04  0.50400001928E-02 0. -1.
       -1   -1    0    0    0  501  0.00000000000E+00  0.00000000000E+00 -0.11561679891E+04  0.11561679892E+04  0.50400001928E-02 0.  1.
    10030    2    1    2    0    0  0.00000000000E+00  0.00000000000E+00 -0.12618793753E+03  0.21861480408E+04  0.21825031181E+04 0.  0.
        5    1    3    3  502    0  0.11041040453E+03 -0.10615304085E+04 -0.29100551873E+03  0.11062294371E+04  0.46999998093E+01 0. -1.
       -5    1    3    3    0  502 -0.11041040453E+03  0.10615304085E+04  0.16481758120E+03  0.10799186037E+04  0.46999998093E+01 0.  1.
</event>
<event>
 5   0  0.1156733E-04  0.1982016E+04  0.7818609E-02  0.8615075E-01
       -1   -1    0    0    0  501  0.00000000000E+00  0.00000000000E+00  0.48896142913E+03  0.48896142916E+03  0.50400001928E-02 0. -1.
        1   -1    0    0  501    0  0.00000000000E+00  0.00000000000E+00 -0.20085374666E+04  0.20085374666E+04  0.50400001928E-02 0.  1.
    10030    2    1    2    0    0  0.00000000000E+00  0.00000000000E+00 -0.15195760375E+04  0.24974988958E+04  0.19820164986E+04 0.  0.
        2    1    3    3  502    0  0.53311696722E+03 -0.23648134006E+03 -0.17693944304E+04  0.18630334874E+04  0.25500000920E-02 0.  1.
       -2    1    3    3    0  502 -0.53311696722E+03  0.23648134006E+03  0.24981839293E+03  0.63446540835E+03  0.25500000920E-02 0. -1.
</event>
<event>
 5   0  0.2467483E-04  0.2101385E+04  0.7818609E-02  0.8560634E-01
        2   -1    0    0  501    0  0.00000000000E+00  0.00000000000E+00  0.17840736143E+04  0.17840736143E+04  0.25500000920E-02 0.  1.
       -2   -1    0    0    0  501  0.00000000000E+00  0.00000000000E+00 -0.61878302125E+03  0.61878302125E+03  0.25500000920E-02 0. -1.
    10030    2    1    2    0    0  0.00000000000E+00  0.00000000000E+00  0.11652905930E+04  0.24028566355E+04  0.21013847446E+04 0.  0.
        4    1    3    3  502    0 -0.86271097913E+03 -0.73084595973E+02 -0.98019273312E+02  0.87133287699E+03  0.12699999809E+01 0. -1.
       -4    1    3    3    0  502  0.86271097913E+03  0.73084595973E+02  0.12633098663E+04  0.15315237585E+04  0.12699999809E+01 0.  1.
</event>
<event>
 5   0  0.2467483E-04  0.2100827E+04  0.7818609E-02  0.8560879E-01
       -2   -1    0    0    0  501  0.00000000000E+00  0.00000000000E+00  0.63200461531E+03  0.63200461532E+03  0.25500000920E-02 0. -1.
        2   -1    0    0  501    0  0.00000000000E+00  0.00000000000E+00 -0.17458230839E+04  0.17458230839E+04  0.25500000920E-02 0.  1.
    10030    2    1    2    0    0  0.00000000000E+00  0.00000000000E+00 -0.11138184686E+04  0.23778276992E+04  0.21008267387E+04 0.  0.
        4    1    3    3  502    0 -0.29917497473E+02 -0.48283531744E+03  0.49841372062E+03  0.69458106095E+03  0.12699999809E+01 0. -1.
       -4    1    3    3    0  502  0.29917497473E+02  0.48283531744E+03 -0.16122321892E+04  0.16832466383E+04  0.12699999809E+01 0.  1.
</event>
<event>
 5   0  0.2430898E-04  0.1301584E+04  0.7818609E-02  0.9028310E-01
       -2   -1    0    0    0  501  0.00000000000E+00  0.00000000000E+00  0.76716583664E+03  0.76716583664E+03  0.25500000920E-02 0.  1.
        2   -1    0    0  501    0  0.00000000000E+00  0.00000000000E+00 -0.55207086762E+03  0.55207086763E+03  0.25500000920E-02 0. -1.
    10030    2    1    2    0    0  0.00000000000E+00  0.00000000000E+00  0.21509496901E+03  0.13192367043E+04  0.13015835110E+04 0.  0.
        1    1    3    3  502    0 -0.37630524187E+03  0.21775135635E+03 -0.38328137922E+03  0.57959115240E+03  0.50400001928E-02 0. -1.
       -1    1    3    3    0  502  0.37630524187E+03 -0.21775135635E+03  0.59837634823E+03  0.73964555187E+03  0.50400001928E-02 0.  1.
</event>
<event>
 5   0  0.1186038E-04  0.2237822E+04  0.7818609E-02  0.8502849E-01
       -1   -1    0    0    0  501  0.00000000000E+00  0.00000000000E+00  0.15939311353E+04  0.15939311353E+04  0.50400001928E-02 0.  1.
        1   -1    0    0  501    0  0.00000000000E+00  0.00000000000E+00 -0.78545539191E+03  0.78545539193E+03  0.50400001928E-02 0. -1.
    10030    2    1    2    0    0  0.00000000000E+00  0.00000000000E+00  0.80847574338E+03  0.23793865272E+04  0.22378219809E+04 0.  0.
        4    1    3    3  502    0  0.66330349731E+02  0.15210265315E+02 -0.78325221902E+03  0.78620399322E+03  0.12699999809E+01 0. -1.
       -4    1    3    3    0  502 -0.66330349731E+02 -0.15210265315E+02  0.15917279624E+04  0.15931825340E+04  0.12699999809E+01 0.  1.
</event>
<event>
 5   0  0.1186038E-04  0.2214380E+04  0.7818609E-02  0.8512467E-01
       -1   -1    0    0    0  501  0.00000000000E+00  0.00000000000E+00  0.57968911070E+03  0.57968911073E+03  0.50400001928E-02 0.  1.
        1   -1    0    0  501    0  0.00000000000E+00  0.00000000000E+00 -0.21147017403E+04  0.21147017403E+04  0.50400001928E-02 0. -1.
    10030    2    1    2    0    0  0.00000000000E+00  0.00000000000E+00 -0.15350126296E+04  0.26943908511E+04  0.22143798873E+04 0.  0.
        4    1    3    3  502    0 -0.61309937876E+03 -0.78960510627E+03 -0.13465927872E+04  0.16771048922E+04  0.12699999809E+01 0.  1.
       -4    1    3    3    0  502  0.61309937876E+03  0.78960510627E+03 -0.18841984239E+03  0.10172859588E+04  0.12699999809E+01 0. -1.
</event>
<event>
 5   0  0.2579241E-04  0.2099832E+04  0.7818609E-02  0.8561317E-01
       -2   -1    0    0    0  501  0.00000000000E+00  0.00000000000E+00  0.90099430727E+03  0.90099430728E+03  0.25500000920E-02 0.  1.
        2   -1    0    0  501    0  0.00000000000E+00  0.00000000000E+00 -0.12234520755E+04  0.12234520755E+04  0.25500000920E-02 0. -1.
    10030    2    1    2    0    0  0.00000000000E+00  0.00000000000E+00 -0.32245776827E+03  0.21244463828E+04  0.20998317602E+04 0.  0.
        5    1    3    3  502    0  0.31336843059E+03  0.87276031305E+03  0.33687445742E+03  0.98661888660E+03  0.46999998093E+01 0.  1.
       -5    1    3    3    0  502 -0.31336843059E+03 -0.87276031305E+03 -0.65933222569E+03  0.11378274962E+04  0.46999998093E+01 0. -1.
</event>
<event>
 5   0  0.1130848E-04  0.2295790E+04  0.7818609E-02  0.8479583E-01
       -1   -1    0    0    0  501  0.00000000000E+00  0.00000000000E+00  0.10320243824E+04  0.10320243825E+04  0.50400001928E-02 0.  1.
        1   -1    0    0  501    0  0.00000000000E+00  0.00000000000E+00 -0.12767752556E+04  0.12767752556E+04  0.50400001928E-02 0. -1.
    10030    2    1    2    0    0  0.00000000000E+00  0.00000000000E+00 -0.24475087312E+03  0.23087996380E+04  0.22957902297E+04 0.  0.
        5    1    3    3  502    0 -0.47035654045E+03 -0.58795172321E+03  0.74897455367E+03  0.10620298847E+04  0.46999998093E+01 0.  1.
       -5    1    3    3    0  502  0.47035654045E+03  0.58795172321E+03 -0.99372542679E+03  0.12467697533E+04  0.46999998093E+01 0. -1.
</event>
<event>
 5   0  0.1130848E-04  0.2105874E+04  0.7818609E-02  0.8558660E-01
       -1   -1    0    0    0  501  0.00000000000E+00  0.00000000000E+00  0.72757956357E+03  0.72757956359E+03  0.50400001928E-02 0.  1.
        1   -1    0    0  501    0  0.00000000000E+00  0.00000000000E+00 -0.15237877577E+04  0.15237877577E+04  0.50400001928E-02 0. -1.
    10030    2    1    2    0    0  0.00000000000E+00  0.00000000000E+00 -0.79620819409E+03  0.22513673212E+04  0.21058744803E+04 0.  0.
        5    1    3    3  502    0 -0.30195207631E+03 -0.96833468404E+03 -0.70012435193E+03  0.12324947525E+04  0.46999998093E+01 0. -1.
       -5    1    3    3    0  502  0.30195207631E+03  0.96833468404E+03 -0.96083842159E+02  0.10188725688E+04  0.46999998093E+01 0.  1.
</event>
<event>
 5   0  0.2448804E-04  0.2160714E+04  0.7818609E-02  0.8534960E-01
        2   -1    0    0  501    0  0.00000000000E+00  0.00000000000E+00  0.12786566156E+04  0.12786566156E+04  0.25500000920E-02 0. -1.
       -2   -1    0    0    0  501  0.00000000000E+00  0.00000000000E+00 -0.91281058147E+03  0.91281058147E+03  0.25500000920E-02 0.  1.
    10030    2    1    2    0    0  0.00000000000E+00  0.00000000000E+00  0.36584603416E+03  0.21914671971E+04  0.21607140383E+04 0.  0.
        2    1    3    3  502    0 -0.14153254306E+03  0.10274494628E+04 -0.12385087301E+03  0.10445204153E+04  0.25500000920E-02 0.  1.
       -2    1    3    3    0  502  0.14153254306E+03 -0.10274494628E+04  0.48969690717E+03  0.11469467818E+04  0.25500000920E-02 0. -1.
</event>
<event>
 5   0  0.1042395E-04  0.2136616E+04  0.7818609E-02  0.8545283E-01
        1   -1    0    0  501    0  0.00000000000E+00  0.00000000000E+00  0.14677828611E+04  0.14677828611E+04  0.50400001928E-02 0. -1.
       -1   -1    0    0    0  501  0.00000000000E+00  0.00000000000E+00 -0.77755492226E+03  0.77755492228E+03  0.50400001928E-02 0.  1.
    10030    2    1    2    0    0  0.00000000000E+00  0.00000000000E+00  0.69022793884E+03  0.22453377834E+04  0.21366158181E+04 0.  0.
        3    1    3    3  502    0  0.57652403123E+03  0.80141477411E+02  0.12865094901E+04  0.14120585304E+04  0.10100000352E+00 0. -1.
       -3    1    3    3    0  502 -0.57652403123E+03 -0.80141477411E+02 -0.59628155122E+03  0.83327925302E+03  0.10100000352E+00 0.  1.
</event>
<event>
 5   0  0.2512839E-04  0.1478077E+04  0.7818609E-02  0.8899164E-01
        2   -1    0    0  501    0  0.00000000000E+00  0.00000000000E+00  0.12095485919E+04  0.12095485919E+04  0.25500000920E-02 0. -1.
       -2   -1    0    0    0  501  0.00000000000E+00  0.00000000000E+00 -0.45155501255E+03  0.45155501256E+03  0.25500000920E-02 0.  1.
    10030    2    1    2    0    0  0.00000000000E+00  0.00000000000E+00  0.75799357933E+03  0.16611036044E+04  0.14780767634E+04 0.  0.
        3    1    3    3  502    0  0.26285396096E+03 -0.67468267539E+03  0.21272800257E+03  0.75468015116E+03  0.10100000352E+00 0. -1.
       -3    1    3    3    0  502 -0.26285396096E+03  0.67468267539E+03  0.54526557676E+03  0.90642345329E+03  0.10100000352E+00 0.  1.
</event>
<event>
 5   0  0.2467483E-04  0.2064322E+04  0.7818609E-02  0.8577125E-01
       -2   -1    0    0    0  501  0.00000000000E+00  0.00000000000E+00  0.96049370894E+03  0.96049370894E+03  0.25500000920E-02 0.  1.
        2   -1    0    0  501    0  0.00000000000E+00  0.00000000000E+00 -0.11091761452E+04  0.11091761452E+04  0.25500000920E-02 0. -1.
    10030    2    1    2    0    0  0.00000000000E+00  0.00000000000E+00 -0.14868243624E+03  0.20696698541E+04  0.20643223678E+04 0.  0.
        4    1    3    3  502    0  0.39655809176E+03 -0.71022248471E+03  0.56266343077E+03  0.98907332749E+03  0.12699999809E+01 0.  1.
       -4    1    3    3    0  502 -0.39655809176E+03  0.71022248471E+03 -0.71134586701E+03  0.10805965266E+04  0.12699999809E+01 0. -1.
</event>
<event>
 5   0  0.2467483E-04  0.2084437E+04  0.7818609E-02  0.8568130E-01
        2   -1    0    0  501    0  0.00000000000E+00  0.00000000000E+00  0.97612825885E+03  0.97612825886E+03  0.25500000920E-02 0. -1.
       -2   -1    0    0    0  501  0.00000000000E+00  0.00000000000E+00 -0.11127837030E+04  0.11127837030E+04  0.25500000920E-02 0.  1.
    10030    2    1    2    0    0  0.00000000000E+00  0.00000000000E+00 -0.13665544415E+03  0.20889119619E+04  0.20844372080E+04 0.  0.
        4    1    3    3  502    0 -0.14575367564E+03 -0.54568674982E+03 -0.94610750213E+03  0.11018798398E+04  0.12699999809E+01 0.  1.
       -4    1    3    3    0  502  0.14575367564E+03  0.54568674982E+03  0.80945205798E+03  0.98703212205E+03  0.12699999809E+01 0. -1.
</event>
<event>
 5   0  0.1156733E-04  0.2675579E+04  0.7818609E-02  0.8342972E-01
        1   -1    0    0  501    0  0.00000000000E+00  0.00000000000E+00  0.23807698764E+04  0.23807698764E+04  0.50400001928E-02 0.  1.
       -1   -1    0    0    0  501  0.00000000000E+00  0.00000000000E+00 -0.75172371872E+03  0.75172371873E+03  0.50400001928E-02 0. -1.
    10030    2    1    2    0    0  0.00000000000E+00  0.00000000000E+00  0.16290461577E+04  0.31324935952E+04  0.26755793279E+04 0.  0.
        2    1    3    3  502    0  0.69496254221E+03 -0.10295689778E+04  0.23301816748E+03  0.12638364932E+04  0.25500000920E-02 0. -1.
       -2    1    3    3    0  502 -0.69496254221E+03  0.10295689778E+04  0.13960279902E+04  0.18686571019E+04  0.25500000920E-02 0.  1.
</event>
<event>
 5   0  0.2430898E-04  0.2100485E+04  0.7818609E-02  0.8561030E-01
        2   -1    0    0  501    0  0.00000000000E+00  0.00000000000E+00  0.16240931828E+04  0.16240931828E+04  0.25500000920E-02 0.  1.
       -2   -1    0    0    0  501  0.00000000000E+00  0.00000000000E+00 -0.67915399872E+03  0.67915399872E+03  0.25500000920E-02 0. -1.
    10030    2    1    2    0    0  0.00000000000E+00  0.00000000000E+00  0.94493918405E+03  0.23032471815E+04  0.21004850672E+04 0.  0.
        1    1    3    3  502    0  0.62484711178E+03  0.83104989217E+03  0.31008098979E+03  0.10850014086E+04  0.50400001928E-02 0. -1.
       -1    1    3    3    0  502 -0.62484711178E+03 -0.83104989217E+03  0.63485819426E+03  0.12182457729E+04  0.50400001928E-02 0.  1.
</event>
<event>
 5   0  0.1122711E-04  0.2064273E+04  0.7818609E-02  0.8577147E-01
        1   -1    0    0  501    0  0.00000000000E+00  0.00000000000E+00  0.12064119946E+04  0.12064119946E+04  0.50400001928E-02 0.  1.
       -1   -1    0    0    0  501  0.00000000000E+00  0.00000000000E+00 -0.88303681229E+03  0.88303681230E+03  0.50400001928E-02 0. -1.
    10030    2    1    2    0    0  0.00000000000E+00  0.00000000000E+00  0.32337518228E+03  0.20894488069E+04  0.20642734335E+04 0.  0.
        1    1    3    3  502    0  0.10297458586E+04 -0.64718830466E+02  0.13413165619E+03  0.10404596876E+04  0.50400001928E-02 0.  1.
       -1    1    3    3    0  502 -0.10297458586E+04  0.64718830466E+02  0.18924352608E+03  0.10489891193E+04  0.50400001928E-02 0. -1.
</event>
<event>
 5   0  0.1130848E-04  0.1909381E+04  0.7818609E-02  0.8650201E-01
       -1   -1    0    0    0  501  0.00000000000E+00  0.00000000000E+00  0.51306585462E+03  0.51306585465E+03  0.50400001928E-02 0.  1.
        1   -1    0    0  501    0  0.00000000000E+00  0.00000000000E+00 -0.17764458722E+04  0.17764458722E+04  0.50400001928E-02 0. -1.
    10030    2    1    2    0    0  0.00000000000E+00  0.00000000000E+00 -0.12633800176E+04  0.22895117269E+04  0.19093807579E+04 0.  0.
        5    1    3    3  502    0  0.24261475929E+03 -0.91885437690E+03 -0.74064425879E+03  0.12048781247E+04  0.46999998093E+01 0. -1.
       -5    1    3    3    0  502 -0.24261475929E+03  0.91885437690E+03 -0.52273575881E+03  0.10846336021E+04  0.46999998093E+01 0.  1.
</event>
<event>
 5   0  0.2430898E-04  0.2134515E+04  0.7818609E-02  0.8546190E-01
       -2   -1    0    0    0  501  0.00000000000E+00  0.00000000000E+00  0.67677187700E+03  0.67677187701E+03  0.25500000920E-02 0.  1.
        2   -1    0    0  501    0  0.00000000000E+00  0.00000000000E+00 -0.16830471434E+04  0.16830471434E+04  0.25500000920E-02 0. -1.
    10030    2    1    2    0    0  0.00000000000E+00  0.00000000000E+00 -0.10062752664E+04  0.23598190204E+04  0.21345153776E+04 0.  0.
        1    1    3    3  502    0  0.10369472315E+04  0.23017161430E+03 -0.38824288975E+03  0.11309160333E+04  0.50400001928E-02 0.  1.
       -1    1    3    3    0  502 -0.10369472315E+04 -0.23017161430E+03 -0.61803237665E+03  0.12289029871E+04  0.50400001928E-02 0. -1.
</event>
<event>
 5   0  0.1130848E-04  0.2219655E+04  0.7818609E-02  0.8510291E-01
        1   -1    0    0  501    0  0.00000000000E+00  0.00000000000E+00  0.11641219723E+04  0.11641219723E+04  0.50400001928E-02 0.  1.
       -1   -1    0    0    0  501  0.00000000000E+00  0.00000000000E+00 -0.10580654802E+04  0.10580654802E+04  0.50400001928E-02 0. -1.
    10030    2    1    2    0    0  0.00000000000E+00  0.00000000000E+00  0.10605649207E+03  0.22221874526E+04  0.22196551748E+04 0.  0.
        5    1    3    3  502    0  0.43662167593E+03 -0.31265042638E+03 -0.91931940950E+03  0.10646872986E+04  0.46999998093E+01 0. -1.
       -5    1    3    3    0  502 -0.43662167593E+03  0.31265042638E+03  0.10253759016E+04  0.11575001540E+04  0.46999998093E+01 0.  1.
</event>
<event>
 5   0  0.1042395E-04  0.2026828E+04  0.7818609E-02  0.8594179E-01
       -1   -1    0    0    0  501  0.00000000000E+00  0.00000000000E+00  0.62111187736E+03  0.62111187738E+03  0.50400001928E-02 0.  1.
        1   -1    0    0  501    0  0.00000000000E+00  0.00000000000E+00 -0.16534998478E+04  0.16534998478E+04  0.50400001928E-02 0. -1.
    10030    2    1    2    0    0  0.00000000000E+00  0.00000000000E+00 -0.10323879705E+04  0.22746117252E+04  0.20268284533E+04 0.  0.
        3    1    3    3  502    0 -0.14889655640E+03 -0.11540130106E+03 -0.16336776477E+04  0.16445030592E+04  0.10100000352E+00 0. -1.
       -3    1    3    3    0  502  0.14889655640E+03  0.11540130106E+03  0.60128967727E+03  0.63010866601E+03  0.10100000352E+00 0.  1.
</event>
<event>
 5   0  0.1186038E-04  0.1958237E+04  0.7818609E-02  0.8626399E-01
        1   -1    0    0  501    0  0.00000000000E+00  0.00000000000E+00  0.14194907064E+04  0.14194907064E+04  0.50400001928E-02 0.  1.
       -1   -1    0    0    0  501  0.00000000000E+00  0.00000000000E+00 -0.67536401208E+03  0.67536401209E+03  0.50400001928E-02 0. -1.
    10030    2    1    2    0    0  0.00000000000E+00  0.00000000000E+00  0.74412669429E+03  0.20948547185E+04  0.19582368994E+04 0.  0.
        4    1    3    3  502    0 -0.41577367912E+03  0.37447137806E+03 -0.48746845689E+03  0.74210758964E+03  0.12699999809E+01 0. -1.
       -4    1    3    3    0  502  0.41577367912E+03 -0.37447137806E+03  0.12315951512E+04  0.13527471288E+04  0.12699999809E+01 0.  1.
</event>
<event>
 5   0  0.2579241E-04  0.2104061E+04  0.7818609E-02  0.8559456E-01
       -2   -1    0    0    0  501  0.00000000000E+00  0.00000000000E+00  0.11051612367E+04  0.11051612367E+04  0.25500000920E-02 0. -1.
        2   -1    0    0  501    0  0.00000000000E+00  0.00000000000E+00 -0.10014542353E+04  0.10014542353E+04  0.25500000920E-02 0.  1.
    10030    2    1    2    0    0  0.00000000000E+00  0.00000000000E+00  0.10370700147E+03  0.21066154720E+04  0.21040612170E+04 0.  0.
        5    1    3    3  502    0  0.14444795832E+02  0.56935645119E+03  0.93744459378E+03  0.10969046800E+04  0.46999998093E+01 0. -1.
       -5    1    3    3    0  502 -0.14444795832E+02 -0.56935645119E+03 -0.83373759231E+03  0.10097107920E+04  0.46999998093E+01 0.  1.
</event>
<event>
 5   0  0.2430898E-04  0.1943305E+04  0.7818609E-02  0.8633596E-01
        2   -1    0    0  501    0  0.00000000000E+00  0.00000000000E+00  0.15710765737E+04  0.15710765737E+04  0.25500000920E-02 0.  1.
       -2   -1    0    0    0  501  0.00000000000E+00  0.00000000000E+00 -0.60093098513E+03  0.60093098514E+03  0.25500000920E-02 0. -1.
    10030    2    1    2    0    0  0.00000000000E+00  0.00000000000E+00  0.97014558857E+03  0.21720075588E+04  0.19433050128E+04 0.  0.
        1    1    3    3  502    0 -0.58106342750E+03  0.62099478937E+03  0.10103137698E+04  0.13206071137E+04  0.50400001928E-02 0.  1.
       -1    1    3    3    0  502  0.58106342750E+03 -0.62099478937E+03 -0.40168181247E+02  0.85140044516E+03  0.50400001928E-02 0. -1.
</event>
<event>
 5   0  0.1156733E-04  0.2210158E+04  0.7818609E-02  0.8514212E-01
        1   -1    0    0  501    0  0.00000000000E+00  0.00000000000E+00  0.69760568988E+03  0.69760568990E+03  0.50400001928E-02 0. -1.
       -1   -1    0    0    0  501  0.00000000000E+00  0.00000000000E+00 -0.17505580438E+04  0.17505580438E+04  0.50400001928E-02 0.  1.
    10030    2    1    2    0    0  0.00000000000E+00  0.00000000000E+00 -0.10529523540E+04  0.24481637337E+04  0.22101576884E+04 0.  0.
        2    1    3    3  502    0 -0.89533017176E+03  0.54026970625E+03 -0.13065532425E+03  0.10538397818E+04  0.25500000920E-02 0.  1.
       -2    1    3    3    0  502  0.89533017176E+03 -0.54026970625E+03 -0.92229702970E+03  0.13943239519E+04  0.25500000920E-02 0. -1.
</event>
<event>
 5   0  0.1130848E-04  0.1954410E+04  0.7818609E-02  0.8628237E-01
       -1   -1    0    0    0  501  0.00000000000E+00  0.00000000000E+00  0.62709585838E+03  0.62709585840E+03  0.50400001928E-02 0.  1.
        1   -1    0    0  501    0  0.00000000000E+00  0.00000000000E+00 -0.15227816858E+04  0.15227816858E+04  0.50400001928E-02 0. -1.
    10030    2    1    2    0    0  0.00000000000E+00  0.00000000000E+00 -0.89568582746E+03  0.21498775442E+04  0.19544104875E+04 0.  0.
        5    1    3    3  502    0 -0.55597193584E+03  0.10832448936E+03 -0.13237664636E+04  0.14398676080E+04  0.46999998093E+01 0. -1.
       -5    1    3    3    0  502  0.55597193584E+03 -0.10832448936E+03  0.42808063618E+03  0.71000993620E+03  0.46999998093E+01 0.  1.
</event>
<event>
 5   0  0.2512839E-04  0.1908422E+04  0.7818609E-02  0.8650676E-01
       -2   -1    0    0    0  501  0.00000000000E+00  0.00000000000E+00  0.51904755173E+03  0.51904755173E+03  0.25500000920E-02 0. -1.
        2   -1    0    0  501    0  0.00000000000E+00  0.00000000000E+00 -0.17542102033E+04  0.17542102033E+04  0.25500000920E-02 0.  1.
    10030    2    1    2    0    0  0.00000000000E+00  0.00000000000E+00 -0.12351626516E+04  0.22732577550E+04  0.19084218729E+04 0.  0.
        3    1    3    3  502    0  0.35261070582E+03 -0.30590389258E+02  0.43796629519E+03  0.56310262626E+03  0.10100000352E+00 0. -1.
       -3    1    3    3    0  502 -0.35261070582E+03  0.30590389258E+02 -0.16731289467E+04  0.17101551288E+04  0.10100000352E+00 0.  1.
</event>
<event>
 5   0  0.2430898E-04  0.2089617E+04  0.7818609E-02  0.8565831E-01
       -2   -1    0    0    0  501  0.00000000000E+00  0.00000000000E+00  0.36038967091E+03  0.36038967092E+03  0.25500000920E-02 0. -1.
        2   -1    0    0  501    0  0.00000000000E+00  0.00000000000E+00 -0.30290125012E+04  0.30290125012E+04  0.25500000920E-02 0.  1.
    10030    2    1    2    0    0  0.00000000000E+00  0.00000000000E+00 -0.26686228303E+04  0.33894021721E+04  0.20896170161E+04 0.  0.
        1    1    3    3  502    0  0.42456255612E+03  0.64069161065E+03 -0.24822687044E+04  0.25985374781E+04  0.50400001928E-02 0.  1.
       -1    1    3    3    0  502 -0.42456255612E+03 -0.64069161065E+03 -0.18635412585E+03  0.79086469403E+03  0.50400001928E-02 0. -1.
</event>
<event>
 5   0  0.8698750E-05  0.2092660E+04  0.7818609E-02  0.8564484E-01
       -3   -1    0    0    0  501  0.00000000000E+00  0.00000000000E+00  0.13173964232E+04  0.13173964271E+04  0.10100000352E+00 0. -1.
        3   -1    0    0  501    0  0.00000000000E+00  0.00000000000E+00 -0.83103790408E+03  0.83103791022E+03  0.10100000352E+00 0.  1.
    10030    2    1    2    0    0  0.00000000000E+00  0.00000000000E+00  0.48635851917E+03  0.21484343373E+04  0.20926599085E+04 0.  0.
        2    1    3    3  502    0  0.42315644834E+02  0.26800733808E+03 -0.79429240753E+03  0.83935628652E+03  0.25500000920E-02 0.  1.
       -2    1    3    3    0  502 -0.42315644834E+02 -0.26800733808E+03  0.12806509267E+04  0.13090780508E+04  0.25500000920E-02 0. -1.
</event>
<event>
 5   0  0.1156733E-04  0.2109824E+04  0.7818609E-02  0.8556928E-01
       -1   -1    0    0    0  501  0.00000000000E+00  0.00000000000E+00  0.14998743636E+04  0.14998743636E+04  0.50400001928E-02 0. -1.
        1   -1    0    0  501    0  0.00000000000E+00  0.00000000000E+00 -0.74195476934E+03  0.74195476936E+03  0.50400001928E-02 0.  1.
    10030    2    1    2    0    0  0.00000000000E+00  0.00000000000E+00  0.75791959430E+03  0.22418291330E+04  0.21098236301E+04 0.  0.
        2    1    3    3  502    0  0.79129960787E+03 -0.17795790998E+03 -0.33779258001E+03  0.87859428307E+03  0.25500000920E-02 0.  1.
       -2    1    3    3    0  502 -0.79129960787E+03  0.17795790998E+03  0.10957121743E+04  0.13632348499E+04  0.25500000920E-02 0. -1.
</event>
<event>
 5   0  0.1130848E-04  0.2101146E+04  0.7818609E-02  0.8560739E-01
        1   -1    0    0  501    0  0.00000000000E+00  0.00000000000E+00  0.88547202493E+03  0.88547202494E+03  0.50400001928E-02 0.  1.
       -1   -1    0    0    0  501  0.00000000000E+00  0.00000000000E+00 -0.12464584628E+04  0.12464584628E+04  0.50400001928E-02 0. -1.
    10030    2    1    2    0    0  0.00000000000E+00  0.00000000000E+00 -0.36098643783E+03  0.21319304877E+04  0.21011464480E+04 0.  0.
        5    1    3    3  502    0  0.24645700697E+03  0.60269001309E+03 -0.10170148452E+04  0.12076082119E+04  0.46999998093E+01 0. -1.
       -5    1    3    3    0  502 -0.24645700697E+03 -0.60269001309E+03  0.65602840739E+03  0.92432227576E+03  0.46999998093E+01 0.  1.
</event>
<event>
 5   0  0.1156733E-04  0.2027013E+04  0.7818609E-02  0.8594094E-01
       -1   -1    0    0    0  501  0.00000000000E+00  0.00000000000E+00  0.87639751061E+03  0.87639751062E+03  0.50400001928E-02 0. -1.
        1   -1    0    0  501    0  0.00000000000E+00  0.00000000000E+00 -0.11720654958E+04  0.11720654958E+04  0.50400001928E-02 0.  1.
    10030    2    1    2    0    0  0.00000000000E+00  0.00000000000E+00 -0.29566798520E+03  0.20484630064E+04  0.20270128592E+04 0.  0.
        2    1    3    3  502    0  0.85063148861E+03  0.40878111421E+03 -0.52122919531E+03  0.10781260607E+04  0.25500000920E-02 0.  1.
       -2    1    3    3    0  502 -0.85063148861E+03 -0.40878111421E+03  0.22556121011E+03  0.97033694573E+03  0.25500000920E-02 0. -1.
</event>
<event>
 5   0  0.1130848E-04  0.1310135E+04  0.7818609E-02  0.9021567E-01
       -1   -1    0    0    0  501  0.00000000000E+00  0.00000000000E+00  0.39713367932E+03  0.39713367935E+03  0.50400001928E-02 0. -1.
        1   -1    0    0  501    0  0.00000000000E+00  0.00000000000E+00 -0.10805262088E+04  0.10805262088E+04  0.50400001928E-02 0.  1.
    10030    2    1    2    0    0  0.00000000000E+00  0.00000000000E+00 -0.68339252945E+03  0.14776598881E+04  0.13101348769E+04 0.  0.
        5    1    3    3  502    0 -0.41620815001E+03  0.47117182362E+03 -0.13415881040E+03  0.64284740640E+03  0.46999998093E+01 0. -1.
       -5    1    3    3    0  502  0.41620815001E+03 -0.47117182362E+03 -0.54923371905E+03  0.83481248173E+03  0.46999998093E+01 0.  1.
</event>
<event>
 5   0  0.1156733E-04  0.2066014E+04  0.7818609E-02  0.8576364E-01
        1   -1    0    0  501    0  0.00000000000E+00  0.00000000000E+00  0.10654760008E+04  0.10654760008E+04  0.50400001928E-02 0.  1.
       -1   -1    0    0    0  501  0.00000000000E+00  0.00000000000E+00 -0.10015270240E+04  0.10015270240E+04  0.50400001928E-02 0. -1.
    10030    2    1    2    0    0  0.00000000000E+00  0.00000000000E+00  0.63948976743E+02  0.20670030248E+04  0.20660135607E+04 0.  0.
        2    1    3    3  502    0 -0.91313107459E+03 -0.44984580132E+03 -0.14398869100E+03  0.10280575604E+04  0.25500000920E-02 0.  1.
       -2    1    3    3    0  502  0.91313107459E+03  0.44984580132E+03  0.20793766775E+03  0.10389454644E+04  0.25500000920E-02 0. -1.
</event>
<event>
 5   0  0.2512839E-04  0.1697759E+04  0.7818609E-02  0.8762644E-01
        2   -1    0    0  501    0  0.00000000000E+00  0.00000000000E+00  0.11777724978E+04  0.11777724979E+04  0.25500000920E-02 0.  1.
       -2   -1    0    0    0  501  0.00000000000E+00  0.00000000000E+00 -0.61182973077E+03  0.61182973077E+03  0.25500000920E-02 0. -1.
    10030    2    1    2    0    0  0.00000000000E+00  0.00000000000E+00  0.56594276708E+03  0.17896022286E+04  0.16977587936E+04 0.  0.
        3    1    3    3  502    0  0.31533591808E+03  0.45950712454E+03 -0.39199037559E+03  0.68135160049E+03  0.10100000352E+00 0. -1.
       -3    1    3    3    0  502 -0.31533591808E+03 -0.45950712454E+03  0.95793314267E+03  0.11082506281E+04  0.10100000352E+00 0.  1.
</event>
<event>
 5   0  0.2448804E-04  0.1955385E+04  0.7818609E-02  0.8627768E-01
        2   -1    0    0  501    0  0.00000000000E+00  0.00000000000E+00  0.21818010731E+04  0.21818010731E+04  0.25500000920E-02 0. -1.
       -2   -1    0    0    0  501  0.00000000000E+00  0.00000000000E+00 -0.43811648854E+03  0.43811648855E+03  0.25500000920E-02 0.  1.
    10030    2    1    2    0    0  0.00000000000E+00  0.00000000000E+00  0.17436845845E+04  0.26199175616E+04  0.19553854094E+04 0.  0.
        2    1    3    3  502    0 -0.34486112272E+02  0.76430005354E+03  0.16874330819E+04  0.18527747487E+04  0.25500000920E-02 0. -1.
       -2    1    3    3    0  502  0.34486112272E+02 -0.76430005354E+03  0.56251502645E+02  0.76714281287E+03  0.25500000920E-02 0.  1.
</event>
<event>
 5   0  0.2430898E-04  0.2110918E+04  0.7818609E-02  0.8556449E-01
        2   -1    0    0  501    0  0.00000000000E+00  0.00000000000E+00  0.12749303527E+04  0.12749303527E+04  0.25500000920E-02 0. -1.
       -2   -1    0    0    0  501  0.00000000000E+00  0.00000000000E+00 -0.87376864643E+03  0.87376864643E+03  0.25500000920E-02 0.  1.
    10030    2    1    2    0    0  0.00000000000E+00  0.00000000000E+00  0.40116170622E+03  0.21486989991E+04  0.21109184433E+04 0.  0.
        1    1    3    3  502    0 -0.52278234190E+03  0.56573716163E+02 -0.73094414548E+03  0.90043395438E+03  0.50400001928E-02 0.  1.
       -1    1    3    3    0  502  0.52278234190E+03 -0.56573716163E+02  0.11321058517E+04  0.12482650447E+04  0.50400001928E-02 0. -1.
</event>
<event>
 5   0  0.1156733E-04  0.2177484E+04  0.7818609E-02  0.8527858E-01
       -1   -1    0    0    0  501  0.00000000000E+00  0.00000000000E+00  0.79823218030E+03  0.79823218031E+03  0.50400001928E-02 0. -1.
        1   -1    0    0  501    0  0.00000000000E+00  0.00000000000E+00 -0.14849808827E+04  0.14849808827E+04  0.50400001928E-02 0.  1.
    10030    2    1    2    0    0  0.00000000000E+00  0.00000000000E+00 -0.68674870237E+03  0.22832130630E+04  0.21774843537E+04 0.  0.
        2    1    3    3  502    0  0.90954161470E+03 -0.56097112990E+03 -0.56182891836E+03  0.12073136672E+04  0.25500000920E-02 0.  1.
       -2    1    3    3    0  502 -0.90954161470E+03  0.56097112990E+03 -0.12491978401E+03  0.10758993958E+04  0.25500000920E-02 0. -1.
</event>
<event>
 5   0  0.2467483E-04  0.2038422E+04  0.7818609E-02  0.8588865E-01
       -2   -1    0    0    0  501  0.00000000000E+00  0.00000000000E+00  0.13501328576E+04  0.13501328576E+04  0.25500000920E-02 0.  1.
        2   -1    0    0  501    0  0.00000000000E+00  0.00000000000E+00 -0.76939906672E+03  0.76939906672E+03  0.25500000920E-02 0. -1.
    10030    2    1    2    0    0  0.00000000000E+00  0.00000000000E+00  0.58073379092E+03  0.21195319244E+04  0.20384219000E+04 0.  0.
        4    1    3    3  502    0  0.26902864741E+03  0.61072902111E+03 -0.51062490831E+03  0.84030099383E+03  0.12699999809E+01 0. -1.
       -4    1    3    3    0  502 -0.26902864741E+03 -0.61072902111E+03  0.10913586992E+04  0.12792309305E+04  0.12699999809E+01 0.  1.
</event>
<event>
 5   0  0.1122711E-04  0.2114922E+04  0.7818609E-02  0.8554699E-01
        1   -1    0    0  501    0  0.00000000000E+00  0.00000000000E+00  0.38397847550E+03  0.38397847553E+03  0.50400001928E-02 0. -1.
       -1   -1    0    0    0  501  0.00000000000E+00  0.00000000000E+00 -0.29122038592E+04  0.29122038592E+04  0.50400001928E-02 0.  1.
    10030    2    1    2    0    0  0.00000000000E+00  0.00000000000E+00 -0.25282253837E+04  0.32961823347E+04  0.21149218409E+04 0.  0.
        1    1    3    3  502    0 -0.44214860789E+03 -0.75545682885E+03 -0.33942224341E+03  0.93883857561E+03  0.50400001928E-02 0. -1.
       -1    1    3    3    0  502  0.44214860789E+03  0.75545682885E+03 -0.21888031403E+04  0.23573437591E+04  0.50400001928E-02 0.  1.
</event>
<event>
 5   0  0.1186038E-04  0.1146129E+04  0.7818609E-02  0.9161362E-01
       -1   -1    0    0    0  501  0.00000000000E+00  0.00000000000E+00  0.36029531781E+03  0.36029531785E+03  0.50400001928E-02 0. -1.
        1   -1    0    0  501    0  0.00000000000E+00  0.00000000000E+00 -0.91148316183E+03  0.91148316184E+03  0.50400001928E-02 0.  1.
    10030    2    1    2    0    0  0.00000000000E+00  0.00000000000E+00 -0.55118784401E+03  0.12717784797E+04  0.11461293391E+04 0.  0.
        4    1    3    3  502    0 -0.35027853151E+03  0.39732862198E+03 -0.51828687893E+03  0.74107218626E+03  0.12699999809E+01 0. -1.
       -4    1    3    3    0  502  0.35027853151E+03 -0.39732862198E+03 -0.32900965088E+02  0.53070629343E+03  0.12699999809E+01 0.  1.
</event>
<event>
 5   0  0.2512839E-04  0.2090952E+04  0.7818609E-02  0.8565240E-01
        2   -1    0    0  501    0  0.00000000000E+00  0.00000000000E+00  0.91656416645E+03  0.91656416646E+03  0.25500000920E-02 0.  1.
       -2   -1    0    0    0  501  0.00000000000E+00  0.00000000000E+00 -0.11925186859E+04  0.11925186859E+04  0.25500000920E-02 0. -1.
    10030    2    1    2    0    0  0.00000000000E+00  0.00000000000E+00 -0.27595451943E+03  0.21090828523E+04  0.20909518362E+04 0.  0.
        3    1    3    3  502    0  0.66770293496E+03  0.39325763738E+03 -0.84587553187E+03  0.11471635473E+04  0.10100000352E+00 0. -1.
       -3    1    3    3    0  502 -0.66770293496E+03 -0.39325763738E+03  0.56992101244E+03  0.96191930500E+03  0.10100000352E+00 0.  1.
</event>
<event>
 5   0  0.1130848E-04  0.2005190E+04  0.7818609E-02  0.8604198E-01
       -1   -1    0    0    0  501  0.00000000000E+00  0.00000000000E+00  0.96114298099E+03  0.96114298100E+03  0.50400001928E-02 0. -1.
        1   -1    0    0  501    0  0.00000000000E+00  0.00000000000E+00 -0.10458346975E+04  0.10458346975E+04  0.50400001928E-02 0.  1.
    10030    2    1    2    0    0  0.00000000000E+00  0.00000000000E+00 -0.84691716534E+02  0.20069776785E+04  0.20051899449E+04 0.  0.
        5    1    3    3  502    0  0.12754116638E+03 -0.65391911275E+03  0.70752008528E+03  0.97184552076E+03  0.46999998093E+01 0. -1.
       -5    1    3    3    0  502 -0.12754116638E+03  0.65391911275E+03 -0.79221180181E+03  0.10351321578E+04  0.46999998093E+01 0.  1.
</event>
<event>
 5   0  0.2512839E-04  0.2170982E+04  0.7818609E-02  0.8530604E-01
        2   -1    0    0  501    0  0.00000000000E+00  0.00000000000E+00  0.19642225341E+04  0.19642225341E+04  0.25500000920E-02 0. -1.
       -2   -1    0    0    0  501  0.00000000000E+00  0.00000000000E+00 -0.59987650464E+03  0.59987650464E+03  0.25500000920E-02 0.  1.
    10030    2    1    2    0    0  0.00000000000E+00  0.00000000000E+00  0.13643460295E+04  0.25640990388E+04  0.21709822184E+04 0.  0.
        3    1    3    3  502    0 -0.11902821473E+03 -0.99765303389E+03  0.19690716215E+03  0.10238416541E+04  0.10100000352E+00 0.  1.
       -3    1    3    3    0  502  0.11902821473E+03  0.99765303389E+03  0.11674388673E+04  0.15402573847E+04  0.10100000352E+00 0. -1.
</event>
<event>
 5   0  0.1186038E-04  0.1598130E+04  0.7818609E-02  0.8821698E-01
       -1   -1    0    0    0  501  0.00000000000E+00  0.00000000000E+00  0.78558260292E+03  0.78558260294E+03  0.50400001928E-02 0. -1.
        1   -1    0    0  501    0  0.00000000000E+00  0.00000000000E+00 -0.81277874548E+03  0.81277874549E+03  0.50400001928E-02 0.  1.
    10030    2    1    2    0    0  0.00000000000E+00  0.00000000000E+00 -0.27196142556E+02  0.15983613484E+04  0.15981299603E+04 0.  0.
        4    1    3    3  502    0  0.38940567150E+03  0.58472212981E+03 -0.39439784152E+03  0.80565998807E+03  0.12699999809E+01 0.  1.
       -4    1    3    3    0  502 -0.38940567150E+03 -0.58472212981E+03  0.36720169896E+03  0.79270136036E+03  0.12699999809E+01 0. -1.
</event>
<event>
 5   0  0.1130848E-04  0.2154676E+04  0.7818609E-02  0.8537533E-01
       -1   -1    0    0    0  501  0.00000000000E+00  0.00000000000E+00  0.83526957798E+03  0.83526957799E+03  0.50400001928E-02 0. -1.
        1   -1    0    0  501    0  0.00000000000E+00  0.00000000000E+00 -0.13895603358E+04  0.13895603358E+04  0.50400001928E-02 0.  1.
    10030    2    1    2    0    0  0.00000000000E+00  0.00000000000E+00 -0.55429075783E+03  0.22248299138E+04  0.21546762869E+04 0.  0.
        5    1    3    3  502    0  0.94214648986E+03  0.38279704932E+03 -0.64433843156E+03  0.12038968784E+04  0.46999998093E+01 0.  1.
       -5    1    3    3    0  502 -0.94214648986E+03 -0.38279704932E+03  0.90047673725E+02  0.10209330355E+04  0.46999998093E+01 0. -1.
</event>
<event>
 5   0  0.2579241E-04  0.2094166E+04  0.7818609E-02  0.8563818E-01
       -2   -1    0    0    0  501  0.00000000000E+00  0.00000000000E+00  0.72869136212E+03  0.72869136212E+03  0.25500000920E-02 0.  1.
        2   -1    0    0  501    0  0.00000000000E+00  0.00000000000E+00 -0.15045919012E+04  0.15045919012E+04  0.25500000920E-02 0. -1.
    10030    2    1    2    0    0  0.00000000000E+00  0.00000000000E+00 -0.77590053909E+03  0.22332832633E+04  0.20941662990E+04 0.  0.
        5    1    3    3  502    0 -0.26423264273E+03  0.19820727363E+03  0.67166337023E+03  0.74850436586E+03  0.46999998093E+01 0.  1.
       -5    1    3    3    0  502  0.26423264273E+03 -0.19820727363E+03 -0.14475639093E+04  0.14847788975E+04  0.46999998093E+01 0. -1.
</event>
<event>
 5   0  0.1122711E-04  0.2113537E+04  0.7818609E-02  0.8555304E-01
       -1   -1    0    0    0  501  0.00000000000E+00  0.00000000000E+00  0.10273992943E+04  0.10273992944E+04  0.50400001928E-02 0. -1.
        1   -1    0    0  501    0  0.00000000000E+00  0.00000000000E+00 -0.10869771983E+04  0.10869771983E+04  0.50400001928E-02 0.  1.
    10030    2    1    2    0    0  0.00000000000E+00  0.00000000000E+00 -0.59577903916E+02  0.21143764926E+04  0.21135369469E+04 0.  0.
        1    1    3    3  502    0 -0.75197633965E+02 -0.85761985086E+03  0.58331100850E+03  0.10399126047E+04  0.50400001928E-02 0. -1.
       -1    1    3    3    0  502  0.75197633965E+02  0.85761985086E+03 -0.64288891242E+03  0.10744638879E+04  0.50400001928E-02 0.  1.
</event>
<event>
 5   0  0.2579241E-04  0.1108357E+04  0.7818609E-02  0.9197085E-01
        2   -1    0    0  501    0  0.00000000000E+00  0.00000000000E+00  0.10404748097E+04  0.10404748097E+04  0.25500000920E-02 0. -1.
       -2   -1    0    0    0  501  0.00000000000E+00  0.00000000000E+00 -0.29516675047E+03  0.29516675048E+03  0.25500000920E-02 0.  1.
    10030    2    1    2    0    0  0.00000000000E+00  0.00000000000E+00  0.74530805924E+03  0.13356415602E+04  0.11083565645E+04 0.  0.
        5    1    3    3  502    0 -0.23941412318E+03  0.20667153766E+03  0.92100387515E+03  0.97380823312E+03  0.46999998093E+01 0. -1.
       -5    1    3    3    0  502  0.23941412318E+03 -0.20667153766E+03 -0.17569581591E+03  0.36183332707E+03  0.46999998093E+01 0.  1.
</event>
<event>
 5   0  0.1156733E-04  0.2108713E+04  0.7818609E-02  0.8557415E-01
       -1   -1    0    0    0  501  0.00000000000E+00  0.00000000000E+00  0.11097336763E+04  0.11097336764E+04  0.50400001928E-02 0. -1.
        1   -1    0    0  501    0  0.00000000000E+00  0.00000000000E+00 -0.10017424047E+04  0.10017424047E+04  0.50400001928E-02 0.  1.
    10030    2    1    2    0    0  0.00000000000E+00  0.00000000000E+00  0.10799127161E+03  0.21114760811E+04  0.21087126704E+04 0.  0.
        2    1    3    3  502    0  0.32284233625E+03 -0.47088428865E+03  0.94155900919E+03  0.11011323968E+04  0.25500000920E-02 0. -1.
       -2    1    3    3    0  502 -0.32284233625E+03  0.47088428865E+03 -0.83356773758E+03  0.10103436844E+04  0.25500000920E-02 0.  1.
</event>
<event>
 5   0  0.1042395E-04  0.2357870E+04  0.7818609E-02  0.8455447E-01
        1   -1    0    0  501    0  0.00000000000E+00  0.00000000000E+00  0.14413934450E+04  0.14413934450E+04  0.50400001928E-02 0. -1.
       -1   -1    0    0    0  501  0.00000000000E+00  0.00000000000E+00 -0.96426631685E+03  0.96426631686E+03  0.50400001928E-02 0.  1.
    10030    2    1    2    0    0  0.00000000000E+00  0.00000000000E+00  0.47712712814E+03  0.24056597619E+04  0.23578695031E+04 0.  0.
        3    1    3    3  502    0  0.59010844408E+03 -0.47848882514E+03 -0.68121143602E+03  0.10204060772E+04  0.10100000352E+00 0.  1.
       -3    1    3    3    0  502 -0.59010844408E+03  0.47848882514E+03  0.11583385642E+04  0.13852536847E+04  0.10100000352E+00 0. -1.
</event>
<event>
 5   0  0.1130848E-04  0.2126955E+04  0.7818609E-02  0.8549462E-01
       -1   -1    0    0    0  501  0.00000000000E+00  0.00000000000E+00  0.62135780859E+03  0.62135780861E+03  0.50400001928E-02 0.  1.
        1   -1    0    0  501    0  0.00000000000E+00  0.00000000000E+00 -0.18201813459E+04  0.18201813459E+04  0.50400001928E-02 0. -1.
    10030    2    1    2    0    0  0.00000000000E+00  0.00000000000E+00 -0.11988235373E+04  0.24415391545E+04  0.21269545292E+04 0.  0.
        5    1    3    3  502    0 -0.42396351640E+03  0.75364226619E+03 -0.13100375268E+04  0.15696949195E+04  0.46999998093E+01 0. -1.
       -5    1    3    3    0  502  0.42396351640E+03 -0.75364226619E+03  0.11121398955E+03  0.87184423499E+03  0.46999998093E+01 0.  1.
</event>
<event>
 5   0  0.2448804E-04  0.2125808E+04  0.7818609E-02  0.8549959E-01
        2   -1    0    0  501    0  0.00000000000E+00  0.00000000000E+00  0.12347013135E+04  0.12347013135E+04  0.25500000920E-02 0.  1.
       -2   -1    0    0    0  501  0.00000000000E+00  0.00000000000E+00 -0.91501073117E+03  0.91501073117E+03  0.25500000920E-02 0. -1.
    10030    2    1    2    0    0  0.00000000000E+00  0.00000000000E+00  0.31969058229E+03  0.21497120446E+04  0.21258080361E+04 0.  0.
        2    1    3    3  502    0 -0.81936929064E+03 -0.65555389693E+03 -0.11315166908E+02  0.10494022009E+04  0.25500000920E-02 0. -1.
       -2    1    3    3    0  502  0.81936929064E+03  0.65555389693E+03  0.33100574920E+03  0.11003098437E+04  0.25500000920E-02 0.  1.
</event>
<event>
 5   0  0.2430898E-04  0.2111023E+04  0.7818609E-02  0.8556403E-01
        2   -1    0    0  501    0  0.00000000000E+00  0.00000000000E+00  0.92893840304E+03  0.92893840305E+03  0.25500000920E-02 0.  1.
       -2   -1    0    0    0  501  0.00000000000E+00  0.00000000000E+00 -0.11993306800E+04  0.11993306800E+04  0.25500000920E-02 0. -1.
    10030    2    1    2    0    0  0.00000000000E+00  0.00000000000E+00 -0.27039227694E+03  0.21282690830E+04  0.21110228105E+04 0.  0.
        1    1    3    3  502    0  0.47587647894E+03  0.92779131106E+03 -0.30039200479E+03  0.10851223418E+04  0.50400001928E-02 0. -1.
       -1    1    3    3    0  502 -0.47587647894E+03 -0.92779131106E+03  0.29999727847E+02  0.10431467412E+04  0.50400001928E-02 0.  1.
</event>
<event>
 5   0  0.1122711E-04  0.1036338E+04  0.7818609E-02  0.9269564E-01
        1   -1    0    0  501    0  0.00000000000E+00  0.00000000000E+00  0.61880108980E+03  0.61880108982E+03  0.50400001928E-02 0. -1.
       -1   -1    0    0    0  501  0.00000000000E+00  0.00000000000E+00 -0.43390176218E+03  0.43390176221E+03  0.50400001928E-02 0.  1.
    10030    2    1    2    0    0  0.00000000000E+00  0.00000000000E+00  0.18489932761E+03  0.10527028520E+04  0.10363375576E+04 0.  0.
        1    1    3    3  502    0 -0.84123200100E+02  0.20814465210E+03 -0.38193471322E+03  0.44302938298E+03  0.50400001928E-02 0.  1.
       -1    1    3    3    0  502  0.84123200100E+02 -0.20814465210E+03  0.56683404084E+03  0.60967346905E+03  0.50400001928E-02 0. -1.
</event>
<event>
 5   0  0.1042395E-04  0.2075463E+04  0.7818609E-02  0.8572130E-01
       -1   -1    0    0    0  501  0.00000000000E+00  0.00000000000E+00  0.41180835262E+03  0.41180835265E+03  0.50400001928E-02 0. -1.
        1   -1    0    0  501    0  0.00000000000E+00  0.00000000000E+00 -0.26150193059E+04  0.26150193059E+04  0.50400001928E-02 0.  1.
    10030    2    1    2    0    0  0.00000000000E+00  0.00000000000E+00 -0.22032109533E+04  0.30268276585E+04  0.20754631218E+04 0.  0.
        3    1    3    3  502    0 -0.39135451704E+03  0.14312294705E+03 -0.24876439157E+04  0.25223034705E+04  0.10100000352E+00 0.  1.
       -3    1    3    3    0  502  0.39135451704E+03 -0.14312294705E+03  0.28443296242E+03  0.50452418801E+03  0.10100000352E+00 0. -1.
</event>
<event>
 5   0  0.1042395E-04  0.2106443E+04  0.7818609E-02  0.8558410E-01
        1   -1    0    0  501    0  0.00000000000E+00  0.00000000000E+00  0.16569648034E+04  0.16569648034E+04  0.50400001928E-02 0. -1.
       -1   -1    0    0    0  501  0.00000000000E+00  0.00000000000E+00 -0.66946251747E+03  0.66946251749E+03  0.50400001928E-02 0.  1.
    10030    2    1    2    0    0  0.00000000000E+00  0.00000000000E+00  0.98750228590E+03  0.23264273209E+04  0.21064432854E+04 0.  0.
        3    1    3    3  502    0  0.47406587252E+03 -0.37936770843E+03 -0.45671512060E+03  0.75976774167E+03  0.10100000352E+00 0.  1.
       -3    1    3    3    0  502 -0.47406587252E+03  0.37936770843E+03  0.14442174065E+04  0.15666595792E+04  0.10100000352E+00 0. -1.
</event>
<event>
 5   0  0.1186038E-04  0.2131902E+04  0.7818609E-02  0.8547319E-01
       -1   -1    0    0    0  501  0.00000000000E+00  0.00000000000E+00  0.50453179108E+03  0.50453179111E+03  0.50400001928E-02 0.  1.
        1   -1    0    0  501    0  0.00000000000E+00  0.00000000000E+00 -0.22520902961E+04  0.22520902961E+04  0.50400001928E-02 0. -1.
    10030    2    1    2    0    0  0.00000000000E+00  0.00000000000E+00 -0.17475585050E+04  0.27566220872E+04  0.21319016402E+04 0.  0.
        4    1    3    3  502    0  0.82524129931E+03 -0.25813788676E+03 -0.67739371446E+02  0.86732266545E+03  0.12699999809E+01 0.  1.
       -4    1    3    3    0  502 -0.82524129931E+03  0.25813788676E+03 -0.16798191336E+04  0.18892994218E+04  0.12699999809E+01 0. -1.
</event>
<event>
 5   0  0.2430898E-04  0.2144651E+04  0.7818609E-02  0.8541825E-01
        2   -1    0    0  501    0  0.00000000000E+00  0.00000000000E+00  0.11599591276E+04  0.11599591276E+04  0.25500000920E-02 0. -1.
       -2   -1    0    0    0  501  0.00000000000E+00  0.00000000000E+00 -0.99131244818E+03  0.99131244818E+03  0.25500000920E-02 0.  1.
    10030    2    1    2    0    0  0.00000000000E+00  0.00000000000E+00  0.16864667938E+03  0.21512715757E+04  0.21446509483E+04 0.  0.
        1    1    3    3  502    0  0.79773283858E+03  0.47234245562E+03  0.62487171616E+03  0.11180115110E+04  0.50400001928E-02 0. -1.
       -1    1    3    3    0  502 -0.79773283858E+03 -0.47234245562E+03 -0.45622503678E+03  0.10332600647E+04  0.50400001928E-02 0.  1.
</event>
<event>
 5   0  0.2512839E-04  0.2348272E+04  0.7818609E-02  0.8459128E-01
       -2   -1    0    0    0  501  0.00000000000E+00  0.00000000000E+00  0.84972854027E+03  0.84972854027E+03  0.25500000920E-02 0.  1.
        2   -1    0    0  501    0  0.00000000000E+00  0.00000000000E+00 -0.16223947221E+04  0.16223947221E+04  0.25500000920E-02 0. -1.
    10030    2    1    2    0    0  0.00000000000E+00  0.00000000000E+00 -0.77266618183E+03  0.24721232624E+04  0.23482717892E+04 0.  0.
        3    1    3    3  502    0  0.70404134763E+03 -0.20766620409E+03 -0.13510692631E+04  0.15375915047E+04  0.10100000352E+00 0. -1.
       -3    1    3    3    0  502 -0.70404134763E+03  0.20766620409E+03  0.57840308125E+03  0.93453175767E+03  0.10100000352E+00 0.  1.
</event>
<event>
 5   0  0.1042395E-04  0.2143810E+04  0.7818609E-02  0.8542186E-01
       -1   -1    0    0    0  501  0.00000000000E+00  0.00000000000E+00  0.52869120291E+03  0.52869120293E+03  0.50400001928E-02 0. -1.
        1   -1    0    0  501    0  0.00000000000E+00  0.00000000000E+00 -0.21732551133E+04  0.21732551133E+04  0.50400001928E-02 0.  1.
    10030    2    1    2    0    0  0.00000000000E+00  0.00000000000E+00 -0.16445639104E+04  0.27019463162E+04  0.21438104955E+04 0.  0.
        3    1    3    3  502    0  0.58884689032E+03 -0.14100171264E+03 -0.19370725172E+04  0.20295004534E+04  0.10100000352E+00 0.  1.
       -3    1    3    3    0  502 -0.58884689032E+03  0.14100171264E+03  0.29250860681E+03  0.67244586285E+03  0.10100000352E+00 0. -1.
</event>
<event>
 5   0  0.2467483E-04  0.1087661E+04  0.7818609E-02  0.9217302E-01
       -2   -1    0    0    0  501  0.00000000000E+00  0.00000000000E+00  0.20591294663E+03  0.20591294665E+03  0.25500000920E-02 0. -1.
        2   -1    0    0  501    0  0.00000000000E+00  0.00000000000E+00 -0.14362956353E+04  0.14362956353E+04  0.25500000920E-02 0.  1.
    10030    2    1    2    0    0  0.00000000000E+00  0.00000000000E+00 -0.12303826886E+04  0.16422085819E+04  0.10876614666E+04 0.  0.
        4    1    3    3  502    0 -0.50831542230E+03  0.16224300181E+03 -0.77385447339E+03  0.93997857373E+03  0.12699999809E+01 0. -1.
       -4    1    3    3    0  502  0.50831542230E+03 -0.16224300181E+03 -0.45652821524E+03  0.70223000818E+03  0.12699999809E+01 0.  1.
</event>
<event>
 5   0  0.1042395E-04  0.1604012E+04  0.7818609E-02  0.8818087E-01
       -1   -1    0    0    0  501  0.00000000000E+00  0.00000000000E+00  0.64962787471E+03  0.64962787473E+03  0.50400001928E-02 0. -1.
        1   -1    0    0  501    0  0.00000000000E+00  0.00000000000E+00 -0.99012688429E+03  0.99012688430E+03  0.50400001928E-02 0.  1.
    10030    2    1    2    0    0  0.00000000000E+00  0.00000000000E+00 -0.34049900958E+03  0.16397547590E+04  0.16040124982E+04 0.  0.
        3    1    3    3  502    0  0.30103591900E+03  0.11108823836E+02 -0.93009397871E+03  0.97766090743E+03  0.10100000352E+00 0.  1.
       -3    1    3    3    0  502 -0.30103591900E+03 -0.11108823836E+02  0.58959496913E+03  0.66209385160E+03  0.10100000352E+00 0. -1.
</event>
<event>
 5   0  0.1042395E-04  0.2099395E+04  0.7818609E-02  0.8561510E-01
       -1   -1    0    0    0  501  0.00000000000E+00  0.00000000000E+00  0.81494326731E+03  0.81494326733E+03  0.50400001928E-02 0. -1.
        1   -1    0    0  501    0  0.00000000000E+00  0.00000000000E+00 -0.13520760166E+04  0.13520760166E+04  0.50400001928E-02 0.  1.
    10030    2    1    2    0    0  0.00000000000E+00  0.00000000000E+00 -0.53713274927E+03  0.21670192839E+04  0.20993953860E+04 0.  0.
        3    1    3    3  502    0  0.14811021996E+03 -0.95037866737E+03  0.16534182513E+03  0.97595808208E+03  0.10100000352E+00 0. -1.
       -3    1    3    3    0  502 -0.14811021996E+03  0.95037866737E+03 -0.70247457440E+03  0.11910612018E+04  0.10100000352E+00 0.  1.
</event>
<event>
 5   0  0.2579241E-04  0.2113556E+04  0.7818609E-02  0.8555295E-01
        2   -1    0    0  501    0  0.00000000000E+00  0.00000000000E+00  0.11229580897E+04  0.11229580897E+04  0.25500000920E-02 0. -1.
       -2   -1    0    0    0  501  0.00000000000E+00  0.00000000000E+00 -0.99449834576E+03  0.99449834577E+03  0.25500000920E-02 0.  1.
    10030    2    1    2    0    0  0.00000000000E+00  0.00000000000E+00  0.12845974398E+03  0.21174564355E+04  0.21135562094E+04 0.  0.
        5    1    3    3  502    0  0.37921934825E+03  0.49655591610E+03  0.91808354684E+03  0.11105289645E+04  0.46999998093E+01 0. -1.
       -5    1    3    3    0  502 -0.37921934825E+03 -0.49655591610E+03 -0.78962380287E+03  0.10069274711E+04  0.46999998093E+01 0.  1.
</event>
<event>
 5   0  0.1186038E-04  0.2028080E+04  0.7818609E-02  0.8593604E-01
       -1   -1    0    0    0  501  0.00000000000E+00  0.00000000000E+00  0.95043833801E+03  0.95043833803E+03  0.50400001928E-02 0. -1.
        1   -1    0    0  501    0  0.00000000000E+00  0.00000000000E+00 -0.10818980796E+04  0.10818980796E+04  0.50400001928E-02 0.  1.
    10030    2    1    2    0    0  0.00000000000E+00  0.00000000000E+00 -0.13145974161E+03  0.20323364177E+04  0.20280802871E+04 0.  0.
        4    1    3    3  502    0  0.15145015727E+03  0.54306250532E+03 -0.91036391992E+03  0.10708025562E+04  0.12699999809E+01 0.  1.
       -4    1    3    3    0  502 -0.15145015727E+03 -0.54306250532E+03  0.77890417831E+03  0.96153386144E+03  0.12699999809E+01 0. -1.
</event>
<event>
 5   0  0.1042395E-04  0.2133287E+04  0.7818609E-02  0.8546720E-01
        1   -1    0    0  501    0  0.00000000000E+00  0.00000000000E+00  0.10223772756E+04  0.10223772756E+04  0.50400001928E-02 0.  1.
       -1   -1    0    0    0  501  0.00000000000E+00  0.00000000000E+00 -0.11128267586E+04  0.11128267586E+04  0.50400001928E-02 0. -1.
    10030    2    1    2    0    0  0.00000000000E+00  0.00000000000E+00 -0.90449482975E+02  0.21352040342E+04  0.21332874065E+04 0.  0.
        3    1    3    3  502    0 -0.58632674726E+02 -0.22509600813E+03 -0.10871320251E+04  0.11117383027E+04  0.10100000352E+00 0. -1.
       -3    1    3    3    0  502  0.58632674726E+02  0.22509600813E+03  0.99668254217E+03  0.10234657315E+04  0.10100000352E+00 0.  1.
</event>
<event>
 5   0  0.2448804E-04  0.2079518E+04  0.7818609E-02  0.8570320E-01
        2   -1    0    0  501    0  0.00000000000E+00  0.00000000000E+00  0.12933152058E+04  0.12933152058E+04  0.25500000920E-02 0. -1.
       -2   -1    0    0    0  501  0.00000000000E+00  0.00000000000E+00 -0.83591272936E+03  0.83591272937E+03  0.25500000920E-02 0.  1.
    10030    2    1    2    0    0  0.00000000000E+00  0.00000000000E+00  0.45740247641E+03  0.21292279351E+04  0.20795178707E+04 0.  0.
        2    1    3    3  502    0  0.21308417251E+03 -0.65136553822E+03  0.10293244039E+04  0.12366044870E+04  0.25500000920E-02 0. -1.
       -2    1    3    3    0  502 -0.21308417251E+03  0.65136553822E+03 -0.57192192747E+03  0.89262344809E+03  0.25500000920E-02 0.  1.
</event>
<event>
 5   0  0.1122711E-04  0.1987220E+04  0.7818609E-02  0.8612619E-01
        1   -1    0    0  501    0  0.00000000000E+00  0.00000000000E+00  0.10267754702E+04  0.10267754702E+04  0.50400001928E-02 0.  1.
       -1   -1    0    0    0  501  0.00000000000E+00  0.00000000000E+00 -0.96151587105E+03  0.96151587106E+03  0.50400001928E-02 0. -1.
    10030    2    1    2    0    0  0.00000000000E+00  0.00000000000E+00  0.65259599110E+02  0.19882913412E+04  0.19872200790E+04 0.  0.
        1    1    3    3  502    0 -0.71809835675E+03  0.29405110878E+03  0.65355245660E+03  0.10145255631E+04  0.50400001928E-02 0.  1.
       -1    1    3    3    0  502  0.71809835675E+03 -0.29405110878E+03 -0.58829285749E+03  0.97376577818E+03  0.50400001928E-02 0. -1.
</event>
<event>
 5   0  0.2430898E-04  0.2048719E+04  0.7818609E-02  0.8584176E-01
       -2   -1    0    0    0  501  0.00000000000E+00  0.00000000000E+00  0.39286353167E+03  0.39286353168E+03  0.25500000920E-02 0.  1.
        2   -1    0    0  501    0  0.00000000000E+00  0.00000000000E+00 -0.26709343854E+04  0.26709343854E+04  0.25500000920E-02 0. -1.
    10030    2    1    2    0    0  0.00000000000E+00  0.00000000000E+00 -0.22780708537E+04  0.30637979171E+04  0.20487193224E+04 0.  0.
        1    1    3    3  502    0 -0.28962356246E+03 -0.93333254713E+03 -0.15983206356E+04  0.18733980639E+04  0.50400001928E-02 0. -1.
       -1    1    3    3    0  502  0.28962356246E+03  0.93333254713E+03 -0.67975021813E+03  0.11903998532E+04  0.50400001928E-02 0.  1.
</event>
<event>
 5   0  0.1156733E-04  0.1219890E+04  0.7818609E-02  0.9095623E-01
       -1   -1    0    0    0  501  0.00000000000E+00  0.00000000000E+00  0.42373683893E+03  0.42373683896E+03  0.50400001928E-02 0.  1.
        1   -1    0    0  501    0  0.00000000000E+00  0.00000000000E+00 -0.87798105160E+03  0.87798105162E+03  0.50400001928E-02 0. -1.
    10030    2    1    2    0    0  0.00000000000E+00  0.00000000000E+00 -0.45424421267E+03  0.13017178906E+04  0.12198900204E+04 0.  0.
        2    1    3    3  502    0  0.34158380296E+03  0.49629847403E+03 -0.12565849147E+03  0.61545245654E+03  0.25500000920E-02 0.  1.
       -2    1    3    3    0  502 -0.34158380296E+03 -0.49629847403E+03 -0.32858572120E+03  0.68626543404E+03  0.25500000920E-02 0. -1.
</event>
<event>
 5   0  0.1186038E-04  0.2224534E+04  0.7818609E-02  0.8508286E-01
       -1   -1    0    0    0  501  0.00000000000E+00  0.00000000000E+00  0.47275787975E+03  0.47275787978E+03  0.50400001928E-02 0. -1.
        1   -1    0    0  501    0  0.00000000000E+00  0.00000000000E+00 -0.26168523415E+04  0.26168523415E+04  0.50400001928E-02 0.  1.
    10030    2    1    2    0    0  0.00000000000E+00  0.00000000000E+00 -0.21440944617E+04  0.30896102213E+04  0.22245337171E+04 0.  0.
        4    1    3    3  502    0  0.10383728351E+04 -0.18956965442E+03 -0.58498553005E+03  0.12067992716E+04  0.12699999809E+01 0.  1.
       -4    1    3    3    0  502 -0.10383728351E+04  0.18956965442E+03 -0.15591089317E+04  0.18828109497E+04  0.12699999809E+01 0. -1.
</event>
<event>
 5   0  0.2512839E-04  0.2094965E+04  0.7818609E-02  0.8563465E-01
       -2   -1    0    0    0  501  0.00000000000E+00  0.00000000000E+00  0.22019331683E+04  0.22019331683E+04  0.25500000920E-02 0.  1.
        2   -1    0    0  501    0  0.00000000000E+00  0.00000000000E+00 -0.49829814474E+03  0.49829814475E+03  0.25500000920E-02 0. -1.
    10030    2    1    2    0    0  0.00000000000E+00  0.00000000000E+00  0.17036350236E+04  0.27002313131E+04  0.20949646418E+04 0.  0.
        3    1    3    3  502    0 -0.35707336013E+03  0.99695654345E+02  0.21145454854E+04  0.21467983669E+04  0.10100000352E+00 0.  1.
       -3    1    3    3    0  502  0.35707336013E+03 -0.99695654345E+02 -0.41091046187E+03  0.55343294615E+03  0.10100000352E+00 0. -1.
</event>
<event>
 5   0  0.1042395E-04  0.2127863E+04  0.7818609E-02  0.8549068E-01
        1   -1    0    0  501    0  0.00000000000E+00  0.00000000000E+00  0.15546358130E+04  0.15546358130E+04  0.50400001928E-02 0.  1.
       -1   -1    0    0    0  501  0.00000000000E+00  0.00000000000E+00 -0.72811285131E+03  0.72811285132E+03  0.50400001928E-02 0. -1.
    10030    2    1    2    0    0  0.00000000000E+00  0.00000000000E+00  0.82652296171E+03  0.22827486644E+04  0.21278630732E+04 0.  0.
        3    1    3    3  502    0  0.10488738783E+04  0.47230810873E+02  0.59777856001E+03  0.12081830900E+04  0.10100000352E+00 0. -1.
       -3    1    3    3    0  502 -0.10488738783E+04 -0.47230810873E+02  0.22874440170E+03  0.10745655743E+04  0.10100000352E+00 0.  1.
</event>
<event>
 5   0  0.2448804E-04  0.2197697E+04  0.7818609E-02  0.8519387E-01
       -2   -1    0    0    0  501  0.00000000000E+00  0.00000000000E+00  0.18172223366E+04  0.18172223366E+04  0.25500000920E-02 0. -1.
        2   -1    0    0  501    0  0.00000000000E+00  0.00000000000E+00 -0.66445827698E+03  0.66445827698E+03  0.25500000920E-02 0.  1.
    10030    2    1    2    0    0  0.00000000000E+00  0.00000000000E+00  0.11527640596E+04  0.24816806136E+04  0.21976973610E+04 0.  0.
        2    1    3    3  502    0  0.10141174504E+04  0.90233951203E+02  0.10431907236E+04  0.14576773494E+04  0.25500000920E-02 0. -1.
       -2    1    3    3    0  502 -0.10141174504E+04 -0.90233951203E+02  0.10957333597E+03  0.10240032642E+04  0.25500000920E-02 0.  1.
</event>
<event>
 5   0  0.2512839E-04  0.2090193E+04  0.7818609E-02  0.8565576E-01
        2   -1    0    0  501    0  0.00000000000E+00  0.00000000000E+00  0.17421089645E+04  0.17421089645E+04  0.25500000920E-02 0.  1.
       -2   -1    0    0    0  501  0.00000000000E+00  0.00000000000E+00 -0.62695633708E+03  0.62695633708E+03  0.25500000920E-02 0. -1.
    10030    2    1    2    0    0  0.00000000000E+00  0.00000000000E+00  0.11151526274E+04  0.23690653016E+04  0.20901925798E+04 0.  0.
        3    1    3    3  502    0  0.70741451615E+03 -0.45877462717E+03 -0.14231998004E+03  0.85508154179E+03  0.10100000352E+00 0. -1.
       -3    1    3    3    0  502 -0.70741451615E+03  0.45877462717E+03  0.12574726075E+04  0.15139837598E+04  0.10100000352E+00 0.  1.
</event>
<event>
 5   0  0.2448804E-04  0.2109918E+04  0.7818609E-02  0.8556887E-01
        2   -1    0    0  501    0  0.00000000000E+00  0.00000000000E+00  0.95600252993E+03  0.95600252994E+03  0.25500000920E-02 0. -1.
       -2   -1    0    0    0  501  0.00000000000E+00  0.00000000000E+00 -0.11641588302E+04  0.11641588302E+04  0.25500000920E-02 0.  1.
    10030    2    1    2    0    0  0.00000000000E+00  0.00000000000E+00 -0.20815630026E+03  0.21201613601E+04  0.21099182799E+04 0.  0.
        2    1    3    3  502    0 -0.69521239099E+03  0.43181279240E+03 -0.77300974712E+03  0.11257560239E+04  0.25500000920E-02 0.  1.
       -2    1    3    3    0  502  0.69521239099E+03 -0.43181279240E+03  0.56485344685E+03  0.99440533621E+03  0.25500000920E-02 0. -1.
</event>
<event>
 5   0  0.2448804E-04  0.2125028E+04  0.7818609E-02  0.8550298E-01
       -2   -1    0    0    0  501  0.00000000000E+00  0.00000000000E+00  0.79247926207E+03  0.79247926208E+03  0.25500000920E-02 0. -1.
        2   -1    0    0  501    0  0.00000000000E+00  0.00000000000E+00 -0.14245628260E+04  0.14245628260E+04  0.25500000920E-02 0.  1.
    10030    2    1    2    0    0  0.00000000000E+00  0.00000000000E+00 -0.63208356394E+03  0.22170420881E+04  0.21250284677E+04 0.  0.
        2    1    3    3  502    0 -0.73538738328E+03 -0.26918308213E+03 -0.10652461902E+04  0.13221208647E+04  0.25500000920E-02 0.  1.
       -2    1    3    3    0  502  0.73538738328E+03  0.26918308213E+03  0.43316262628E+03  0.89492122335E+03  0.25500000920E-02 0. -1.
</event>
<event>
 5   0  0.1130848E-04  0.2092551E+04  0.7818609E-02  0.8564532E-01
        1   -1    0    0  501    0  0.00000000000E+00  0.00000000000E+00  0.15400948656E+04  0.15400948656E+04  0.50400001928E-02 0.  1.
       -1   -1    0    0    0  501  0.00000000000E+00  0.00000000000E+00 -0.71079551958E+03  0.71079551960E+03  0.50400001928E-02 0. -1.
    10030    2    1    2    0    0  0.00000000000E+00  0.00000000000E+00  0.82929934598E+03  0.22508903852E+04  0.20925511035E+04 0.  0.
        5    1    3    3  502    0  0.52909117722E+03 -0.76866255855E+03 -0.94325306453E+02  0.93792268134E+03  0.46999998093E+01 0. -1.
       -5    1    3    3    0  502 -0.52909117722E+03  0.76866255855E+03  0.92362465243E+03  0.13129677038E+04  0.46999998093E+01 0.  1.
</event>
<event>
 5   0  0.1122711E-04  0.2131576E+04  0.7818609E-02  0.8547460E-01
        1   -1    0    0  501    0  0.00000000000E+00  0.00000000000E+00  0.17477421168E+04  0.17477421168E+04  0.50400001928E-02 0. -1.
       -1   -1    0    0    0  501  0.00000000000E+00  0.00000000000E+00 -0.64992661582E+03  0.64992661584E+03  0.50400001928E-02 0.  1.
    10030    2    1    2    0    0  0.00000000000E+00  0.00000000000E+00  0.10978155010E+04  0.23976687327E+04  0.21315760548E+04 0.  0.
        1    1    3    3  502    0  0.87367435647E+03 -0.55839236835E+03  0.82625444661E+03  0.13258225103E+04  0.50400001928E-02 0. -1.
       -1    1    3    3    0  502 -0.87367435647E+03  0.55839236835E+03  0.27156105438E+03  0.10718462224E+04  0.50400001928E-02 0.  1.
</event>
<event>
 5   0  0.2448804E-04  0.2060933E+04  0.7818609E-02  0.8578651E-01
       -2   -1    0    0    0  501  0.00000000000E+00  0.00000000000E+00  0.12597093375E+04  0.12597093375E+04  0.25500000920E-02 0. -1.
        2   -1    0    0  501    0  0.00000000000E+00  0.00000000000E+00 -0.84294164356E+03  0.84294164357E+03  0.25500000920E-02 0.  1.
    10030    2    1    2    0    0  0.00000000000E+00  0.00000000000E+00  0.41676769396E+03  0.21026509811E+04  0.20609332443E+04 0.  0.
        2    1    3    3  502    0  0.75352979276E+03 -0.49611124044E+03  0.71638653263E+03  0.11520170032E+04  0.25500000920E-02 0. -1.
       -2    1    3    3    0  502 -0.75352979276E+03  0.49611124044E+03 -0.29961883867E+03  0.95063397791E+03  0.25500000920E-02 0.  1.
</event>
<event>
 5   0  0.2448804E-04  0.2011307E+04  0.7818609E-02  0.8601352E-01
       -2   -1    0    0    0  501  0.00000000000E+00  0.00000000000E+00  0.85378456986E+03  0.85378456987E+03  0.25500000920E-02 0.  1.
        2   -1    0    0  501    0  0.00000000000E+00  0.00000000000E+00 -0.11845366779E+04  0.11845366779E+04  0.25500000920E-02 0. -1.
    10030    2    1    2    0    0  0.00000000000E+00  0.00000000000E+00 -0.33075210805E+03  0.20383212478E+04  0.20113071750E+04 0.  0.
        2    1    3    3  502    0  0.88442570874E+03 -0.30397456359E+03  0.20936024901E+03  0.95835331870E+03  0.25500000920E-02 0.  1.
       -2    1    3    3    0  502 -0.88442570874E+03  0.30397456359E+03 -0.54011235706E+03  0.10799679291E+04  0.25500000920E-02 0. -1.
</event>
<event>
 5   0  0.8698750E-05  0.2073391E+04  0.7818609E-02  0.8573056E-01
        3   -1    0    0  501    0  0.00000000000E+00  0.00000000000E+00  0.26659143096E+04  0.26659143115E+04  0.10100000352E+00 0.  1.
       -3   -1    0    0    0  501  0.00000000000E+00  0.00000000000E+00 -0.40314020320E+03  0.40314021585E+03  0.10100000352E+00 0. -1.
    10030    2    1    2    0    0  0.00000000000E+00  0.00000000000E+00  0.22627741064E+04  0.30690545273E+04  0.20733907097E+04 0.  0.
        3    1    3    3  502    0 -0.19706067686E+03  0.72546830757E+03  0.74719925386E+02  0.75546029221E+03  0.10100000352E+00 0. -1.
       -3    1    3    3    0  502  0.19706067686E+03 -0.72546830757E+03  0.21880541810E+04  0.23135942351E+04  0.10100000352E+00 0.  1.
</event>
<event>
 5   0  0.2512839E-04  0.2241448E+04  0.7818609E-02  0.8501372E-01
        2   -1    0    0  501    0  0.00000000000E+00  0.00000000000E+00  0.89543085243E+03  0.89543085243E+03  0.25500000920E-02 0. -1.
       -2   -1    0    0    0  501  0.00000000000E+00  0.00000000000E+00 -0.14027017464E+04  0.14027017464E+04  0.25500000920E-02 0.  1.
    10030    2    1    2    0    0  0.00000000000E+00  0.00000000000E+00 -0.50727089395E+03  0.22981325988E+04  0.22414481216E+04 0.  0.
        3    1    3    3  502    0  0.74056929961E+03 -0.42416726839E+03 -0.99840884792E+03  0.13134614562E+04  0.10100000352E+00 0.  1.
       -3    1    3    3    0  502 -0.74056929961E+03  0.42416726839E+03  0.49113795397E+03  0.98467114263E+03  0.10100000352E+00 0. -1.
</event>
<event>
 5   0  0.1156733E-04  0.2056915E+04  0.7818609E-02  0.8580464E-01
        1   -1    0    0  501    0  0.00000000000E+00  0.00000000000E+00  0.15501081115E+04  0.15501081115E+04  0.50400001928E-02 0. -1.
       -1   -1    0    0    0  501  0.00000000000E+00  0.00000000000E+00 -0.68235527841E+03  0.68235527843E+03  0.50400001928E-02 0.  1.
    10030    2    1    2    0    0  0.00000000000E+00  0.00000000000E+00  0.86775283311E+03  0.22324633900E+04  0.20569146332E+04 0.  0.
        2    1    3    3  502    0 -0.78489402585E+03 -0.65494874795E+03  0.31152585720E+03  0.10686743442E+04  0.25500000920E-02 0.  1.
       -2    1    3    3    0  502  0.78489402585E+03  0.65494874795E+03  0.55622697590E+03  0.11637890457E+04  0.25500000920E-02 0. -1.
</event>
<event>
 5   0  0.1122711E-04  0.2019334E+04  0.7818609E-02  0.8597635E-01
        1   -1    0    0  501    0  0.00000000000E+00  0.00000000000E+00  0.77894260140E+03  0.77894260142E+03  0.50400001928E-02 0.  1.
       -1   -1    0    0    0  501  0.00000000000E+00  0.00000000000E+00 -0.13087320896E+04  0.13087320896E+04  0.50400001928E-02 0. -1.
    10030    2    1    2    0    0  0.00000000000E+00  0.00000000000E+00 -0.52978948819E+03  0.20876746910E+04  0.20193337301E+04 0.  0.
        1    1    3    3  502    0  0.85205423062E+03  0.52952869411E+03 -0.14688195419E+03  0.10138892239E+04  0.50400001928E-02 0.  1.
       -1    1    3    3    0  502 -0.85205423062E+03 -0.52952869411E+03 -0.38290753400E+03  0.10737854671E+04  0.50400001928E-02 0. -1.
</event>
<event>
 5   0  0.2448804E-04  0.1957309E+04  0.7818609E-02  0.8626844E-01
       -2   -1    0    0    0  501  0.00000000000E+00  0.00000000000E+00  0.11448881093E+04  0.11448881093E+04  0.25500000920E-02 0.  1.
        2   -1    0    0  501    0  0.00000000000E+00  0.00000000000E+00 -0.83655746447E+03  0.83655746447E+03  0.25500000920E-02 0. -1.
    10030    2    1    2    0    0  0.00000000000E+00  0.00000000000E+00  0.30833064481E+03  0.19814455738E+04  0.19573090648E+04 0.  0.
        2    1    3    3  502    0 -0.41965493070E+02 -0.85335483664E+03 -0.32899273102E+03  0.91553907448E+03  0.25500000920E-02 0. -1.
       -2    1    3    3    0  502  0.41965493070E+02  0.85335483664E+03  0.63732337583E+03  0.10659064993E+04  0.25500000920E-02 0.  1.
</event>
<event>
 5   0  0.2579241E-04  0.1874040E+04  0.7818609E-02  0.8667887E-01
        2   -1    0    0  501    0  0.00000000000E+00  0.00000000000E+00  0.96814126962E+03  0.96814126963E+03  0.25500000920E-02 0. -1.
       -2   -1    0    0    0  501  0.00000000000E+00  0.00000000000E+00 -0.90689878819E+03  0.90689878820E+03  0.25500000920E-02 0.  1.
    10030    2    1    2    0    0  0.00000000000E+00  0.00000000000E+00  0.61242481428E+02  0.18750400578E+04  0.18740396412E+04 0.  0.
        5    1    3    3  502    0 -0.23581411778E+03 -0.40381891211E+02 -0.87581219190E+03  0.90791413733E+03  0.46999998093E+01 0.  1.
       -5    1    3    3    0  502  0.23581411778E+03  0.40381891211E+02  0.93705467333E+03  0.96712592049E+03  0.46999998093E+01 0. -1.
</event>
<event>
 5   0  0.1156733E-04  0.2108802E+04  0.7818609E-02  0.8557376E-01
       -1   -1    0    0    0  501  0.00000000000E+00  0.00000000000E+00  0.15385386283E+04  0.15385386283E+04  0.50400001928E-02 0. -1.
        1   -1    0    0  501    0  0.00000000000E+00  0.00000000000E+00 -0.72260850026E+03  0.72260850028E+03  0.50400001928E-02 0.  1.
    10030    2    1    2    0    0  0.00000000000E+00  0.00000000000E+00  0.81593012803E+03  0.22611471286E+04  0.21088016415E+04 0.  0.
        2    1    3    3  502    0  0.93072449535E+03  0.49519821227E+03  0.38965088524E+03  0.11239649319E+04  0.25500000920E-02 0. -1.
       -2    1    3    3    0  502 -0.93072449535E+03 -0.49519821227E+03  0.42627924279E+03  0.11371821967E+04  0.25500000920E-02 0.  1.
</event>
<event>
 5   0  0.1130848E-04  0.2016278E+04  0.7818609E-02  0.8599048E-01
       -1   -1    0    0    0  501  0.00000000000E+00  0.00000000000E+00  0.10510408501E+04  0.10510408501E+04  0.50400001928E-02 0. -1.
        1   -1    0    0  501    0  0.00000000000E+00  0.00000000000E+00 -0.96698792489E+03  0.96698792490E+03  0.50400001928E-02 0.  1.
    10030    2    1    2    0    0  0.00000000000E+00  0.00000000000E+00  0.84052925248E+02  0.20180287750E+04  0.20162775708E+04 0.  0.
        5    1    3    3  502    0  0.17780787895E+03 -0.47492304843E+03  0.91407775180E+03  0.10453361995E+04  0.46999998093E+01 0. -1.
       -5    1    3    3    0  502 -0.17780787895E+03  0.47492304843E+03 -0.83002482655E+03  0.97269257550E+03  0.46999998093E+01 0.  1.
</event>
<event>
 5   0  0.2467483E-04  0.2114666E+04  0.7818609E-02  0.8554810E-01
       -2   -1    0    0    0  501  0.00000000000E+00  0.00000000000E+00  0.97504993156E+03  0.97504993156E+03  0.25500000920E-02 0. -1.
        2   -1    0    0  501    0  0.00000000000E+00  0.00000000000E+00 -0.11465594938E+04  0.11465594938E+04  0.25500000920E-02 0.  1.
    10030    2    1    2    0    0  0.00000000000E+00  0.00000000000E+00 -0.17150956227E+03  0.21216094254E+04  0.21146657003E+04 0.  0.
        4    1    3    3  502    0 -0.86969417150E+03 -0.20985448119E+03 -0.65111580839E+03  0.11065081401E+04  0.12699999809E+01 0.  1.
       -4    1    3    3    0  502  0.86969417150E+03  0.20985448119E+03  0.47960624613E+03  0.10151012853E+04  0.12699999809E+01 0. -1.
</event>
<event>
 5   0  0.1042395E-04  0.2095894E+04  0.7818609E-02  0.8563054E-01
        1   -1    0    0  501    0  0.00000000000E+00  0.00000000000E+00  0.10343937656E+04  0.10343937656E+04  0.50400001928E-02 0. -1.
       -1   -1    0    0    0  501  0.00000000000E+00  0.00000000000E+00 -0.10616779159E+04  0.10616779159E+04  0.50400001928E-02 0.  1.
    10030    2    1    2    0    0  0.00000000000E+00  0.00000000000E+00 -0.27284150213E+02  0.20960716815E+04  0.20958940978E+04 0.  0.
        3    1    3    3  502    0 -0.96919849186E+03 -0.15314264088E+03 -0.38163333422E+03  0.10528259101E+04  0.10100000352E+00 0.  1.
       -3    1    3    3    0  502  0.96919849186E+03  0.15314264088E+03  0.35434918401E+03  0.10432457714E+04  0.10100000352E+00 0. -1.
</event>
<event>
 5   0  0.1156733E-04  0.1827289E+04  0.7818609E-02  0.8691920E-01
       -1   -1    0    0    0  501  0.00000000000E+00  0.00000000000E+00  0.51836265699E+03  0.51836265701E+03  0.50400001928E-02 0.  1.
        1   -1    0    0  501    0  0.00000000000E+00  0.00000000000E+00 -0.16103526657E+04  0.16103526657E+04  0.50400001928E-02 0. -1.
    10030    2    1    2    0    0  0.00000000000E+00  0.00000000000E+00 -0.10919900087E+04  0.21287153227E+04  0.18272894533E+04 0.  0.
        2    1    3    3  502    0 -0.78939754730E+03  0.45057727833E+03 -0.43809754086E+03  0.10090083383E+04  0.25500000920E-02 0. -1.
       -2    1    3    3    0  502  0.78939754730E+03 -0.45057727833E+03 -0.65389246783E+03  0.11197069844E+04  0.25500000920E-02 0.  1.
</event>
<event>
 5   0  0.2448804E-04  0.1898591E+04  0.7818609E-02  0.8655558E-01
        2   -1    0    0  501    0  0.00000000000E+00  0.00000000000E+00  0.13768284642E+04  0.13768284642E+04  0.25500000920E-02 0.  1.
       -2   -1    0    0    0  501  0.00000000000E+00  0.00000000000E+00 -0.65452040961E+03  0.65452040961E+03  0.25500000920E-02 0. -1.
    10030    2    1    2    0    0  0.00000000000E+00  0.00000000000E+00  0.72230805455E+03  0.20313488738E+04  0.18985914045E+04 0.  0.
        2    1    3    3  502    0  0.54766062505E+03  0.41785884747E+03  0.10599907642E+04  0.12641671554E+04  0.25500000920E-02 0.  1.
       -2    1    3    3    0  502 -0.54766062505E+03 -0.41785884747E+03 -0.33768270962E+03  0.76718171838E+03  0.25500000920E-02 0. -1.
</event>
<event>
 5   0  0.2579241E-04  0.1970945E+04  0.7818609E-02  0.8620326E-01
        2   -1    0    0  501    0  0.00000000000E+00  0.00000000000E+00  0.99230808342E+03  0.99230808343E+03  0.25500000920E-02 0. -1.
       -2   -1    0    0    0  501  0.00000000000E+00  0.00000000000E+00 -0.97868426177E+03  0.97868426177E+03  0.25500000920E-02 0.  1.
    10030    2    1    2    0    0  0.00000000000E+00  0.00000000000E+00  0.13623821654E+02  0.19709923452E+04  0.19709452596E+04 0.  0.
        5    1    3    3  502    0 -0.86353439571E+03  0.82203391156E+01 -0.46793618660E+03  0.98221463605E+03  0.46999998093E+01 0.  1.
       -5    1    3    3    0  502  0.86353439571E+03 -0.82203391156E+01  0.48156000826E+03  0.98877770914E+03  0.46999998093E+01 0. -1.
</event>
<event>
 5   0  0.1186038E-04  0.1942834E+04  0.7818609E-02  0.8633824E-01
        1   -1    0    0  501    0  0.00000000000E+00  0.00000000000E+00  0.15964090596E+04  0.15964090596E+04  0.50400001928E-02 0. -1.
       -1   -1    0    0    0  501  0.00000000000E+00  0.00000000000E+00 -0.59110861635E+03  0.59110861637E+03  0.50400001928E-02 0.  1.
    10030    2    1    2    0    0  0.00000000000E+00  0.00000000000E+00  0.10053004432E+04  0.21875176760E+04  0.19428341673E+04 0.  0.
        4    1    3    3  502    0  0.56296471040E+03  0.78633772593E+03  0.39949742704E+03  0.10463537124E+04  0.12699999809E+01 0.  1.
       -4    1    3    3    0  502 -0.56296471040E+03 -0.78633772593E+03  0.60580301619E+03  0.11411639635E+04  0.12699999809E+01 0. -1.
</event>
<event>
 5   0  0.2579241E-04  0.2081946E+04  0.7818609E-02  0.8569238E-01
       -2   -1    0    0    0  501  0.00000000000E+00  0.00000000000E+00  0.90429780845E+03  0.90429780845E+03  0.25500000920E-02 0.  1.
        2   -1    0    0  501    0  0.00000000000E+00  0.00000000000E+00 -0.11983056110E+04  0.11983056110E+04  0.25500000920E-02 0. -1.
    10030    2    1    2    0    0  0.00000000000E+00  0.00000000000E+00 -0.29400780257E+03  0.21026034195E+04  0.20819463374E+04 0.  0.
        5    1    3    3  502    0  0.64983592734E+03 -0.44280848316E+03  0.54184654003E+03  0.95497950143E+03  0.46999998093E+01 0. -1.
       -5    1    3    3    0  502 -0.64983592734E+03  0.44280848316E+03 -0.83585434260E+03  0.11476239180E+04  0.46999998093E+01 0.  1.
</event>
<event>
 5   0  0.1042395E-04  0.2009597E+04  0.7818609E-02  0.8602147E-01
        1   -1    0    0  501    0  0.00000000000E+00  0.00000000000E+00  0.95530577698E+03  0.95530577700E+03  0.50400001928E-02 0.  1.
       -1   -1    0    0    0  501  0.00000000000E+00  0.00000000000E+00 -0.10568550864E+04  0.10568550864E+04  0.50400001928E-02 0. -1.
    10030    2    1    2    0    0  0.00000000000E+00  0.00000000000E+00 -0.10154930940E+03  0.20121608634E+04  0.20095967451E+04 0.  0.
        3    1    3    3  502    0 -0.71032395722E+03  0.56924185093E+03 -0.47678591468E+03  0.10275802780E+04  0.10100000352E+00 0. -1.
       -3    1    3    3    0  502  0.71032395722E+03 -0.56924185093E+03  0.37523660527E+03  0.98458058542E+03  0.10100000352E+00 0.  1.
</event>
<event>
 5   0  0.2448804E-04  0.2090826E+04  0.7818609E-02  0.8565296E-01
        2   -1    0    0  501    0  0.00000000000E+00  0.00000000000E+00  0.14430561037E+04  0.14430561037E+04  0.25500000920E-02 0. -1.
       -2   -1    0    0    0  501  0.00000000000E+00  0.00000000000E+00 -0.75734267654E+03  0.75734267654E+03  0.25500000920E-02 0.  1.
    10030    2    1    2    0    0  0.00000000000E+00  0.00000000000E+00  0.68571342716E+03  0.22003987802E+04  0.20908256474E+04 0.  0.
        2    1    3    3  502    0 -0.67060682454E+03 -0.59063192169E+02 -0.49886203166E+03  0.83789337056E+03  0.25500000920E-02 0.  1.
       -2    1    3    3    0  502  0.67060682454E+03  0.59063192169E+02  0.11845754588E+04  0.13625054097E+04  0.25500000920E-02 0. -1.
</event>
<event>
 5   0  0.2512839E-04  0.2118992E+04  0.7818609E-02  0.8552923E-01
        2   -1    0    0  501    0  0.00000000000E+00  0.00000000000E+00  0.55130127945E+03  0.55130127945E+03  0.25500000920E-02 0. -1.
       -2   -1    0    0    0  501  0.00000000000E+00  0.00000000000E+00 -0.20361493980E+04  0.20361493980E+04  0.25500000920E-02 0.  1.
    10030    2    1    2    0    0  0.00000000000E+00  0.00000000000E+00 -0.14848481185E+04  0.25874506774E+04  0.21189919946E+04 0.  0.
        3    1    3    3  502    0 -0.72241434751E+03 -0.64908386174E+03 -0.22531680412E+03  0.99697543675E+03  0.10100000352E+00 0. -1.
       -3    1    3    3    0  502  0.72241434751E+03  0.64908386174E+03 -0.12595313144E+04  0.15904752407E+04  0.10100000352E+00 0.  1.
</event>
<event>
 5   0  0.2430898E-04  0.2129456E+04  0.7818609E-02  0.8548377E-01
       -2   -1    0    0    0  501  0.00000000000E+00  0.00000000000E+00  0.92039263137E+03  0.92039263137E+03  0.25500000920E-02 0.  1.
        2   -1    0    0  501    0  0.00000000000E+00  0.00000000000E+00 -0.12316984339E+04  0.12316984339E+04  0.25500000920E-02 0. -1.
    10030    2    1    2    0    0  0.00000000000E+00  0.00000000000E+00 -0.31130580255E+03  0.21520910653E+04  0.21294564214E+04 0.  0.
        1    1    3    3  502    0  0.29498411597E+03  0.75480198176E+03  0.54227024045E+03  0.97508905954E+03  0.50400001928E-02 0.  1.
       -1    1    3    3    0  502 -0.29498411597E+03 -0.75480198176E+03 -0.85357604300E+03  0.11770020058E+04  0.50400001928E-02 0. -1.
</event>
<event>
 5   0  0.1122711E-04  0.1995450E+04  0.7818609E-02  0.8608751E-01
        1   -1    0    0  501    0  0.00000000000E+00  0.00000000000E+00  0.13239756579E+04  0.13239756579E+04  0.50400001928E-02 0.  1.
       -1   -1    0    0    0  501  0.00000000000E+00  0.00000000000E+00 -0.75186796327E+03  0.75186796329E+03  0.50400001928E-02 0. -1.
    10030    2    1    2    0    0  0.00000000000E+00  0.00000000000E+00  0.57210769465E+03  0.20758436212E+04  0.19954497051E+04 0.  0.
        1    1    3    3  502    0  0.59669712931E+02  0.13398171491E+03  0.13126997697E+04  0.13208679949E+04  0.50400001928E-02 0.  1.
       -1    1    3    3    0  502 -0.59669712931E+02 -0.13398171491E+03 -0.74059207509E+03  0.75497562628E+03  0.50400001928E-02 0. -1.
</event>
<event>
 5   0  0.2512839E-04  0.2088321E+04  0.7818609E-02  0.8566405E-01
        2   -1    0    0  501    0  0.00000000000E+00  0.00000000000E+00  0.14127722136E+04  0.14127722136E+04  0.25500000920E-02 0. -1.
       -2   -1    0    0    0  501  0.00000000000E+00  0.00000000000E+00 -0.77172500374E+03  0.77172500374E+03  0.25500000920E-02 0.  1.
    10030    2    1    2    0    0  0.00000000000E+00  0.00000000000E+00  0.64104720989E+03  0.21844972174E+04  0.20883214713E+04 0.  0.
        3    1    3    3  502    0 -0.91626230810E+03  0.15657161773E+03  0.81805440388E+03  0.12382505024E+04  0.10100000352E+00 0. -1.
       -3    1    3    3    0  502  0.91626230810E+03 -0.15657161773E+03 -0.17700719398E+03  0.94624671500E+03  0.10100000352E+00 0.  1.
</event>
<event>
 5   0  0.1186038E-04  0.2095859E+04  0.7818609E-02  0.8563069E-01
        1   -1    0    0  501    0  0.00000000000E+00  0.00000000000E+00  0.13746254803E+04  0.13746254803E+04  0.50400001928E-02 0. -1.
       -1   -1    0    0    0  501  0.00000000000E+00  0.00000000000E+00 -0.79887704496E+03  0.79887704498E+03  0.50400001928E-02 0.  1.
    10030    2    1    2    0    0  0.00000000000E+00  0.00000000000E+00  0.57574843530E+03  0.21735025253E+04  0.20958594816E+04 0.  0.
        4    1    3    3  502    0  0.10599120595E+03 -0.10506950536E+03 -0.78779857873E+03  0.80181166757E+03  0.12699999809E+01 0.  1.
       -4    1    3    3    0  502 -0.10599120595E+03  0.10506950536E+03  0.13635470140E+04  0.13716908577E+04  0.12699999809E+01 0. -1.
</event>
<event>
 5   0  0.2579241E-04  0.2078112E+04  0.7818609E-02  0.8570947E-01
        2   -1    0    0  501    0  0.00000000000E+00  0.00000000000E+00  0.21904259543E+04  0.21904259543E+04  0.25500000920E-02 0. -1.
       -2   -1    0    0    0  501  0.00000000000E+00  0.00000000000E+00 -0.49288913217E+03  0.49288913218E+03  0.25500000920E-02 0.  1.
    10030    2    1    2    0    0  0.00000000000E+00  0.00000000000E+00  0.16975368221E+04  0.26833150864E+04  0.20781117850E+04 0.  0.
        5    1    3    3  502    0 -0.10131275063E+04 -0.20625043460E+03  0.98201202719E+03  0.14259510151E+04  0.46999998093E+01 0. -1.
       -5    1    3    3    0  502  0.10131275063E+04  0.20625043460E+03  0.71552479490E+03  0.12573640714E+04  0.46999998093E+01 0.  1.
</event>
<event>
 5   0  0.1186038E-04  0.2038950E+04  0.7818609E-02  0.8588624E-01
       -1   -1    0    0    0  501  0.00000000000E+00  0.00000000000E+00  0.77886499597E+03  0.77886499598E+03  0.50400001928E-02 0.  1.
        1   -1    0    0  501    0  0.00000000000E+00  0.00000000000E+00 -0.13344149017E+04  0.13344149017E+04  0.50400001928E-02 0. -1.
    10030    2    1    2    0    0  0.00000000000E+00  0.00000000000E+00 -0.55554990573E+03  0.21132798977E+04  0.20389497856E+04 0.  0.
        4    1    3    3  502    0  0.24552237800E+02  0.90849626945E+03 -0.75652203296E+03  0.11824954474E+04  0.12699999809E+01 0. -1.
       -4    1    3    3    0  502 -0.24552237800E+02 -0.90849626945E+03  0.20097212723E+03  0.93078445024E+03  0.12699999809E+01 0.  1.
</event>
<event>
 5   0  0.1042395E-04  0.2116626E+04  0.7818609E-02  0.8553955E-01
       -1   -1    0    0    0  501  0.00000000000E+00  0.00000000000E+00  0.41141369343E+03  0.41141369346E+03  0.50400001928E-02 0. -1.
        1   -1    0    0  501    0  0.00000000000E+00  0.00000000000E+00 -0.27223838911E+04  0.27223838911E+04  0.50400001928E-02 0.  1.
    10030    2    1    2    0    0  0.00000000000E+00  0.00000000000E+00 -0.23109701977E+04  0.31337975846E+04  0.21166256274E+04 0.  0.
        3    1    3    3  502    0 -0.58961945462E+03 -0.82233678053E+03 -0.69642193636E+03  0.12283698163E+04  0.10100000352E+00 0. -1.
       -3    1    3    3    0  502  0.58961945462E+03  0.82233678053E+03 -0.16145482613E+04  0.19054277683E+04  0.10100000352E+00 0.  1.
</event>
<event>
 5   0  0.2430898E-04  0.2081668E+04  0.7818609E-02  0.8569362E-01
        2   -1    0    0  501    0  0.00000000000E+00  0.00000000000E+00  0.18691924889E+04  0.18691924889E+04  0.25500000920E-02 0. -1.
       -2   -1    0    0    0  501  0.00000000000E+00  0.00000000000E+00 -0.57957418910E+03  0.57957418911E+03  0.25500000920E-02 0.  1.
    10030    2    1    2    0    0  0.00000000000E+00  0.00000000000E+00  0.12896182998E+04  0.24487666781E+04  0.20816682935E+04 0.  0.
        1    1    3    3  502    0 -0.70708161294E+03  0.74405131549E+03  0.84773842672E+03  0.13312539982E+04  0.50400001928E-02 0.  1.
       -1    1    3    3    0  502  0.70708161294E+03 -0.74405131549E+03  0.44187987313E+03  0.11175126799E+04  0.50400001928E-02 0. -1.
</event>
<event>
 5   0  0.2467483E-04  0.1389015E+04  0.7818609E-02  0.8961809E-01
       -2   -1    0    0    0  501  0.00000000000E+00  0.00000000000E+00  0.34236905405E+03  0.34236905406E+03  0.25500000920E-02 0. -1.
        2   -1    0    0  501    0  0.00000000000E+00  0.00000000000E+00 -0.14088317619E+04  0.14088317619E+04  0.25500000920E-02 0.  1.
    10030    2    1    2    0    0  0.00000000000E+00  0.00000000000E+00 -0.10664627078E+04  0.17512008159E+04  0.13890146114E+04 0.  0.
        4    1    3    3  502    0 -0.55335886266E+03 -0.27893470383E+03 -0.13789372996E+03  0.63484399151E+03  0.12699999809E+01 0. -1.
       -4    1    3    3    0  502  0.55335886266E+03  0.27893470383E+03 -0.92856897788E+03  0.11163568244E+04  0.12699999809E+01 0.  1.
</event>
<event>
 5   0  0.2512839E-04  0.2092760E+04  0.7818609E-02  0.8564439E-01
       -2   -1    0    0    0  501  0.00000000000E+00  0.00000000000E+00  0.13111914717E+04  0.13111914717E+04  0.25500000920E-02 0.  1.
        2   -1    0    0  501    0  0.00000000000E+00  0.00000000000E+00 -0.83505086259E+03  0.83505086259E+03  0.25500000920E-02 0. -1.
    10030    2    1    2    0    0  0.00000000000E+00  0.00000000000E+00  0.47614060913E+03  0.21462423343E+04  0.20927604445E+04 0.  0.
        3    1    3    3  502    0 -0.16711279043E+03 -0.36916413062E+03  0.12274539572E+04  0.12926144310E+04  0.10100000352E+00 0.  1.
       -3    1    3    3    0  502  0.16711279043E+03  0.36916413062E+03 -0.75131334807E+03  0.85362790328E+03  0.10100000352E+00 0. -1.
</event>
<event>
 5   0  0.1186038E-04  0.2071033E+04  0.7818609E-02  0.8574112E-01
        1   -1    0    0  501    0  0.00000000000E+00  0.00000000000E+00  0.12879085337E+04  0.12879085337E+04  0.50400001928E-02 0.  1.
       -1   -1    0    0    0  501  0.00000000000E+00  0.00000000000E+00 -0.83258564509E+03  0.83258564510E+03  0.50400001928E-02 0. -1.
    10030    2    1    2    0    0  0.00000000000E+00  0.00000000000E+00  0.45532288858E+03  0.21204941788E+04  0.20710327446E+04 0.  0.
        4    1    3    3  502    0 -0.23629997865E+03 -0.13665745104E+03 -0.79508370994E+03  0.84063824416E+03  0.12699999809E+01 0. -1.
       -4    1    3    3    0  502  0.23629997865E+03  0.13665745104E+03  0.12504065985E+04  0.12798559346E+04  0.12699999809E+01 0.  1.
</event>
<event>
 5   0  0.1156733E-04  0.2078263E+04  0.7818609E-02  0.8570880E-01
       -1   -1    0    0    0  501  0.00000000000E+00  0.00000000000E+00  0.13424005265E+04  0.13424005265E+04  0.50400001928E-02 0.  1.
        1   -1    0    0  501    0  0.00000000000E+00  0.00000000000E+00 -0.80437574455E+03  0.80437574457E+03  0.50400001928E-02 0. -1.
    10030    2    1    2    0    0  0.00000000000E+00  0.00000000000E+00  0.53802478192E+03  0.21467762711E+04  0.20782631431E+04 0.  0.
        2    1    3    3  502    0 -0.32881892363E+03  0.15793203999E+03  0.12740893621E+04  0.13252803916E+04  0.25500000920E-02 0.  1.
       -2    1    3    3    0  502  0.32881892363E+03 -0.15793203999E+03 -0.73606458016E+03  0.82149587946E+03  0.25500000920E-02 0. -1.
</event>
<event>
 5   0  0.2579241E-04  0.1758994E+04  0.7818609E-02  0.8728415E-01
       -2   -1    0    0    0  501  0.00000000000E+00  0.00000000000E+00  0.28183524076E+03  0.28183524077E+03  0.25500000920E-02 0.  1.
        2   -1    0    0  501    0  0.00000000000E+00  0.00000000000E+00 -0.27445635261E+04  0.27445635261E+04  0.25500000920E-02 0. -1.
    10030    2    1    2    0    0  0.00000000000E+00  0.00000000000E+00 -0.24627282853E+04  0.30263987669E+04  0.17589937148E+04 0.  0.
        5    1    3    3  502    0  0.86696496440E+03  0.11725464481E+03 -0.13863619964E+04  0.16393286968E+04  0.46999998093E+01 0. -1.
       -5    1    3    3    0  502 -0.86696496440E+03 -0.11725464481E+03 -0.10763662890E+04  0.13870700701E+04  0.46999998093E+01 0.  1.
</event>
<event>
 5   0  0.1122711E-04  0.1935301E+04  0.7818609E-02  0.8637482E-01
       -1   -1    0    0    0  501  0.00000000000E+00  0.00000000000E+00  0.10730939882E+04  0.10730939882E+04  0.50400001928E-02 0.  1.
        1   -1    0    0  501    0  0.00000000000E+00  0.00000000000E+00 -0.87256756705E+03  0.87256756707E+03  0.50400001928E-02 0. -1.
    10030    2    1    2    0    0  0.00000000000E+00  0.00000000000E+00  0.20052642115E+03  0.19456615553E+04  0.19353005043E+04 0.  0.
        1    1    3    3  502    0  0.63788644354E+03  0.51183848896E+02  0.82997835118E+03  0.10480376733E+04  0.50400001928E-02 0.  1.
       -1    1    3    3    0  502 -0.63788644354E+03 -0.51183848896E+02 -0.62945193002E+03  0.89762388197E+03  0.50400001928E-02 0. -1.
</event>
<event>
 5   0  0.2512839E-04  0.2075554E+04  0.7818609E-02  0.8572089E-01
       -2   -1    0    0    0  501  0.00000000000E+00  0.00000000000E+00  0.58970664622E+03  0.58970664622E+03  0.25500000920E-02 0. -1.
        2   -1    0    0  501    0  0.00000000000E+00  0.00000000000E+00 -0.18263002380E+04  0.18263002380E+04  0.25500000920E-02 0.  1.
    10030    2    1    2    0    0  0.00000000000E+00  0.00000000000E+00 -0.12365935918E+04  0.24160068843E+04  0.20755542762E+04 0.  0.
        3    1    3    3  502    0 -0.17491858169E+03 -0.25519857830E+03 -0.17713671342E+04  0.17981836277E+04  0.10100000352E+00 0.  1.
       -3    1    3    3    0  502  0.17491858169E+03  0.25519857830E+03  0.53477354235E+03  0.61782325659E+03  0.10100000352E+00 0. -1.
</event>
<event>
 5   0  0.1156733E-04  0.1713727E+04  0.7818609E-02  0.8753574E-01
        1   -1    0    0  501    0  0.00000000000E+00  0.00000000000E+00  0.20447907585E+04  0.20447907585E+04  0.50400001928E-02 0. -1.
       -1   -1    0    0    0  501  0.00000000000E+00  0.00000000000E+00 -0.35906613587E+03  0.35906613591E+03  0.50400001928E-02 0.  1.
    10030    2    1    2    0    0  0.00000000000E+00  0.00000000000E+00  0.16857246226E+04  0.24038568944E+04  0.17137270686E+04 0.  0.
        2    1    3    3  502    0  0.76560525263E+03 -0.62960894258E+02  0.31038831919E+03  0.82852663551E+03  0.25500000920E-02 0.  1.
       -2    1    3    3    0  502 -0.76560525263E+03  0.62960894258E+02  0.13753363034E+04  0.15753302589E+04  0.25500000920E-02 0. -1.
</event>
<event>
 5   0  0.1186038E-04  0.1587619E+04  0.7818609E-02  0.8828190E-01
        1   -1    0    0  501    0  0.00000000000E+00  0.00000000000E+00  0.21066843743E+04  0.21066843743E+04  0.50400001928E-02 0.  1.
       -1   -1    0    0    0  501  0.00000000000E+00  0.00000000000E+00 -0.29911163561E+03  0.29911163565E+03  0.50400001928E-02 0. -1.
    10030    2    1    2    0    0  0.00000000000E+00  0.00000000000E+00  0.18075727387E+04  0.24057960100E+04  0.15876193612E+04 0.  0.
        4    1    3    3  502    0 -0.41242573703E+02 -0.37619110013E+03  0.19611818035E+04  0.19973623539E+04  0.12699999809E+01 0.  1.
       -4    1    3    3    0  502  0.41242573703E+02  0.37619110013E+03 -0.15360906478E+03  0.40843365604E+03  0.12699999809E+01 0. -1.
</event>
<event>
 5   0  0.8698750E-05  0.1994483E+04  0.7818609E-02  0.8609204E-01
       -3   -1    0    0    0  501  0.00000000000E+00  0.00000000000E+00  0.11124681402E+04  0.11124681448E+04  0.10100000352E+00 0.  1.
        3   -1    0    0  501    0  0.00000000000E+00  0.00000000000E+00 -0.89394981463E+03  0.89394982033E+03  0.10100000352E+00 0. -1.
    10030    2    1    2    0    0  0.00000000000E+00  0.00000000000E+00  0.21851832557E+03  0.20064179651E+04  0.19944830890E+04 0.  0.
        2    1    3    3  502    0 -0.13206950139E+02  0.62669926628E+03 -0.67098778502E+03  0.91823254219E+03  0.25500000920E-02 0. -1.
       -2    1    3    3    0  502  0.13206950139E+02 -0.62669926628E+03  0.88950611059E+03  0.10881854229E+04  0.25500000920E-02 0.  1.
</event>
<event>
 5   0  0.2467483E-04  0.2089059E+04  0.7818609E-02  0.8566078E-01
        2   -1    0    0  501    0  0.00000000000E+00  0.00000000000E+00  0.66670037122E+03  0.66670037123E+03  0.25500000920E-02 0.  1.
       -2   -1    0    0    0  501  0.00000000000E+00  0.00000000000E+00 -0.16364803951E+04  0.16364803952E+04  0.25500000920E-02 0. -1.
    10030    2    1    2    0    0  0.00000000000E+00  0.00000000000E+00 -0.96978002393E+03  0.23031807664E+04  0.20890592016E+04 0.  0.
        4    1    3    3  502    0 -0.43850621372E+03  0.37893782364E+03  0.47317824291E+03  0.74818502800E+03  0.12699999809E+01 0.  1.
       -4    1    3    3    0  502  0.43850621372E+03 -0.37893782364E+03 -0.14429582668E+04  0.15549957384E+04  0.12699999809E+01 0. -1.
</event>
<event>
 5   0  0.1130848E-04  0.1842191E+04  0.7818609E-02  0.8684179E-01
       -1   -1    0    0    0  501  0.00000000000E+00  0.00000000000E+00  0.71628718046E+03  0.71628718048E+03  0.50400001928E-02 0. -1.
        1   -1    0    0  501    0  0.00000000000E+00  0.00000000000E+00 -0.11844651063E+04  0.11844651063E+04  0.50400001928E-02 0.  1.
    10030    2    1    2    0    0  0.00000000000E+00  0.00000000000E+00 -0.46817792580E+03  0.19007522868E+04  0.18421912727E+04 0.  0.
        5    1    3    3  502    0 -0.56753200651E+03 -0.72208481346E+03 -0.30628487698E+03  0.96815885685E+03  0.46999998093E+01 0.  1.
       -5    1    3    3    0  502  0.56753200651E+03  0.72208481346E+03 -0.16189304881E+03  0.93259342990E+03  0.46999998093E+01 0. -1.
</event>
<event>
 5   0  0.2448804E-04  0.1571895E+04  0.7818609E-02  0.8838002E-01
        2   -1    0    0  501    0  0.00000000000E+00  0.00000000000E+00  0.13168939914E+04  0.13168939914E+04  0.25500000920E-02 0.  1.
       -2   -1    0    0    0  501  0.00000000000E+00  0.00000000000E+00 -0.46906846449E+03  0.46906846450E+03  0.25500000920E-02 0. -1.
    10030    2    1    2    0    0  0.00000000000E+00  0.00000000000E+00  0.84782552690E+03  0.17859624559E+04  0.15718949614E+04 0.  0.
        2    1    3    3  502    0  0.20342714397E+03  0.47298106126E+03  0.10985994229E+04  0.12132659969E+04  0.25500000920E-02 0.  1.
       -2    1    3    3    0  502 -0.20342714397E+03 -0.47298106126E+03 -0.25077389601E+03  0.57269645899E+03  0.25500000920E-02 0. -1.
</event>
<event>
 5   0  0.1186038E-04  0.2102878E+04  0.7818609E-02  0.8559977E-01
        1   -1    0    0  501    0  0.00000000000E+00  0.00000000000E+00  0.13287536816E+04  0.13287536816E+04  0.50400001928E-02 0.  1.
       -1   -1    0    0    0  501  0.00000000000E+00  0.00000000000E+00 -0.83200069354E+03  0.83200069356E+03  0.50400001928E-02 0. -1.
    10030    2    1    2    0    0  0.00000000000E+00  0.00000000000E+00  0.49675298804E+03  0.21607543751E+04  0.21028780132E+04 0.  0.
        4    1    3    3  502    0  0.71510063055E+03  0.11824136301E+03 -0.53427761217E+03  0.90044661780E+03  0.12699999809E+01 0. -1.
       -4    1    3    3    0  502 -0.71510063055E+03 -0.11824136301E+03  0.10310306002E+04  0.12603077573E+04  0.12699999809E+01 0.  1.
</event>
<event>
 5   0  0.1122711E-04  0.2082628E+04  0.7818609E-02  0.8568935E-01
       -1   -1    0    0    0  501  0.00000000000E+00  0.00000000000E+00  0.13008629154E+04  0.13008629154E+04  0.50400001928E-02 0. -1.
        1   -1    0    0  501    0  0.00000000000E+00  0.00000000000E+00 -0.83355012984E+03  0.83355012985E+03  0.50400001928E-02 0.  1.
    10030    2    1    2    0    0  0.00000000000E+00  0.00000000000E+00  0.46731278560E+03  0.21344130453E+04  0.20826276211E+04 0.  0.
        1    1    3    3  502    0 -0.74021888570E+03  0.67338714106E+03 -0.61533693559E+02  0.10025769975E+04  0.50400001928E-02 0.  1.
       -1    1    3    3    0  502  0.74021888570E+03 -0.67338714106E+03  0.52884647916E+03  0.11318360478E+04  0.50400001928E-02 0. -1.
</event>
<event>
 5   0  0.2448804E-04  0.2084609E+04  0.7818609E-02  0.8568054E-01
        2   -1    0    0  501    0  0.00000000000E+00  0.00000000000E+00  0.20216563290E+04  0.20216563290E+04  0.25500000920E-02 0.  1.
       -2   -1    0    0    0  501  0.00000000000E+00  0.00000000000E+00 -0.53738048773E+03  0.53738048773E+03  0.25500000920E-02 0. -1.
    10030    2    1    2    0    0  0.00000000000E+00  0.00000000000E+00  0.14842758412E+04  0.25590368167E+04  0.20846089936E+04 0.  0.
        2    1    3    3  502    0 -0.81206868174E+03 -0.50995587728E+02  0.15418068613E+04  0.17433371709E+04  0.25500000920E-02 0.  1.
       -2    1    3    3    0  502  0.81206868174E+03  0.50995587728E+02 -0.57531020102E+02  0.81569964578E+03  0.25500000920E-02 0. -1.
</event>
<event>
 5   0  0.2430898E-04  0.1913970E+04  0.7818609E-02  0.8647934E-01
       -2   -1    0    0    0  501  0.00000000000E+00  0.00000000000E+00  0.98642992494E+03  0.98642992494E+03  0.25500000920E-02 0. -1.
        2   -1    0    0  501    0  0.00000000000E+00  0.00000000000E+00 -0.92841898724E+03  0.92841898724E+03  0.25500000920E-02 0.  1.
    10030    2    1    2    0    0  0.00000000000E+00  0.00000000000E+00  0.58010937698E+02  0.19148489122E+04  0.19139699809E+04 0.  0.
        1    1    3    3  502    0 -0.11146722777E+03  0.60722921960E+03 -0.70254027545E+03  0.93526205240E+03  0.50400001928E-02 0.  1.
       -1    1    3    3    0  502  0.11146722777E+03 -0.60722921960E+03  0.76055121315E+03  0.97958685978E+03  0.50400001928E-02 0. -1.
</event>
<event>
 5   0  0.1156733E-04  0.2070635E+04  0.7818609E-02  0.8574290E-01
        1   -1    0    0  501    0  0.00000000000E+00  0.00000000000E+00  0.95629270618E+03  0.95629270620E+03  0.50400001928E-02 0. -1.
       -1   -1    0    0    0  501  0.00000000000E+00  0.00000000000E+00 -0.11208727810E+04  0.11208727810E+04  0.50400001928E-02 0.  1.
    10030    2    1    2    0    0  0.00000000000E+00  0.00000000000E+00 -0.16458007484E+03  0.20771654872E+04  0.20706351345E+04 0.  0.
        2    1    3    3  502    0  0.81369387337E+03  0.27348913918E+02  0.55928683623E+03  0.98774867646E+03  0.25500000920E-02 0. -1.
       -2    1    3    3    0  502 -0.81369387337E+03 -0.27348913918E+02 -0.72386691107E+03  0.10894168108E+04  0.25500000920E-02 0.  1.
</event>
<event>
 5   0  0.1122711E-04  0.2091759E+04  0.7818609E-02  0.8564883E-01
        1   -1    0    0  501    0  0.00000000000E+00  0.00000000000E+00  0.18891703802E+04  0.18891703802E+04  0.50400001928E-02 0. -1.
       -1   -1    0    0    0  501  0.00000000000E+00  0.00000000000E+00 -0.57901787683E+03  0.57901787685E+03  0.50400001928E-02 0.  1.
    10030    2    1    2    0    0  0.00000000000E+00  0.00000000000E+00  0.13101525034E+04  0.24681882571E+04  0.20917585162E+04 0.  0.
        1    1    3    3  502    0 -0.33105004575E+03 -0.87475218591E+03  0.10278772209E+03  0.94093083454E+03  0.50400001928E-02 0.  1.
       -1    1    3    3    0  502  0.33105004575E+03  0.87475218591E+03  0.12073647813E+04  0.15272574225E+04  0.50400001928E-02 0. -1.
</event>
<event>
 5   0  0.1122711E-04  0.2083496E+04  0.7818609E-02  0.8568548E-01
       -1   -1    0    0    0  501  0.00000000000E+00  0.00000000000E+00  0.57752804582E+03  0.57752804585E+03  0.50400001928E-02 0.  1.
        1   -1    0    0  501    0  0.00000000000E+00  0.00000000000E+00 -0.18791105168E+04  0.18791105168E+04  0.50400001928E-02 0. -1.
    10030    2    1    2    0    0  0.00000000000E+00  0.00000000000E+00 -0.13015824710E+04  0.24566385626E+04  0.20834961240E+04 0.  0.
        1    1    3    3  502    0  0.70287327792E+02  0.47699146217E+03 -0.17396374023E+04  0.18052145177E+04  0.50400001928E-02 0. -1.
       -1    1    3    3    0  502 -0.70287327792E+02 -0.47699146217E+03  0.43805493133E+03  0.65142404494E+03  0.50400001928E-02 0.  1.
</event>
<event>
 5   0  0.2467483E-04  0.1990439E+04  0.7818609E-02  0.8611104E-01
       -2   -1    0    0    0  501  0.00000000000E+00  0.00000000000E+00  0.46144164185E+03  0.46144164186E+03  0.25500000920E-02 0.  1.
        2   -1    0    0  501    0  0.00000000000E+00  0.00000000000E+00 -0.21464500292E+04  0.21464500292E+04  0.25500000920E-02 0. -1.
    10030    2    1    2    0    0  0.00000000000E+00  0.00000000000E+00 -0.16850083874E+04  0.26078916711E+04  0.19904385704E+04 0.  0.
        4    1    3    3  502    0 -0.10646851413E+03 -0.96365474455E+03 -0.11369191057E+04  0.14941729073E+04  0.12699999809E+01 0.  1.
       -4    1    3    3    0  502  0.10646851413E+03  0.96365474455E+03 -0.54808928168E+03  0.11137187638E+04  0.12699999809E+01 0. -1.
</event>
<event>
 5   0  0.1042395E-04  0.2165340E+04  0.7818609E-02  0.8532995E-01
        1   -1    0    0  501    0  0.00000000000E+00  0.00000000000E+00  0.10079668889E+04  0.10079668889E+04  0.50400001928E-02 0.  1.
       -1   -1    0    0    0  501  0.00000000000E+00  0.00000000000E+00 -0.11629092064E+04  0.11629092065E+04  0.50400001928E-02 0. -1.
    10030    2    1    2    0    0  0.00000000000E+00  0.00000000000E+00 -0.15494231756E+03  0.21708760954E+04  0.21653396730E+04 0.  0.
        3    1    3    3  502    0 -0.51590192065E+02 -0.70810780628E+03 -0.89693228906E+03  0.11439255896E+04  0.10100000352E+00 0. -1.
       -3    1    3    3    0  502  0.51590192065E+02  0.70810780628E+03  0.74198997150E+03  0.10269505057E+04  0.10100000352E+00 0.  1.
</event>
<event>
 5   0  0.1122711E-04  0.2093626E+04  0.7818609E-02  0.8564056E-01
        1   -1    0    0  501    0  0.00000000000E+00  0.00000000000E+00  0.85921968340E+03  0.85921968342E+03  0.50400001928E-02 0.  1.
       -1   -1    0    0    0  501  0.00000000000E+00  0.00000000000E+00 -0.12753632702E+04  0.12753632702E+04  0.50400001928E-02 0. -1.
    10030    2    1    2    0    0  0.00000000000E+00  0.00000000000E+00 -0.41614358682E+03  0.21345829536E+04  0.20936257787E+04 0.  0.
        1    1    3    3  502    0  0.70073078830E+02 -0.23606313165E+03  0.82927069170E+03  0.86505833251E+03  0.50400001928E-02 0.  1.
       -1    1    3    3    0  502 -0.70073078830E+02  0.23606313165E+03 -0.12454142785E+04  0.12695246211E+04  0.50400001928E-02 0. -1.
</event>
<event>
 5   0  0.1122711E-04  0.2059214E+04  0.7818609E-02  0.8579426E-01
        1   -1    0    0  501    0  0.00000000000E+00  0.00000000000E+00  0.91931518035E+03  0.91931518036E+03  0.50400001928E-02 0. -1.
       -1   -1    0    0    0  501  0.00000000000E+00  0.00000000000E+00 -0.11531308610E+04  0.11531308610E+04  0.50400001928E-02 0.  1.
    10030    2    1    2    0    0  0.00000000000E+00  0.00000000000E+00 -0.23381568066E+03  0.20724460414E+04  0.20592141273E+04 0.  0.
        1    1    3    3  502    0  0.41895206620E+03 -0.85597651356E+03  0.27530657621E+03  0.99197295148E+03  0.50400001928E-02 0. -1.
       -1    1    3    3    0  502 -0.41895206620E+03  0.85597651356E+03 -0.50912225687E+03  0.10804730899E+04  0.50400001928E-02 0.  1.
</event>
<event>
 5   0  0.2467483E-04  0.2073770E+04  0.7818609E-02  0.8572887E-01
        2   -1    0    0  501    0  0.00000000000E+00  0.00000000000E+00  0.24138920855E+04  0.24138920855E+04  0.25500000920E-02 0. -1.
       -2   -1    0    0    0  501  0.00000000000E+00  0.00000000000E+00 -0.44539301082E+03  0.44539301083E+03  0.25500000920E-02 0.  1.
    10030    2    1    2    0    0  0.00000000000E+00  0.00000000000E+00  0.19684990746E+04  0.28592850963E+04  0.20737701548E+04 0.  0.
        4    1    3    3  502    0 -0.59355763287E+03  0.39927329361E+03  0.20191652078E+04  0.21421390188E+04  0.12699999809E+01 0. -1.
       -4    1    3    3    0  502  0.59355763287E+03 -0.39927329361E+03 -0.50666133159E+02  0.71714607750E+03  0.12699999809E+01 0.  1.
</event>
<event>
 5   0  0.2512839E-04  0.2100961E+04  0.7818609E-02  0.8560820E-01
       -2   -1    0    0    0  501  0.00000000000E+00  0.00000000000E+00  0.82159411735E+03  0.82159411736E+03  0.25500000920E-02 0. -1.
        2   -1    0    0  501    0  0.00000000000E+00  0.00000000000E+00 -0.13431315734E+04  0.13431315734E+04  0.25500000920E-02 0.  1.
    10030    2    1    2    0    0  0.00000000000E+00  0.00000000000E+00 -0.52153745606E+03  0.21647256908E+04  0.21009607322E+04 0.  0.
        3    1    3    3  502    0 -0.18348837731E+03  0.74238446387E+03 -0.10028401430E+04  0.12611467161E+04  0.10100000352E+00 0. -1.
       -3    1    3    3    0  502  0.18348837731E+03 -0.74238446387E+03  0.48130268697E+03  0.90357897469E+03  0.10100000352E+00 0.  1.
</event>
<event>
 5   0  0.2579241E-04  0.2103102E+04  0.7818609E-02  0.8559878E-01
        2   -1    0    0  501    0  0.00000000000E+00  0.00000000000E+00  0.32053206957E+04  0.32053206957E+04  0.25500000920E-02 0. -1.
       -2   -1    0    0    0  501  0.00000000000E+00  0.00000000000E+00 -0.34497619619E+03  0.34497619620E+03  0.25500000920E-02 0.  1.
    10030    2    1    2    0    0  0.00000000000E+00  0.00000000000E+00  0.28603444995E+04  0.35502968919E+04  0.21031018436E+04 0.  0.
        5    1    3    3  502    0 -0.51464487010E+03  0.58223499512E+03  0.23424585540E+03  0.81163424191E+03  0.46999998093E+01 0.  1.
       -5    1    3    3    0  502  0.51464487010E+03 -0.58223499512E+03  0.26260986441E+04  0.27386626500E+04  0.46999998093E+01 0. -1.
</event>
<event>
 5   0  0.2512839E-04  0.1309386E+04  0.7818609E-02  0.9022155E-01
        2   -1    0    0  501    0  0.00000000000E+00  0.00000000000E+00  0.78317973606E+03  0.78317973606E+03  0.25500000920E-02 0.  1.
       -2   -1    0    0    0  501  0.00000000000E+00  0.00000000000E+00 -0.54728513103E+03  0.54728513104E+03  0.25500000920E-02 0. -1.
    10030    2    1    2    0    0  0.00000000000E+00  0.00000000000E+00  0.23589460503E+03  0.13304648671E+04  0.13093855421E+04 0.  0.
        3    1    3    3  502    0 -0.49840840228E+03  0.36375335946E+03  0.34032014094E+03  0.70465966999E+03  0.10100000352E+00 0.  1.
       -3    1    3    3    0  502  0.49840840228E+03 -0.36375335946E+03 -0.10442553591E+03  0.62580519711E+03  0.10100000352E+00 0. -1.
</event>
<event>
 5   0  0.1130848E-04  0.1477819E+04  0.7818609E-02  0.8899339E-01
       -1   -1    0    0    0  501  0.00000000000E+00  0.00000000000E+00  0.11228884488E+04  0.11228884488E+04  0.50400001928E-02 0.  1.
        1   -1    0    0  501    0  0.00000000000E+00  0.00000000000E+00 -0.48623451379E+03  0.48623451382E+03  0.50400001928E-02 0. -1.
    10030    2    1    2    0    0  0.00000000000E+00  0.00000000000E+00  0.63665393502E+03  0.16091229626E+04  0.14778188238E+04 0.  0.
        5    1    3    3  502    0 -0.60193374334E+03  0.41364584235E+03  0.44024857891E+03  0.85280010289E+03  0.46999998093E+01 0. -1.
       -5    1    3    3    0  502  0.60193374334E+03 -0.41364584235E+03  0.19640535611E+03  0.75632285974E+03  0.46999998093E+01 0.  1.
</event>
<event>
 5   0  0.2579241E-04  0.2050191E+04  0.7818609E-02  0.8583508E-01
       -2   -1    0    0    0  501  0.00000000000E+00  0.00000000000E+00  0.45081054980E+03  0.45081054981E+03  0.25500000920E-02 0.  1.
        2   -1    0    0  501    0  0.00000000000E+00  0.00000000000E+00 -0.23309578044E+04  0.23309578044E+04  0.25500000920E-02 0. -1.
    10030    2    1    2    0    0  0.00000000000E+00  0.00000000000E+00 -0.18801472546E+04  0.27817683542E+04  0.20501905954E+04 0.  0.
        5    1    3    3  502    0  0.86082687594E+03 -0.47296609176E+03 -0.13381569026E+04  0.16599415111E+04  0.46999998093E+01 0. -1.
       -5    1    3    3    0  502 -0.86082687594E+03  0.47296609176E+03 -0.54199035205E+03  0.11218268431E+04  0.46999998093E+01 0.  1.
</event>
<event>
 5   0  0.2448804E-04  0.2129943E+04  0.7818609E-02  0.8548167E-01
       -2   -1    0    0    0  501  0.00000000000E+00  0.00000000000E+00  0.17429387722E+04  0.17429387722E+04  0.25500000920E-02 0. -1.
        2   -1    0    0  501    0  0.00000000000E+00  0.00000000000E+00 -0.65071954162E+03  0.65071954162E+03  0.25500000920E-02 0.  1.
    10030    2    1    2    0    0  0.00000000000E+00  0.00000000000E+00  0.10922192306E+04  0.23936583138E+04  0.21299430217E+04 0.  0.
        2    1    3    3  502    0 -0.15223841886E+02  0.91812565290E+03  0.11523210554E+04  0.14734416495E+04  0.25500000920E-02 0. -1.
       -2    1    3    3    0  502  0.15223841886E+02 -0.91812565290E+03 -0.60101824817E+02  0.92021666428E+03  0.25500000920E-02 0.  1.
</event>
<event>
 5   0  0.2579241E-04  0.2073198E+04  0.7818609E-02  0.8573143E-01
        2   -1    0    0  501    0  0.00000000000E+00  0.00000000000E+00  0.19052909139E+04  0.19052909139E+04  0.25500000920E-02 0. -1.
       -2   -1    0    0    0  501  0.00000000000E+00  0.00000000000E+00 -0.56397549244E+03  0.56397549244E+03  0.25500000920E-02 0.  1.
    10030    2    1    2    0    0  0.00000000000E+00  0.00000000000E+00  0.13413154214E+04  0.24692664063E+04  0.20731978983E+04 0.  0.
        5    1    3    3  502    0  0.32619518939E+03 -0.16823785348E+03 -0.48398271894E+03  0.60742788803E+03  0.46999998093E+01 0.  1.
       -5    1    3    3    0  502 -0.32619518939E+03  0.16823785348E+03  0.18252981404E+04  0.18618385183E+04  0.46999998093E+01 0. -1.
</event>
<event>
 5   0  0.1122711E-04  0.2120101E+04  0.7818609E-02  0.8552440E-01
        1   -1    0    0  501    0  0.00000000000E+00  0.00000000000E+00  0.11318565871E+04  0.11318565871E+04  0.50400001928E-02 0. -1.
       -1   -1    0    0    0  501  0.00000000000E+00  0.00000000000E+00 -0.99279988546E+03  0.99279988547E+03  0.50400001928E-02 0.  1.
    10030    2    1    2    0    0  0.00000000000E+00  0.00000000000E+00  0.13905670166E+03  0.21246564726E+04  0.21201010260E+04 0.  0.
        1    1    3    3  502    0 -0.41667830307E+03 -0.18273205612E+03 -0.88997094752E+03  0.99952993954E+03  0.50400001928E-02 0.  1.
       -1    1    3    3    0  502  0.41667830307E+03  0.18273205612E+03  0.10290276492E+04  0.11251265331E+04  0.50400001928E-02 0. -1.
</event>
<event>
 5   0  0.2448804E-04  0.2117556E+04  0.7818609E-02  0.8553549E-01
       -2   -1    0    0    0  501  0.00000000000E+00  0.00000000000E+00  0.63692667053E+03  0.63692667054E+03  0.25500000920E-02 0.  1.
        2   -1    0    0  501    0  0.00000000000E+00  0.00000000000E+00 -0.17600305622E+04  0.17600305622E+04  0.25500000920E-02 0. -1.
    10030    2    1    2    0    0  0.00000000000E+00  0.00000000000E+00 -0.11231038917E+04  0.23969572327E+04  0.21175555776E+04 0.  0.
        2    1    3    3  502    0  0.43955765561E+03 -0.70175931704E+03  0.18530328871E+03  0.84853661116E+03  0.25500000920E-02 0.  1.
       -2    1    3    3    0  502 -0.43955765561E+03  0.70175931704E+03 -0.13084071804E+04  0.15484206216E+04  0.25500000920E-02 0. -1.
</event>
<event>
 5   0  0.1130848E-04  0.2063085E+04  0.7818609E-02  0.8577681E-01
        1   -1    0    0  501    0  0.00000000000E+00  0.00000000000E+00  0.18524872989E+04  0.18524872989E+04  0.50400001928E-02 0. -1.
       -1   -1    0    0    0  501  0.00000000000E+00  0.00000000000E+00 -0.57440630123E+03  0.57440630125E+03  0.50400001928E-02 0.  1.
    10030    2    1    2    0    0  0.00000000000E+00  0.00000000000E+00  0.12780809977E+04  0.24268936002E+04  0.20630854345E+04 0.  0.
        5    1    3    3  502    0  0.56673277437E+02  0.34512068573E+03 -0.50251913401E+03  0.61226441848E+03  0.46999998093E+01 0.  1.
       -5    1    3    3    0  502 -0.56673277437E+02 -0.34512068573E+03  0.17806001317E+04  0.18146291817E+04  0.46999998093E+01 0. -1.
</event>
<event>
 5   0  0.1042395E-04  0.2069128E+04  0.7818609E-02  0.8574966E-01
        1   -1    0    0  501    0  0.00000000000E+00  0.00000000000E+00  0.10822021131E+04  0.10822021131E+04  0.50400001928E-02 0.  1.
       -1   -1    0    0    0  501  0.00000000000E+00  0.00000000000E+00 -0.98902333643E+03  0.98902333644E+03  0.50400001928E-02 0. -1.
    10030    2    1    2    0    0  0.00000000000E+00  0.00000000000E+00  0.93178776700E+02  0.20712254496E+04  0.20691284587E+04 0.  0.
        3    1    3    3  502    0 -0.51305658247E+03 -0.87065854260E+03 -0.17510691465E+03  0.10256392135E+04  0.10100000352E+00 0. -1.
       -3    1    3    3    0  502  0.51305658247E+03  0.87065854260E+03  0.26828569135E+03  0.10455862360E+04  0.10100000352E+00 0.  1.
</event>
<event>
 5   0  0.2467483E-04  0.1642826E+04  0.7818609E-02  0.8794662E-01
        2   -1    0    0  501    0  0.00000000000E+00  0.00000000000E+00  0.17464747653E+04  0.17464747653E+04  0.25500000920E-02 0.  1.
       -2   -1    0    0    0  501  0.00000000000E+00  0.00000000000E+00 -0.38633234780E+03  0.38633234781E+03  0.25500000920E-02 0. -1.
    10030    2    1    2    0    0  0.00000000000E+00  0.00000000000E+00  0.13601424175E+04  0.21328071131E+04  0.16428264625E+04 0.  0.
        4    1    3    3  502    0 -0.32907418377E+02 -0.10153389193E+03 -0.37729010992E+03  0.39209880048E+03  0.12699999809E+01 0. -1.
       -4    1    3    3    0  502  0.32907418377E+02  0.10153389193E+03  0.17374325274E+04  0.17407083126E+04  0.12699999809E+01 0.  1.
</event>
<event>
 5   0  0.1130848E-04  0.2092880E+04  0.7818609E-02  0.8564386E-01
       -1   -1    0    0    0  501  0.00000000000E+00  0.00000000000E+00  0.50754686892E+03  0.50754686895E+03  0.50400001928E-02 0. -1.
        1   -1    0    0  501    0  0.00000000000E+00  0.00000000000E+00 -0.21575078558E+04  0.21575078558E+04  0.50400001928E-02 0.  1.
    10030    2    1    2    0    0  0.00000000000E+00  0.00000000000E+00 -0.16499609869E+04  0.26650547248E+04  0.20928796974E+04 0.  0.
        5    1    3    3  502    0  0.87525262379E+03  0.55293288080E+02 -0.98042737356E+02  0.88247321291E+03  0.46999998093E+01 0. -1.
       -5    1    3    3    0  502 -0.87525262379E+03 -0.55293288080E+02 -0.15519182496E+04  0.17825815119E+04  0.46999998093E+01 0.  1.
</event>
<event>
 5   0  0.1122711E-04  0.2056415E+04  0.7818609E-02  0.8580690E-01
       -1   -1    0    0    0  501  0.00000000000E+00  0.00000000000E+00  0.99422563340E+03  0.99422563341E+03  0.50400001928E-02 0. -1.
        1   -1    0    0  501    0  0.00000000000E+00  0.00000000000E+00 -0.10633506275E+04  0.10633506275E+04  0.50400001928E-02 0.  1.
    10030    2    1    2    0    0  0.00000000000E+00  0.00000000000E+00 -0.69124994135E+02  0.20575762610E+04  0.20564147940E+04 0.  0.
        1    1    3    3  502    0  0.37431254909E+03  0.87201877117E+02  0.91965134696E+03  0.99673098265E+03  0.50400001928E-02 0. -1.
       -1    1    3    3    0  502 -0.37431254909E+03 -0.87201877117E+02 -0.98877634110E+03  0.10608452783E+04  0.50400001928E-02 0.  1.
</event>
<event>
 5   0  0.1042395E-04  0.2047587E+04  0.7818609E-02  0.8584690E-01
        1   -1    0    0  501    0  0.00000000000E+00  0.00000000000E+00  0.65560944417E+03  0.65560944419E+03  0.50400001928E-02 0.  1.
       -1   -1    0    0    0  501  0.00000000000E+00  0.00000000000E+00 -0.15987458055E+04  0.15987458055E+04  0.50400001928E-02 0. -1.
    10030    2    1    2    0    0  0.00000000000E+00  0.00000000000E+00 -0.94313636130E+03  0.22543552497E+04  0.20475867248E+04 0.  0.
        3    1    3    3  502    0 -0.21589738999E+03  0.43553630245E+03 -0.14635820770E+04  0.15421984503E+04  0.10100000352E+00 0. -1.
       -3    1    3    3    0  502  0.21589738999E+03 -0.43553630245E+03  0.52044571569E+03  0.71215679940E+03  0.10100000352E+00 0.  1.
</event>
<event>
 5   0  0.2579241E-04  0.2264108E+04  0.7818609E-02  0.8492209E-01
       -2   -1    0    0    0  501  0.00000000000E+00  0.00000000000E+00  0.10458444773E+04  0.10458444773E+04  0.25500000920E-02 0. -1.
        2   -1    0    0  501    0  0.00000000000E+00  0.00000000000E+00 -0.12253693922E+04  0.12253693922E+04  0.25500000920E-02 0.  1.
    10030    2    1    2    0    0  0.00000000000E+00  0.00000000000E+00 -0.17952491487E+03  0.22712138695E+04  0.22641076047E+04 0.  0.
        5    1    3    3  502    0  0.51143903980E+03  0.10096652340E+04 -0.66669664866E+02  0.11337815973E+04  0.46999998093E+01 0.  1.
       -5    1    3    3    0  502 -0.51143903980E+03 -0.10096652340E+04 -0.11285525000E+03  0.11374322721E+04  0.46999998093E+01 0. -1.
</event>
<event>
 5   0  0.1122711E-04  0.1794218E+04  0.7818609E-02  0.8709380E-01
       -1   -1    0    0    0  501  0.00000000000E+00  0.00000000000E+00  0.90690292181E+03  0.90690292182E+03  0.50400001928E-02 0. -1.
        1   -1    0    0  501    0  0.00000000000E+00  0.00000000000E+00 -0.88742053458E+03  0.88742053459E+03  0.50400001928E-02 0.  1.
    10030    2    1    2    0    0  0.00000000000E+00  0.00000000000E+00  0.19482387232E+02  0.17943234564E+04  0.17942176855E+04 0.  0.
        1    1    3    3  502    0  0.82262804546E+02  0.36281681772E+03  0.82612323396E+03  0.90602583294E+03  0.50400001928E-02 0. -1.
       -1    1    3    3    0  502 -0.82262804546E+02 -0.36281681772E+03 -0.80664084673E+03  0.88829762348E+03  0.50400001928E-02 0.  1.
</event>
<event>
 5   0  0.1130848E-04  0.1156534E+04  0.7818609E-02  0.9151776E-01
        1   -1    0    0  501    0  0.00000000000E+00  0.00000000000E+00  0.86283046843E+03  0.86283046845E+03  0.50400001928E-02 0. -1.
       -1   -1    0    0    0  501  0.00000000000E+00  0.00000000000E+00 -0.38755352949E+03  0.38755352952E+03  0.50400001928E-02 0.  1.
    10030    2    1    2    0    0  0.00000000000E+00  0.00000000000E+00  0.47527693894E+03  0.12503839980E+04  0.11565344671E+04 0.  0.
        5    1    3    3  502    0  0.20507252636E+03 -0.52820064219E+02 -0.34410131333E+03  0.40406992474E+03  0.46999998093E+01 0.  1.
       -5    1    3    3    0  502 -0.20507252636E+03  0.52820064219E+02  0.81937825227E+03  0.84631407323E+03  0.46999998093E+01 0. -1.
</event>
<event>
 5   0  0.2579241E-04  0.2110905E+04  0.7818609E-02  0.8556455E-01
       -2   -1    0    0    0  501  0.00000000000E+00  0.00000000000E+00  0.55276925908E+03  0.55276925909E+03  0.25500000920E-02 0. -1.
        2   -1    0    0  501    0  0.00000000000E+00  0.00000000000E+00 -0.20152714083E+04  0.20152714083E+04  0.25500000920E-02 0.  1.
    10030    2    1    2    0    0  0.00000000000E+00  0.00000000000E+00 -0.14625021492E+04  0.25680406674E+04  0.21109050980E+04 0.  0.
        5    1    3    3  502    0 -0.24875823026E+03 -0.29400223129E+03 -0.19267269521E+04  0.19648452375E+04  0.46999998093E+01 0.  1.
       -5    1    3    3    0  502  0.24875823026E+03  0.29400223129E+03  0.46422480287E+03  0.60319542996E+03  0.46999998093E+01 0. -1.
</event>
<event>
 5   0  0.1130848E-04  0.2065050E+04  0.7818609E-02  0.8576797E-01
       -1   -1    0    0    0  501  0.00000000000E+00  0.00000000000E+00  0.10077813796E+04  0.10077813796E+04  0.50400001928E-02 0. -1.
        1   -1    0    0  501    0  0.00000000000E+00  0.00000000000E+00 -0.10578757999E+04  0.10578757999E+04  0.50400001928E-02 0.  1.
    10030    2    1    2    0    0  0.00000000000E+00  0.00000000000E+00 -0.50094420359E+02  0.20656571795E+04  0.20650496682E+04 0.  0.
        5    1    3    3  502    0  0.28040671599E+03 -0.47881435096E+03  0.84595250385E+03  0.10117059048E+04  0.46999998093E+01 0. -1.
       -5    1    3    3    0  502 -0.28040671599E+03  0.47881435096E+03 -0.89604692421E+03  0.10539512747E+04  0.46999998093E+01 0.  1.
</event>
<event>
 5   0  0.2467483E-04  0.1845075E+04  0.7818609E-02  0.8682690E-01
        2   -1    0    0  501    0  0.00000000000E+00  0.00000000000E+00  0.22345311087E+04  0.22345311087E+04  0.25500000920E-02 0. -1.
       -2   -1    0    0    0  501  0.00000000000E+00  0.00000000000E+00 -0.38087434678E+03  0.38087434679E+03  0.25500000920E-02 0.  1.
    10030    2    1    2    0    0  0.00000000000E+00  0.00000000000E+00  0.18536567619E+04  0.26154054555E+04  0.18450751491E+04 0.  0.
        4    1    3    3  502    0 -0.10715063613E+02 -0.30452740163E+03  0.21611354534E+04  0.21825122707E+04  0.12699999809E+01 0. -1.
       -4    1    3    3    0  502  0.10715063613E+02  0.30452740163E+03 -0.30747869141E+03  0.43289318486E+03  0.12699999809E+01 0.  1.
</event>
<event>
 5   0  0.1186038E-04  0.2125264E+04  0.7818609E-02  0.8550195E-01
        1   -1    0    0  501    0  0.00000000000E+00  0.00000000000E+00  0.18079063241E+04  0.18079063241E+04  0.50400001928E-02 0.  1.
       -1   -1    0    0    0  501  0.00000000000E+00  0.00000000000E+00 -0.62458250511E+03  0.62458250513E+03  0.50400001928E-02 0. -1.
    10030    2    1    2    0    0  0.00000000000E+00  0.00000000000E+00  0.11833238189E+04  0.24324888292E+04  0.21252638998E+04 0.  0.
        4    1    3    3  502    0 -0.23753059545E+03 -0.10353968460E+04  0.62232316710E+03  0.12311600829E+04  0.12699999809E+01 0. -1.
       -4    1    3    3    0  502  0.23753059545E+03  0.10353968460E+04  0.56100065185E+03  0.12013287463E+04  0.12699999809E+01 0.  1.
</event>
<event>
 5   0  0.1156733E-04  0.2110813E+04  0.7818609E-02  0.8556495E-01
        1   -1    0    0  501    0  0.00000000000E+00  0.00000000000E+00  0.12918318027E+04  0.12918318027E+04  0.50400001928E-02 0. -1.
       -1   -1    0    0    0  501  0.00000000000E+00  0.00000000000E+00 -0.86225086061E+03  0.86225086062E+03  0.50400001928E-02 0.  1.
    10030    2    1    2    0    0  0.00000000000E+00  0.00000000000E+00  0.42958094210E+03  0.21540826633E+04  0.21108131928E+04 0.  0.
        2    1    3    3  502    0  0.96302847688E+03 -0.38066888265E+03  0.42280820906E+03  0.11185255595E+04  0.25500000920E-02 0. -1.
       -2    1    3    3    0  502 -0.96302847688E+03  0.38066888265E+03  0.67727330448E+01  0.10355571039E+04  0.25500000920E-02 0.  1.
</event>
<event>
 5   0  0.1042395E-04  0.2119116E+04  0.7818609E-02  0.8552869E-01
        1   -1    0    0  501    0  0.00000000000E+00  0.00000000000E+00  0.10591621481E+04  0.10591621481E+04  0.50400001928E-02 0. -1.
       -1   -1    0    0    0  501  0.00000000000E+00  0.00000000000E+00 -0.10599538091E+04  0.10599538092E+04  0.50400001928E-02 0.  1.
    10030    2    1    2    0    0  0.00000000000E+00  0.00000000000E+00 -0.79166104512E+00  0.21191159573E+04  0.21191158094E+04 0.  0.
        3    1    3    3  502    0  0.63486286982E+03 -0.44500536060E+03  0.72181077535E+03  0.10592881761E+04  0.10100000352E+00 0. -1.
       -3    1    3    3    0  502 -0.63486286982E+03  0.44500536060E+03 -0.72260243640E+03  0.10598277812E+04  0.10100000352E+00 0.  1.
</event>
<event>
 5   0  0.2512839E-04  0.2060892E+04  0.7818609E-02  0.8578669E-01
       -2   -1    0    0    0  501  0.00000000000E+00  0.00000000000E+00  0.52735335208E+03  0.52735335209E+03  0.25500000920E-02 0. -1.
        2   -1    0    0  501    0  0.00000000000E+00  0.00000000000E+00 -0.20134871916E+04  0.20134871916E+04  0.25500000920E-02 0.  1.
    10030    2    1    2    0    0  0.00000000000E+00  0.00000000000E+00 -0.14861338395E+04  0.25408405437E+04  0.20608922533E+04 0.  0.
        3    1    3    3  502    0 -0.25299092544E+03 -0.39835838664E+03  0.38630128507E+03  0.60985449544E+03  0.10100000352E+00 0. -1.
       -3    1    3    3    0  502  0.25299092544E+03  0.39835838664E+03 -0.18724351246E+04  0.19309860483E+04  0.10100000352E+00 0.  1.
</event>
<event>
 5   0  0.1156733E-04  0.2105749E+04  0.7818609E-02  0.8558715E-01
       -1   -1    0    0    0  501  0.00000000000E+00  0.00000000000E+00  0.77040690290E+03  0.77040690292E+03  0.50400001928E-02 0. -1.
        1   -1    0    0  501    0  0.00000000000E+00  0.00000000000E+00 -0.14389086918E+04  0.14389086919E+04  0.50400001928E-02 0.  1.
    10030    2    1    2    0    0  0.00000000000E+00  0.00000000000E+00 -0.66850178895E+03  0.22093155948E+04  0.21057494522E+04 0.  0.
        2    1    3    3  502    0  0.80646120132E+03  0.36299635078E+03 -0.93366310256E+03  0.12860298632E+04  0.25500000920E-02 0.  1.
       -2    1    3    3    0  502 -0.80646120132E+03 -0.36299635078E+03  0.26516131361E+03  0.92328573159E+03  0.25500000920E-02 0. -1.
</event>
<event>
 5   0  0.1186038E-04  0.1937567E+04  0.7818609E-02  0.8636380E-01
       -1   -1    0    0    0  501  0.00000000000E+00  0.00000000000E+00  0.41731374292E+03  0.41731374295E+03  0.50400001928E-02 0. -1.
        1   -1    0    0  501    0  0.00000000000E+00  0.00000000000E+00 -0.22490064858E+04  0.22490064858E+04  0.50400001928E-02 0.  1.
    10030    2    1    2    0    0  0.00000000000E+00  0.00000000000E+00 -0.18316927429E+04  0.26663202287E+04  0.19375668396E+04 0.  0.
        4    1    3    3  502    0  0.46240494190E+03  0.94726847097E+02 -0.20800682203E+04  0.21329502853E+04  0.12699999809E+01 0.  1.
       -4    1    3    3    0  502 -0.46240494190E+03 -0.94726847097E+02  0.24837547740E+03  0.53336994341E+03  0.12699999809E+01 0. -1.
</event>
<event>
 5   0  0.2579241E-04  0.2070171E+04  0.7818609E-02  0.8574498E-01
        2   -1    0    0  501    0  0.00000000000E+00  0.00000000000E+00  0.12743112745E+04  0.12743112745E+04  0.25500000920E-02 0.  1.
       -2   -1    0    0    0  501  0.00000000000E+00  0.00000000000E+00 -0.84076932931E+03  0.84076932931E+03  0.25500000920E-02 0. -1.
    10030    2    1    2    0    0  0.00000000000E+00  0.00000000000E+00  0.43354194516E+03  0.21150806038E+04  0.20701708486E+04 0.  0.
        5    1    3    3  502    0  0.11922172551E+03 -0.65003488648E+03 -0.59714169349E+03  0.89070728389E+03  0.46999998093E+01 0. -1.
       -5    1    3    3    0  502 -0.11922172551E+03  0.65003488648E+03  0.10306836387E+04  0.12243733199E+04  0.46999998093E+01 0.  1.
</event>
<event>
 5   0  0.2467483E-04  0.2062845E+04  0.7818609E-02  0.8577789E-01
        2   -1    0    0  501    0  0.00000000000E+00  0.00000000000E+00  0.16542751183E+04  0.16542751183E+04  0.25500000920E-02 0.  1.
       -2   -1    0    0    0  501  0.00000000000E+00  0.00000000000E+00 -0.64308052973E+03  0.64308052974E+03  0.25500000920E-02 0. -1.
    10030    2    1    2    0    0  0.00000000000E+00  0.00000000000E+00  0.10111945885E+04  0.22973556480E+04  0.20628447536E+04 0.  0.
        4    1    3    3  502    0 -0.29754856646E+03  0.83509714607E+02  0.16014986685E+04  0.16310452538E+04  0.12699999809E+01 0.  1.
       -4    1    3    3    0  502  0.29754856646E+03 -0.83509714607E+02 -0.59030407991E+03  0.66631039426E+03  0.12699999809E+01 0. -1.
</event>
<event>
 5   0  0.1156733E-04  0.1992815E+04  0.7818609E-02  0.8609987E-01
       -1   -1    0    0    0  501  0.00000000000E+00  0.00000000000E+00  0.62630944472E+03  0.62630944474E+03  0.50400001928E-02 0. -1.
        1   -1    0    0  501    0  0.00000000000E+00  0.00000000000E+00 -0.15852032605E+04  0.15852032606E+04  0.50400001928E-02 0.  1.
    10030    2    1    2    0    0  0.00000000000E+00  0.00000000000E+00 -0.95889381583E+03  0.22115127053E+04  0.19928148674E+04 0.  0.
        2    1    3    3  502    0  0.55708239668E+03  0.12074298050E+03  0.42749786591E+03  0.71251251876E+03  0.25500000920E-02 0. -1.
       -2    1    3    3    0  502 -0.55708239668E+03 -0.12074298050E+03 -0.13863916817E+04  0.14990001865E+04  0.25500000920E-02 0.  1.
</event>
<event>
 5   0  0.1042395E-04  0.2182201E+04  0.7818609E-02  0.8525873E-01
       -1   -1    0    0    0  501  0.00000000000E+00  0.00000000000E+00  0.10373105477E+04  0.10373105477E+04  0.50400001928E-02 0.  1.
        1   -1    0    0  501    0  0.00000000000E+00  0.00000000000E+00 -0.11476801339E+04  0.11476801339E+04  0.50400001928E-02 0. -1.
    10030    2    1    2    0    0  0.00000000000E+00  0.00000000000E+00 -0.11036958615E+03  0.21849906816E+04  0.21822013732E+04 0.  0.
        3    1    3    3  502    0  0.10849723690E+04  0.79369870569E+02 -0.13917335687E+03  0.10967378225E+04  0.10100000352E+00 0. -1.
       -3    1    3    3    0  502 -0.10849723690E+04 -0.79369870569E+02  0.28803770724E+02  0.10882528591E+04  0.10100000352E+00 0.  1.
</event>
<event>
 5   0  0.1042395E-04  0.2106061E+04  0.7818609E-02  0.8558578E-01
        1   -1    0    0  501    0  0.00000000000E+00  0.00000000000E+00  0.15158271429E+04  0.15158271429E+04  0.50400001928E-02 0. -1.
       -1   -1    0    0    0  501  0.00000000000E+00  0.00000000000E+00 -0.73153028738E+03  0.73153028739E+03  0.50400001928E-02 0.  1.
    10030    2    1    2    0    0  0.00000000000E+00  0.00000000000E+00  0.78429685548E+03  0.22473574303E+04  0.21060612199E+04 0.  0.
        3    1    3    3  502    0  0.44431450327E+03 -0.32294722891E+02 -0.62602296759E+03  0.76835089191E+03  0.10100000352E+00 0.  1.
       -3    1    3    3    0  502 -0.44431450327E+03  0.32294722891E+02  0.14103198231E+04  0.14790065383E+04  0.10100000352E+00 0. -1.
</event>
<event>
 5   0  0.2448804E-04  0.2004976E+04  0.7818609E-02  0.8604298E-01
       -2   -1    0    0    0  501  0.00000000000E+00  0.00000000000E+00  0.55484810825E+03  0.55484810826E+03  0.25500000920E-02 0. -1.
        2   -1    0    0  501    0  0.00000000000E+00  0.00000000000E+00 -0.18112752346E+04  0.18112752346E+04  0.25500000920E-02 0.  1.
    10030    2    1    2    0    0  0.00000000000E+00  0.00000000000E+00 -0.12564271263E+04  0.23661233429E+04  0.20049764462E+04 0.  0.
        2    1    3    3  502    0  0.26451842971E+03  0.11964622456E+02  0.51283360450E+03  0.57715808732E+03  0.25500000920E-02 0. -1.
       -2    1    3    3    0  502 -0.26451842971E+03 -0.11964622456E+02 -0.17692607308E+04  0.17889652555E+04  0.25500000920E-02 0.  1.
</event>
<event>
 5   0  0.1122711E-04  0.2103950E+04  0.7818609E-02  0.8559505E-01
        1   -1    0    0  501    0  0.00000000000E+00  0.00000000000E+00  0.15849696283E+04  0.15849696283E+04  0.50400001928E-02 0.  1.
       -1   -1    0    0    0  501  0.00000000000E+00  0.00000000000E+00 -0.69821599953E+03  0.69821599955E+03  0.50400001928E-02 0. -1.
    10030    2    1    2    0    0  0.00000000000E+00  0.00000000000E+00  0.88675362881E+03  0.22831856279E+04  0.21039497649E+04 0.  0.
        1    1    3    3  502    0  0.16415478793E+03  0.71267917039E+02  0.15683298056E+04  0.15785069811E+04  0.50400001928E-02 0.  1.
       -1    1    3    3    0  502 -0.16415478793E+03 -0.71267917039E+02 -0.68157617678E+03  0.70467864675E+03  0.50400001928E-02 0. -1.
</event>
<event>
 5   0  0.2579241E-04  0.2094167E+04  0.7818609E-02  0.8563817E-01
        2   -1    0    0  501    0  0.00000000000E+00  0.00000000000E+00  0.11506382211E+04  0.11506382211E+04  0.25500000920E-02 0. -1.
       -2   -1    0    0    0  501  0.00000000000E+00  0.00000000000E+00 -0.95284819527E+03  0.95284819527E+03  0.25500000920E-02 0.  1.
    10030    2    1    2    0    0  0.00000000000E+00  0.00000000000E+00  0.19779002584E+03  0.21034864164E+04  0.20941667101E+04 0.  0.
        5    1    3    3  502    0  0.95111014616E+03 -0.26595179992E+03  0.44832333078E+03  0.10845998197E+04  0.46999998093E+01 0. -1.
       -5    1    3    3    0  502 -0.95111014616E+03  0.26595179992E+03 -0.25053330494E+03  0.10188865967E+04  0.46999998093E+01 0.  1.
</event>
<event>
 5   0  0.1042395E-04  0.2215249E+04  0.7818609E-02  0.8512108E-01
       -1   -1    0    0    0  501  0.00000000000E+00  0.00000000000E+00  0.46332308526E+03  0.46332308529E+03  0.50400001928E-02 0. -1.
        1   -1    0    0  501    0  0.00000000000E+00  0.00000000000E+00 -0.26478976873E+04  0.26478976873E+04  0.50400001928E-02 0.  1.
    10030    2    1    2    0    0  0.00000000000E+00  0.00000000000E+00 -0.21845746021E+04  0.31112207726E+04  0.22152490840E+04 0.  0.
        3    1    3    3  502    0  0.43319764983E+02  0.34518536986E+03  0.38459900092E+03  0.51859998391E+03  0.10100000352E+00 0. -1.
       -3    1    3    3    0  502 -0.43319764983E+02 -0.34518536986E+03 -0.25691736030E+04  0.25926207887E+04  0.10100000352E+00 0.  1.
</event>
<event>
 5   0  0.2448804E-04  0.2213686E+04  0.7818609E-02  0.8512753E-01
       -2   -1    0    0    0  501  0.00000000000E+00  0.00000000000E+00  0.99647063842E+03  0.99647063842E+03  0.25500000920E-02 0. -1.
        2   -1    0    0  501    0  0.00000000000E+00  0.00000000000E+00 -0.12294400126E+04  0.12294400126E+04  0.25500000920E-02 0.  1.
    10030    2    1    2    0    0  0.00000000000E+00  0.00000000000E+00 -0.23296937420E+03  0.22259106510E+04  0.22136855009E+04 0.  0.
        2    1    3    3  502    0 -0.96830579229E+03  0.62169386848E+02 -0.65198537109E+03  0.11690021660E+04  0.25500000920E-02 0.  1.
       -2    1    3    3    0  502  0.96830579229E+03 -0.62169386848E+02  0.41901599690E+03  0.10569084850E+04  0.25500000920E-02 0. -1.
</event>
<event>
 5   0  0.8698750E-05  0.2141792E+04  0.7818609E-02  0.8543054E-01
        3   -1    0    0  501    0  0.00000000000E+00  0.00000000000E+00  0.13421504509E+04  0.13421504547E+04  0.10100000352E+00 0. -1.
       -3   -1    0    0    0  501  0.00000000000E+00  0.00000000000E+00 -0.85446295582E+03  0.85446296179E+03  0.10100000352E+00 0.  1.
    10030    2    1    2    0    0  0.00000000000E+00  0.00000000000E+00  0.48768749511E+03  0.21966134165E+04  0.21417916352E+04 0.  0.
        3    1    3    3  502    0 -0.26109133705E+03  0.10227753578E+04  0.42896236942E+03  0.11394063557E+04  0.10100000352E+00 0.  1.
       -3    1    3    3    0  502  0.26109133705E+03 -0.10227753578E+04  0.58725125687E+02  0.10572070608E+04  0.10100000352E+00 0. -1.
</event>
<event>
 5   0  0.2579241E-04  0.2107644E+04  0.7818609E-02  0.8557883E-01
        2   -1    0    0  501    0  0.00000000000E+00  0.00000000000E+00  0.20063180568E+04  0.20063180568E+04  0.25500000920E-02 0. -1.
       -2   -1    0    0    0  501  0.00000000000E+00  0.00000000000E+00 -0.55352195322E+03  0.55352195323E+03  0.25500000920E-02 0.  1.
    10030    2    1    2    0    0  0.00000000000E+00  0.00000000000E+00  0.14527961036E+04  0.25598400100E+04  0.21076442675E+04 0.  0.
        5    1    3    3  502    0  0.37498570995E+03  0.69515990131E+03 -0.12088240594E+03  0.79905958296E+03  0.46999998093E+01 0.  1.
       -5    1    3    3    0  502 -0.37498570995E+03 -0.69515990131E+03  0.15736785095E+04  0.17607804271E+04  0.46999998093E+01 0. -1.
</event>
<event>
 5   0  0.1122711E-04  0.2077587E+04  0.7818609E-02  0.8571181E-01
       -1   -1    0    0    0  501  0.00000000000E+00  0.00000000000E+00  0.56969326469E+03  0.56969326471E+03  0.50400001928E-02 0.  1.
        1   -1    0    0  501    0  0.00000000000E+00  0.00000000000E+00 -0.18941625594E+04  0.18941625594E+04  0.50400001928E-02 0. -1.
    10030    2    1    2    0    0  0.00000000000E+00  0.00000000000E+00 -0.13244692947E+04  0.24638558241E+04  0.20775867273E+04 0.  0.
        1    1    3    3  502    0 -0.36111243938E+03  0.58446461958E+03  0.26178854353E+03  0.73521039639E+03  0.50400001928E-02 0.  1.
       -1    1    3    3    0  502  0.36111243938E+03 -0.58446461958E+03 -0.15862578382E+04  0.17286454277E+04  0.50400001928E-02 0. -1.
</event>
<event>
 5   0  0.1186038E-04  0.1321268E+04  0.7818609E-02  0.9012868E-01
        1   -1    0    0  501    0  0.00000000000E+00  0.00000000000E+00  0.12647986216E+04  0.12647986216E+04  0.50400001928E-02 0. -1.
       -1   -1    0    0    0  501  0.00000000000E+00  0.00000000000E+00 -0.34506454217E+03  0.34506454220E+03  0.50400001928E-02 0.  1.
    10030    2    1    2    0    0  0.00000000000E+00  0.00000000000E+00  0.91973407939E+03  0.16098631638E+04  0.13212678113E+04 0.  0.
        4    1    3    3  502    0 -0.45919074066E+03 -0.12552223968E+03 -0.98249958745E+02  0.48607266561E+03  0.12699999809E+01 0.  1.
       -4    1    3    3    0  502  0.45919074066E+03  0.12552223968E+03  0.10179840381E+04  0.11237904982E+04  0.12699999809E+01 0. -1.
</event>
<event>
 5   0  0.2512839E-04  0.2250893E+04  0.7818609E-02  0.8497539E-01
       -2   -1    0    0    0  501  0.00000000000E+00  0.00000000000E+00  0.85533277459E+03  0.85533277459E+03  0.25500000920E-02 0.  1.
        2   -1    0    0  501    0  0.00000000000E+00  0.00000000000E+00 -0.14808623693E+04  0.14808623693E+04  0.25500000920E-02 0. -1.
    10030    2    1    2    0    0  0.00000000000E+00  0.00000000000E+00 -0.62552959470E+03  0.23361951439E+04  0.22508932619E+04 0.  0.
        3    1    3    3  502    0 -0.73293640038E+02 -0.46801829273E+03  0.74681409493E+03  0.88438927096E+03  0.10100000352E+00 0.  1.
       -3    1    3    3    0  502  0.73293640038E+02  0.46801829273E+03 -0.13723436896E+04  0.14518058729E+04  0.10100000352E+00 0. -1.
</event>
<event>
 5   0  0.1130848E-04  0.1990642E+04  0.7818609E-02  0.8611008E-01
        1   -1    0    0  501    0  0.00000000000E+00  0.00000000000E+00  0.70390464479E+03  0.70390464481E+03  0.50400001928E-02 0.  1.
       -1   -1    0    0    0  501  0.00000000000E+00  0.00000000000E+00 -0.14073838641E+04  0.14073838641E+04  0.50400001928E-02 0. -1.
    10030    2    1    2    0    0  0.00000000000E+00  0.00000000000E+00 -0.70347921927E+03  0.21112885089E+04  0.19906421466E+04 0.  0.
        5    1    3    3  502    0  0.52480491647E+03  0.51590620220E+03 -0.10624747736E+04  0.12924605001E+04  0.46999998093E+01 0. -1.
       -5    1    3    3    0  502 -0.52480491647E+03 -0.51590620220E+03  0.35899555437E+03  0.81882800873E+03  0.46999998093E+01 0.  1.
</event>
<event>
 5   0  0.2430898E-04  0.2076017E+04  0.7818609E-02  0.8571882E-01
       -2   -1    0    0    0  501  0.00000000000E+00  0.00000000000E+00  0.67881703202E+03  0.67881703203E+03  0.25500000920E-02 0.  1.
        2   -1    0    0  501    0  0.00000000000E+00  0.00000000000E+00 -0.15872637627E+04  0.15872637627E+04  0.25500000920E-02 0. -1.
    10030    2    1    2    0    0  0.00000000000E+00  0.00000000000E+00 -0.90844673069E+03  0.22660807947E+04  0.20760170293E+04 0.  0.
        1    1    3    3  502    0 -0.58108795665E+03  0.85913530870E+03 -0.49903000985E+03  0.11510028856E+04  0.50400001928E-02 0.  1.
       -1    1    3    3    0  502  0.58108795665E+03 -0.85913530870E+03 -0.40941672084E+03  0.11150779091E+04  0.50400001928E-02 0. -1.
</event>
<event>
 5   0  0.1122711E-04  0.2103248E+04  0.7818609E-02  0.8559814E-01
        1   -1    0    0  501    0  0.00000000000E+00  0.00000000000E+00  0.23249049722E+04  0.23249049722E+04  0.50400001928E-02 0.  1.
       -1   -1    0    0    0  501  0.00000000000E+00  0.00000000000E+00 -0.47568097580E+03  0.47568097583E+03  0.50400001928E-02 0. -1.
    10030    2    1    2    0    0  0.00000000000E+00  0.00000000000E+00  0.18492239964E+04  0.28005859480E+04  0.21032480271E+04 0.  0.
        1    1    3    3  502    0  0.25239842111E+03 -0.52013684335E+03 -0.24508407615E+03  0.62794386946E+03  0.50400001928E-02 0.  1.
       -1    1    3    3    0  502 -0.25239842111E+03  0.52013684335E+03  0.20943080725E+04  0.21726420786E+04  0.50400001928E-02 0. -1.
</event>
<event>
 5   0  0.2448804E-04  0.2067062E+04  0.7818609E-02  0.8575893E-01
       -2   -1    0    0    0  501  0.00000000000E+00  0.00000000000E+00  0.55312263250E+03  0.55312263250E+03  0.25500000920E-02 0.  1.
        2   -1    0    0  501    0  0.00000000000E+00  0.00000000000E+00 -0.19311922102E+04  0.19311922102E+04  0.25500000920E-02 0. -1.
    10030    2    1    2    0    0  0.00000000000E+00  0.00000000000E+00 -0.13780695777E+04  0.24843148427E+04  0.20670617980E+04 0.  0.
        2    1    3    3  502    0 -0.10707362934E+03  0.43813562718E+03 -0.18066713503E+04  0.18621194800E+04  0.25500000920E-02 0. -1.
       -2    1    3    3    0  502  0.10707362934E+03 -0.43813562718E+03  0.42860177257E+03  0.62219536270E+03  0.25500000920E-02 0.  1.
</event>
<event>
 5   0  0.1042395E-04  0.2105774E+04  0.7818609E-02  0.8558704E-01
        1   -1    0    0  501    0  0.00000000000E+00  0.00000000000E+00  0.97836642316E+03  0.97836642317E+03  0.50400001928E-02 0. -1.
       -1   -1    0    0    0  501  0.00000000000E+00  0.00000000000E+00 -0.11330842015E+04  0.11330842015E+04  0.50400001928E-02 0.  1.
    10030    2    1    2    0    0  0.00000000000E+00  0.00000000000E+00 -0.15471777833E+03  0.21114506247E+04  0.21057744774E+04 0.  0.
        3    1    3    3  502    0  0.11599475160E+03  0.42745852729E+02  0.97106442124E+03  0.97890148163E+03  0.10100000352E+00 0. -1.
       -3    1    3    3    0  502 -0.11599475160E+03 -0.42745852729E+02 -0.11257821996E+04  0.11325491430E+04  0.10100000352E+00 0.  1.
</event>
<event>
 5   0  0.2467483E-04  0.2125643E+04  0.7818609E-02  0.8550031E-01
        2   -1    0    0  501    0  0.00000000000E+00  0.00000000000E+00  0.20178000775E+04  0.20178000776E+04  0.25500000920E-02 0.  1.
       -2   -1    0    0    0  501  0.00000000000E+00  0.00000000000E+00 -0.55981260517E+03  0.55981260518E+03  0.25500000920E-02 0. -1.
    10030    2    1    2    0    0  0.00000000000E+00  0.00000000000E+00  0.14579874724E+04  0.25776126827E+04  0.21256433550E+04 0.  0.
        4    1    3    3  502    0  0.11234458700E+02  0.10418934219E+04  0.98312574143E+03  0.14325522511E+04  0.12699999809E+01 0.  1.
       -4    1    3    3    0  502 -0.11234458700E+02 -0.10418934219E+04  0.47486173094E+03  0.11450604316E+04  0.12699999809E+01 0. -1.
</event>
<event>
 5   0  0.2430898E-04  0.2021898E+04  0.7818609E-02  0.8596451E-01
        2   -1    0    0  501    0  0.00000000000E+00  0.00000000000E+00  0.10653918397E+04  0.10653918397E+04  0.25500000920E-02 0. -1.
       -2   -1    0    0    0  501  0.00000000000E+00  0.00000000000E+00 -0.95928816309E+03  0.95928816309E+03  0.25500000920E-02 0.  1.
    10030    2    1    2    0    0  0.00000000000E+00  0.00000000000E+00  0.10610367658E+03  0.20246800028E+04  0.20218979013E+04 0.  0.
        1    1    3    3  502    0  0.21962253740E+03  0.49278948367E+03  0.90917984386E+03  0.10572055253E+04  0.50400001928E-02 0. -1.
       -1    1    3    3    0  502 -0.21962253740E+03 -0.49278948367E+03 -0.80307616727E+03  0.96747447750E+03  0.50400001928E-02 0.  1.
</event>
<event>
 5   0  0.1042395E-04  0.2071323E+04  0.7818609E-02  0.8573982E-01
       -1   -1    0    0    0  501  0.00000000000E+00  0.00000000000E+00  0.64504930569E+03  0.64504930571E+03  0.50400001928E-02 0.  1.
        1   -1    0    0  501    0  0.00000000000E+00  0.00000000000E+00 -0.16628104452E+04  0.16628104453E+04  0.50400001928E-02 0. -1.
    10030    2    1    2    0    0  0.00000000000E+00  0.00000000000E+00 -0.10177611396E+04  0.23078597510E+04  0.20713229813E+04 0.  0.
        3    1    3    3  502    0  0.43466992003E+03  0.83290380532E+03 -0.99445534213E+03  0.13680672959E+04  0.10100000352E+00 0. -1.
       -3    1    3    3    0  502 -0.43466992003E+03 -0.83290380532E+03 -0.23305797423E+02  0.93979245511E+03  0.10100000352E+00 0.  1.
</event>
<event>
 5   0  0.1130848E-04  0.2043244E+04  0.7818609E-02  0.8586666E-01
       -1   -1    0    0    0  501  0.00000000000E+00  0.00000000000E+00  0.59018235999E+03  0.59018236001E+03  0.50400001928E-02 0.  1.
        1   -1    0    0  501    0  0.00000000000E+00  0.00000000000E+00 -0.17684554263E+04  0.17684554263E+04  0.50400001928E-02 0. -1.
    10030    2    1    2    0    0  0.00000000000E+00  0.00000000000E+00 -0.11782730663E+04  0.23586377863E+04  0.20432436928E+04 0.  0.
        5    1    3    3  502    0 -0.84579878049E+02 -0.88479445207E+03 -0.77309824451E+01  0.88887391472E+03  0.46999998093E+01 0.  1.
       -5    1    3    3    0  502  0.84579878049E+02  0.88479445207E+03 -0.11705420839E+04  0.14697638716E+04  0.46999998093E+01 0. -1.
</event>
<event>
 5   0  0.1042395E-04  0.2097510E+04  0.7818609E-02  0.8562341E-01
       -1   -1    0    0    0  501  0.00000000000E+00  0.00000000000E+00  0.67670312198E+03  0.67670312200E+03  0.50400001928E-02 0. -1.
        1   -1    0    0  501    0  0.00000000000E+00  0.00000000000E+00 -0.16253605583E+04  0.16253605583E+04  0.50400001928E-02 0.  1.
    10030    2    1    2    0    0  0.00000000000E+00  0.00000000000E+00 -0.94865743630E+03  0.23020636803E+04  0.20975095367E+04 0.  0.
        3    1    3    3  502    0 -0.16740537490E+02  0.88174969401E+03  0.14858054034E+03  0.89433715994E+03  0.10100000352E+00 0. -1.
       -3    1    3    3    0  502  0.16740537490E+02 -0.88174969401E+03 -0.10972379766E+04  0.14077265203E+04  0.10100000352E+00 0.  1.
</event>
<event>
 5   0  0.1130848E-04  0.2157399E+04  0.7818609E-02  0.8536372E-01
       -1   -1    0    0    0  501  0.00000000000E+00  0.00000000000E+00  0.19457709750E+04  0.19457709750E+04  0.50400001928E-02 0. -1.
        1   -1    0    0  501    0  0.00000000000E+00  0.00000000000E+00 -0.59801094396E+03  0.59801094398E+03  0.50400001928E-02 0.  1.
    10030    2    1    2    0    0  0.00000000000E+00  0.00000000000E+00  0.13477600310E+04  0.25437819190E+04  0.21573987462E+04 0.  0.
        5    1    3    3  502    0 -0.62335201937E+03  0.66194751732E+03 -0.10431017414E+02  0.90932565776E+03  0.46999998093E+01 0.  1.
       -5    1    3    3    0  502  0.62335201937E+03 -0.66194751732E+03  0.13581910485E+04  0.16344562612E+04  0.46999998093E+01 0. -1.
</event>
<event>
 5   0  0.2448804E-04  0.2103668E+04  0.7818609E-02  0.8559629E-01
       -2   -1    0    0    0  501  0.00000000000E+00  0.00000000000E+00  0.49186355021E+03  0.49186355021E+03  0.25500000920E-02 0. -1.
        2   -1    0    0  501    0  0.00000000000E+00  0.00000000000E+00 -0.22493120395E+04  0.22493120395E+04  0.25500000920E-02 0.  1.
    10030    2    1    2    0    0  0.00000000000E+00  0.00000000000E+00 -0.17574484893E+04  0.27411755897E+04  0.21036678495E+04 0.  0.
        2    1    3    3  502    0 -0.10289719290E+03 -0.92429263233E+03 -0.23843942770E+03  0.96008232104E+03  0.25500000920E-02 0. -1.
       -2    1    3    3    0  502  0.10289719290E+03  0.92429263233E+03 -0.15190090616E+04  0.17810932686E+04  0.25500000920E-02 0.  1.
</event>
<event>
 5   0  0.1042395E-04  0.2125776E+04  0.7818609E-02  0.8549973E-01
       -1   -1    0    0    0  501  0.00000000000E+00  0.00000000000E+00  0.14821003846E+04  0.14821003846E+04  0.50400001928E-02 0. -1.
        1   -1    0    0  501    0  0.00000000000E+00  0.00000000000E+00 -0.76224986354E+03  0.76224986355E+03  0.50400001928E-02 0.  1.
    10030    2    1    2    0    0  0.00000000000E+00  0.00000000000E+00  0.71985052102E+03  0.22443502481E+04  0.21257759204E+04 0.  0.
        3    1    3    3  502    0 -0.68119794040E+03 -0.81414880768E+03  0.30344461293E+03  0.11040595810E+04  0.10100000352E+00 0.  1.
       -3    1    3    3    0  502  0.68119794040E+03  0.81414880768E+03  0.41640590809E+03  0.11402906671E+04  0.10100000352E+00 0. -1.
</event>
<event>
 5   0  0.2430898E-04  0.2109123E+04  0.7818609E-02  0.8557235E-01
       -2   -1    0    0    0  501  0.00000000000E+00  0.00000000000E+00  0.26303365133E+04  0.26303365133E+04  0.25500000920E-02 0. -1.
        2   -1    0    0  501    0  0.00000000000E+00  0.00000000000E+00 -0.42279756942E+03  0.42279756943E+03  0.25500000920E-02 0.  1.
    10030    2    1    2    0    0  0.00000000000E+00  0.00000000000E+00  0.22075389438E+04  0.30531340827E+04  0.21091229311E+04 0.  0.
        1    1    3    3  502    0 -0.83457464978E+03  0.62164459370E+03  0.85664748207E+03  0.13478878868E+04  0.50400001928E-02 0.  1.
       -1    1    3    3    0  502  0.83457464978E+03 -0.62164459370E+03  0.13508914618E+04  0.17052461958E+04  0.50400001928E-02 0. -1.
</event>
<event>
 5   0  0.2467483E-04  0.2068716E+04  0.7818609E-02  0.8575151E-01
        2   -1    0    0  501    0  0.00000000000E+00  0.00000000000E+00  0.17350603019E+04  0.17350603019E+04  0.25500000920E-02 0.  1.
       -2   -1    0    0    0  501  0.00000000000E+00  0.00000000000E+00 -0.61663334205E+03  0.61663334205E+03  0.25500000920E-02 0. -1.
    10030    2    1    2    0    0  0.00000000000E+00  0.00000000000E+00  0.11184269599E+04  0.23516936440E+04  0.20687155751E+04 0.  0.
        4    1    3    3  502    0 -0.96780188652E+03  0.27520709337E+03  0.28658547676E+03  0.10461894112E+04  0.12699999809E+01 0. -1.
       -4    1    3    3    0  502  0.96780188652E+03 -0.27520709337E+03  0.83184148311E+03  0.13055042327E+04  0.12699999809E+01 0.  1.
</event>
<event>
 5   0  0.1042395E-04  0.1880015E+04  0.7818609E-02  0.8664869E-01
        1   -1    0    0  501    0  0.00000000000E+00  0.00000000000E+00  0.21645793295E+04  0.21645793295E+04  0.50400001928E-02 0.  1.
       -1   -1    0    0    0  501  0.00000000000E+00  0.00000000000E+00 -0.40821505395E+03  0.40821505398E+03  0.50400001928E-02 0. -1.
    10030    2    1    2    0    0  0.00000000000E+00  0.00000000000E+00  0.17563642755E+04  0.25727943835E+04  0.18800147529E+04 0.  0.
        3    1    3    3  502    0 -0.14515419194E+03 -0.92637134222E+03  0.78761023467E+03  0.12245666560E+04  0.10100000352E+00 0.  1.
       -3    1    3    3    0  502  0.14515419194E+03  0.92637134222E+03  0.96875404088E+03  0.13482277274E+04  0.10100000352E+00 0. -1.
</event>
<event>
 5   0  0.2512839E-04  0.2120541E+04  0.7818609E-02  0.8552249E-01
        2   -1    0    0  501    0  0.00000000000E+00  0.00000000000E+00  0.20589858081E+04  0.20589858081E+04  0.25500000920E-02 0.  1.
       -2   -1    0    0    0  501  0.00000000000E+00  0.00000000000E+00 -0.54598397446E+03  0.54598397446E+03  0.25500000920E-02 0. -1.
    10030    2    1    2    0    0  0.00000000000E+00  0.00000000000E+00  0.15130018336E+04  0.26049697825E+04  0.21205407375E+04 0.  0.
        3    1    3    3  502    0  0.89456128929E+03  0.12216250638E+03  0.14393773145E+04  0.16991087787E+04  0.10100000352E+00 0.  1.
       -3    1    3    3    0  502 -0.89456128929E+03 -0.12216250638E+03  0.73624519147E+02  0.90586100384E+03  0.10100000352E+00 0. -1.
</event>
<event>
 5   0  0.2512839E-04  0.2137488E+04  0.7818609E-02  0.8544907E-01
        2   -1    0    0  501    0  0.00000000000E+00  0.00000000000E+00  0.14547209777E+04  0.14547209777E+04  0.25500000920E-02 0. -1.
       -2   -1    0    0    0  501  0.00000000000E+00  0.00000000000E+00 -0.78517722017E+03  0.78517722017E+03  0.25500000920E-02 0.  1.
    10030    2    1    2    0    0  0.00000000000E+00  0.00000000000E+00  0.66954375757E+03  0.22398981979E+04  0.21374880336E+04 0.  0.
        3    1    3    3  502    0 -0.24078111122E+03  0.78609221509E+03  0.10503482887E+04  0.13338470872E+04  0.10100000352E+00 0. -1.
       -3    1    3    3    0  502  0.24078111122E+03 -0.78609221509E+03 -0.38080453114E+03  0.90605111075E+03  0.10100000352E+00 0.  1.
</event>
<event>
 5   0  0.1156733E-04  0.2137637E+04  0.7818609E-02  0.8544843E-01
        1   -1    0    0  501    0  0.00000000000E+00  0.00000000000E+00  0.15757279927E+04  0.15757279927E+04  0.50400001928E-02 0. -1.
       -1   -1    0    0    0  501  0.00000000000E+00  0.00000000000E+00 -0.72498084069E+03  0.72498084071E+03  0.50400001928E-02 0.  1.
    10030    2    1    2    0    0  0.00000000000E+00  0.00000000000E+00  0.85074715201E+03  0.23007088334E+04  0.21376366435E+04 0.  0.
        2    1    3    3  502    0 -0.49211477979E+02 -0.71761676597E+03  0.12762368847E+04  0.14649833372E+04  0.25500000920E-02 0. -1.
       -2    1    3    3    0  502  0.49211477979E+02  0.71761676597E+03 -0.42548973271E+03  0.83572549621E+03  0.25500000920E-02 0.  1.
</event>
<event>
 5   0  0.1130848E-04  0.2084729E+04  0.7818609E-02  0.8568000E-01
        1   -1    0    0  501    0  0.00000000000E+00  0.00000000000E+00  0.21998876267E+04  0.21998876267E+04  0.50400001928E-02 0.  1.
       -1   -1    0    0    0  501  0.00000000000E+00  0.00000000000E+00 -0.49389961067E+03  0.49389961070E+03  0.50400001928E-02 0. -1.
    10030    2    1    2    0    0  0.00000000000E+00  0.00000000000E+00  0.17059880161E+04  0.26937872374E+04  0.20847288960E+04 0.  0.
        5    1    3    3  502    0 -0.38372877475E+03  0.42038027394E+03  0.19813428038E+04  0.20614821715E+04  0.46999998093E+01 0.  1.
       -5    1    3    3    0  502  0.38372877475E+03 -0.42038027394E+03 -0.27535478773E+03  0.63230506594E+03  0.46999998093E+01 0. -1.
</event>
<event>
 5   0  0.1122711E-04  0.2059832E+04  0.7818609E-02  0.8579147E-01
       -1   -1    0    0    0  501  0.00000000000E+00  0.00000000000E+00  0.70784472856E+03  0.70784472858E+03  0.50400001928E-02 0. -1.
        1   -1    0    0  501    0  0.00000000000E+00  0.00000000000E+00 -0.14985308205E+04  0.14985308205E+04  0.50400001928E-02 0.  1.
    10030    2    1    2    0    0  0.00000000000E+00  0.00000000000E+00 -0.79068609191E+03  0.22063755491E+04  0.20598321698E+04 0.  0.
        1    1    3    3  502    0 -0.19475054501E+03 -0.21861245342E+03 -0.14530166858E+04  0.14822201823E+04  0.50400001928E-02 0.  1.
       -1    1    3    3    0  502  0.19475054501E+03  0.21861245342E+03  0.66233059389E+03  0.72415536676E+03  0.50400001928E-02 0. -1.
</event>
<event>
 5   0  0.2579241E-04  0.2129967E+04  0.7818609E-02  0.8548156E-01
       -2   -1    0    0    0  501  0.00000000000E+00  0.00000000000E+00  0.41994556722E+03  0.41994556722E+03  0.25500000920E-02 0. -1.
        2   -1    0    0  501    0  0.00000000000E+00  0.00000000000E+00 -0.27008022633E+04  0.27008022633E+04  0.25500000920E-02 0.  1.
    10030    2    1    2    0    0  0.00000000000E+00  0.00000000000E+00 -0.22808566961E+04  0.31207478306E+04  0.21299670781E+04 0.  0.
        5    1    3    3  502    0 -0.46486005452E+03  0.88137620512E+03 -0.16910818694E+04  0.19628293008E+04  0.46999998093E+01 0.  1.
       -5    1    3    3    0  502  0.46486005452E+03 -0.88137620512E+03 -0.58977482672E+03  0.11579185297E+04  0.46999998093E+01 0. -1.
</event>
<event>
 5   0  0.2512839E-04  0.1871518E+04  0.7818609E-02  0.8669165E-01
       -2   -1    0    0    0  501  0.00000000000E+00  0.00000000000E+00  0.17373541246E+04  0.17373541246E+04  0.25500000920E-02 0.  1.
        2   -1    0    0  501    0  0.00000000000E+00  0.00000000000E+00 -0.50401057241E+03  0.50401057242E+03  0.25500000920E-02 0. -1.
    10030    2    1    2    0    0  0.00000000000E+00  0.00000000000E+00  0.12333435522E+04  0.22413646971E+04  0.18715179367E+04 0.  0.
        3    1    3    3  502    0 -0.41379349025E+03 -0.50215368918E+03  0.14220749227E+04  0.15638671542E+04  0.10100000352E+00 0.  1.
       -3    1    3    3    0  502  0.41379349025E+03  0.50215368918E+03 -0.18873137046E+03  0.67749754282E+03  0.10100000352E+00 0. -1.
</event>
<event>
 5   0  0.2467483E-04  0.2099559E+04  0.7818609E-02  0.8561437E-01
        2   -1    0    0  501    0  0.00000000000E+00  0.00000000000E+00  0.96280853385E+03  0.96280853386E+03  0.25500000920E-02 0.  1.
       -2   -1    0    0    0  501  0.00000000000E+00  0.00000000000E+00 -0.11446071267E+04  0.11446071267E+04  0.25500000920E-02 0. -1.
    10030    2    1    2    0    0  0.00000000000E+00  0.00000000000E+00 -0.18179859280E+03  0.21074156605E+04  0.20995594866E+04 0.  0.
        4    1    3    3  502    0 -0.46044934456E+03 -0.12056020480E+03 -0.10300753322E+04  0.11347269120E+04  0.12699999809E+01 0. -1.
       -4    1    3    3    0  502  0.46044934456E+03  0.12056020480E+03  0.84827673943E+03  0.97268874849E+03  0.12699999809E+01 0.  1.
</event>
<event>
 5   0  0.2512839E-04  0.2125311E+04  0.7818609E-02  0.8550175E-01
        2   -1    0    0  501    0  0.00000000000E+00  0.00000000000E+00  0.12967734496E+04  0.12967734497E+04  0.25500000920E-02 0.  1.
       -2   -1    0    0    0  501  0.00000000000E+00  0.00000000000E+00 -0.87080494172E+03  0.87080494172E+03  0.25500000920E-02 0. -1.
    10030    2    1    2    0    0  0.00000000000E+00  0.00000000000E+00  0.42596850793E+03  0.21675783914E+04  0.21253110156E+04 0.  0.
        3    1    3    3  502    0 -0.60997243952E+02 -0.10513396407E+04  0.68027349614E+02  0.10553025322E+04  0.10100000352E+00 0.  1.
       -3    1    3    3    0  502  0.60997243952E+02  0.10513396407E+04  0.35794115831E+03  0.11122758592E+04  0.10100000352E+00 0. -1.
</event>
<event>
 5   0  0.1130848E-04  0.2172475E+04  0.7818609E-02  0.8529973E-01
       -1   -1    0    0    0  501  0.00000000000E+00  0.00000000000E+00  0.67624551503E+03  0.67624551505E+03  0.50400001928E-02 0. -1.
        1   -1    0    0  501    0  0.00000000000E+00  0.00000000000E+00 -0.17447985519E+04  0.17447985519E+04  0.50400001928E-02 0.  1.
    10030    2    1    2    0    0  0.00000000000E+00  0.00000000000E+00 -0.10685530368E+04  0.24210440669E+04  0.21724752660E+04 0.  0.
        5    1    3    3  502    0 -0.86305614503E+03 -0.58116800193E+03 -0.18671416128E+03  0.10571217640E+04  0.46999998093E+01 0.  1.
       -5    1    3    3    0  502  0.86305614503E+03  0.58116800193E+03 -0.88183887554E+03  0.13639223029E+04  0.46999998093E+01 0. -1.
</event>
<event>
 5   0  0.1186038E-04  0.2355831E+04  0.7818609E-02  0.8456227E-01
       -1   -1    0    0    0  501  0.00000000000E+00  0.00000000000E+00  0.64438941972E+03  0.64438941974E+03  0.50400001928E-02 0.  1.
        1   -1    0    0  501    0  0.00000000000E+00  0.00000000000E+00 -0.21531786041E+04  0.21531786041E+04  0.50400001928E-02 0. -1.
    10030    2    1    2    0    0  0.00000000000E+00  0.00000000000E+00 -0.15087891844E+04  0.27975680239E+04  0.23558314976E+04 0.  0.
        4    1    3    3  502    0 -0.10968514449E+04 -0.14209115583E+03 -0.27318149982E+03  0.11392553417E+04  0.12699999809E+01 0.  1.
       -4    1    3    3    0  502  0.10968514449E+04  0.14209115583E+03 -0.12356076846E+04  0.16583126822E+04  0.12699999809E+01 0. -1.
</event>
<event>
 5   0  0.1130848E-04  0.2089743E+04  0.7818609E-02  0.8565775E-01
       -1   -1    0    0    0  501  0.00000000000E+00  0.00000000000E+00  0.72006121751E+03  0.72006121753E+03  0.50400001928E-02 0. -1.
        1   -1    0    0  501    0  0.00000000000E+00  0.00000000000E+00 -0.15161991981E+04  0.15161991981E+04  0.50400001928E-02 0.  1.
    10030    2    1    2    0    0  0.00000000000E+00  0.00000000000E+00 -0.79613798057E+03  0.22362604156E+04  0.20897427981E+04 0.  0.
        5    1    3    3  502    0 -0.49232386235E+03  0.62861161741E+03  0.32312571591E+03  0.86137545198E+03  0.46999998093E+01 0.  1.
       -5    1    3    3    0  502  0.49232386235E+03 -0.62861161741E+03 -0.11192636965E+04  0.13748849636E+04  0.46999998093E+01 0. -1.
</event>
<event>
 5   0  0.1186038E-04  0.2058050E+04  0.7818609E-02  0.8579951E-01
       -1   -1    0    0    0  501  0.00000000000E+00  0.00000000000E+00  0.51953811331E+03  0.51953811333E+03  0.50400001928E-02 0.  1.
        1   -1    0    0  501    0  0.00000000000E+00  0.00000000000E+00 -0.20381419173E+04  0.20381419173E+04  0.50400001928E-02 0. -1.
    10030    2    1    2    0    0  0.00000000000E+00  0.00000000000E+00 -0.15186038039E+04  0.25576800306E+04  0.20580499570E+04 0.  0.
        4    1    3    3  502    0 -0.76824768253E+03 -0.55975357662E+03 -0.26945201007E+03  0.98799522615E+03  0.12699999809E+01 0.  1.
       -4    1    3    3    0  502  0.76824768253E+03  0.55975357662E+03 -0.12491517939E+04  0.15696848044E+04  0.12699999809E+01 0. -1.
</event>
<event>
 5   0  0.2512839E-04  0.2010035E+04  0.7818609E-02  0.8601943E-01
       -2   -1    0    0    0  501  0.00000000000E+00  0.00000000000E+00  0.12958398948E+04  0.12958398948E+04  0.25500000920E-02 0. -1.
        2   -1    0    0  501    0  0.00000000000E+00  0.00000000000E+00 -0.77946378811E+03  0.77946378812E+03  0.25500000920E-02 0.  1.
    10030    2    1    2    0    0  0.00000000000E+00  0.00000000000E+00  0.51637610669E+03  0.20753036829E+04  0.20100350974E+04 0.  0.
        3    1    3    3  502    0 -0.20473717322E+03  0.69505463862E+03  0.97725229132E+03  0.12165690740E+04  0.10100000352E+00 0. -1.
       -3    1    3    3    0  502  0.20473717322E+03 -0.69505463862E+03 -0.46087618464E+03  0.85873460890E+03  0.10100000352E+00 0.  1.
</event>
<event>
 5   0  0.1042395E-04  0.2089603E+04  0.7818609E-02  0.8565837E-01
        1   -1    0    0  501    0  0.00000000000E+00  0.00000000000E+00  0.14460159014E+04  0.14460159014E+04  0.50400001928E-02 0.  1.
       -1   -1    0    0    0  501  0.00000000000E+00  0.00000000000E+00 -0.75490859871E+03  0.75490859873E+03  0.50400001928E-02 0. -1.
    10030    2    1    2    0    0  0.00000000000E+00  0.00000000000E+00  0.69110730273E+03  0.22009245002E+04  0.20896026779E+04 0.  0.
        3    1    3    3  502    0  0.16041246046E+03 -0.99615948254E+03  0.63119095259E+03  0.11901545702E+04  0.10100000352E+00 0.  1.
       -3    1    3    3    0  502 -0.16041246046E+03  0.99615948254E+03  0.59916350140E+02  0.10107699300E+04  0.10100000352E+00 0. -1.
</event>
<event>
 5   0  0.8698750E-05  0.2109529E+04  0.7818609E-02  0.8557057E-01
       -4   -1    0    0    0  501  0.00000000000E+00  0.00000000000E+00  0.10556100874E+04  0.10556108514E+04  0.12699999809E+01 0. -1.
        4   -1    0    0  501    0  0.00000000000E+00  0.00000000000E+00 -0.10539177745E+04  0.10539185397E+04  0.12699999809E+01 0.  1.
    10030    2    1    2    0    0  0.00000000000E+00  0.00000000000E+00  0.16923128739E+01  0.21095293911E+04  0.21095287123E+04 0.  0.
        3    1    3    3  502    0 -0.16874807882E+03 -0.54134517770E+03 -0.88853443157E+03  0.10540512140E+04  0.10100000352E+00 0.  1.
       -3    1    3    3    0  502  0.16874807882E+03  0.54134517770E+03  0.89022674444E+03  0.10554781771E+04  0.10100000352E+00 0. -1.
</event>
<event>
 5   0  0.2512839E-04  0.2093367E+04  0.7818609E-02  0.8564171E-01
       -2   -1    0    0    0  501  0.00000000000E+00  0.00000000000E+00  0.24090215085E+04  0.24090215085E+04  0.25500000920E-02 0. -1.
        2   -1    0    0  501    0  0.00000000000E+00  0.00000000000E+00 -0.45476838193E+03  0.45476838194E+03  0.25500000920E-02 0.  1.
    10030    2    1    2    0    0  0.00000000000E+00  0.00000000000E+00  0.19542531266E+04  0.28637898905E+04  0.20933674436E+04 0.  0.
        3    1    3    3  502    0  0.80125102913E+03 -0.67272411937E+03  0.93417279324E+03  0.14025832490E+04  0.10100000352E+00 0.  1.
       -3    1    3    3    0  502 -0.80125102913E+03  0.67272411937E+03  0.10200803334E+04  0.14612066415E+04  0.10100000352E+00 0. -1.
</event>
<event>
 5   0  0.1042395E-04  0.1842537E+04  0.7818609E-02  0.8684000E-01
        1   -1    0    0  501    0  0.00000000000E+00  0.00000000000E+00  0.12789987047E+04  0.12789987047E+04  0.50400001928E-02 0.  1.
       -1   -1    0    0    0  501  0.00000000000E+00  0.00000000000E+00 -0.66359401552E+03  0.66359401554E+03  0.50400001928E-02 0. -1.
    10030    2    1    2    0    0  0.00000000000E+00  0.00000000000E+00  0.61540468914E+03  0.19425927202E+04  0.18425372575E+04 0.  0.
        3    1    3    3  502    0 -0.32465581969E+03  0.83124113774E+03  0.66424338232E+02  0.89486056637E+03  0.10100000352E+00 0. -1.
       -3    1    3    3    0  502  0.32465581969E+03 -0.83124113774E+03  0.54898035091E+03  0.10477321539E+04  0.10100000352E+00 0.  1.
</event>
<event>
 5   0  0.2467483E-04  0.1212701E+04  0.7818609E-02  0.9101811E-01
        2   -1    0    0  501    0  0.00000000000E+00  0.00000000000E+00  0.13913504447E+04  0.13913504447E+04  0.25500000920E-02 0.  1.
       -2   -1    0    0    0  501  0.00000000000E+00  0.00000000000E+00 -0.26424762485E+03  0.26424762487E+03  0.25500000920E-02 0. -1.
    10030    2    1    2    0    0  0.00000000000E+00  0.00000000000E+00  0.11271028198E+04  0.16555980696E+04  0.12127012004E+04 0.  0.
        4    1    3    3  502    0 -0.11700091587E+03  0.14061581135E+03  0.13527797071E+04  0.13650921469E+04  0.12699999809E+01 0.  1.
       -4    1    3    3    0  502  0.11700091587E+03 -0.14061581135E+03 -0.22567688730E+03  0.29050592262E+03  0.12699999809E+01 0. -1.
</event>
<event>
 5   0  0.8698750E-05  0.2153856E+04  0.7818609E-02  0.8537884E-01
       -4   -1    0    0    0  501  0.00000000000E+00  0.00000000000E+00  0.10944436833E+04  0.10944444201E+04  0.12699999809E+01 0.  1.
        4   -1    0    0  501    0  0.00000000000E+00  0.00000000000E+00 -0.10596911489E+04  0.10596919099E+04  0.12699999809E+01 0. -1.
    10030    2    1    2    0    0  0.00000000000E+00  0.00000000000E+00  0.34752534372E+02  0.21541363301E+04  0.21538559817E+04 0.  0.
        5    1    3    3  502    0  0.32796900948E+03  0.31647533869E+03  0.99322428172E+03  0.10928114545E+04  0.46999998093E+01 0.  1.
       -5    1    3    3    0  502 -0.32796900948E+03 -0.31647533869E+03 -0.95847174735E+03  0.10613248756E+04  0.46999998093E+01 0. -1.
</event>
<event>
 5   0  0.1156733E-04  0.2044931E+04  0.7818609E-02  0.8585898E-01
       -1   -1    0    0    0  501  0.00000000000E+00  0.00000000000E+00  0.11045574823E+04  0.11045574823E+04  0.50400001928E-02 0. -1.
        1   -1    0    0  501    0  0.00000000000E+00  0.00000000000E+00 -0.94647426140E+03  0.94647426141E+03  0.50400001928E-02 0.  1.
    10030    2    1    2    0    0  0.00000000000E+00  0.00000000000E+00  0.15808322092E+03  0.20510317437E+04  0.20449305389E+04 0.  0.
        2    1    3    3  502    0  0.76694407547E+02  0.89397230902E+03 -0.41269322659E+03  0.98761542147E+03  0.25500000920E-02 0.  1.
       -2    1    3    3    0  502 -0.76694407547E+02 -0.89397230902E+03  0.57077644752E+03  0.10634163223E+04  0.25500000920E-02 0. -1.
</event>
<event>
 5   0  0.1186038E-04  0.2061158E+04  0.7818609E-02  0.8578549E-01
        1   -1    0    0  501    0  0.00000000000E+00  0.00000000000E+00  0.11138179391E+04  0.11138179391E+04  0.50400001928E-02 0. -1.
       -1   -1    0    0    0  501  0.00000000000E+00  0.00000000000E+00 -0.95356107331E+03  0.95356107333E+03  0.50400001928E-02 0.  1.
    10030    2    1    2    0    0  0.00000000000E+00  0.00000000000E+00  0.16025686575E+03  0.20673790124E+04  0.20611583437E+04 0.  0.
        4    1    3    3  502    0  0.58778832422E+03 -0.67085238797E+03  0.59797507674E+03  0.10738313861E+04  0.12699999809E+01 0. -1.
       -4    1    3    3    0  502 -0.58778832422E+03  0.67085238797E+03 -0.43771821099E+03  0.99354762627E+03  0.12699999809E+01 0.  1.
</event>
<event>
 5   0  0.1042395E-04  0.2063610E+04  0.7818609E-02  0.8577445E-01
       -1   -1    0    0    0  501  0.00000000000E+00  0.00000000000E+00  0.12852417790E+04  0.12852417790E+04  0.50400001928E-02 0.  1.
        1   -1    0    0  501    0  0.00000000000E+00  0.00000000000E+00 -0.82834337933E+03  0.82834337934E+03  0.50400001928E-02 0. -1.
    10030    2    1    2    0    0  0.00000000000E+00  0.00000000000E+00  0.45689839967E+03  0.21135851584E+04  0.20636099617E+04 0.  0.
        3    1    3    3  502    0 -0.56673170113E+03 -0.77645073984E+03 -0.15554481474E+03  0.97378373988E+03  0.10100000352E+00 0. -1.
       -3    1    3    3    0  502  0.56673170113E+03  0.77645073984E+03  0.61244321441E+03  0.11398014185E+04  0.10100000352E+00 0.  1.
</event>
<event>
 5   0  0.1130848E-04  0.1983980E+04  0.7818609E-02  0.8614147E-01
        1   -1    0    0  501    0  0.00000000000E+00  0.00000000000E+00  0.12630194340E+04  0.12630194340E+04  0.50400001928E-02 0. -1.
       -1   -1    0    0    0  501  0.00000000000E+00  0.00000000000E+00 -0.77912047849E+03  0.77912047851E+03  0.50400001928E-02 0.  1.
    10030    2    1    2    0    0  0.00000000000E+00  0.00000000000E+00  0.48389895553E+03  0.20421399125E+04  0.19839801469E+04 0.  0.
        5    1    3    3  502    0 -0.23476325265E+03 -0.63555660981E+03 -0.50384298516E+03  0.84434935469E+03  0.46999998093E+01 0.  1.
       -5    1    3    3    0  502  0.23476325265E+03  0.63555660981E+03  0.98774194069E+03  0.11977905578E+04  0.46999998093E+01 0. -1.
</event>
<event>
 5   0  0.2512839E-04  0.2108922E+04  0.7818609E-02  0.8557323E-01
        2   -1    0    0  501    0  0.00000000000E+00  0.00000000000E+00  0.96375058827E+03  0.96375058827E+03  0.25500000920E-02 0.  1.
       -2   -1    0    0    0  501  0.00000000000E+00  0.00000000000E+00 -0.11537092283E+04  0.11537092283E+04  0.25500000920E-02 0. -1.
    10030    2    1    2    0    0  0.00000000000E+00  0.00000000000E+00 -0.18995864002E+03  0.21174598166E+04  0.21089219497E+04 0.  0.
        3    1    3    3  502    0  0.10079039512E+04 -0.29053140835E+03  0.13202244924E+02  0.10490248727E+04  0.10100000352E+00 0.  1.
       -3    1    3    3    0  502 -0.10079039512E+04  0.29053140835E+03 -0.20316088494E+03  0.10684349439E+04  0.10100000352E+00 0. -1.
</event>
<event>
 5   0  0.1122711E-04  0.2113518E+04  0.7818609E-02  0.8555312E-01
        1   -1    0    0  501    0  0.00000000000E+00  0.00000000000E+00  0.11308587546E+04  0.11308587546E+04  0.50400001928E-02 0. -1.
       -1   -1    0    0    0  501  0.00000000000E+00  0.00000000000E+00 -0.98751468736E+03  0.98751468737E+03  0.50400001928E-02 0.  1.
    10030    2    1    2    0    0  0.00000000000E+00  0.00000000000E+00  0.14334406723E+03  0.21183734420E+04  0.21135180430E+04 0.  0.
        1    1    3    3  502    0  0.60630214846E+03 -0.83487911624E+03 -0.15713774575E+03  0.10437038398E+04  0.50400001928E-02 0. -1.
       -1    1    3    3    0  502 -0.60630214846E+03  0.83487911624E+03  0.30048181298E+03  0.10746696022E+04  0.50400001928E-02 0.  1.
</event>
<event>
 5   0  0.2430898E-04  0.2080612E+04  0.7818609E-02  0.8569832E-01
        2   -1    0    0  501    0  0.00000000000E+00  0.00000000000E+00  0.20032515115E+04  0.20032515115E+04  0.25500000920E-02 0. -1.
       -2   -1    0    0    0  501  0.00000000000E+00  0.00000000000E+00 -0.54023999613E+03  0.54023999613E+03  0.25500000920E-02 0.  1.
    10030    2    1    2    0    0  0.00000000000E+00  0.00000000000E+00  0.14630115154E+04  0.25434915076E+04  0.20806120146E+04 0.  0.
        1    1    3    3  502    0  0.10110655674E+04  0.18655122989E+03  0.53751490764E+03  0.11601625829E+04  0.50400001928E-02 0.  1.
       -1    1    3    3    0  502 -0.10110655674E+04 -0.18655122989E+03  0.92549660774E+03  0.13833289247E+04  0.50400001928E-02 0. -1.
</event>
<event>
 5   0  0.1042395E-04  0.2092770E+04  0.7818609E-02  0.8564435E-01
        1   -1    0    0  501    0  0.00000000000E+00  0.00000000000E+00  0.15156306350E+04  0.15156306351E+04  0.50400001928E-02 0.  1.
       -1   -1    0    0    0  501  0.00000000000E+00  0.00000000000E+00 -0.72241948667E+03  0.72241948669E+03  0.50400001928E-02 0. -1.
    10030    2    1    2    0    0  0.00000000000E+00  0.00000000000E+00  0.79321114838E+03  0.22380501217E+04  0.20927695577E+04 0.  0.
        3    1    3    3  502    0 -0.47634822824E+03  0.72392318895E+03  0.10237899357E+04  0.13413121414E+04  0.10100000352E+00 0.  1.
       -3    1    3    3    0  502  0.47634822824E+03 -0.72392318895E+03 -0.23057878730E+03  0.89673798035E+03  0.10100000352E+00 0. -1.
</event>
<event>
 5   0  0.1156733E-04  0.2125998E+04  0.7818609E-02  0.8549877E-01
       -1   -1    0    0    0  501  0.00000000000E+00  0.00000000000E+00  0.10692740442E+04  0.10692740442E+04  0.50400001928E-02 0. -1.
        1   -1    0    0  501    0  0.00000000000E+00  0.00000000000E+00 -0.10567608480E+04  0.10567608480E+04  0.50400001928E-02 0.  1.
    10030    2    1    2    0    0  0.00000000000E+00  0.00000000000E+00  0.12513196185E+02  0.21260348922E+04  0.21259980674E+04 0.  0.
        2    1    3    3  502    0 -0.39697552297E+03  0.26919663977E+03  0.95490918163E+03  0.10686009273E+04  0.25500000920E-02 0. -1.
       -2    1    3    3    0  502  0.39697552297E+03 -0.26919663977E+03 -0.94239598545E+03  0.10574339649E+04  0.25500000920E-02 0.  1.
</event>
<event>
 5   0  0.1130848E-04  0.2103593E+04  0.7818609E-02  0.8559662E-01
       -1   -1    0    0    0  501  0.00000000000E+00  0.00000000000E+00  0.11161632868E+04  0.11161632868E+04  0.50400001928E-02 0.  1.
        1   -1    0    0  501    0  0.00000000000E+00  0.00000000000E+00 -0.99114174493E+03  0.99114174494E+03  0.50400001928E-02 0. -1.
    10030    2    1    2    0    0  0.00000000000E+00  0.00000000000E+00  0.12502154184E+03  0.21073050317E+04  0.21035931429E+04 0.  0.
        5    1    3    3  502    0  0.41070679960E+03  0.21811797206E+03 -0.88255116979E+03  0.99758417303E+03  0.46999998093E+01 0. -1.
       -5    1    3    3    0  502 -0.41070679960E+03 -0.21811797206E+03  0.10075727116E+04  0.11097208587E+04  0.46999998093E+01 0.  1.
</event>
<event>
 5   0  0.2579241E-04  0.1805341E+04  0.7818609E-02  0.8703464E-01
       -2   -1    0    0    0  501  0.00000000000E+00  0.00000000000E+00  0.10715886721E+04  0.10715886721E+04  0.25500000920E-02 0.  1.
        2   -1    0    0  501    0  0.00000000000E+00  0.00000000000E+00 -0.76037973327E+03  0.76037973328E+03  0.25500000920E-02 0. -1.
    10030    2    1    2    0    0  0.00000000000E+00  0.00000000000E+00  0.31120893887E+03  0.18319684054E+04  0.18053413070E+04 0.  0.
        5    1    3    3  502    0  0.24693716106E+03  0.54125463024E+02 -0.72371215791E+03  0.76660870381E+03  0.46999998093E+01 0. -1.
       -5    1    3    3    0  502 -0.24693716106E+03 -0.54125463024E+02  0.10349210968E+04  0.10653597016E+04  0.46999998093E+01 0.  1.
</event>
<event>
 5   0  0.2579241E-04  0.2219562E+04  0.7818609E-02  0.8510330E-01
       -2   -1    0    0    0  501  0.00000000000E+00  0.00000000000E+00  0.71973316803E+03  0.71973316803E+03  0.25500000920E-02 0.  1.
        2   -1    0    0  501    0  0.00000000000E+00  0.00000000000E+00 -0.17112090764E+04  0.17112090764E+04  0.25500000920E-02 0. -1.
    10030    2    1    2    0    0  0.00000000000E+00  0.00000000000E+00 -0.99147590835E+03  0.24309422444E+04  0.22195620556E+04 0.  0.
        5    1    3    3  502    0  0.10933067904E+04  0.18049554334E+03 -0.56229960422E+03  0.12426187324E+04  0.46999998093E+01 0. -1.
       -5    1    3    3    0  502 -0.10933067904E+04 -0.18049554334E+03 -0.42917630413E+03  0.11883235120E+04  0.46999998093E+01 0.  1.
</event>
<event>
 5   0  0.2579241E-04  0.2121220E+04  0.7818609E-02  0.8551953E-01
        2   -1    0    0  501    0  0.00000000000E+00  0.00000000000E+00  0.64164502898E+03  0.64164502899E+03  0.25500000920E-02 0. -1.
       -2   -1    0    0    0  501  0.00000000000E+00  0.00000000000E+00 -0.17531405599E+04  0.17531405599E+04  0.25500000920E-02 0.  1.
    10030    2    1    2    0    0  0.00000000000E+00  0.00000000000E+00 -0.11114955309E+04  0.23947855889E+04  0.21212203331E+04 0.  0.
        5    1    3    3  502    0 -0.30400539087E+03 -0.89311934319E+03 -0.87053271446E+01  0.94349314337E+03  0.46999998093E+01 0. -1.
       -5    1    3    3    0  502  0.30400539087E+03  0.89311934319E+03 -0.11027902037E+04  0.14512924455E+04  0.46999998093E+01 0.  1.
</event>
<event>
 5   0  0.1186038E-04  0.2126668E+04  0.7818609E-02  0.8549586E-01
       -1   -1    0    0    0  501  0.00000000000E+00  0.00000000000E+00  0.43148194319E+03  0.43148194322E+03  0.50400001928E-02 0.  1.
        1   -1    0    0  501    0  0.00000000000E+00  0.00000000000E+00 -0.26204565608E+04  0.26204565608E+04  0.50400001928E-02 0. -1.
    10030    2    1    2    0    0  0.00000000000E+00  0.00000000000E+00 -0.21889746176E+04  0.30519385040E+04  0.21266684640E+04 0.  0.
        4    1    3    3  502    0 -0.24937761747E+03  0.43889116185E+03 -0.24375435015E+04  0.24892638636E+04  0.12699999809E+01 0. -1.
       -4    1    3    3    0  502  0.24937761747E+03 -0.43889116185E+03  0.24856888388E+03  0.56267464043E+03  0.12699999809E+01 0.  1.
</event>
<event>
 5   0  0.2448804E-04  0.2091996E+04  0.7818609E-02  0.8564778E-01
       -2   -1    0    0    0  501  0.00000000000E+00  0.00000000000E+00  0.93067723660E+03  0.93067723660E+03  0.25500000920E-02 0.  1.
        2   -1    0    0  501    0  0.00000000000E+00  0.00000000000E+00 -0.11756076976E+04  0.11756076977E+04  0.25500000920E-02 0. -1.
    10030    2    1    2    0    0  0.00000000000E+00  0.00000000000E+00 -0.24493046105E+03  0.21062849343E+04  0.20919955290E+04 0.  0.
        2    1    3    3  502    0 -0.10079231455E+04 -0.23059286175E+03 -0.28175201761E+03  0.10716652157E+04  0.25500000920E-02 0.  1.
       -2    1    3    3    0  502  0.10079231455E+04  0.23059286175E+03  0.36821556559E+02  0.10346197186E+04  0.25500000920E-02 0. -1.
</event>
<event>
 5   0  0.2512839E-04  0.2107563E+04  0.7818609E-02  0.8557919E-01
        2   -1    0    0  501    0  0.00000000000E+00  0.00000000000E+00  0.78534141777E+03  0.78534141777E+03  0.25500000920E-02 0.  1.
       -2   -1    0    0    0  501  0.00000000000E+00  0.00000000000E+00 -0.14139780043E+04  0.14139780043E+04  0.25500000920E-02 0. -1.
    10030    2    1    2    0    0  0.00000000000E+00  0.00000000000E+00 -0.62863658651E+03  0.21993194221E+04  0.21075630388E+04 0.  0.
        3    1    3    3  502    0 -0.28056445135E+03  0.52797763494E+03  0.59120385552E+03  0.84083220880E+03  0.10100000352E+00 0.  1.
       -3    1    3    3    0  502  0.28056445135E+03 -0.52797763494E+03 -0.12198404420E+04  0.13584872133E+04  0.10100000352E+00 0. -1.
</event>
<event>
 5   0  0.1042395E-04  0.1293186E+04  0.7818609E-02  0.9034986E-01
       -1   -1    0    0    0  501  0.00000000000E+00  0.00000000000E+00  0.14139746953E+04  0.14139746953E+04  0.50400001928E-02 0. -1.
        1   -1    0    0  501    0  0.00000000000E+00  0.00000000000E+00 -0.29567890554E+03  0.29567890558E+03  0.50400001928E-02 0.  1.
    10030    2    1    2    0    0  0.00000000000E+00  0.00000000000E+00  0.11182957898E+04  0.17096536009E+04  0.12931859733E+04 0.  0.
        3    1    3    3  502    0 -0.13028329029E+03 -0.58170075182E+03  0.89027527921E+03  0.10714194246E+04  0.10100000352E+00 0. -1.
       -3    1    3    3    0  502  0.13028329029E+03  0.58170075182E+03  0.22802051057E+03  0.63823417633E+03  0.10100000352E+00 0.  1.
</event>
<event>
 5   0  0.2512839E-04  0.2096329E+04  0.7818609E-02  0.8562862E-01
       -2   -1    0    0    0  501  0.00000000000E+00  0.00000000000E+00  0.10015227071E+04  0.10015227071E+04  0.25500000920E-02 0. -1.
        2   -1    0    0  501    0  0.00000000000E+00  0.00000000000E+00 -0.10969782574E+04  0.10969782574E+04  0.25500000920E-02 0.  1.
    10030    2    1    2    0    0  0.00000000000E+00  0.00000000000E+00 -0.95455550262E+02  0.20985009645E+04  0.20963288234E+04 0.  0.
        3    1    3    3  502    0 -0.15281975996E+03  0.57062099818E+02  0.98873806072E+03  0.10021042487E+04  0.10100000352E+00 0. -1.
       -3    1    3    3    0  502  0.15281975996E+03 -0.57062099818E+02 -0.10841936110E+04  0.10963967159E+04  0.10100000352E+00 0.  1.
</event>
<event>
 5   0  0.1122711E-04  0.2092749E+04  0.7818609E-02  0.8564444E-01
        1   -1    0    0  501    0  0.00000000000E+00  0.00000000000E+00  0.13106226347E+04  0.13106226347E+04  0.50400001928E-02 0.  1.
       -1   -1    0    0    0  501  0.00000000000E+00  0.00000000000E+00 -0.83540430654E+03  0.83540430656E+03  0.50400001928E-02 0. -1.
    10030    2    1    2    0    0  0.00000000000E+00  0.00000000000E+00  0.47521832812E+03  0.21460269412E+04  0.20927491902E+04 0.  0.
        1    1    3    3  502    0  0.57816224083E+03  0.20057592641E+03 -0.63276119017E+03  0.88027779864E+03  0.50400001928E-02 0. -1.
       -1    1    3    3    0  502 -0.57816224083E+03 -0.20057592641E+03  0.11079795183E+04  0.12657491426E+04  0.50400001928E-02 0.  1.
</event>
<event>
 5   0  0.2579241E-04  0.2074229E+04  0.7818609E-02  0.8572681E-01
        2   -1    0    0  501    0  0.00000000000E+00  0.00000000000E+00  0.14876098639E+04  0.14876098639E+04  0.25500000920E-02 0.  1.
       -2   -1    0    0    0  501  0.00000000000E+00  0.00000000000E+00 -0.72304342591E+03  0.72304342591E+03  0.25500000920E-02 0. -1.
    10030    2    1    2    0    0  0.00000000000E+00  0.00000000000E+00  0.76456643803E+03  0.22106532898E+04  0.20742290447E+04 0.  0.
        5    1    3    3  502    0 -0.74081360142E+03  0.35860139676E+02  0.11548707254E+04  0.13725302270E+04  0.46999998093E+01 0.  1.
       -5    1    3    3    0  502  0.74081360142E+03 -0.35860139676E+02 -0.39030428739E+03  0.83812306282E+03  0.46999998093E+01 0. -1.
</event>
<event>
 5   0  0.1042395E-04  0.2065951E+04  0.7818609E-02  0.8576392E-01
        1   -1    0    0  501    0  0.00000000000E+00  0.00000000000E+00  0.93911367485E+03  0.93911367486E+03  0.50400001928E-02 0.  1.
       -1   -1    0    0    0  501  0.00000000000E+00  0.00000000000E+00 -0.11362184038E+04  0.11362184039E+04  0.50400001928E-02 0. -1.
    10030    2    1    2    0    0  0.00000000000E+00  0.00000000000E+00 -0.19710472899E+03  0.20753320787E+04  0.20659508616E+04 0.  0.
        3    1    3    3  502    0 -0.68670066567E+03  0.38312484512E+03 -0.77144163534E+03  0.11015737189E+04  0.10100000352E+00 0. -1.
       -3    1    3    3    0  502  0.68670066567E+03 -0.38312484512E+03  0.57433690634E+03  0.97375835984E+03  0.10100000352E+00 0.  1.
</event>
<event>
 5   0  0.2448804E-04  0.2153230E+04  0.7818609E-02  0.8538151E-01
       -2   -1    0    0    0  501  0.00000000000E+00  0.00000000000E+00  0.61150051107E+03  0.61150051107E+03  0.25500000920E-02 0. -1.
        2   -1    0    0  501    0  0.00000000000E+00  0.00000000000E+00 -0.18955002691E+04  0.18955002691E+04  0.25500000920E-02 0.  1.
    10030    2    1    2    0    0  0.00000000000E+00  0.00000000000E+00 -0.12839997580E+04  0.25070007801E+04  0.21532295588E+04 0.  0.
        2    1    3    3  502    0  0.10347063849E+04  0.25666600158E+03 -0.81705022393E+03  0.13431551689E+04  0.25500000920E-02 0. -1.
       -2    1    3    3    0  502 -0.10347063849E+04 -0.25666600158E+03 -0.46694953407E+03  0.11638456112E+04  0.25500000920E-02 0.  1.
</event>
<event>
 5   0  0.1130848E-04  0.1274392E+04  0.7818609E-02  0.9050123E-01
        1   -1    0    0  501    0  0.00000000000E+00  0.00000000000E+00  0.91849972173E+03  0.91849972174E+03  0.50400001928E-02 0.  1.
       -1   -1    0    0    0  501  0.00000000000E+00  0.00000000000E+00 -0.44204542815E+03  0.44204542818E+03  0.50400001928E-02 0. -1.
    10030    2    1    2    0    0  0.00000000000E+00  0.00000000000E+00  0.47645429358E+03  0.13605451499E+04  0.12743917809E+04 0.  0.
        5    1    3    3  502    0  0.30270554133E+03 -0.33141060652E+03  0.72105416138E+03  0.84935553716E+03  0.46999998093E+01 0. -1.
       -5    1    3    3    0  502 -0.30270554133E+03  0.33141060652E+03 -0.24459986780E+03  0.51118961276E+03  0.46999998093E+01 0.  1.
</event>
<event>
 5   0  0.1156733E-04  0.2074696E+04  0.7818609E-02  0.8572473E-01
        1   -1    0    0  501    0  0.00000000000E+00  0.00000000000E+00  0.20352708153E+04  0.20352708153E+04  0.50400001928E-02 0.  1.
       -1   -1    0    0    0  501  0.00000000000E+00  0.00000000000E+00 -0.52872128050E+03  0.52872128053E+03  0.50400001928E-02 0. -1.
    10030    2    1    2    0    0  0.00000000000E+00  0.00000000000E+00  0.15065495348E+04  0.25639920959E+04  0.20746961143E+04 0.  0.
        2    1    3    3  502    0  0.12434734002E+03 -0.80548880256E+03 -0.39799886674E+02  0.81600153370E+03  0.25500000920E-02 0. -1.
       -2    1    3    3    0  502 -0.12434734002E+03  0.80548880256E+03  0.15463494215E+04  0.17479905622E+04  0.25500000920E-02 0.  1.
</event>
<event>
 5   0  0.1130848E-04  0.2082770E+04  0.7818609E-02  0.8568871E-01
        1   -1    0    0  501    0  0.00000000000E+00  0.00000000000E+00  0.16892438074E+04  0.16892438074E+04  0.50400001928E-02 0.  1.
       -1   -1    0    0    0  501  0.00000000000E+00  0.00000000000E+00 -0.64199304888E+03  0.64199304890E+03  0.50400001928E-02 0. -1.
    10030    2    1    2    0    0  0.00000000000E+00  0.00000000000E+00  0.10472507586E+04  0.23312368563E+04  0.20827700615E+04 0.  0.
        5    1    3    3  502    0 -0.42106246625E+03 -0.35819605284E+03 -0.46418940417E+03  0.72186695845E+03  0.46999998093E+01 0. -1.
       -5    1    3    3    0  502  0.42106246625E+03  0.35819605284E+03  0.15114401627E+04  0.16093698979E+04  0.46999998093E+01 0.  1.
</event>
<event>
 5   0  0.2579241E-04  0.2092181E+04  0.7818609E-02  0.8564696E-01
        2   -1    0    0  501    0  0.00000000000E+00  0.00000000000E+00  0.20387029562E+04  0.20387029562E+04  0.25500000920E-02 0.  1.
       -2   -1    0    0    0  501  0.00000000000E+00  0.00000000000E+00 -0.53676541353E+03  0.53676541353E+03  0.25500000920E-02 0. -1.
    10030    2    1    2    0    0  0.00000000000E+00  0.00000000000E+00  0.15019375427E+04  0.25754683698E+04  0.20921809055E+04 0.  0.
        5    1    3    3  502    0 -0.47527320809E+03  0.92187807572E+03  0.58335716794E+03  0.11899880185E+04  0.46999998093E+01 0.  1.
       -5    1    3    3    0  502  0.47527320809E+03 -0.92187807572E+03  0.91858037478E+03  0.13854803513E+04  0.46999998093E+01 0. -1.
</event>
<event>
 5   0  0.1130848E-04  0.2131969E+04  0.7818609E-02  0.8547290E-01
       -1   -1    0    0    0  501  0.00000000000E+00  0.00000000000E+00  0.11540210686E+04  0.11540210686E+04  0.50400001928E-02 0. -1.
        1   -1    0    0  501    0  0.00000000000E+00  0.00000000000E+00 -0.98466376421E+03  0.98466376423E+03  0.50400001928E-02 0.  1.
    10030    2    1    2    0    0  0.00000000000E+00  0.00000000000E+00  0.16935730435E+03  0.21386848328E+04  0.21319687891E+04 0.  0.
        5    1    3    3  502    0  0.44719371241E+03 -0.94606211625E+03  0.28850557126E+03  0.10854829795E+04  0.46999998093E+01 0.  1.
       -5    1    3    3    0  502 -0.44719371241E+03  0.94606211625E+03 -0.11914826691E+03  0.10532018533E+04  0.46999998093E+01 0. -1.
</event>
<event>
 5   0  0.2430898E-04  0.2112281E+04  0.7818609E-02  0.8555853E-01
       -2   -1    0    0    0  501  0.00000000000E+00  0.00000000000E+00  0.90546544735E+03  0.90546544736E+03  0.25500000920E-02 0.  1.
        2   -1    0    0  501    0  0.00000000000E+00  0.00000000000E+00 -0.12318885650E+04  0.12318885650E+04  0.25500000920E-02 0. -1.
    10030    2    1    2    0    0  0.00000000000E+00  0.00000000000E+00 -0.32642311767E+03  0.21373540124E+04  0.21122807869E+04 0.  0.
        1    1    3    3  502    0  0.13101802036E+03  0.73479888555E+03 -0.91930100255E+03  0.11841492546E+04  0.50400001928E-02 0.  1.
       -1    1    3    3    0  502 -0.13101802036E+03 -0.73479888555E+03  0.59287788488E+03  0.95320475778E+03  0.50400001928E-02 0. -1.
</event>
<event>
 5   0  0.2579241E-04  0.1714461E+04  0.7818609E-02  0.8753159E-01
       -2   -1    0    0    0  501  0.00000000000E+00  0.00000000000E+00  0.52512420856E+03  0.52512420857E+03  0.25500000920E-02 0.  1.
        2   -1    0    0  501    0  0.00000000000E+00  0.00000000000E+00 -0.13993726152E+04  0.13993726152E+04  0.25500000920E-02 0. -1.
    10030    2    1    2    0    0  0.00000000000E+00  0.00000000000E+00 -0.87424840667E+03  0.19244968238E+04  0.17144613581E+04 0.  0.
        5    1    3    3  502    0 -0.48256467299E+03  0.48376608033E+03 -0.10181499238E+04  0.12261931501E+04  0.46999998093E+01 0. -1.
       -5    1    3    3    0  502  0.48256467299E+03 -0.48376608033E+03  0.14390151709E+03  0.69830367370E+03  0.46999998093E+01 0.  1.
</event>
<event>
 5   0  0.2579241E-04  0.2120437E+04  0.7818609E-02  0.8552294E-01
        2   -1    0    0  501    0  0.00000000000E+00  0.00000000000E+00  0.15064663251E+04  0.15064663251E+04  0.25500000920E-02 0.  1.
       -2   -1    0    0    0  501  0.00000000000E+00  0.00000000000E+00 -0.74615901949E+03  0.74615901950E+03  0.25500000920E-02 0. -1.
    10030    2    1    2    0    0  0.00000000000E+00  0.00000000000E+00  0.76030730557E+03  0.22526253446E+04  0.21204371587E+04 0.  0.
        5    1    3    3  502    0 -0.96150457311E+03 -0.40645556198E+03  0.18327885578E+03  0.10598633860E+04  0.46999998093E+01 0. -1.
       -5    1    3    3    0  502  0.96150457311E+03  0.40645556198E+03  0.57702844979E+03  0.11927619586E+04  0.46999998093E+01 0.  1.
</event>
<event>
 5   0  0.1130848E-04  0.1531252E+04  0.7818609E-02  0.8863933E-01
        1   -1    0    0  501    0  0.00000000000E+00  0.00000000000E+00  0.52161629091E+03  0.52161629093E+03  0.50400001928E-02 0. -1.
       -1   -1    0    0    0  501  0.00000000000E+00  0.00000000000E+00 -0.11237821829E+04  0.11237821829E+04  0.50400001928E-02 0.  1.
    10030    2    1    2    0    0  0.00000000000E+00  0.00000000000E+00 -0.60216589196E+03  0.16453984738E+04  0.15312518983E+04 0.  0.
        5    1    3    3  502    0  0.16375265127E+03 -0.48149987623E+03  0.31385701532E+03  0.59764987884E+03  0.46999998093E+01 0. -1.
       -5    1    3    3    0  502 -0.16375265127E+03  0.48149987623E+03 -0.91602290728E+03  0.10477485950E+04  0.46999998093E+01 0.  1.
</event>
<event>
 5   0  0.1130848E-04  0.2384139E+04  0.7818609E-02  0.8445466E-01
        1   -1    0    0  501    0  0.00000000000E+00  0.00000000000E+00  0.88781395480E+03  0.88781395481E+03  0.50400001928E-02 0.  1.
       -1   -1    0    0    0  501  0.00000000000E+00  0.00000000000E+00 -0.16005941963E+04  0.16005941963E+04  0.50400001928E-02 0. -1.
    10030    2    1    2    0    0  0.00000000000E+00  0.00000000000E+00 -0.71278024153E+03  0.24884081511E+04  0.23841391432E+04 0.  0.
        5    1    3    3  502    0  0.25394299059E+03 -0.11480722141E+04 -0.15172520657E+03  0.11855798073E+04  0.46999998093E+01 0.  1.
       -5    1    3    3    0  502 -0.25394299059E+03  0.11480722141E+04 -0.56105503496E+03  0.13028283438E+04  0.46999998093E+01 0. -1.
</event>
<event>
 5   0  0.2579241E-04  0.2275974E+04  0.7818609E-02  0.8487455E-01
       -2   -1    0    0    0  501  0.00000000000E+00  0.00000000000E+00  0.11443442387E+04  0.11443442387E+04  0.25500000920E-02 0. -1.
        2   -1    0    0  501    0  0.00000000000E+00  0.00000000000E+00 -0.11316646151E+04  0.11316646151E+04  0.25500000920E-02 0.  1.
    10030    2    1    2    0    0  0.00000000000E+00  0.00000000000E+00  0.12679623567E+02  0.22760088537E+04  0.22759735344E+04 0.  0.
        5    1    3    3  502    0  0.54398800474E+03  0.33533935808E+03 -0.93527787911E+03  0.11327586837E+04  0.46999998093E+01 0.  1.
       -5    1    3    3    0  502 -0.54398800474E+03 -0.33533935808E+03  0.94795750268E+03  0.11432501700E+04  0.46999998093E+01 0. -1.
</event>
<event>
 5   0  0.1186038E-04  0.1925297E+04  0.7818609E-02  0.8642366E-01
       -1   -1    0    0    0  501  0.00000000000E+00  0.00000000000E+00  0.46015815813E+03  0.46015815816E+03  0.50400001928E-02 0. -1.
        1   -1    0    0  501    0  0.00000000000E+00  0.00000000000E+00 -0.20138550777E+04  0.20138550777E+04  0.50400001928E-02 0.  1.
    10030    2    1    2    0    0  0.00000000000E+00  0.00000000000E+00 -0.15536969195E+04  0.24740132358E+04  0.19252966975E+04 0.  0.
        4    1    3    3  502    0 -0.59235201626E+03 -0.67485807354E+03 -0.12226834256E+04  0.15169939692E+04  0.12699999809E+01 0. -1.
       -4    1    3    3    0  502  0.59235201626E+03  0.67485807354E+03 -0.33101349397E+03  0.95701926662E+03  0.12699999809E+01 0.  1.
</event>
<event>
 5   0  0.2430898E-04  0.2150163E+04  0.7818609E-02  0.8539463E-01
       -2   -1    0    0    0  501  0.00000000000E+00  0.00000000000E+00  0.10220631016E+04  0.10220631016E+04  0.25500000920E-02 0.  1.
        2   -1    0    0  501    0  0.00000000000E+00  0.00000000000E+00 -0.11308497040E+04  0.11308497040E+04  0.25500000920E-02 0. -1.
    10030    2    1    2    0    0  0.00000000000E+00  0.00000000000E+00 -0.10878660241E+03  0.21529128056E+04  0.21501625575E+04 0.  0.
        1    1    3    3  502    0  0.15285030034E+03 -0.89734114353E+03  0.51836583136E+03  0.10475149055E+04  0.50400001928E-02 0.  1.
       -1    1    3    3    0  502 -0.15285030034E+03  0.89734114353E+03 -0.62715243378E+03  0.11053979000E+04  0.50400001928E-02 0. -1.
</event>
<event>
 5   0  0.1130848E-04  0.2134222E+04  0.7818609E-02  0.8546316E-01
       -1   -1    0    0    0  501  0.00000000000E+00  0.00000000000E+00  0.54411993014E+03  0.54411993016E+03  0.50400001928E-02 0. -1.
        1   -1    0    0  501    0  0.00000000000E+00  0.00000000000E+00 -0.20927849496E+04  0.20927849496E+04  0.50400001928E-02 0.  1.
    10030    2    1    2    0    0  0.00000000000E+00  0.00000000000E+00 -0.15486650195E+04  0.26369048798E+04  0.21342221071E+04 0.  0.
        5    1    3    3  502    0 -0.36169537244E+03 -0.77464856615E+03 -0.15633351253E+04  0.17818369026E+04  0.46999998093E+01 0.  1.
       -5    1    3    3    0  502  0.36169537244E+03  0.77464856615E+03  0.14670105888E+02  0.85506797712E+03  0.46999998093E+01 0. -1.
</event>
<event>
 5   0  0.1122711E-04  0.2228034E+04  0.7818609E-02  0.8506850E-01
       -1   -1    0    0    0  501  0.00000000000E+00  0.00000000000E+00  0.99481386989E+03  0.99481386990E+03  0.50400001928E-02 0. -1.
        1   -1    0    0  501    0  0.00000000000E+00  0.00000000000E+00 -0.12475032919E+04  0.12475032920E+04  0.50400001928E-02 0.  1.
    10030    2    1    2    0    0  0.00000000000E+00  0.00000000000E+00 -0.25268942205E+03  0.22423171619E+04  0.22280337319E+04 0.  0.
        1    1    3    3  502    0  0.32748307352E+03 -0.93461915902E+03 -0.63978728305E+03  0.11790190429E+04  0.50400001928E-02 0. -1.
       -1    1    3    3    0  502 -0.32748307352E+03  0.93461915902E+03  0.38709786100E+03  0.10632981190E+04  0.50400001928E-02 0.  1.
</event>
<event>
 5   0  0.1122711E-04  0.2081446E+04  0.7818609E-02  0.8569461E-01
       -1   -1    0    0    0  501  0.00000000000E+00  0.00000000000E+00  0.61271418052E+03  0.61271418054E+03  0.50400001928E-02 0.  1.
        1   -1    0    0  501    0  0.00000000000E+00  0.00000000000E+00 -0.17677153864E+04  0.17677153864E+04  0.50400001928E-02 0. -1.
    10030    2    1    2    0    0  0.00000000000E+00  0.00000000000E+00 -0.11550012059E+04  0.23804295670E+04  0.20814459248E+04 0.  0.
        1    1    3    3  502    0 -0.63330070934E+03 -0.16988807783E+03  0.34678068643E+03  0.74174698648E+03  0.50400001928E-02 0.  1.
       -1    1    3    3    0  502  0.63330070934E+03  0.16988807783E+03 -0.15017818923E+04  0.16386825805E+04  0.50400001928E-02 0. -1.
</event>
<event>
 5   0  0.1186038E-04  0.1332499E+04  0.7818609E-02  0.9004183E-01
       -1   -1    0    0    0  501  0.00000000000E+00  0.00000000000E+00  0.32676804417E+03  0.32676804420E+03  0.50400001928E-02 0. -1.
        1   -1    0    0  501    0  0.00000000000E+00  0.00000000000E+00 -0.13584208972E+04  0.13584208972E+04  0.50400001928E-02 0.  1.
    10030    2    1    2    0    0  0.00000000000E+00  0.00000000000E+00 -0.10316528530E+04  0.16851889414E+04  0.13324992154E+04 0.  0.
        4    1    3    3  502    0  0.30457873413E+03 -0.57251123370E+03 -0.32257556284E+03  0.72428856449E+03  0.12699999809E+01 0. -1.
       -4    1    3    3    0  502 -0.30457873413E+03  0.57251123370E+03 -0.70907729017E+03  0.96090037690E+03  0.12699999809E+01 0.  1.
</event>
<event>
 5   0  0.2467483E-04  0.2089711E+04  0.7818609E-02  0.8565789E-01
       -2   -1    0    0    0  501  0.00000000000E+00  0.00000000000E+00  0.75903230765E+03  0.75903230765E+03  0.25500000920E-02 0. -1.
        2   -1    0    0  501    0  0.00000000000E+00  0.00000000000E+00 -0.14383091823E+04  0.14383091823E+04  0.25500000920E-02 0.  1.
    10030    2    1    2    0    0  0.00000000000E+00  0.00000000000E+00 -0.67927687469E+03  0.21973414900E+04  0.20897111167E+04 0.  0.
        4    1    3    3  502    0 -0.29224985349E+03 -0.65537734351E+03  0.45894619653E+03  0.85179966157E+03  0.12699999809E+01 0. -1.
       -4    1    3    3    0  502  0.29224985349E+03  0.65537734351E+03 -0.11382230712E+04  0.13455418284E+04  0.12699999809E+01 0.  1.
</event>
<event>
 5   0  0.2512839E-04  0.2038403E+04  0.7818609E-02  0.8588874E-01
        2   -1    0    0  501    0  0.00000000000E+00  0.00000000000E+00  0.13554591519E+04  0.13554591519E+04  0.25500000920E-02 0. -1.
       -2   -1    0    0    0  501  0.00000000000E+00  0.00000000000E+00 -0.76636156600E+03  0.76636156600E+03  0.25500000920E-02 0.  1.
    10030    2    1    2    0    0  0.00000000000E+00  0.00000000000E+00  0.58909758587E+03  0.21218207179E+04  0.20384030988E+04 0.  0.
        3    1    3    3  502    0 -0.95865023691E+03  0.26942240114E+03  0.68466923136E+02  0.99814149134E+03  0.10100000352E+00 0.  1.
       -3    1    3    3    0  502  0.95865023691E+03 -0.26942240114E+03  0.52063066274E+03  0.11236792265E+04  0.10100000352E+00 0. -1.
</event>
<event>
 5   0  0.1122711E-04  0.2118166E+04  0.7818609E-02  0.8553283E-01
        1   -1    0    0  501    0  0.00000000000E+00  0.00000000000E+00  0.12277891260E+04  0.12277891260E+04  0.50400001928E-02 0.  1.
       -1   -1    0    0    0  501  0.00000000000E+00  0.00000000000E+00 -0.91355786897E+03  0.91355786899E+03  0.50400001928E-02 0. -1.
    10030    2    1    2    0    0  0.00000000000E+00  0.00000000000E+00  0.31423125702E+03  0.21413469950E+04  0.21181656380E+04 0.  0.
        1    1    3    3  502    0 -0.64271100712E+02  0.38088218307E+03 -0.83980768902E+03  0.92438031477E+03  0.50400001928E-02 0. -1.
       -1    1    3    3    0  502  0.64271100712E+02 -0.38088218307E+03  0.11540389460E+04  0.12169666802E+04  0.50400001928E-02 0.  1.
</event>
<event>
 5   0  0.2579241E-04  0.2115661E+04  0.7818609E-02  0.8554376E-01
        2   -1    0    0  501    0  0.00000000000E+00  0.00000000000E+00  0.14712117171E+04  0.14712117171E+04  0.25500000920E-02 0.  1.
       -2   -1    0    0    0  501  0.00000000000E+00  0.00000000000E+00 -0.76060096129E+03  0.76060096129E+03  0.25500000920E-02 0. -1.
    10030    2    1    2    0    0  0.00000000000E+00  0.00000000000E+00  0.71061075579E+03  0.22318126784E+04  0.21156606971E+04 0.  0.
        5    1    3    3  502    0  0.99101404421E+03  0.35887001348E+03  0.45016693349E+03  0.11461103264E+04  0.46999998093E+01 0.  1.
       -5    1    3    3    0  502 -0.99101404421E+03 -0.35887001348E+03  0.26044382229E+03  0.10857023519E+04  0.46999998093E+01 0. -1.
</event>
<event>
 5   0  0.2512839E-04  0.2036216E+04  0.7818609E-02  0.8589873E-01
        2   -1    0    0  501    0  0.00000000000E+00  0.00000000000E+00  0.63359078607E+03  0.63359078607E+03  0.25500000920E-02 0.  1.
       -2   -1    0    0    0  501  0.00000000000E+00  0.00000000000E+00 -0.16359824755E+04  0.16359824755E+04  0.25500000920E-02 0. -1.
    10030    2    1    2    0    0  0.00000000000E+00  0.00000000000E+00 -0.10023916894E+04  0.22695732615E+04  0.20362155314E+04 0.  0.
        3    1    3    3  502    0 -0.10142286074E+04 -0.73868326576E+02 -0.44628292321E+03  0.11105335004E+04  0.10100000352E+00 0.  1.
       -3    1    3    3    0  502  0.10142286074E+04  0.73868326576E+02 -0.55610876617E+03  0.11590397611E+04  0.10100000352E+00 0. -1.
</event>
<event>
 5   0  0.2467483E-04  0.2015078E+04  0.7818609E-02  0.8599603E-01
        2   -1    0    0  501    0  0.00000000000E+00  0.00000000000E+00  0.19488081461E+04  0.19488081461E+04  0.25500000920E-02 0. -1.
       -2   -1    0    0    0  501  0.00000000000E+00  0.00000000000E+00 -0.52090038345E+03  0.52090038346E+03  0.25500000920E-02 0.  1.
    10030    2    1    2    0    0  0.00000000000E+00  0.00000000000E+00  0.14279077627E+04  0.24697085296E+04  0.20150780735E+04 0.  0.
        4    1    3    3  502    0  0.10377595862E+03  0.30570424693E+03  0.18836990602E+04  0.19111641213E+04  0.12699999809E+01 0. -1.
       -4    1    3    3    0  502 -0.10377595862E+03 -0.30570424693E+03 -0.45579129756E+03  0.55854440827E+03  0.12699999809E+01 0.  1.
</event>
<event>
 5   0  0.2448804E-04  0.1204972E+04  0.7818609E-02  0.9108516E-01
       -2   -1    0    0    0  501  0.00000000000E+00  0.00000000000E+00  0.65449610809E+03  0.65449610809E+03  0.25500000920E-02 0. -1.
        2   -1    0    0  501    0  0.00000000000E+00  0.00000000000E+00 -0.55460869777E+03  0.55460869778E+03  0.25500000920E-02 0.  1.
    10030    2    1    2    0    0  0.00000000000E+00  0.00000000000E+00  0.99887410315E+02  0.12091048059E+04  0.12049717577E+04 0.  0.
        2    1    3    3  502    0 -0.56582487681E+03 -0.19048009053E+03  0.13114579695E+03  0.61126072683E+03  0.25500000920E-02 0.  1.
       -2    1    3    3    0  502  0.56582487681E+03  0.19048009053E+03 -0.31258386631E+02  0.59784407904E+03  0.25500000920E-02 0. -1.
</event>
<event>
 5   0  0.2448804E-04  0.2076306E+04  0.7818609E-02  0.8571753E-01
        2   -1    0    0  501    0  0.00000000000E+00  0.00000000000E+00  0.14824171072E+04  0.14824171072E+04  0.25500000920E-02 0. -1.
       -2   -1    0    0    0  501  0.00000000000E+00  0.00000000000E+00 -0.72702968627E+03  0.72702968628E+03  0.25500000920E-02 0.  1.
    10030    2    1    2    0    0  0.00000000000E+00  0.00000000000E+00  0.75538742097E+03  0.22094467935E+04  0.20763056080E+04 0.  0.
        2    1    3    3  502    0 -0.59649812146E+03 -0.67123901886E+03  0.93204967311E+03  0.12942520707E+04  0.25500000920E-02 0. -1.
       -2    1    3    3    0  502  0.59649812146E+03  0.67123901886E+03 -0.17666225214E+03  0.91519472283E+03  0.25500000920E-02 0.  1.
</event>
<event>
 5   0  0.2448804E-04  0.2020970E+04  0.7818609E-02  0.8596879E-01
       -2   -1    0    0    0  501  0.00000000000E+00  0.00000000000E+00  0.12355772313E+04  0.12355772314E+04  0.25500000920E-02 0.  1.
        2   -1    0    0  501    0  0.00000000000E+00  0.00000000000E+00 -0.82639917417E+03  0.82639917417E+03  0.25500000920E-02 0. -1.
    10030    2    1    2    0    0  0.00000000000E+00  0.00000000000E+00  0.40917805718E+03  0.20619764055E+04  0.20209700677E+04 0.  0.
        2    1    3    3  502    0  0.10000095475E+04 -0.13448636369E+03  0.26023300076E+03  0.10420301780E+04  0.25500000920E-02 0.  1.
       -2    1    3    3    0  502 -0.10000095475E+04  0.13448636369E+03  0.14894505642E+03  0.10199462275E+04  0.25500000920E-02 0. -1.
</event>
<event>
 5   0  0.2512839E-04  0.1747621E+04  0.7818609E-02  0.8734661E-01
       -2   -1    0    0    0  501  0.00000000000E+00  0.00000000000E+00  0.11346975832E+04  0.11346975832E+04  0.25500000920E-02 0. -1.
        2   -1    0    0  501    0  0.00000000000E+00  0.00000000000E+00 -0.67290606730E+03  0.67290606731E+03  0.25500000920E-02 0.  1.
    10030    2    1    2    0    0  0.00000000000E+00  0.00000000000E+00  0.46179151590E+03  0.18076036505E+04  0.17476211126E+04 0.  0.
        3    1    3    3  502    0  0.30695357259E+02 -0.66170620310E+03 -0.35852969336E+03  0.75322032328E+03  0.10100000352E+00 0.  1.
       -3    1    3    3    0  502 -0.30695357259E+02  0.66170620310E+03  0.82032120925E+03  0.10543833272E+04  0.10100000352E+00 0. -1.
</event>
<event>
 5   0  0.2467483E-04  0.2157636E+04  0.7818609E-02  0.8536271E-01
        2   -1    0    0  501    0  0.00000000000E+00  0.00000000000E+00  0.19809869919E+04  0.19809869919E+04  0.25500000920E-02 0. -1.
       -2   -1    0    0    0  501  0.00000000000E+00  0.00000000000E+00 -0.58750943391E+03  0.58750943391E+03  0.25500000920E-02 0.  1.
    10030    2    1    2    0    0  0.00000000000E+00  0.00000000000E+00  0.13934775579E+04  0.25684964258E+04  0.21576362494E+04 0.  0.
        4    1    3    3  502    0  0.64842673098E+03  0.15393304801E+03  0.17066304136E+04  0.18321412583E+04  0.12699999809E+01 0. -1.
       -4    1    3    3    0  502 -0.64842673098E+03 -0.15393304801E+03 -0.31315285570E+03  0.73635516746E+03  0.12699999809E+01 0.  1.
</event>
<event>
 5   0  0.2430898E-04  0.2058383E+04  0.7818609E-02  0.8579801E-01
       -2   -1    0    0    0  501  0.00000000000E+00  0.00000000000E+00  0.13778724191E+04  0.13778724191E+04  0.25500000920E-02 0.  1.
        2   -1    0    0  501    0  0.00000000000E+00  0.00000000000E+00 -0.76874656822E+03  0.76874656822E+03  0.25500000920E-02 0. -1.
    10030    2    1    2    0    0  0.00000000000E+00  0.00000000000E+00  0.60912585092E+03  0.21466189874E+04  0.20583825627E+04 0.  0.
        1    1    3    3  502    0 -0.45645881093E+03 -0.78682963444E+03 -0.19750916209E+03  0.93084122644E+03  0.50400001928E-02 0. -1.
       -1    1    3    3    0  502  0.45645881093E+03  0.78682963444E+03  0.80663501301E+03  0.12157777609E+04  0.50400001928E-02 0.  1.
</event>
<event>
 5   0  0.1122711E-04  0.2107142E+04  0.7818609E-02  0.8558104E-01
       -1   -1    0    0    0  501  0.00000000000E+00  0.00000000000E+00  0.99830177886E+03  0.99830177888E+03  0.50400001928E-02 0. -1.
        1   -1    0    0  501    0  0.00000000000E+00  0.00000000000E+00 -0.11119001150E+04  0.11119001150E+04  0.50400001928E-02 0.  1.
    10030    2    1    2    0    0  0.00000000000E+00  0.00000000000E+00 -0.11359833610E+03  0.21102018938E+04  0.21071420101E+04 0.  0.
        1    1    3    3  502    0 -0.43266883804E+03 -0.55795668863E+03  0.72631712123E+03  0.10129435080E+04  0.50400001928E-02 0.  1.
       -1    1    3    3    0  502  0.43266883804E+03  0.55795668863E+03 -0.83991545733E+03  0.10972583858E+04  0.50400001928E-02 0. -1.
</event>
<event>
 5   0  0.1042395E-04  0.2106780E+04  0.7818609E-02  0.8558262E-01
       -1   -1    0    0    0  501  0.00000000000E+00  0.00000000000E+00  0.14449942679E+04  0.14449942679E+04  0.50400001928E-02 0. -1.
        1   -1    0    0  501    0  0.00000000000E+00  0.00000000000E+00 -0.76791369281E+03  0.76791369283E+03  0.50400001928E-02 0.  1.
    10030    2    1    2    0    0  0.00000000000E+00  0.00000000000E+00  0.67708057508E+03  0.22129079607E+04  0.21067803724E+04 0.  0.
        3    1    3    3  502    0 -0.99571132197E+03 -0.17701133856E+03  0.28979417455E+02  0.10117380429E+04  0.10100000352E+00 0. -1.
       -3    1    3    3    0  502  0.99571132197E+03  0.17701133856E+03  0.64810115763E+03  0.12011699178E+04  0.10100000352E+00 0.  1.
</event>
<event>
 5   0  0.1122711E-04  0.2107255E+04  0.7818609E-02  0.8558054E-01
       -1   -1    0    0    0  501  0.00000000000E+00  0.00000000000E+00  0.40993046477E+03  0.40993046480E+03  0.50400001928E-02 0. -1.
        1   -1    0    0  501    0  0.00000000000E+00  0.00000000000E+00 -0.27080957013E+04  0.27080957013E+04  0.50400001928E-02 0.  1.
    10030    2    1    2    0    0  0.00000000000E+00  0.00000000000E+00 -0.22981652366E+04  0.31180261661E+04  0.21072550197E+04 0.  0.
        1    1    3    3  502    0 -0.75802880467E+03  0.59968944422E+03 -0.17696521253E+04  0.20164086250E+04  0.50400001928E-02 0.  1.
       -1    1    3    3    0  502  0.75802880467E+03 -0.59968944422E+03 -0.52851311126E+03  0.11016175412E+04  0.50400001928E-02 0. -1.
</event>
<event>
 5   0  0.2467483E-04  0.2099632E+04  0.7818609E-02  0.8561406E-01
        2   -1    0    0  501    0  0.00000000000E+00  0.00000000000E+00  0.12140188095E+04  0.12140188095E+04  0.25500000920E-02 0. -1.
       -2   -1    0    0    0  501  0.00000000000E+00  0.00000000000E+00 -0.90782222384E+03  0.90782222384E+03  0.25500000920E-02 0.  1.
    10030    2    1    2    0    0  0.00000000000E+00  0.00000000000E+00  0.30619658569E+03  0.21218410334E+04  0.20996316395E+04 0.  0.
        4    1    3    3  502    0 -0.69155893402E+03  0.29812196801E+03  0.89225919280E+03  0.11675866336E+04  0.12699999809E+01 0. -1.
       -4    1    3    3    0  502  0.69155893402E+03 -0.29812196801E+03 -0.58606260711E+03  0.95425439972E+03  0.12699999809E+01 0.  1.
</event>
<event>
 5   0  0.2448804E-04  0.1977624E+04  0.7818609E-02  0.8617154E-01
        2   -1    0    0  501    0  0.00000000000E+00  0.00000000000E+00  0.56558318373E+03  0.56558318374E+03  0.25500000920E-02 0. -1.
       -2   -1    0    0    0  501  0.00000000000E+00  0.00000000000E+00 -0.17287443926E+04  0.17287443926E+04  0.25500000920E-02 0.  1.
    10030    2    1    2    0    0  0.00000000000E+00  0.00000000000E+00 -0.11631612088E+04  0.22943275763E+04  0.19776235814E+04 0.  0.
        2    1    3    3  502    0 -0.53912012063E+03 -0.29584334568E+03  0.31674450600E+03  0.69173757433E+03  0.25500000920E-02 0. -1.
       -2    1    3    3    0  502  0.53912012063E+03  0.29584334568E+03 -0.14799057148E+04  0.16025900020E+04  0.25500000920E-02 0.  1.
</event>
<event>
 5   0  0.2448804E-04  0.2528001E+04  0.7818609E-02  0.8393077E-01
       -2   -1    0    0    0  501  0.00000000000E+00  0.00000000000E+00  0.65740870659E+03  0.65740870659E+03  0.25500000920E-02 0. -1.
        2   -1    0    0  501    0  0.00000000000E+00  0.00000000000E+00 -0.24302951709E+04  0.24302951709E+04  0.25500000920E-02 0.  1.
    10030    2    1    2    0    0  0.00000000000E+00  0.00000000000E+00 -0.17728864643E+04  0.30877038775E+04  0.25280009533E+04 0.  0.
        2    1    3    3  502    0 -0.80629644783E+03  0.94900667886E+03 -0.62173546402E+03  0.13918630053E+04  0.25500000920E-02 0. -1.
       -2    1    3    3    0  502  0.80629644783E+03 -0.94900667886E+03 -0.11511510003E+04  0.16958408722E+04  0.25500000920E-02 0.  1.
</event>
<event>
 5   0  0.2430898E-04  0.2149446E+04  0.7818609E-02  0.8539769E-01
       -2   -1    0    0    0  501  0.00000000000E+00  0.00000000000E+00  0.10570166567E+04  0.10570166567E+04  0.25500000920E-02 0. -1.
        2   -1    0    0  501    0  0.00000000000E+00  0.00000000000E+00 -0.10927258206E+04  0.10927258206E+04  0.25500000920E-02 0.  1.
    10030    2    1    2    0    0  0.00000000000E+00  0.00000000000E+00 -0.35709163867E+02  0.21497424773E+04  0.21494458761E+04 0.  0.
        1    1    3    3  502    0 -0.36891430539E+03  0.97182114101E+03 -0.29083051359E+03  0.10794056154E+04  0.50400001928E-02 0. -1.
       -1    1    3    3    0  502  0.36891430539E+03 -0.97182114101E+03  0.25512134972E+03  0.10703368619E+04  0.50400001928E-02 0.  1.
</event>
<event>
 5   0  0.2579241E-04  0.2093502E+04  0.7818609E-02  0.8564111E-01
       -2   -1    0    0    0  501  0.00000000000E+00  0.00000000000E+00  0.12158507733E+04  0.12158507733E+04  0.25500000920E-02 0. -1.
        2   -1    0    0  501    0  0.00000000000E+00  0.00000000000E+00 -0.90116951728E+03  0.90116951728E+03  0.25500000920E-02 0.  1.
    10030    2    1    2    0    0  0.00000000000E+00  0.00000000000E+00  0.31468125599E+03  0.21170202905E+04  0.20935019985E+04 0.  0.
        5    1    3    3  502    0  0.53162563276E+03 -0.44758145791E+03  0.94889241537E+03  0.11761691548E+04  0.46999998093E+01 0. -1.
       -5    1    3    3    0  502 -0.53162563276E+03  0.44758145791E+03 -0.63421115938E+03  0.94085113570E+03  0.46999998093E+01 0.  1.
</event>
<event>
 5   0  0.1156733E-04  0.2055841E+04  0.7818609E-02  0.8580949E-01
        1   -1    0    0  501    0  0.00000000000E+00  0.00000000000E+00  0.19321302943E+04  0.19321302943E+04  0.50400001928E-02 0.  1.
       -1   -1    0    0    0  501  0.00000000000E+00  0.00000000000E+00 -0.54686819239E+03  0.54686819242E+03  0.50400001928E-02 0. -1.
    10030    2    1    2    0    0  0.00000000000E+00  0.00000000000E+00  0.13852621019E+04  0.24789984867E+04  0.20558410460E+04 0.  0.
        2    1    3    3  502    0  0.49112611894E+03  0.87542795333E+03  0.95966667401E+03  0.13887185069E+04  0.25500000920E-02 0. -1.
       -2    1    3    3    0  502 -0.49112611894E+03 -0.87542795333E+03  0.42559542791E+03  0.10902799798E+04  0.25500000920E-02 0.  1.
</event>
<event>
 5   0  0.1042395E-04  0.1386096E+04  0.7818609E-02  0.8963945E-01
        1   -1    0    0  501    0  0.00000000000E+00  0.00000000000E+00  0.22459209387E+04  0.22459209387E+04  0.50400001928E-02 0.  1.
       -1   -1    0    0    0  501  0.00000000000E+00  0.00000000000E+00 -0.21386136568E+03  0.21386136574E+03  0.50400001928E-02 0. -1.
    10030    2    1    2    0    0  0.00000000000E+00  0.00000000000E+00  0.20320595730E+04  0.24597823044E+04  0.13860962726E+04 0.  0.
        3    1    3    3  502    0  0.34921581589E+02 -0.48193354834E+03  0.13435637370E+03  0.50152877009E+03  0.10100000352E+00 0. -1.
       -3    1    3    3    0  502 -0.34921581589E+02  0.48193354834E+03  0.18977031993E+04  0.19582535343E+04  0.10100000352E+00 0.  1.
</event>
<event>
 5   0  0.1122711E-04  0.2112387E+04  0.7818609E-02  0.8555806E-01
        1   -1    0    0  501    0  0.00000000000E+00  0.00000000000E+00  0.15860355571E+04  0.15860355571E+04  0.50400001928E-02 0.  1.
       -1   -1    0    0    0  501  0.00000000000E+00  0.00000000000E+00 -0.70335432055E+03  0.70335432057E+03  0.50400001928E-02 0. -1.
    10030    2    1    2    0    0  0.00000000000E+00  0.00000000000E+00  0.88268123654E+03  0.22893898777E+04  0.21123872388E+04 0.  0.
        1    1    3    3  502    0 -0.49207852317E+02 -0.41328937671E+03 -0.61072875165E+03  0.73906639062E+03  0.50400001928E-02 0. -1.
       -1    1    3    3    0  502  0.49207852317E+02  0.41328937671E+03  0.14934099882E+04  0.15503234870E+04  0.50400001928E-02 0.  1.
</event>
<event>
 5   0  0.1156733E-04  0.2043469E+04  0.7818609E-02  0.8586563E-01
        1   -1    0    0  501    0  0.00000000000E+00  0.00000000000E+00  0.61018426359E+03  0.61018426362E+03  0.50400001928E-02 0. -1.
       -1   -1    0    0    0  501  0.00000000000E+00  0.00000000000E+00 -0.17108626371E+04  0.17108626371E+04  0.50400001928E-02 0.  1.
    10030    2    1    2    0    0  0.00000000000E+00  0.00000000000E+00 -0.11006783735E+04  0.23210469007E+04  0.20434690684E+04 0.  0.
        2    1    3    3  502    0  0.64749264696E+03  0.70537543494E+03 -0.14533702815E+03  0.96846480774E+03  0.25500000920E-02 0. -1.
       -2    1    3    3    0  502 -0.64749264696E+03 -0.70537543494E+03 -0.95534134534E+03  0.13525820930E+04  0.25500000920E-02 0.  1.
</event>
<event>
 5   0  0.2512839E-04  0.2120454E+04  0.7818609E-02  0.8552287E-01
       -2   -1    0    0    0  501  0.00000000000E+00  0.00000000000E+00  0.95692127608E+03  0.95692127609E+03  0.25500000920E-02 0. -1.
        2   -1    0    0  501    0  0.00000000000E+00  0.00000000000E+00 -0.11746846792E+04  0.11746846792E+04  0.25500000920E-02 0.  1.
    10030    2    1    2    0    0  0.00000000000E+00  0.00000000000E+00 -0.21776340311E+03  0.21316059553E+04  0.21204535008E+04 0.  0.
        3    1    3    3  502    0  0.76117395603E+03 -0.27463857714E+03 -0.79751643695E+03  0.11361534301E+04  0.10100000352E+00 0.  1.
       -3    1    3    3    0  502 -0.76117395603E+03  0.27463857714E+03  0.57975303384E+03  0.99545252515E+03  0.10100000352E+00 0. -1.
</event>
<event>
 5   0  0.1156733E-04  0.2020099E+04  0.7818609E-02  0.8597281E-01
        1   -1    0    0  501    0  0.00000000000E+00  0.00000000000E+00  0.79734195056E+03  0.79734195057E+03  0.50400001928E-02 0. -1.
       -1   -1    0    0    0  501  0.00000000000E+00  0.00000000000E+00 -0.12795015919E+04  0.12795015919E+04  0.50400001928E-02 0.  1.
    10030    2    1    2    0    0  0.00000000000E+00  0.00000000000E+00 -0.48215964131E+03  0.20768435425E+04  0.20200992996E+04 0.  0.
        2    1    3    3  502    0  0.56108142480E+03  0.60635779427E+03  0.35637939789E+03  0.89971574132E+03  0.25500000920E-02 0. -1.
       -2    1    3    3    0  502 -0.56108142480E+03 -0.60635779427E+03 -0.83853903920E+03  0.11771278011E+04  0.25500000920E-02 0.  1.
</event>
<event>
 5   0  0.2579241E-04  0.2138140E+04  0.7818609E-02  0.8544626E-01
       -2   -1    0    0    0  501  0.00000000000E+00  0.00000000000E+00  0.80677506470E+03  0.80677506471E+03  0.25500000920E-02 0.  1.
        2   -1    0    0  501    0  0.00000000000E+00  0.00000000000E+00 -0.14166411330E+04  0.14166411330E+04  0.25500000920E-02 0. -1.
    10030    2    1    2    0    0  0.00000000000E+00  0.00000000000E+00 -0.60986606833E+03  0.22234161977E+04  0.21381400719E+04 0.  0.
        5    1    3    3  502    0  0.68411813543E+03 -0.28358414112E+03  0.49682379246E+03  0.89179232956E+03  0.46999998093E+01 0.  1.
       -5    1    3    3    0  502 -0.68411813543E+03  0.28358414112E+03 -0.11066898608E+04  0.13316238682E+04  0.46999998093E+01 0. -1.
</event>
<event>
 5   0  0.2430898E-04  0.2168568E+04  0.7818609E-02  0.8531626E-01
        2   -1    0    0  501    0  0.00000000000E+00  0.00000000000E+00  0.11204529529E+04  0.11204529529E+04  0.25500000920E-02 0.  1.
       -2   -1    0    0    0  501  0.00000000000E+00  0.00000000000E+00 -0.10492830846E+04  0.10492830846E+04  0.25500000920E-02 0. -1.
    10030    2    1    2    0    0  0.00000000000E+00  0.00000000000E+00  0.71169868311E+02  0.21697360375E+04  0.21685684961E+04 0.  0.
        1    1    3    3  502    0  0.48573728166E+03  0.56498383426E+03  0.82374306726E+03  0.11107205232E+04  0.50400001928E-02 0.  1.
       -1    1    3    3    0  502 -0.48573728166E+03 -0.56498383426E+03 -0.75257319895E+03  0.10590155143E+04  0.50400001928E-02 0. -1.
</event>
<event>
 5   0  0.1130848E-04  0.1950078E+04  0.7818609E-02  0.8630323E-01
        1   -1    0    0  501    0  0.00000000000E+00  0.00000000000E+00  0.12915911226E+04  0.12915911226E+04  0.50400001928E-02 0. -1.
       -1   -1    0    0    0  501  0.00000000000E+00  0.00000000000E+00 -0.73606967884E+03  0.73606967886E+03  0.50400001928E-02 0.  1.
    10030    2    1    2    0    0  0.00000000000E+00  0.00000000000E+00  0.55552144374E+03  0.20276608015E+04  0.19500780116E+04 0.  0.
        5    1    3    3  502    0  0.32320912208E+03  0.47700848866E+03 -0.54009286860E+03  0.78976175620E+03  0.46999998093E+01 0.  1.
       -5    1    3    3    0  502 -0.32320912208E+03 -0.47700848866E+03  0.10956143123E+04  0.12378990453E+04  0.46999998093E+01 0. -1.
</event>
<event>
 5   0  0.1042395E-04  0.2101459E+04  0.7818609E-02  0.8560601E-01
       -1   -1    0    0    0  501  0.00000000000E+00  0.00000000000E+00  0.55870071386E+03  0.55870071389E+03  0.50400001928E-02 0.  1.
        1   -1    0    0  501    0  0.00000000000E+00  0.00000000000E+00 -0.19760713448E+04  0.19760713448E+04  0.50400001928E-02 0. -1.
    10030    2    1    2    0    0  0.00000000000E+00  0.00000000000E+00 -0.14173706309E+04  0.25347720587E+04  0.21014589894E+04 0.  0.
        3    1    3    3  502    0  0.56350576403E+03 -0.60599903007E+01 -0.17783692688E+04  0.18655221081E+04  0.10100000352E+00 0. -1.
       -3    1    3    3    0  502 -0.56350576403E+03  0.60599903007E+01  0.36099863786E+03  0.66924995055E+03  0.10100000352E+00 0.  1.
</event>
<event>
 5   0  0.1122711E-04  0.1841991E+04  0.7818609E-02  0.8684282E-01
        1   -1    0    0  501    0  0.00000000000E+00  0.00000000000E+00  0.68630580783E+03  0.68630580785E+03  0.50400001928E-02 0. -1.
       -1   -1    0    0    0  501  0.00000000000E+00  0.00000000000E+00 -0.12359399923E+04  0.12359399923E+04  0.50400001928E-02 0.  1.
    10030    2    1    2    0    0  0.00000000000E+00  0.00000000000E+00 -0.54963418447E+03  0.19222458002E+04  0.18419910911E+04 0.  0.
        1    1    3    3  502    0 -0.48009793308E+03 -0.53159446255E+02  0.54351235083E+03  0.72713521962E+03  0.50400001928E-02 0. -1.
       -1    1    3    3    0  502  0.48009793308E+03  0.53159446255E+02 -0.10931465353E+04  0.11951105806E+04  0.50400001928E-02 0.  1.
</event>
<event>
 5   0  0.1130848E-04  0.1100406E+04  0.7818609E-02  0.9204796E-01
       -1   -1    0    0    0  501  0.00000000000E+00  0.00000000000E+00  0.52138333673E+03  0.52138333675E+03  0.50400001928E-02 0. -1.
        1   -1    0    0  501    0  0.00000000000E+00  0.00000000000E+00 -0.58061574811E+03  0.58061574813E+03  0.50400001928E-02 0.  1.
    10030    2    1    2    0    0  0.00000000000E+00  0.00000000000E+00 -0.59232411379E+02  0.11019990849E+04  0.11004060635E+04 0.  0.
        5    1    3    3  502    0 -0.99012858950E+02  0.41564623194E+03 -0.37672430876E+03  0.56965659056E+03  0.46999998093E+01 0.  1.
       -5    1    3    3    0  502  0.99012858950E+02 -0.41564623194E+03  0.31749189738E+03  0.53234249432E+03  0.46999998093E+01 0. -1.
</event>
<event>
 5   0  0.2448804E-04  0.2129575E+04  0.7818609E-02  0.8548326E-01
       -2   -1    0    0    0  501  0.00000000000E+00  0.00000000000E+00  0.82508000124E+03  0.82508000125E+03  0.25500000920E-02 0.  1.
        2   -1    0    0  501    0  0.00000000000E+00  0.00000000000E+00 -0.13741364979E+04  0.13741364979E+04  0.25500000920E-02 0. -1.
    10030    2    1    2    0    0  0.00000000000E+00  0.00000000000E+00 -0.54905649667E+03  0.21992164992E+04  0.21295751158E+04 0.  0.
        2    1    3    3  502    0 -0.10257512508E+04  0.27476183174E+03 -0.35526976767E+03  0.11197661812E+04  0.25500000920E-02 0.  1.
       -2    1    3    3    0  502  0.10257512508E+04 -0.27476183174E+03 -0.19378672899E+03  0.10794503180E+04  0.25500000920E-02 0. -1.
</event>
<event>
 5   0  0.1156733E-04  0.2175624E+04  0.7818609E-02  0.8528643E-01
       -1   -1    0    0    0  501  0.00000000000E+00  0.00000000000E+00  0.11325091470E+04  0.11325091470E+04  0.50400001928E-02 0.  1.
        1   -1    0    0  501    0  0.00000000000E+00  0.00000000000E+00 -0.10448793957E+04  0.10448793957E+04  0.50400001928E-02 0. -1.
    10030    2    1    2    0    0  0.00000000000E+00  0.00000000000E+00  0.87629751299E+02  0.21773885427E+04  0.21756244833E+04 0.  0.
        2    1    3    3  502    0 -0.27286034641E+03 -0.83221669147E+03 -0.60191993810E+03  0.10627064515E+04  0.25500000920E-02 0. -1.
       -2    1    3    3    0  502  0.27286034641E+03  0.83221669147E+03  0.68954968940E+03  0.11146820912E+04  0.25500000920E-02 0.  1.
</event>
<event>
 5   0  0.2579241E-04  0.2222894E+04  0.7818609E-02  0.8508959E-01
        2   -1    0    0  501    0  0.00000000000E+00  0.00000000000E+00  0.19709950201E+04  0.19709950201E+04  0.25500000920E-02 0.  1.
       -2   -1    0    0    0  501  0.00000000000E+00  0.00000000000E+00 -0.62674683922E+03  0.62674683922E+03  0.25500000920E-02 0. -1.
    10030    2    1    2    0    0  0.00000000000E+00  0.00000000000E+00  0.13442481808E+04  0.25977418593E+04  0.22228944185E+04 0.  0.
        5    1    3    3  502    0  0.95750840971E+03 -0.89408630834E+01  0.13315366550E+04  0.16400958043E+04  0.46999998093E+01 0.  1.
       -5    1    3    3    0  502 -0.95750840971E+03  0.89408630834E+01  0.12711525827E+02  0.95764605497E+03  0.46999998093E+01 0. -1.
</event>
<event>
 5   0  0.1122711E-04  0.1947969E+04  0.7818609E-02  0.8631341E-01
       -1   -1    0    0    0  501  0.00000000000E+00  0.00000000000E+00  0.47937274410E+03  0.47937274413E+03  0.50400001928E-02 0.  1.
        1   -1    0    0  501    0  0.00000000000E+00  0.00000000000E+00 -0.19789319931E+04  0.19789319931E+04  0.50400001928E-02 0. -1.
    10030    2    1    2    0    0  0.00000000000E+00  0.00000000000E+00 -0.14995592490E+04  0.24583047372E+04  0.19479692605E+04 0.  0.
        1    1    3    3  502    0 -0.52282290998E+03 -0.31199611422E+03  0.20962712400E+03  0.64391684372E+03  0.50400001928E-02 0.  1.
       -1    1    3    3    0  502  0.52282290998E+03  0.31199611422E+03 -0.17091863730E+04  0.18143878935E+04  0.50400001928E-02 0. -1.
</event>
<event>
 5   0  0.2512839E-04  0.2093189E+04  0.7818609E-02  0.8564250E-01
        2   -1    0    0  501    0  0.00000000000E+00  0.00000000000E+00  0.15892178579E+04  0.15892178579E+04  0.25500000920E-02 0. -1.
       -2   -1    0    0    0  501  0.00000000000E+00  0.00000000000E+00 -0.68924475924E+03  0.68924475924E+03  0.25500000920E-02 0.  1.
    10030    2    1    2    0    0  0.00000000000E+00  0.00000000000E+00  0.89997309862E+03  0.22784626171E+04  0.20931890309E+04 0.  0.
        3    1    3    3  502    0 -0.91908723289E+03 -0.46432663311E+03  0.65374350489E+03  0.12197135501E+04  0.10100000352E+00 0. -1.
       -3    1    3    3    0  502  0.91908723289E+03  0.46432663311E+03  0.24622959373E+03  0.10587490670E+04  0.10100000352E+00 0.  1.
</event>
<event>
 5   0  0.2579241E-04  0.2103730E+04  0.7818609E-02  0.8559602E-01
        2   -1    0    0  501    0  0.00000000000E+00  0.00000000000E+00  0.12009840344E+04  0.12009840344E+04  0.25500000920E-02 0. -1.
       -2   -1    0    0    0  501  0.00000000000E+00  0.00000000000E+00 -0.92126142833E+03  0.92126142833E+03  0.25500000920E-02 0.  1.
    10030    2    1    2    0    0  0.00000000000E+00  0.00000000000E+00  0.27972260603E+03  0.21222454627E+04  0.21037302744E+04 0.  0.
        5    1    3    3  502    0  0.68459343897E+03  0.17728769242E+03 -0.64564379766E+03  0.95758921570E+03  0.46999998093E+01 0.  1.
       -5    1    3    3    0  502 -0.68459343897E+03 -0.17728769242E+03  0.92536640369E+03  0.11646562470E+04  0.46999998093E+01 0. -1.
</event>
<event>
 5   0  0.2579241E-04  0.2144843E+04  0.7818609E-02  0.8541743E-01
       -2   -1    0    0    0  501  0.00000000000E+00  0.00000000000E+00  0.86783311336E+03  0.86783311336E+03  0.25500000920E-02 0. -1.
        2   -1    0    0  501    0  0.00000000000E+00  0.00000000000E+00 -0.13252408766E+04  0.13252408766E+04  0.25500000920E-02 0.  1.
    10030    2    1    2    0    0  0.00000000000E+00  0.00000000000E+00 -0.45740776326E+03  0.21930739900E+04  0.21448430394E+04 0.  0.
        5    1    3    3  502    0  0.68319938428E+02 -0.25889774655E+03  0.83309362464E+03  0.87507870193E+03  0.46999998093E+01 0. -1.
       -5    1    3    3    0  502 -0.68319938428E+02  0.25889774655E+03 -0.12905013879E+04  0.13179952881E+04  0.46999998093E+01 0.  1.
</event>
<event>
 5   0  0.2512839E-04  0.2094748E+04  0.7818609E-02  0.8563561E-01
       -2   -1    0    0    0  501  0.00000000000E+00  0.00000000000E+00  0.43807760322E+03  0.43807760323E+03  0.25500000920E-02 0.  1.
        2   -1    0    0  501    0  0.00000000000E+00  0.00000000000E+00 -0.25041045273E+04  0.25041045273E+04  0.25500000920E-02 0. -1.
    10030    2    1    2    0    0  0.00000000000E+00  0.00000000000E+00 -0.20660269241E+04  0.29421821306E+04  0.20947478221E+04 0.  0.
        3    1    3    3  502    0 -0.61881049724E+03  0.79046001371E+03 -0.61343395901E+03  0.11764585403E+04  0.10100000352E+00 0.  1.
       -3    1    3    3    0  502  0.61881049724E+03 -0.79046001371E+03 -0.14525929651E+04  0.17657235903E+04  0.10100000352E+00 0. -1.
</event>
<event>
 5   0  0.1122711E-04  0.2055987E+04  0.7818609E-02  0.8580883E-01
       -1   -1    0    0    0  501  0.00000000000E+00  0.00000000000E+00  0.95297026288E+03  0.95297026289E+03  0.50400001928E-02 0.  1.
        1   -1    0    0  501    0  0.00000000000E+00  0.00000000000E+00 -0.11089227070E+04  0.11089227070E+04  0.50400001928E-02 0. -1.
    10030    2    1    2    0    0  0.00000000000E+00  0.00000000000E+00 -0.15595244415E+03  0.20618929699E+04  0.20559867350E+04 0.  0.
        1    1    3    3  502    0  0.79629350785E+03 -0.48357782600E+03  0.35782879895E+03  0.99798412504E+03  0.50400001928E-02 0.  1.
       -1    1    3    3    0  502 -0.79629350785E+03  0.48357782600E+03 -0.51378124309E+03  0.10639088449E+04  0.50400001928E-02 0. -1.
</event>
<event>
 5   0  0.1186038E-04  0.2045599E+04  0.7818609E-02  0.8585593E-01
        1   -1    0    0  501    0  0.00000000000E+00  0.00000000000E+00  0.22675247766E+04  0.22675247766E+04  0.50400001928E-02 0.  1.
       -1   -1    0    0    0  501  0.00000000000E+00  0.00000000000E+00 -0.46134852250E+03  0.46134852253E+03  0.50400001928E-02 0. -1.
    10030    2    1    2    0    0  0.00000000000E+00  0.00000000000E+00  0.18061762541E+04  0.27288732992E+04  0.20455993796E+04 0.  0.
        4    1    3    3  502    0  0.95695382360E+03 -0.75118270537E+02  0.13741964444E+04  0.16762520263E+04  0.12699999809E+01 0.  1.
       -4    1    3    3    0  502 -0.95695382360E+03  0.75118270537E+02  0.43197980970E+03  0.10526212728E+04  0.12699999809E+01 0. -1.
</event>
<event>
 5   0  0.1130848E-04  0.1956218E+04  0.7818609E-02  0.8627368E-01
        1   -1    0    0  501    0  0.00000000000E+00  0.00000000000E+00  0.86731298466E+03  0.86731298467E+03  0.50400001928E-02 0.  1.
       -1   -1    0    0    0  501  0.00000000000E+00  0.00000000000E+00 -0.11030589496E+04  0.11030589496E+04  0.50400001928E-02 0. -1.
    10030    2    1    2    0    0  0.00000000000E+00  0.00000000000E+00 -0.23574596498E+03  0.19703719343E+04  0.19562181370E+04 0.  0.
        5    1    3    3  502    0  0.25378230740E+03 -0.16347976507E+03  0.81920460036E+03  0.87306893221E+03  0.46999998093E+01 0.  1.
       -5    1    3    3    0  502 -0.25378230740E+03  0.16347976507E+03 -0.10549505653E+04  0.10973030021E+04  0.46999998093E+01 0. -1.
</event>
<event>
 5   0  0.2448804E-04  0.1941894E+04  0.7818609E-02  0.8634279E-01
       -2   -1    0    0    0  501  0.00000000000E+00  0.00000000000E+00  0.90107344185E+03  0.90107344185E+03  0.25500000920E-02 0.  1.
        2   -1    0    0  501    0  0.00000000000E+00  0.00000000000E+00 -0.10462392479E+04  0.10462392479E+04  0.25500000920E-02 0. -1.
    10030    2    1    2    0    0  0.00000000000E+00  0.00000000000E+00 -0.14516580602E+03  0.19473126897E+04  0.19418943329E+04 0.  0.
        2    1    3    3  502    0 -0.63383424417E+03 -0.41231435537E+03 -0.68337142029E+03  0.10191886355E+04  0.25500000920E-02 0. -1.
       -2    1    3    3    0  502  0.63383424417E+03  0.41231435537E+03  0.53820561427E+03  0.92812405419E+03  0.25500000920E-02 0.  1.
</event>
<event>
 5   0  0.1042395E-04  0.1940535E+04  0.7818609E-02  0.8634939E-01
       -1   -1    0    0    0  501  0.00000000000E+00  0.00000000000E+00  0.12360392597E+04  0.12360392598E+04  0.50400001928E-02 0.  1.
        1   -1    0    0  501    0  0.00000000000E+00  0.00000000000E+00 -0.76164155269E+03  0.76164155271E+03  0.50400001928E-02 0. -1.
    10030    2    1    2    0    0  0.00000000000E+00  0.00000000000E+00  0.47439770706E+03  0.19976808125E+04  0.19405348345E+04 0.  0.
        3    1    3    3  502    0 -0.72270952081E+03  0.57853895656E+03 -0.61877616637E+02  0.92781745262E+03  0.10100000352E+00 0.  1.
       -3    1    3    3    0  502  0.72270952081E+03 -0.57853895656E+03  0.53627532369E+03  0.10698633598E+04  0.10100000352E+00 0. -1.
</event>
<event>
 5   0  0.1186038E-04  0.1912376E+04  0.7818609E-02  0.8648721E-01
       -1   -1    0    0    0  501  0.00000000000E+00  0.00000000000E+00  0.10854887618E+04  0.10854887618E+04  0.50400001928E-02 0. -1.
        1   -1    0    0  501    0  0.00000000000E+00  0.00000000000E+00 -0.84228885234E+03  0.84228885236E+03  0.50400001928E-02 0.  1.
    10030    2    1    2    0    0  0.00000000000E+00  0.00000000000E+00  0.24319990946E+03  0.19277776142E+04  0.19123755734E+04 0.  0.
        4    1    3    3  502    0 -0.10696783531E+03 -0.63485990027E+03  0.83426215049E+03  0.10537951221E+04  0.12699999809E+01 0.  1.
       -4    1    3    3    0  502  0.10696783531E+03  0.63485990027E+03 -0.59106224103E+03  0.87398249206E+03  0.12699999809E+01 0. -1.
</event>
<event>
 5   0  0.2467483E-04  0.2103127E+04  0.7818609E-02  0.8559867E-01
       -2   -1    0    0    0  501  0.00000000000E+00  0.00000000000E+00  0.14502517869E+04  0.14502517869E+04  0.25500000920E-02 0.  1.
        2   -1    0    0  501    0  0.00000000000E+00  0.00000000000E+00 -0.76247866293E+03  0.76247866293E+03  0.25500000920E-02 0. -1.
    10030    2    1    2    0    0  0.00000000000E+00  0.00000000000E+00  0.68777312393E+03  0.22127304498E+04  0.21031272366E+04 0.  0.
        4    1    3    3  502    0  0.64356662667E+03 -0.81653878660E+03  0.17796295915E+03  0.10547919324E+04  0.12699999809E+01 0. -1.
       -4    1    3    3    0  502 -0.64356662667E+03  0.81653878660E+03  0.50981016479E+03  0.11579385174E+04  0.12699999809E+01 0.  1.
</event>
<event>
 5   0  0.1186038E-04  0.2053421E+04  0.7818609E-02  0.8582044E-01
       -1   -1    0    0    0  501  0.00000000000E+00  0.00000000000E+00  0.79699643484E+03  0.79699643485E+03  0.50400001928E-02 0.  1.
        1   -1    0    0  501    0  0.00000000000E+00  0.00000000000E+00 -0.13226334941E+04  0.13226334941E+04  0.50400001928E-02 0. -1.
    10030    2    1    2    0    0  0.00000000000E+00  0.00000000000E+00 -0.52563705927E+03  0.21196299290E+04  0.20534207357E+04 0.  0.
        4    1    3    3  502    0  0.61695699229E+03 -0.69470267013E+03  0.18817240763E+03  0.94797584258E+03  0.12699999809E+01 0.  1.
       -4    1    3    3    0  502 -0.61695699229E+03  0.69470267013E+03 -0.71380946690E+03  0.11716540864E+04  0.12699999809E+01 0. -1.
</event>
<event>
 5   0  0.1186038E-04  0.2081931E+04  0.7818609E-02  0.8569245E-01
       -1   -1    0    0    0  501  0.00000000000E+00  0.00000000000E+00  0.81659060200E+03  0.81659060201E+03  0.50400001928E-02 0.  1.
        1   -1    0    0  501    0  0.00000000000E+00  0.00000000000E+00 -0.13269926011E+04  0.13269926011E+04  0.50400001928E-02 0. -1.
    10030    2    1    2    0    0  0.00000000000E+00  0.00000000000E+00 -0.51040199912E+03  0.21435832031E+04  0.20819314946E+04 0.  0.
        4    1    3    3  502    0  0.61084175901E+02  0.10210178960E+04 -0.45431664153E+03  0.11192024143E+04  0.12699999809E+01 0. -1.
       -4    1    3    3    0  502 -0.61084175901E+02 -0.10210178960E+04 -0.56085357593E+02  0.10243807889E+04  0.12699999809E+01 0.  1.
</event>
<event>
 5   0  0.1122711E-04  0.1996348E+04  0.7818609E-02  0.8608330E-01
        1   -1    0    0  501    0  0.00000000000E+00  0.00000000000E+00  0.11329666562E+04  0.11329666562E+04  0.50400001928E-02 0.  1.
       -1   -1    0    0    0  501  0.00000000000E+00  0.00000000000E+00 -0.87941799012E+03  0.87941799013E+03  0.50400001928E-02 0. -1.
    10030    2    1    2    0    0  0.00000000000E+00  0.00000000000E+00  0.25354866606E+03  0.20123846463E+04  0.19963479253E+04 0.  0.
        1    1    3    3  502    0 -0.18790035175E+03  0.93605804888E+02  0.11104630795E+04  0.11301313375E+04  0.50400001928E-02 0.  1.
       -1    1    3    3    0  502  0.18790035175E+03 -0.93605804888E+02 -0.85691441349E+03  0.88225330884E+03  0.50400001928E-02 0. -1.
</event>
<event>
 5   0  0.2430898E-04  0.1682066E+04  0.7818609E-02  0.8771659E-01
        2   -1    0    0  501    0  0.00000000000E+00  0.00000000000E+00  0.12679882211E+04  0.12679882211E+04  0.25500000920E-02 0. -1.
       -2   -1    0    0    0  501  0.00000000000E+00  0.00000000000E+00 -0.55784143249E+03  0.55784143250E+03  0.25500000920E-02 0.  1.
    10030    2    1    2    0    0  0.00000000000E+00  0.00000000000E+00  0.71014678862E+03  0.18258296536E+04  0.16820658318E+04 0.  0.
        1    1    3    3  502    0 -0.29178830087E+02 -0.30857075513E+03  0.12037328823E+04  0.12429964469E+04  0.50400001928E-02 0. -1.
       -1    1    3    3    0  502  0.29178830087E+02  0.30857075513E+03 -0.49358609364E+03  0.58283320676E+03  0.50400001928E-02 0.  1.
</event>
<event>
 5   0  0.1042395E-04  0.2070358E+04  0.7818609E-02  0.8574414E-01
       -1   -1    0    0    0  501  0.00000000000E+00  0.00000000000E+00  0.92436052968E+03  0.92436052969E+03  0.50400001928E-02 0.  1.
        1   -1    0    0  501    0  0.00000000000E+00  0.00000000000E+00 -0.11592835665E+04  0.11592835665E+04  0.50400001928E-02 0. -1.
    10030    2    1    2    0    0  0.00000000000E+00  0.00000000000E+00 -0.23492303677E+03  0.20836440962E+04  0.20703583956E+04 0.  0.
        3    1    3    3  502    0 -0.80760881763E+03 -0.29575909850E+03  0.46233476662E+03  0.97645219714E+03  0.10100000352E+00 0.  1.
       -3    1    3    3    0  502  0.80760881763E+03  0.29575909850E+03 -0.69725780340E+03  0.11071918990E+04  0.10100000352E+00 0. -1.
</event>
<event>
 5   0  0.2448804E-04  0.2209287E+04  0.7818609E-02  0.8514573E-01
       -2   -1    0    0    0  501  0.00000000000E+00  0.00000000000E+00  0.66137830260E+03  0.66137830260E+03  0.25500000920E-02 0. -1.
        2   -1    0    0  501    0  0.00000000000E+00  0.00000000000E+00 -0.18449910434E+04  0.18449910434E+04  0.25500000920E-02 0.  1.
    10030    2    1    2    0    0  0.00000000000E+00  0.00000000000E+00 -0.11836127408E+04  0.25063693460E+04  0.22092868031E+04 0.  0.
        2    1    3    3  502    0  0.13794045770E+03 -0.10130459486E+04 -0.10663178180E+04  0.14772688831E+04  0.25500000920E-02 0.  1.
       -2    1    3    3    0  502 -0.13794045770E+03  0.10130459486E+04 -0.11729492281E+03  0.10291004629E+04  0.25500000920E-02 0. -1.
</event>
<event>
 5   0  0.2512839E-04  0.1661549E+04  0.7818609E-02  0.8783604E-01
       -2   -1    0    0    0  501  0.00000000000E+00  0.00000000000E+00  0.35856013338E+03  0.35856013339E+03  0.25500000920E-02 0.  1.
        2   -1    0    0  501    0  0.00000000000E+00  0.00000000000E+00 -0.19248823419E+04  0.19248823419E+04  0.25500000920E-02 0. -1.
    10030    2    1    2    0    0  0.00000000000E+00  0.00000000000E+00 -0.15663222085E+04  0.22834424752E+04  0.16615487585E+04 0.  0.
        3    1    3    3  502    0 -0.63722155822E+03 -0.13059016773E+03 -0.72932035363E+02  0.65454121196E+03  0.10100000352E+00 0.  1.
       -3    1    3    3    0  502  0.63722155822E+03  0.13059016773E+03 -0.14933901731E+04  0.16289012633E+04  0.10100000352E+00 0. -1.
</event>
<event>
 5   0  0.8698750E-05  0.2122621E+04  0.7818609E-02  0.8551344E-01
       -3   -1    0    0    0  501  0.00000000000E+00  0.00000000000E+00  0.10286622250E+04  0.10286622300E+04  0.10100000352E+00 0. -1.
        3   -1    0    0  501    0  0.00000000000E+00  0.00000000000E+00 -0.10949949202E+04  0.10949949248E+04  0.10100000352E+00 0.  1.
    10030    2    1    2    0    0  0.00000000000E+00  0.00000000000E+00 -0.66332695179E+02  0.21236571548E+04  0.21226209470E+04 0.  0.
        5    1    3    3  502    0 -0.10112302655E+04 -0.30171272893E+03 -0.14609576273E+03  0.10653559417E+04  0.46999998093E+01 0.  1.
       -5    1    3    3    0  502  0.10112302655E+04  0.30171272893E+03  0.79763067548E+02  0.10583012131E+04  0.46999998093E+01 0. -1.
</event>
<event>
 5   0  0.1130848E-04  0.2073565E+04  0.7818609E-02  0.8572979E-01
       -1   -1    0    0    0  501  0.00000000000E+00  0.00000000000E+00  0.96277393717E+03  0.96277393718E+03  0.50400001928E-02 0. -1.
        1   -1    0    0  501    0  0.00000000000E+00  0.00000000000E+00 -0.11164796167E+04  0.11164796167E+04  0.50400001928E-02 0.  1.
    10030    2    1    2    0    0  0.00000000000E+00  0.00000000000E+00 -0.15370567949E+03  0.20792535539E+04  0.20735645409E+04 0.  0.
        5    1    3    3  502    0  0.41448730190E+03 -0.36265844383E+03 -0.95765593558E+03  0.11047388159E+04  0.46999998093E+01 0.  1.
       -5    1    3    3    0  502 -0.41448730190E+03  0.36265844383E+03  0.80395025608E+03  0.97451473800E+03  0.46999998093E+01 0. -1.
</event>
<event>
 5   0  0.2467483E-04  0.2149223E+04  0.7818609E-02  0.8539865E-01
        2   -1    0    0  501    0  0.00000000000E+00  0.00000000000E+00  0.14491154837E+04  0.14491154837E+04  0.25500000920E-02 0. -1.
       -2   -1    0    0    0  501  0.00000000000E+00  0.00000000000E+00 -0.79689314226E+03  0.79689314226E+03  0.25500000920E-02 0.  1.
    10030    2    1    2    0    0  0.00000000000E+00  0.00000000000E+00  0.65222234141E+03  0.22460086259E+04  0.21492232935E+04 0.  0.
        4    1    3    3  502    0 -0.18429765762E+03 -0.10662173294E+03  0.14268509954E+04  0.14426500603E+04  0.12699999809E+01 0. -1.
       -4    1    3    3    0  502  0.18429765762E+03  0.10662173294E+03 -0.77462865397E+03  0.80335856564E+03  0.12699999809E+01 0.  1.
</event>
<event>
 5   0  0.2467483E-04  0.2006467E+04  0.7818609E-02  0.8603603E-01
        2   -1    0    0  501    0  0.00000000000E+00  0.00000000000E+00  0.11760295103E+04  0.11760295103E+04  0.25500000920E-02 0.  1.
       -2   -1    0    0    0  501  0.00000000000E+00  0.00000000000E+00 -0.85582698551E+03  0.85582698552E+03  0.25500000920E-02 0. -1.
    10030    2    1    2    0    0  0.00000000000E+00  0.00000000000E+00  0.32020252480E+03  0.20318564958E+04  0.20064673341E+04 0.  0.
        4    1    3    3  502    0  0.46979832390E+03 -0.33995653922E+03  0.98911478627E+03  0.11465734111E+04  0.12699999809E+01 0.  1.
       -4    1    3    3    0  502 -0.46979832390E+03  0.33995653922E+03 -0.66891226147E+03  0.88528308475E+03  0.12699999809E+01 0. -1.
</event>
<event>
 5   0  0.2448804E-04  0.2147693E+04  0.7818609E-02  0.8540520E-01
        2   -1    0    0  501    0  0.00000000000E+00  0.00000000000E+00  0.40284058720E+03  0.40284058720E+03  0.25500000920E-02 0. -1.
       -2   -1    0    0    0  501  0.00000000000E+00  0.00000000000E+00 -0.28625369256E+04  0.28625369256E+04  0.25500000920E-02 0.  1.
    10030    2    1    2    0    0  0.00000000000E+00  0.00000000000E+00 -0.24596963384E+04  0.32653775128E+04  0.21476927676E+04 0.  0.
        2    1    3    3  502    0  0.96100036217E+03  0.31345670408E+03 -0.17809198719E+04  0.20477920772E+04  0.25500000920E-02 0. -1.
       -2    1    3    3    0  502 -0.96100036217E+03 -0.31345670408E+03 -0.67877646650E+03  0.12175854356E+04  0.25500000920E-02 0.  1.
</event>
<event>
 5   0  0.1130848E-04  0.2121716E+04  0.7818609E-02  0.8551737E-01
       -1   -1    0    0    0  501  0.00000000000E+00  0.00000000000E+00  0.26817667770E+04  0.26817667770E+04  0.50400001928E-02 0. -1.
        1   -1    0    0  501    0  0.00000000000E+00  0.00000000000E+00 -0.41965602997E+03  0.41965603000E+03  0.50400001928E-02 0.  1.
    10030    2    1    2    0    0  0.00000000000E+00  0.00000000000E+00  0.22621107471E+04  0.31014228070E+04  0.21217159084E+04 0.  0.
        5    1    3    3  502    0  0.65951848555E+03  0.82631539670E+03  0.10033234803E+04  0.14575465220E+04  0.46999998093E+01 0.  1.
       -5    1    3    3    0  502 -0.65951848555E+03 -0.82631539670E+03  0.12587872668E+04  0.16438762851E+04  0.46999998093E+01 0. -1.
</event>
<event>
 5   0  0.2512839E-04  0.2122649E+04  0.7818609E-02  0.8551331E-01
       -2   -1    0    0    0  501  0.00000000000E+00  0.00000000000E+00  0.95521347358E+03  0.95521347358E+03  0.25500000920E-02 0. -1.
        2   -1    0    0  501    0  0.00000000000E+00  0.00000000000E+00 -0.11792232525E+04  0.11792232525E+04  0.25500000920E-02 0.  1.
    10030    2    1    2    0    0  0.00000000000E+00  0.00000000000E+00 -0.22400977893E+03  0.21344367261E+04  0.21226492307E+04 0.  0.
        3    1    3    3  502    0  0.33878380847E+03 -0.66398209107E+03  0.64767923485E+03  0.98748928480E+03  0.10100000352E+00 0. -1.
       -3    1    3    3    0  502 -0.33878380847E+03  0.66398209107E+03 -0.87168901378E+03  0.11469474413E+04  0.10100000352E+00 0.  1.
</event>
<event>
 5   0  0.8698750E-05  0.2126976E+04  0.7818609E-02  0.8549453E-01
        3   -1    0    0  501    0  0.00000000000E+00  0.00000000000E+00  0.68690860175E+03  0.68690860918E+03  0.10100000352E+00 0.  1.
       -3   -1    0    0    0  501  0.00000000000E+00  0.00000000000E+00 -0.16465164951E+04  0.16465164982E+04  0.10100000352E+00 0. -1.
    10030    2    1    2    0    0  0.00000000000E+00  0.00000000000E+00 -0.95960789337E+03  0.23334251074E+04  0.21269756517E+04 0.  0.
        4    1    3    3  502    0 -0.71536068300E+03  0.11093998825E+02 -0.13430329941E+04  0.15217106229E+04  0.12699999809E+01 0.  1.
       -4    1    3    3    0  502  0.71536068300E+03 -0.11093998825E+02  0.38342510075E+03  0.81171448452E+03  0.12699999809E+01 0. -1.
</event>
<event>
 5   0  0.1042395E-04  0.2089303E+04  0.7818609E-02  0.8565970E-01
        1   -1    0    0  501    0  0.00000000000E+00  0.00000000000E+00  0.11364761491E+04  0.11364761491E+04  0.50400001928E-02 0.  1.
       -1   -1    0    0    0  501  0.00000000000E+00  0.00000000000E+00 -0.96024609704E+03  0.96024609705E+03  0.50400001928E-02 0. -1.
    10030    2    1    2    0    0  0.00000000000E+00  0.00000000000E+00  0.17623005209E+03  0.20967222462E+04  0.20893030289E+04 0.  0.
        3    1    3    3  502    0 -0.35964051264E+03 -0.97834706770E+03  0.18641359164E+02  0.10425218433E+04  0.10100000352E+00 0. -1.
       -3    1    3    3    0  502  0.35964051264E+03  0.97834706770E+03  0.15758869293E+03  0.10542004029E+04  0.10100000352E+00 0.  1.
</event>
<event>
 5   0  0.8698750E-05  0.2089136E+04  0.7818609E-02  0.8566044E-01
       -3   -1    0    0    0  501  0.00000000000E+00  0.00000000000E+00  0.13838320637E+04  0.13838320674E+04  0.10100000352E+00 0.  1.
        3   -1    0    0  501    0  0.00000000000E+00  0.00000000000E+00 -0.78847846094E+03  0.78847846741E+03  0.10100000352E+00 0. -1.
    10030    2    1    2    0    0  0.00000000000E+00  0.00000000000E+00  0.59535360272E+03  0.21723105348E+04  0.20891355024E+04 0.  0.
        1    1    3    3  502    0  0.29267166391E+03 -0.38570088958E+03 -0.66475432213E+03  0.82238688456E+03  0.50400001928E-02 0. -1.
       -1    1    3    3    0  502 -0.29267166391E+03  0.38570088958E+03  0.12601079249E+04  0.13499236502E+04  0.50400001928E-02 0.  1.
</event>
<event>
 5   0  0.2467483E-04  0.2095681E+04  0.7818609E-02  0.8563148E-01
        2   -1    0    0  501    0  0.00000000000E+00  0.00000000000E+00  0.10523896194E+04  0.10523896194E+04  0.25500000920E-02 0. -1.
       -2   -1    0    0    0  501  0.00000000000E+00  0.00000000000E+00 -0.10433114924E+04  0.10433114924E+04  0.25500000920E-02 0.  1.
    10030    2    1    2    0    0  0.00000000000E+00  0.00000000000E+00  0.90781269310E+01  0.20957011118E+04  0.20956814495E+04 0.  0.
        4    1    3    3  502    0  0.45834718601E+03 -0.63399338994E+03  0.70163871819E+03  0.10508702418E+04  0.12699999809E+01 0. -1.
       -4    1    3    3    0  502 -0.45834718601E+03  0.63399338994E+03 -0.69256059126E+03  0.10448308700E+04  0.12699999809E+01 0.  1.
</event>
<event>
 5   0  0.1186038E-04  0.2101278E+04  0.7818609E-02  0.8560681E-01
       -1   -1    0    0    0  501  0.00000000000E+00  0.00000000000E+00  0.90957071032E+03  0.90957071034E+03  0.50400001928E-02 0.  1.
        1   -1    0    0  501    0  0.00000000000E+00  0.00000000000E+00 -0.12135861935E+04  0.12135861935E+04  0.50400001928E-02 0. -1.
    10030    2    1    2    0    0  0.00000000000E+00  0.00000000000E+00 -0.30401548316E+03  0.21231569038E+04  0.21012781406E+04 0.  0.
        4    1    3    3  502    0  0.46156091145E+02 -0.83718469600E+03  0.48769744546E+03  0.96997887151E+03  0.12699999809E+01 0.  1.
       -4    1    3    3    0  502 -0.46156091145E+02  0.83718469600E+03 -0.79171292863E+03  0.11531780323E+04  0.12699999809E+01 0. -1.
</event>
<event>
 5   0  0.1042395E-04  0.2078191E+04  0.7818609E-02  0.8570912E-01
        1   -1    0    0  501    0  0.00000000000E+00  0.00000000000E+00  0.10221182495E+04  0.10221182495E+04  0.50400001928E-02 0.  1.
       -1   -1    0    0    0  501  0.00000000000E+00  0.00000000000E+00 -0.10563549269E+04  0.10563549269E+04  0.50400001928E-02 0. -1.
    10030    2    1    2    0    0  0.00000000000E+00  0.00000000000E+00 -0.34236677434E+02  0.20784731764E+04  0.20781911834E+04 0.  0.
        3    1    3    3  502    0  0.45492156333E+03 -0.21442180586E+03 -0.92652126963E+03  0.10542163027E+04  0.10100000352E+00 0. -1.
       -3    1    3    3    0  502 -0.45492156333E+03  0.21442180586E+03  0.89228459220E+03  0.10242568737E+04  0.10100000352E+00 0.  1.
</event>
<event>
 5   0  0.2448804E-04  0.2116149E+04  0.7818609E-02  0.8554163E-01
       -2   -1    0    0    0  501  0.00000000000E+00  0.00000000000E+00  0.15333922094E+04  0.15333922094E+04  0.25500000920E-02 0. -1.
        2   -1    0    0  501    0  0.00000000000E+00  0.00000000000E+00 -0.73009448358E+03  0.73009448358E+03  0.25500000920E-02 0.  1.
    10030    2    1    2    0    0  0.00000000000E+00  0.00000000000E+00  0.80329772586E+03  0.22634866930E+04  0.21161485707E+04 0.  0.
        2    1    3    3  502    0 -0.99003140408E+01 -0.51453336231E+03 -0.58720748135E+03  0.78080421574E+03  0.25500000920E-02 0.  1.
       -2    1    3    3    0  502  0.99003140408E+01  0.51453336231E+03  0.13905052072E+04  0.14826824773E+04  0.25500000920E-02 0. -1.
</event>
<event>
 5   0  0.1042395E-04  0.1992522E+04  0.7818609E-02  0.8610125E-01
       -1   -1    0    0    0  501  0.00000000000E+00  0.00000000000E+00  0.13830196610E+04  0.13830196610E+04  0.50400001928E-02 0. -1.
        1   -1    0    0  501    0  0.00000000000E+00  0.00000000000E+00 -0.71765870288E+03  0.71765870290E+03  0.50400001928E-02 0.  1.
    10030    2    1    2    0    0  0.00000000000E+00  0.00000000000E+00  0.66536095813E+03  0.21006783639E+04  0.19925221163E+04 0.  0.
        3    1    3    3  502    0 -0.11803305569E+03 -0.49211846347E+03 -0.57205222759E+03  0.76377754983E+03  0.10100000352E+00 0.  1.
       -3    1    3    3    0  502  0.11803305569E+03  0.49211846347E+03  0.12374131857E+04  0.13369008141E+04  0.10100000352E+00 0. -1.
</event>
<event>
 5   0  0.2467483E-04  0.2109781E+04  0.7818609E-02  0.8556947E-01
       -2   -1    0    0    0  501  0.00000000000E+00  0.00000000000E+00  0.47684233409E+03  0.47684233409E+03  0.25500000920E-02 0.  1.
        2   -1    0    0  501    0  0.00000000000E+00  0.00000000000E+00 -0.23336729233E+04  0.23336729233E+04  0.25500000920E-02 0. -1.
    10030    2    1    2    0    0  0.00000000000E+00  0.00000000000E+00 -0.18568305892E+04  0.28105152574E+04  0.21097810728E+04 0.  0.
        4    1    3    3  502    0  0.79050742659E+03 -0.21325046769E+03 -0.18144756768E+04  0.19906534977E+04  0.12699999809E+01 0. -1.
       -4    1    3    3    0  502 -0.79050742659E+03  0.21325046769E+03 -0.42354912421E+02  0.81986175967E+03  0.12699999809E+01 0.  1.
</event>
<event>
 5   0  0.2430898E-04  0.2099094E+04  0.7818609E-02  0.8561643E-01
        2   -1    0    0  501    0  0.00000000000E+00  0.00000000000E+00  0.22757405038E+04  0.22757405038E+04  0.25500000920E-02 0.  1.
       -2   -1    0    0    0  501  0.00000000000E+00  0.00000000000E+00 -0.48403974364E+03  0.48403974365E+03  0.25500000920E-02 0. -1.
    10030    2    1    2    0    0  0.00000000000E+00  0.00000000000E+00  0.17917007602E+04  0.27597802475E+04  0.20990939475E+04 0.  0.
        1    1    3    3  502    0 -0.52190827048E+03  0.47549207537E+03 -0.12514959030E+03  0.71703791846E+03  0.50400001928E-02 0. -1.
       -1    1    3    3    0  502  0.52190827048E+03 -0.47549207537E+03  0.19168503505E+04  0.20427423290E+04  0.50400001928E-02 0.  1.
</event>
<event>
 5   0  0.2512839E-04  0.2077382E+04  0.7818609E-02  0.8571273E-01
       -2   -1    0    0    0  501  0.00000000000E+00  0.00000000000E+00  0.10279997195E+04  0.10279997195E+04  0.25500000920E-02 0.  1.
        2   -1    0    0  501    0  0.00000000000E+00  0.00000000000E+00 -0.10494939680E+04  0.10494939680E+04  0.25500000920E-02 0. -1.
    10030    2    1    2    0    0  0.00000000000E+00  0.00000000000E+00 -0.21494248507E+02  0.20774936874E+04  0.20773824921E+04 0.  0.
        3    1    3    3  502    0 -0.71077879486E+03 -0.54462358917E+00  0.74670526223E+03  0.10309100594E+04  0.10100000352E+00 0.  1.
       -3    1    3    3    0  502  0.71077879486E+03  0.54462358917E+00 -0.76819951074E+03  0.10465836280E+04  0.10100000352E+00 0. -1.
</event>
<event>
 5   0  0.2512839E-04  0.2085643E+04  0.7818609E-02  0.8567594E-01
        2   -1    0    0  501    0  0.00000000000E+00  0.00000000000E+00  0.14674101516E+04  0.14674101516E+04  0.25500000920E-02 0. -1.
       -2   -1    0    0    0  501  0.00000000000E+00  0.00000000000E+00 -0.74108558316E+03  0.74108558316E+03  0.25500000920E-02 0.  1.
    10030    2    1    2    0    0  0.00000000000E+00  0.00000000000E+00  0.72632456840E+03  0.22084957347E+04  0.20856428341E+04 0.  0.
        3    1    3    3  502    0 -0.10289851857E+04  0.15176712608E+03  0.44263460409E+03  0.11303845257E+04  0.10100000352E+00 0. -1.
       -3    1    3    3    0  502  0.10289851857E+04 -0.15176712608E+03  0.28368996431E+03  0.10781112090E+04  0.10100000352E+00 0.  1.
</event>
<event>
 5   0  0.2579241E-04  0.2080603E+04  0.7818609E-02  0.8569836E-01
       -2   -1    0    0    0  501  0.00000000000E+00  0.00000000000E+00  0.63067131452E+03  0.63067131452E+03  0.25500000920E-02 0. -1.
        2   -1    0    0  501    0  0.00000000000E+00  0.00000000000E+00 -0.17159920129E+04  0.17159920129E+04  0.25500000920E-02 0.  1.
    10030    2    1    2    0    0  0.00000000000E+00  0.00000000000E+00 -0.10853206984E+04  0.23466633274E+04  0.20806027381E+04 0.  0.
        5    1    3    3  502    0 -0.10336473866E+04 -0.71613226567E+02 -0.43776494006E+03  0.11248180327E+04  0.46999998093E+01 0. -1.
       -5    1    3    3    0  502  0.10336473866E+04  0.71613226567E+02 -0.64755575830E+03  0.12218452947E+04  0.46999998093E+01 0.  1.
</event>
<event>
 5   0  0.1042395E-04  0.2110124E+04  0.7818609E-02  0.8556797E-01
        1   -1    0    0  501    0  0.00000000000E+00  0.00000000000E+00  0.10913673564E+04  0.10913673564E+04  0.50400001928E-02 0.  1.
       -1   -1    0    0    0  501  0.00000000000E+00  0.00000000000E+00 -0.10199639644E+04  0.10199639644E+04  0.50400001928E-02 0. -1.
    10030    2    1    2    0    0  0.00000000000E+00  0.00000000000E+00  0.71403392020E+02  0.21113313208E+04  0.21101235750E+04 0.  0.
        3    1    3    3  502    0  0.70743343164E+03  0.61828849802E+03 -0.44458620800E+03  0.10394227405E+04  0.10100000352E+00 0. -1.
       -3    1    3    3    0  502 -0.70743343164E+03 -0.61828849802E+03  0.51598960002E+03  0.10719085803E+04  0.10100000352E+00 0.  1.
</event>
<event>
 5   0  0.1186038E-04  0.2150786E+04  0.7818609E-02  0.8539196E-01
        1   -1    0    0  501    0  0.00000000000E+00  0.00000000000E+00  0.15102351938E+04  0.15102351939E+04  0.50400001928E-02 0.  1.
       -1   -1    0    0    0  501  0.00000000000E+00  0.00000000000E+00 -0.76575466702E+03  0.76575466704E+03  0.50400001928E-02 0. -1.
    10030    2    1    2    0    0  0.00000000000E+00  0.00000000000E+00  0.74448052682E+03  0.22759898609E+04  0.21507855756E+04 0.  0.
        4    1    3    3  502    0  0.19900733180E+03 -0.93982739064E+03  0.88368536449E+03  0.13052895765E+04  0.12699999809E+01 0.  1.
       -4    1    3    3    0  502 -0.19900733180E+03  0.93982739064E+03 -0.13920483767E+03  0.97070028435E+03  0.12699999809E+01 0. -1.
</event>
<event>
 5   0  0.2467483E-04  0.2128465E+04  0.7818609E-02  0.8548807E-01
        2   -1    0    0  501    0  0.00000000000E+00  0.00000000000E+00  0.11389892772E+04  0.11389892772E+04  0.25500000920E-02 0. -1.
       -2   -1    0    0    0  501  0.00000000000E+00  0.00000000000E+00 -0.99438208708E+03  0.99438208708E+03  0.25500000920E-02 0.  1.
    10030    2    1    2    0    0  0.00000000000E+00  0.00000000000E+00  0.14460719016E+03  0.21333713643E+04  0.21284647375E+04 0.  0.
        4    1    3    3  502    0 -0.69827351590E+03 -0.14939741733E+03 -0.71861840600E+03  0.10130742903E+04  0.12699999809E+01 0.  1.
       -4    1    3    3    0  502  0.69827351590E+03  0.14939741733E+03  0.86322559616E+03  0.11202970740E+04  0.12699999809E+01 0. -1.
</event>
<event>
 5   0  0.1042395E-04  0.1778341E+04  0.7818609E-02  0.8717903E-01
        1   -1    0    0  501    0  0.00000000000E+00  0.00000000000E+00  0.81316701885E+03  0.81316701886E+03  0.50400001928E-02 0.  1.
       -1   -1    0    0    0  501  0.00000000000E+00  0.00000000000E+00 -0.97227741433E+03  0.97227741435E+03  0.50400001928E-02 0. -1.
    10030    2    1    2    0    0  0.00000000000E+00  0.00000000000E+00 -0.15911039549E+03  0.17854444332E+04  0.17783407171E+04 0.  0.
        3    1    3    3  502    0 -0.18986428705E+03  0.45585066854E+03 -0.82195174579E+03  0.95888109905E+03  0.10100000352E+00 0. -1.
       -3    1    3    3    0  502  0.18986428705E+03 -0.45585066854E+03  0.66284135031E+03  0.82656333416E+03  0.10100000352E+00 0.  1.
</event>
<event>
 5   0  0.1186038E-04  0.2107887E+04  0.7818609E-02  0.8557777E-01
        1   -1    0    0  501    0  0.00000000000E+00  0.00000000000E+00  0.15548639044E+04  0.15548639044E+04  0.50400001928E-02 0. -1.
       -1   -1    0    0    0  501  0.00000000000E+00  0.00000000000E+00 -0.71440136120E+03  0.71440136122E+03  0.50400001928E-02 0.  1.
    10030    2    1    2    0    0  0.00000000000E+00  0.00000000000E+00  0.84046254324E+03  0.22692652657E+04  0.21078869892E+04 0.  0.
        4    1    3    3  502    0  0.36969131087E+03 -0.14594561591E+03  0.14710895984E+04  0.15238366079E+04  0.12699999809E+01 0. -1.
       -4    1    3    3    0  502 -0.36969131087E+03  0.14594561591E+03 -0.63062705519E+03  0.74542865774E+03  0.12699999809E+01 0.  1.
</event>
<event>
 5   0  0.1042395E-04  0.2088513E+04  0.7818609E-02  0.8566321E-01
       -1   -1    0    0    0  501  0.00000000000E+00  0.00000000000E+00  0.91429075683E+03  0.91429075684E+03  0.50400001928E-02 0.  1.
        1   -1    0    0  501    0  0.00000000000E+00  0.00000000000E+00 -0.11926963484E+04  0.11926963484E+04  0.50400001928E-02 0. -1.
    10030    2    1    2    0    0  0.00000000000E+00  0.00000000000E+00 -0.27840559158E+03  0.21069871053E+04  0.20885126258E+04 0.  0.
        3    1    3    3  502    0 -0.47388582448E+03 -0.73361217830E+03  0.43832649509E+03  0.97718203488E+03  0.10100000352E+00 0.  1.
       -3    1    3    3    0  502  0.47388582448E+03  0.73361217830E+03 -0.71673208667E+03  0.11298050704E+04  0.10100000352E+00 0. -1.
</event>
<event>
 5   0  0.1042395E-04  0.1989838E+04  0.7818609E-02  0.8611387E-01
        1   -1    0    0  501    0  0.00000000000E+00  0.00000000000E+00  0.12481141500E+04  0.12481141500E+04  0.50400001928E-02 0. -1.
       -1   -1    0    0    0  501  0.00000000000E+00  0.00000000000E+00 -0.79308738224E+03  0.79308738226E+03  0.50400001928E-02 0.  1.
    10030    2    1    2    0    0  0.00000000000E+00  0.00000000000E+00  0.45502676775E+03  0.20412015323E+04  0.19898377662E+04 0.  0.
        3    1    3    3  502    0  0.35109125004E+03 -0.74549112326E+03  0.79943657795E+03  0.11480944792E+04  0.10100000352E+00 0. -1.
       -3    1    3    3    0  502 -0.35109125004E+03  0.74549112326E+03 -0.34440981021E+03  0.89310705309E+03  0.10100000352E+00 0.  1.
</event>
<event>
 5   0  0.1130848E-04  0.2102344E+04  0.7818609E-02  0.8560212E-01
        1   -1    0    0  501    0  0.00000000000E+00  0.00000000000E+00  0.13171806132E+04  0.13171806132E+04  0.50400001928E-02 0. -1.
       -1   -1    0    0    0  501  0.00000000000E+00  0.00000000000E+00 -0.83888446197E+03  0.83888446198E+03  0.50400001928E-02 0.  1.
    10030    2    1    2    0    0  0.00000000000E+00  0.00000000000E+00  0.47829615124E+03  0.21560650752E+04  0.21023437873E+04 0.  0.
        5    1    3    3  502    0 -0.19830164781E+02 -0.55344183640E+01 -0.83866689676E+03  0.83893272611E+03  0.46999998093E+01 0.  1.
       -5    1    3    3    0  502  0.19830164781E+02  0.55344183640E+01  0.13169630480E+04  0.13171323491E+04  0.46999998093E+01 0. -1.
</event>
<event>
 5   0  0.1156733E-04  0.2133758E+04  0.7818609E-02  0.8546517E-01
        1   -1    0    0  501    0  0.00000000000E+00  0.00000000000E+00  0.18847902381E+04  0.18847902381E+04  0.50400001928E-02 0.  1.
       -1   -1    0    0    0  501  0.00000000000E+00  0.00000000000E+00 -0.60390328408E+03  0.60390328410E+03  0.50400001928E-02 0. -1.
    10030    2    1    2    0    0  0.00000000000E+00  0.00000000000E+00  0.12808869540E+04  0.24886935222E+04  0.21337582006E+04 0.  0.
        2    1    3    3  502    0  0.99395368325E+03  0.28865620415E+03  0.94226425380E+03  0.13996886270E+04  0.25500000920E-02 0. -1.
       -2    1    3    3    0  502 -0.99395368325E+03 -0.28865620415E+03  0.33862270023E+03  0.10890048952E+04  0.25500000920E-02 0.  1.
</event>
<event>
 5   0  0.1156733E-04  0.1410211E+04  0.7818609E-02  0.8946460E-01
       -1   -1    0    0    0  501  0.00000000000E+00  0.00000000000E+00  0.77782813293E+03  0.77782813294E+03  0.50400001928E-02 0.  1.
        1   -1    0    0  501    0  0.00000000000E+00  0.00000000000E+00 -0.63918179977E+03  0.63918179979E+03  0.50400001928E-02 0. -1.
    10030    2    1    2    0    0  0.00000000000E+00  0.00000000000E+00  0.13864633316E+03  0.14170099327E+04  0.14102107445E+04 0.  0.
        2    1    3    3  502    0 -0.20226370429E+03 -0.66499148205E+03 -0.49778092416E+02  0.69685158804E+03  0.25500000920E-02 0. -1.
       -2    1    3    3    0  502  0.20226370429E+03  0.66499148205E+03  0.18842442557E+03  0.72015834469E+03  0.25500000920E-02 0.  1.
</event>
<event>
 5   0  0.2579241E-04  0.2098201E+04  0.7818609E-02  0.8562036E-01
        2   -1    0    0  501    0  0.00000000000E+00  0.00000000000E+00  0.10838517080E+04  0.10838517080E+04  0.25500000920E-02 0.  1.
       -2   -1    0    0    0  501  0.00000000000E+00  0.00000000000E+00 -0.10154630283E+04  0.10154630283E+04  0.25500000920E-02 0. -1.
    10030    2    1    2    0    0  0.00000000000E+00  0.00000000000E+00  0.68388679737E+02  0.20993147363E+04  0.20982005029E+04 0.  0.
        5    1    3    3  502    0  0.30033442348E+03  0.26600216443E+03  0.10040549295E+04  0.10812521948E+04  0.46999998093E+01 0.  1.
       -5    1    3    3    0  502 -0.30033442348E+03 -0.26600216443E+03 -0.93566624973E+03  0.10180625414E+04  0.46999998093E+01 0. -1.
</event>
<event>
 5   0  0.1042395E-04  0.2109763E+04  0.7818609E-02  0.8556955E-01
       -1   -1    0    0    0  501  0.00000000000E+00  0.00000000000E+00  0.16995770257E+04  0.16995770257E+04  0.50400001928E-02 0.  1.
        1   -1    0    0  501    0  0.00000000000E+00  0.00000000000E+00 -0.65473611249E+03  0.65473611251E+03  0.50400001928E-02 0. -1.
    10030    2    1    2    0    0  0.00000000000E+00  0.00000000000E+00  0.10448409132E+04  0.23543131382E+04  0.21097625030E+04 0.  0.
        3    1    3    3  502    0 -0.10469537464E+04  0.12089295360E+03  0.47192993553E+03  0.11547489457E+04  0.10100000352E+00 0. -1.
       -3    1    3    3    0  502  0.10469537464E+04 -0.12089295360E+03  0.57291097769E+03  0.11995641925E+04  0.10100000352E+00 0.  1.
</event>
<event>
 5   0  0.2579241E-04  0.2091140E+04  0.7818609E-02  0.8565156E-01
        2   -1    0    0  501    0  0.00000000000E+00  0.00000000000E+00  0.12036685733E+04  0.12036685733E+04  0.25500000920E-02 0.  1.
       -2   -1    0    0    0  501  0.00000000000E+00  0.00000000000E+00 -0.90823702689E+03  0.90823702689E+03  0.25500000920E-02 0. -1.
    10030    2    1    2    0    0  0.00000000000E+00  0.00000000000E+00  0.29543154639E+03  0.21119056002E+04  0.20911397527E+04 0.  0.
        5    1    3    3  502    0 -0.57978940704E+03 -0.59120997064E+03 -0.49698798355E+03  0.96576608539E+03  0.46999998093E+01 0. -1.
       -5    1    3    3    0  502  0.57978940704E+03  0.59120997064E+03  0.79241952994E+03  0.11461395148E+04  0.46999998093E+01 0.  1.
</event>
<event>
 5   0  0.1042395E-04  0.1332103E+04  0.7818609E-02  0.9004488E-01
        1   -1    0    0  501    0  0.00000000000E+00  0.00000000000E+00  0.10023927604E+04  0.10023927604E+04  0.50400001928E-02 0.  1.
       -1   -1    0    0    0  501  0.00000000000E+00  0.00000000000E+00 -0.44256569236E+03  0.44256569239E+03  0.50400001928E-02 0. -1.
    10030    2    1    2    0    0  0.00000000000E+00  0.00000000000E+00  0.55982706807E+03  0.14449584528E+04  0.13321030682E+04 0.  0.
        3    1    3    3  502    0  0.18560724067E+03 -0.50070992384E+01  0.97375228689E+03  0.99129644671E+03  0.10100000352E+00 0.  1.
       -3    1    3    3    0  502 -0.18560724067E+03  0.50070992384E+01 -0.41392521882E+03  0.45366200613E+03  0.10100000352E+00 0. -1.
</event>
<event>
 5   0  0.2467483E-04  0.1984091E+04  0.7818609E-02  0.8614095E-01
        2   -1    0    0  501    0  0.00000000000E+00  0.00000000000E+00  0.16932232774E+04  0.16932232774E+04  0.25500000920E-02 0. -1.
       -2   -1    0    0    0  501  0.00000000000E+00  0.00000000000E+00 -0.58123116856E+03  0.58123116857E+03  0.25500000920E-02 0.  1.
    10030    2    1    2    0    0  0.00000000000E+00  0.00000000000E+00  0.11119921089E+04  0.22744544460E+04  0.19840908691E+04 0.  0.
        4    1    3    3  502    0 -0.26308874187E+03 -0.58886513905E+03  0.14200813757E+04  0.15596828410E+04  0.12699999809E+01 0. -1.
       -4    1    3    3    0  502  0.26308874187E+03  0.58886513905E+03 -0.30808926681E+03  0.71477160499E+03  0.12699999809E+01 0.  1.
</event>
<event>
 5   0  0.1186038E-04  0.2087335E+04  0.7818609E-02  0.8566843E-01
        1   -1    0    0  501    0  0.00000000000E+00  0.00000000000E+00  0.11456302178E+04  0.11456302178E+04  0.50400001928E-02 0. -1.
       -1   -1    0    0    0  501  0.00000000000E+00  0.00000000000E+00 -0.95077944583E+03  0.95077944584E+03  0.50400001928E-02 0.  1.
    10030    2    1    2    0    0  0.00000000000E+00  0.00000000000E+00  0.19485077197E+03  0.20964096637E+04  0.20873348209E+04 0.  0.
        4    1    3    3  502    0  0.67109420642E+03 -0.11748725313E+03 -0.69662514616E+03  0.97440181429E+03  0.12699999809E+01 0.  1.
       -4    1    3    3    0  502 -0.67109420642E+03  0.11748725313E+03  0.89147591813E+03  0.11220078494E+04  0.12699999809E+01 0. -1.
</event>
<event>
 5   0  0.2467483E-04  0.2146142E+04  0.7818609E-02  0.8541185E-01
        2   -1    0    0  501    0  0.00000000000E+00  0.00000000000E+00  0.57897534494E+03  0.57897534494E+03  0.25500000920E-02 0.  1.
       -2   -1    0    0    0  501  0.00000000000E+00  0.00000000000E+00 -0.19888262085E+04  0.19888262085E+04  0.25500000920E-02 0. -1.
    10030    2    1    2    0    0  0.00000000000E+00  0.00000000000E+00 -0.14098508636E+04  0.25678015535E+04  0.21461419712E+04 0.  0.
        4    1    3    3  502    0  0.65822007909E+03 -0.80890576555E+03 -0.40248141253E+03  0.11178439562E+04  0.12699999809E+01 0.  1.
       -4    1    3    3    0  502 -0.65822007909E+03  0.80890576555E+03 -0.10073694511E+04  0.14499575973E+04  0.12699999809E+01 0. -1.
</event>
<event>
 5   0  0.2448804E-04  0.2113492E+04  0.7818609E-02  0.8555323E-01
       -2   -1    0    0    0  501  0.00000000000E+00  0.00000000000E+00  0.15919216554E+04  0.15919216554E+04  0.25500000920E-02 0. -1.
        2   -1    0    0  501    0  0.00000000000E+00  0.00000000000E+00 -0.70148653068E+03  0.70148653068E+03  0.25500000920E-02 0.  1.
    10030    2    1    2    0    0  0.00000000000E+00  0.00000000000E+00  0.89043512476E+03  0.22934081861E+04  0.21134915180E+04 0.  0.
        2    1    3    3  502    0 -0.50486897491E+02 -0.16934086060E+03  0.15757760413E+04  0.15856529842E+04  0.25500000920E-02 0. -1.
       -2    1    3    3    0  502  0.50486897491E+02  0.16934086060E+03 -0.68534091658E+03  0.70775520191E+03  0.25500000920E-02 0.  1.
</event>
<event>
 5   0  0.1122711E-04  0.2062708E+04  0.7818609E-02  0.8577851E-01
       -1   -1    0    0    0  501  0.00000000000E+00  0.00000000000E+00  0.51346640859E+03  0.51346640861E+03  0.50400001928E-02 0.  1.
        1   -1    0    0  501    0  0.00000000000E+00  0.00000000000E+00 -0.20715884730E+04  0.20715884730E+04  0.50400001928E-02 0. -1.
    10030    2    1    2    0    0  0.00000000000E+00  0.00000000000E+00 -0.15581220644E+04  0.25850548816E+04  0.20627080194E+04 0.  0.
        1    1    3    3  502    0  0.51702092580E+03  0.49583184943E+03 -0.17089326497E+04  0.18530004484E+04  0.50400001928E-02 0. -1.
       -1    1    3    3    0  502 -0.51702092580E+03 -0.49583184943E+03  0.15081058522E+03  0.73205443326E+03  0.50400001928E-02 0.  1.
</event>
<event>
 5   0  0.8698750E-05  0.2123407E+04  0.7818609E-02  0.8551002E-01
        3   -1    0    0  501    0  0.00000000000E+00  0.00000000000E+00  0.66848962222E+03  0.66848962985E+03  0.10100000352E+00 0.  1.
       -3   -1    0    0    0  501  0.00000000000E+00  0.00000000000E+00 -0.16862101297E+04  0.16862101328E+04  0.10100000352E+00 0. -1.
    10030    2    1    2    0    0  0.00000000000E+00  0.00000000000E+00 -0.10177205075E+04  0.23546997626E+04  0.21234066828E+04 0.  0.
        1    1    3    3  502    0 -0.81549833425E+03 -0.53856550562E+03 -0.96892889394E+03  0.13761953126E+04  0.50400001928E-02 0. -1.
       -1    1    3    3    0  502  0.81549833425E+03  0.53856550562E+03 -0.48791613572E+02  0.97850444996E+03  0.50400001928E-02 0.  1.
</event>
<event>
 5   0  0.1122711E-04  0.2180279E+04  0.7818609E-02  0.8526682E-01
        1   -1    0    0  501    0  0.00000000000E+00  0.00000000000E+00  0.13657942887E+04  0.13657942887E+04  0.50400001928E-02 0.  1.
       -1   -1    0    0    0  501  0.00000000000E+00  0.00000000000E+00 -0.87011927055E+03  0.87011927057E+03  0.50400001928E-02 0. -1.
    10030    2    1    2    0    0  0.00000000000E+00  0.00000000000E+00  0.49567501816E+03  0.22359135593E+04  0.21802788173E+04 0.  0.
        1    1    3    3  502    0 -0.30048687322E+03  0.76631892243E+03 -0.48515046190E+03  0.95546220363E+03  0.50400001928E-02 0. -1.
       -1    1    3    3    0  502  0.30048687322E+03 -0.76631892243E+03  0.98082548006E+03  0.12804513557E+04  0.50400001928E-02 0.  1.
</event>
<event>
 5   0  0.2579241E-04  0.2181201E+04  0.7818609E-02  0.8526294E-01
       -2   -1    0    0    0  501  0.00000000000E+00  0.00000000000E+00  0.11216521301E+04  0.11216521301E+04  0.25500000920E-02 0.  1.
        2   -1    0    0  501    0  0.00000000000E+00  0.00000000000E+00 -0.10604084305E+04  0.10604084305E+04  0.25500000920E-02 0. -1.
    10030    2    1    2    0    0  0.00000000000E+00  0.00000000000E+00  0.61243699603E+02  0.21820605606E+04  0.21812009305E+04 0.  0.
        5    1    3    3  502    0 -0.27283559524E+03 -0.23743910269E+03 -0.99865228441E+03  0.10621417347E+04  0.46999998093E+01 0. -1.
       -5    1    3    3    0  502  0.27283559524E+03  0.23743910269E+03  0.10598959840E+04  0.11199188258E+04  0.46999998093E+01 0.  1.
</event>
<event>
 5   0  0.2512839E-04  0.2123893E+04  0.7818609E-02  0.8550791E-01
       -2   -1    0    0    0  501  0.00000000000E+00  0.00000000000E+00  0.84601658279E+03  0.84601658280E+03  0.25500000920E-02 0.  1.
        2   -1    0    0  501    0  0.00000000000E+00  0.00000000000E+00 -0.13329884769E+04  0.13329884769E+04  0.25500000920E-02 0. -1.
    10030    2    1    2    0    0  0.00000000000E+00  0.00000000000E+00 -0.48697189407E+03  0.21790050597E+04  0.21238929880E+04 0.  0.
        3    1    3    3  502    0  0.58136178729E+03  0.34411698301E+02 -0.11545402438E+04  0.12931082234E+04  0.10100000352E+00 0. -1.
       -3    1    3    3    0  502 -0.58136178729E+03 -0.34411698301E+02  0.66756834973E+03  0.88589683625E+03  0.10100000352E+00 0.  1.
</event>
<event>
 5   0  0.2579241E-04  0.2101952E+04  0.7818609E-02  0.8560384E-01
       -2   -1    0    0    0  501  0.00000000000E+00  0.00000000000E+00  0.79227765879E+03  0.79227765880E+03  0.25500000920E-02 0. -1.
        2   -1    0    0  501    0  0.00000000000E+00  0.00000000000E+00 -0.13941453153E+04  0.13941453153E+04  0.25500000920E-02 0.  1.
    10030    2    1    2    0    0  0.00000000000E+00  0.00000000000E+00 -0.60186765651E+03  0.21864229741E+04  0.21019516516E+04 0.  0.
        5    1    3    3  502    0  0.33665027199E+03 -0.72509914556E+03  0.40870397479E+03  0.89786591735E+03  0.46999998093E+01 0. -1.
       -5    1    3    3    0  502 -0.33665027199E+03  0.72509914556E+03 -0.10105716313E+04  0.12885570568E+04  0.46999998093E+01 0.  1.
</event>
<event>
 5   0  0.1156733E-04  0.2062983E+04  0.7818609E-02  0.8577727E-01
        1   -1    0    0  501    0  0.00000000000E+00  0.00000000000E+00  0.17173808327E+04  0.17173808327E+04  0.50400001928E-02 0.  1.
       -1   -1    0    0    0  501  0.00000000000E+00  0.00000000000E+00 -0.61953345999E+03  0.61953346001E+03  0.50400001928E-02 0. -1.
    10030    2    1    2    0    0  0.00000000000E+00  0.00000000000E+00  0.10978473727E+04  0.23369142927E+04  0.20629831695E+04 0.  0.
        2    1    3    3  502    0  0.81004788194E+03 -0.62874832095E+03  0.67543525776E+03  0.12278903899E+04  0.25500000920E-02 0. -1.
       -2    1    3    3    0  502 -0.81004788194E+03  0.62874832095E+03  0.42241211491E+03  0.11090239028E+04  0.25500000920E-02 0.  1.
</event>
<event>
 5   0  0.2467483E-04  0.2072646E+04  0.7818609E-02  0.8573390E-01
        2   -1    0    0  501    0  0.00000000000E+00  0.00000000000E+00  0.10655966075E+04  0.10655966075E+04  0.25500000920E-02 0.  1.
       -2   -1    0    0    0  501  0.00000000000E+00  0.00000000000E+00 -0.10078531883E+04  0.10078531883E+04  0.25500000920E-02 0. -1.
    10030    2    1    2    0    0  0.00000000000E+00  0.00000000000E+00  0.57743419193E+02  0.20734497957E+04  0.20726455927E+04 0.  0.
        4    1    3    3  502    0 -0.26822099302E+03 -0.29325893156E+03 -0.92858899840E+03  0.10100606135E+04  0.12699999809E+01 0. -1.
       -4    1    3    3    0  502  0.26822099302E+03  0.29325893156E+03  0.98633241759E+03  0.10633891822E+04  0.12699999809E+01 0.  1.
</event>
<event>
 5   0  0.1042395E-04  0.2071993E+04  0.7818609E-02  0.8573682E-01
        1   -1    0    0  501    0  0.00000000000E+00  0.00000000000E+00  0.12512548947E+04  0.12512548947E+04  0.50400001928E-02 0. -1.
       -1   -1    0    0    0  501  0.00000000000E+00  0.00000000000E+00 -0.85776982918E+03  0.85776982919E+03  0.50400001928E-02 0.  1.
    10030    2    1    2    0    0  0.00000000000E+00  0.00000000000E+00  0.39348506554E+03  0.21090247239E+04  0.20719929511E+04 0.  0.
        3    1    3    3  502    0 -0.29333613915E+03  0.83505171474E+03  0.74481867369E+03  0.11567680509E+04  0.10100000352E+00 0. -1.
       -3    1    3    3    0  502  0.29333613915E+03 -0.83505171474E+03 -0.35133360815E+03  0.95225667298E+03  0.10100000352E+00 0.  1.
</event>
<event>
 5   0  0.2512839E-04  0.2108702E+04  0.7818609E-02  0.8557420E-01
       -2   -1    0    0    0  501  0.00000000000E+00  0.00000000000E+00  0.12520218002E+04  0.12520218002E+04  0.25500000920E-02 0.  1.
        2   -1    0    0  501    0  0.00000000000E+00  0.00000000000E+00 -0.88788868101E+03  0.88788868102E+03  0.25500000920E-02 0. -1.
    10030    2    1    2    0    0  0.00000000000E+00  0.00000000000E+00  0.36413311921E+03  0.21399104812E+04  0.21087019560E+04 0.  0.
        3    1    3    3  502    0 -0.50486885746E+03  0.83235932087E+03  0.59295572355E+03  0.11398732836E+04  0.10100000352E+00 0.  1.
       -3    1    3    3    0  502  0.50486885746E+03 -0.83235932087E+03 -0.22882260434E+03  0.10000371977E+04  0.10100000352E+00 0. -1.
</event>
<event>
 5   0  0.1122711E-04  0.2071787E+04  0.7818609E-02  0.8573774E-01
       -1   -1    0    0    0  501  0.00000000000E+00  0.00000000000E+00  0.11987240842E+04  0.11987240842E+04  0.50400001928E-02 0. -1.
        1   -1    0    0  501    0  0.00000000000E+00  0.00000000000E+00 -0.89518087172E+03  0.89518087173E+03  0.50400001928E-02 0.  1.
    10030    2    1    2    0    0  0.00000000000E+00  0.00000000000E+00  0.30354321247E+03  0.20939049559E+04  0.20717865437E+04 0.  0.
        1    1    3    3  502    0 -0.92283356002E+03 -0.61745442437E+01  0.62734269328E+03  0.11158937043E+04  0.50400001928E-02 0. -1.
       -1    1    3    3    0  502  0.92283356002E+03  0.61745442437E+01 -0.32379948081E+03  0.97801125162E+03  0.50400001928E-02 0.  1.
</event>
<event>
 5   0  0.2579241E-04  0.2091066E+04  0.7818609E-02  0.8565189E-01
        2   -1    0    0  501    0  0.00000000000E+00  0.00000000000E+00  0.18306919075E+04  0.18306919075E+04  0.25500000920E-02 0.  1.
       -2   -1    0    0    0  501  0.00000000000E+00  0.00000000000E+00 -0.59711782979E+03  0.59711782979E+03  0.25500000920E-02 0. -1.
    10030    2    1    2    0    0  0.00000000000E+00  0.00000000000E+00  0.12335740777E+04  0.24278097373E+04  0.20910655454E+04 0.  0.
        5    1    3    3  502    0  0.88972356195E+03 -0.41799148541E+03  0.20336600403E+03  0.10038449682E+04  0.46999998093E+01 0. -1.
       -5    1    3    3    0  502 -0.88972356195E+03  0.41799148541E+03  0.10302080737E+04  0.14239647691E+04  0.46999998093E+01 0.  1.
</event>
<event>
 5   0  0.8698750E-05  0.2031769E+04  0.7818609E-02  0.8591910E-01
        3   -1    0    0  501    0  0.00000000000E+00  0.00000000000E+00  0.17303704628E+04  0.17303704658E+04  0.10100000352E+00 0.  1.
       -3   -1    0    0    0  501  0.00000000000E+00  0.00000000000E+00 -0.59641637919E+03  0.59641638774E+03  0.10100000352E+00 0. -1.
    10030    2    1    2    0    0  0.00000000000E+00  0.00000000000E+00  0.11339540836E+04  0.23267868535E+04  0.20317689824E+04 0.  0.
        3    1    3    3  502    0 -0.83143550072E+03  0.27836617643E+02  0.12347012054E+04  0.14888072225E+04  0.10100000352E+00 0.  1.
       -3    1    3    3    0  502  0.83143550072E+03 -0.27836617643E+02 -0.10074712176E+03  0.83797963095E+03  0.10100000352E+00 0. -1.
</event>
<event>
 5   0  0.1186038E-04  0.2042653E+04  0.7818609E-02  0.8586935E-01
       -1   -1    0    0    0  501  0.00000000000E+00  0.00000000000E+00  0.10563293471E+04  0.10563293471E+04  0.50400001928E-02 0. -1.
        1   -1    0    0  501    0  0.00000000000E+00  0.00000000000E+00 -0.98748329106E+03  0.98748329107E+03  0.50400001928E-02 0.  1.
    10030    2    1    2    0    0  0.00000000000E+00  0.00000000000E+00  0.68846056054E+02  0.20438126382E+04  0.20426527655E+04 0.  0.
        4    1    3    3  502    0 -0.72550723957E+03 -0.14478322143E+03 -0.67009540952E+03  0.99817453716E+03  0.12699999809E+01 0.  1.
       -4    1    3    3    0  502  0.72550723957E+03  0.14478322143E+03  0.73894146557E+03  0.10456381010E+04  0.12699999809E+01 0. -1.
</event>
<event>
 5   0  0.2448804E-04  0.2072255E+04  0.7818609E-02  0.8573565E-01
       -2   -1    0    0    0  501  0.00000000000E+00  0.00000000000E+00  0.13385551293E+04  0.13385551293E+04  0.25500000920E-02 0.  1.
        2   -1    0    0  501    0  0.00000000000E+00  0.00000000000E+00 -0.80202932770E+03  0.80202932770E+03  0.25500000920E-02 0. -1.
    10030    2    1    2    0    0  0.00000000000E+00  0.00000000000E+00  0.53652580157E+03  0.21405844570E+04  0.20722552646E+04 0.  0.
        2    1    3    3  502    0 -0.16031778127E+03 -0.84481119941E+03  0.86538289595E+03  0.12199570936E+04  0.25500000920E-02 0.  1.
       -2    1    3    3    0  502  0.16031778127E+03  0.84481119941E+03 -0.32885709438E+03  0.92062736336E+03  0.25500000920E-02 0. -1.
</event>
<event>
 5   0  0.2512839E-04  0.2087670E+04  0.7818609E-02  0.8566694E-01
        2   -1    0    0  501    0  0.00000000000E+00  0.00000000000E+00  0.13718420688E+04  0.13718420688E+04  0.25500000920E-02 0.  1.
       -2   -1    0    0    0  501  0.00000000000E+00  0.00000000000E+00 -0.79425465130E+03  0.79425465130E+03  0.25500000920E-02 0. -1.
    10030    2    1    2    0    0  0.00000000000E+00  0.00000000000E+00  0.57758741747E+03  0.21660967201E+04  0.20876704184E+04 0.  0.
        3    1    3    3  502    0 -0.97693999456E+03  0.26167934066E+03  0.55676741508E+03  0.11545032676E+04  0.10100000352E+00 0. -1.
       -3    1    3    3    0  502  0.97693999456E+03 -0.26167934066E+03  0.20820002391E+02  0.10115934524E+04  0.10100000352E+00 0.  1.
</event>
<event>
 5   0  0.1130848E-04  0.2067915E+04  0.7818609E-02  0.8575510E-01
       -1   -1    0    0    0  501  0.00000000000E+00  0.00000000000E+00  0.10685552603E+04  0.10685552603E+04  0.50400001928E-02 0.  1.
        1   -1    0    0  501    0  0.00000000000E+00  0.00000000000E+00 -0.10004803050E+04  0.10004803050E+04  0.50400001928E-02 0. -1.
    10030    2    1    2    0    0  0.00000000000E+00  0.00000000000E+00  0.68074955265E+02  0.20690355653E+04  0.20679153684E+04 0.  0.
        5    1    3    3  502    0 -0.15338468722E+03  0.79735623388E+03 -0.60642065130E+03  0.10134455695E+04  0.46999998093E+01 0. -1.
       -5    1    3    3    0  502  0.15338468722E+03 -0.79735623388E+03  0.67449560657E+03  0.10555899958E+04  0.46999998093E+01 0.  1.
</event>
<event>
 5   0  0.1156733E-04  0.1977002E+04  0.7818609E-02  0.8617449E-01
       -1   -1    0    0    0  501  0.00000000000E+00  0.00000000000E+00  0.82853374625E+03  0.82853374626E+03  0.50400001928E-02 0.  1.
        1   -1    0    0  501    0  0.00000000000E+00  0.00000000000E+00 -0.11793541570E+04  0.11793541571E+04  0.50400001928E-02 0. -1.
    10030    2    1    2    0    0  0.00000000000E+00  0.00000000000E+00 -0.35082041080E+03  0.20078879033E+04  0.19770024966E+04 0.  0.
        2    1    3    3  502    0  0.34049624253E+03  0.70566791613E+03  0.43669065872E+03  0.89699700694E+03  0.25500000920E-02 0.  1.
       -2    1    3    3    0  502 -0.34049624253E+03 -0.70566791613E+03 -0.78751106952E+03  0.11108908964E+04  0.25500000920E-02 0. -1.
</event>
<event>
 5   0  0.2467483E-04  0.2106938E+04  0.7818609E-02  0.8558193E-01
       -2   -1    0    0    0  501  0.00000000000E+00  0.00000000000E+00  0.73489903761E+03  0.73489903762E+03  0.25500000920E-02 0.  1.
        2   -1    0    0  501    0  0.00000000000E+00  0.00000000000E+00 -0.15101355405E+04  0.15101355405E+04  0.25500000920E-02 0. -1.
    10030    2    1    2    0    0  0.00000000000E+00  0.00000000000E+00 -0.77523650289E+03  0.22450345781E+04  0.21069382102E+04 0.  0.
        4    1    3    3  502    0 -0.66466269371E+03 -0.55606960403E+03  0.25064650827E+03  0.90211705778E+03  0.12699999809E+01 0.  1.
       -4    1    3    3    0  502  0.66466269371E+03  0.55606960403E+03 -0.10258830112E+04  0.13429175203E+04  0.12699999809E+01 0. -1.
</event>
<event>
 5   0  0.2448804E-04  0.1899205E+04  0.7818609E-02  0.8655252E-01
        2   -1    0    0  501    0  0.00000000000E+00  0.00000000000E+00  0.77328280611E+03  0.77328280611E+03  0.25500000920E-02 0. -1.
       -2   -1    0    0    0  501  0.00000000000E+00  0.00000000000E+00 -0.11661259144E+04  0.11661259144E+04  0.25500000920E-02 0.  1.
    10030    2    1    2    0    0  0.00000000000E+00  0.00000000000E+00 -0.39284310826E+03  0.19394087205E+04  0.18992052226E+04 0.  0.
        2    1    3    3  502    0 -0.88225468963E+03 -0.35008063046E+03 -0.22558005975E+03  0.97561065419E+03  0.25500000920E-02 0.  1.
       -2    1    3    3    0  502  0.88225468963E+03  0.35008063046E+03 -0.16726304851E+03  0.96379806630E+03  0.25500000920E-02 0. -1.
</event>
<event>
 5   0  0.1156733E-04  0.2162228E+04  0.7818609E-02  0.8534316E-01
       -1   -1    0    0    0  501  0.00000000000E+00  0.00000000000E+00  0.16271682967E+04  0.16271682967E+04  0.50400001928E-02 0.  1.
        1   -1    0    0  501    0  0.00000000000E+00  0.00000000000E+00 -0.71830735968E+03  0.71830735969E+03  0.50400001928E-02 0. -1.
    10030    2    1    2    0    0  0.00000000000E+00  0.00000000000E+00  0.90886093705E+03  0.23454756564E+04  0.21622275209E+04 0.  0.
        2    1    3    3  502    0  0.46203833509E+03  0.72667615760E+03 -0.25462528366E+03  0.89798201330E+03  0.25500000920E-02 0. -1.
       -2    1    3    3    0  502 -0.46203833509E+03 -0.72667615760E+03  0.11634862207E+04  0.14474936431E+04  0.25500000920E-02 0.  1.
</event>
<event>
 5   0  0.2448804E-04  0.2075246E+04  0.7818609E-02  0.8572227E-01
       -2   -1    0    0    0  501  0.00000000000E+00  0.00000000000E+00  0.76206261554E+03  0.76206261555E+03  0.25500000920E-02 0.  1.
        2   -1    0    0  501    0  0.00000000000E+00  0.00000000000E+00 -0.14128255636E+04  0.14128255636E+04  0.25500000920E-02 0. -1.
    10030    2    1    2    0    0  0.00000000000E+00  0.00000000000E+00 -0.65076294802E+03  0.21748881791E+04  0.20752460522E+04 0.  0.
        2    1    3    3  502    0  0.76349736028E+03  0.70211160394E+03 -0.29625080138E+03  0.10787277047E+04  0.25500000920E-02 0.  1.
       -2    1    3    3    0  502 -0.76349736028E+03 -0.70211160394E+03 -0.35451214664E+03  0.10961604744E+04  0.25500000920E-02 0. -1.
</event>
<event>
 5   0  0.2579241E-04  0.2219960E+04  0.7818609E-02  0.8510166E-01
       -2   -1    0    0    0  501  0.00000000000E+00  0.00000000000E+00  0.13545085719E+04  0.13545085719E+04  0.25500000920E-02 0. -1.
        2   -1    0    0  501    0  0.00000000000E+00  0.00000000000E+00 -0.90959580584E+03  0.90959580584E+03  0.25500000920E-02 0.  1.
    10030    2    1    2    0    0  0.00000000000E+00  0.00000000000E+00  0.44491276607E+03  0.22641043777E+04  0.22199597438E+04 0.  0.
        5    1    3    3  502    0  0.32967773985E+02 -0.79986413386E+03  0.10066173698E+04  0.12861454529E+04  0.46999998093E+01 0. -1.
       -5    1    3    3    0  502 -0.32967773985E+02  0.79986413386E+03 -0.56170460378E+03  0.97795892484E+03  0.46999998093E+01 0.  1.
</event>
<event>
 5   0  0.2467483E-04  0.1773693E+04  0.7818609E-02  0.8720416E-01
       -2   -1    0    0    0  501  0.00000000000E+00  0.00000000000E+00  0.78912943342E+03  0.78912943343E+03  0.25500000920E-02 0.  1.
        2   -1    0    0  501    0  0.00000000000E+00  0.00000000000E+00 -0.99666344428E+03  0.99666344428E+03  0.25500000920E-02 0. -1.
    10030    2    1    2    0    0  0.00000000000E+00  0.00000000000E+00 -0.20753401086E+03  0.17857928777E+04  0.17736927119E+04 0.  0.
        4    1    3    3  502    0 -0.66909029841E+03  0.53635310221E+03  0.12391365331E+03  0.86643677442E+03  0.12699999809E+01 0.  1.
       -4    1    3    3    0  502  0.66909029841E+03 -0.53635310221E+03 -0.33144766417E+03  0.91935610329E+03  0.12699999809E+01 0. -1.
</event>
<event>
 5   0  0.2448804E-04  0.1955234E+04  0.7818609E-02  0.8627841E-01
       -2   -1    0    0    0  501  0.00000000000E+00  0.00000000000E+00  0.65968126013E+03  0.65968126013E+03  0.25500000920E-02 0. -1.
        2   -1    0    0  501    0  0.00000000000E+00  0.00000000000E+00 -0.14487828468E+04  0.14487828468E+04  0.25500000920E-02 0.  1.
    10030    2    1    2    0    0  0.00000000000E+00  0.00000000000E+00 -0.78910158671E+03  0.21084641070E+04  0.19552338930E+04 0.  0.
        2    1    3    3  502    0  0.95932315453E+03 -0.75017559492E+02 -0.58072600552E+03  0.11239089120E+04  0.25500000920E-02 0.  1.
       -2    1    3    3    0  502 -0.95932315453E+03  0.75017559492E+02 -0.20837558119E+03  0.98455519494E+03  0.25500000920E-02 0. -1.
</event>
<event>
 5   0  0.8698750E-05  0.2142847E+04  0.7818609E-02  0.8542600E-01
       -4   -1    0    0    0  501  0.00000000000E+00  0.00000000000E+00  0.13036936276E+04  0.13036942462E+04  0.12699999809E+01 0.  1.
        4   -1    0    0  501    0  0.00000000000E+00  0.00000000000E+00 -0.88053427823E+03  0.88053519409E+03  0.12699999809E+01 0. -1.
    10030    2    1    2    0    0  0.00000000000E+00  0.00000000000E+00  0.42315934938E+03  0.21842294403E+04  0.21428472677E+04 0.  0.
        4    1    3    3  502    0  0.24367090562E+03  0.73421017158E+02  0.12724383259E+04  0.12976390338E+04  0.12699999809E+01 0.  1.
       -4    1    3    3    0  502 -0.24367090562E+03 -0.73421017158E+02 -0.84927897651E+03  0.88659040647E+03  0.12699999809E+01 0. -1.
</event>
<event>
 5   0  0.1122711E-04  0.2102279E+04  0.7818609E-02  0.8560240E-01
       -1   -1    0    0    0  501  0.00000000000E+00  0.00000000000E+00  0.90871323551E+03  0.90871323552E+03  0.50400001928E-02 0. -1.
        1   -1    0    0  501    0  0.00000000000E+00  0.00000000000E+00 -0.12158889838E+04  0.12158889839E+04  0.50400001928E-02 0.  1.
    10030    2    1    2    0    0  0.00000000000E+00  0.00000000000E+00 -0.30717574834E+03  0.21246022194E+04  0.21022791561E+04 0.  0.
        1    1    3    3  502    0 -0.17941017018E+03 -0.87791646887E+03  0.40176430745E+03  0.98200809275E+03  0.50400001928E-02 0. -1.
       -1    1    3    3    0  502  0.17941017018E+03  0.87791646887E+03 -0.70894005579E+03  0.11425941266E+04  0.50400001928E-02 0.  1.
</event>
<event>
 5   0  0.2512839E-04  0.2076202E+04  0.7818609E-02  0.8571800E-01
       -2   -1    0    0    0  501  0.00000000000E+00  0.00000000000E+00  0.80083559519E+03  0.80083559520E+03  0.25500000920E-02 0. -1.
        2   -1    0    0  501    0  0.00000000000E+00  0.00000000000E+00 -0.13456614486E+04  0.13456614486E+04  0.25500000920E-02 0.  1.
    10030    2    1    2    0    0  0.00000000000E+00  0.00000000000E+00 -0.54482585338E+03  0.21464970438E+04  0.20762019045E+04 0.  0.
        3    1    3    3  502    0 -0.59143686054E+03 -0.68810032289E+03  0.24901830151E+03  0.94089836808E+03  0.10100000352E+00 0. -1.
       -3    1    3    3    0  502  0.59143686054E+03  0.68810032289E+03 -0.79384415489E+03  0.12055986757E+04  0.10100000352E+00 0.  1.
</event>
<event>
 5   0  0.1122711E-04  0.2127595E+04  0.7818609E-02  0.8549184E-01
        1   -1    0    0  501    0  0.00000000000E+00  0.00000000000E+00  0.75856313499E+03  0.75856313501E+03  0.50400001928E-02 0.  1.
       -1   -1    0    0    0  501  0.00000000000E+00  0.00000000000E+00 -0.14918539535E+04  0.14918539535E+04  0.50400001928E-02 0. -1.
    10030    2    1    2    0    0  0.00000000000E+00  0.00000000000E+00 -0.73329081850E+03  0.22504170885E+04  0.21275952735E+04 0.  0.
        1    1    3    3  502    0  0.41891995958E+03  0.35820664881E+03  0.59574727342E+03  0.81161613439E+03  0.50400001928E-02 0.  1.
       -1    1    3    3    0  502 -0.41891995958E+03 -0.35820664881E+03 -0.13290380919E+04  0.14388009541E+04  0.50400001928E-02 0. -1.
</event>
<event>
 5   0  0.2448804E-04  0.2154731E+04  0.7818609E-02  0.8537510E-01
        2   -1    0    0  501    0  0.00000000000E+00  0.00000000000E+00  0.22788792459E+04  0.22788792459E+04  0.25500000920E-02 0.  1.
       -2   -1    0    0    0  501  0.00000000000E+00  0.00000000000E+00 -0.50933638956E+03  0.50933638956E+03  0.25500000920E-02 0. -1.
    10030    2    1    2    0    0  0.00000000000E+00  0.00000000000E+00  0.17695428564E+04  0.27882156355E+04  0.21547307278E+04 0.  0.
        2    1    3    3  502    0  0.48209406962E+03  0.69140990200E+03  0.16486948203E+02  0.84305051095E+03  0.25500000920E-02 0.  1.
       -2    1    3    3    0  502 -0.48209406962E+03 -0.69140990200E+03  0.17530559082E+04  0.19451651245E+04  0.25500000920E-02 0. -1.
</event>
<event>
 5   0  0.2579241E-04  0.2713891E+04  0.7818609E-02  0.8330512E-01
       -2   -1    0    0    0  501  0.00000000000E+00  0.00000000000E+00  0.72639189659E+03  0.72639189660E+03  0.25500000920E-02 0.  1.
        2   -1    0    0  501    0  0.00000000000E+00  0.00000000000E+00 -0.25348582720E+04  0.25348582720E+04  0.25500000920E-02 0. -1.
    10030    2    1    2    0    0  0.00000000000E+00  0.00000000000E+00 -0.18084663754E+04  0.32612501686E+04  0.27138905710E+04 0.  0.
        5    1    3    3  502    0 -0.67361401251E+03 -0.35548957510E+03  0.44527371440E+03  0.88228082070E+03  0.46999998093E+01 0.  1.
       -5    1    3    3    0  502  0.67361401251E+03  0.35548957510E+03 -0.22537400898E+04  0.23789693479E+04  0.46999998093E+01 0. -1.
</event>
<event>
 5   0  0.1042395E-04  0.1601104E+04  0.7818609E-02  0.8819870E-01
        1   -1    0    0  501    0  0.00000000000E+00  0.00000000000E+00  0.10047492930E+04  0.10047492931E+04  0.50400001928E-02 0. -1.
       -1   -1    0    0    0  501  0.00000000000E+00  0.00000000000E+00 -0.63785412700E+03  0.63785412702E+03  0.50400001928E-02 0.  1.
    10030    2    1    2    0    0  0.00000000000E+00  0.00000000000E+00  0.36689516604E+03  0.16426034201E+04  0.16011039731E+04 0.  0.
        3    1    3    3  502    0 -0.47802441059E+03  0.63519491684E+03  0.28025193315E+03  0.84292412217E+03  0.10100000352E+00 0.  1.
       -3    1    3    3    0  502  0.47802441059E+03 -0.63519491684E+03  0.86643232889E+02  0.79967929791E+03  0.10100000352E+00 0. -1.
</event>
<event>
 5   0  0.1122711E-04  0.2068741E+04  0.7818609E-02  0.8575139E-01
        1   -1    0    0  501    0  0.00000000000E+00  0.00000000000E+00  0.18845849550E+04  0.18845849550E+04  0.50400001928E-02 0.  1.
       -1   -1    0    0    0  501  0.00000000000E+00  0.00000000000E+00 -0.56772329952E+03  0.56772329954E+03  0.50400001928E-02 0. -1.
    10030    2    1    2    0    0  0.00000000000E+00  0.00000000000E+00  0.13168616555E+04  0.24523082546E+04  0.20687414424E+04 0.  0.
        1    1    3    3  502    0  0.72915437274E+03  0.64653069407E+03  0.10695047885E+04  0.14468961712E+04  0.50400001928E-02 0. -1.
       -1    1    3    3    0  502 -0.72915437274E+03 -0.64653069407E+03  0.24735686702E+03  0.10054120834E+04  0.50400001928E-02 0.  1.
</event>
<event>
 5   0  0.1130848E-04  0.2034625E+04  0.7818609E-02  0.8590601E-01
        1   -1    0    0  501    0  0.00000000000E+00  0.00000000000E+00  0.12806794405E+04  0.12806794405E+04  0.50400001928E-02 0. -1.
       -1   -1    0    0    0  501  0.00000000000E+00  0.00000000000E+00 -0.80810606530E+03  0.80810606531E+03  0.50400001928E-02 0.  1.
    10030    2    1    2    0    0  0.00000000000E+00  0.00000000000E+00  0.47257337515E+03  0.20887855058E+04  0.20346250992E+04 0.  0.
        5    1    3    3  502    0 -0.45996408930E+03  0.82924237496E+03  0.61445743818E+03  0.11299512880E+04  0.46999998093E+01 0. -1.
       -5    1    3    3    0  502  0.45996408930E+03 -0.82924237496E+03 -0.14188406302E+03  0.95883421780E+03  0.46999998093E+01 0.  1.
</event>
<event>
 5   0  0.8698750E-05  0.2060584E+04  0.7818609E-02  0.8578808E-01
        3   -1    0    0  501    0  0.00000000000E+00  0.00000000000E+00  0.94726054451E+03  0.94726054990E+03  0.10100000352E+00 0. -1.
       -3   -1    0    0    0  501  0.00000000000E+00  0.00000000000E+00 -0.11206020512E+04  0.11206020558E+04  0.10100000352E+00 0.  1.
    10030    2    1    2    0    0  0.00000000000E+00  0.00000000000E+00 -0.17334150673E+03  0.20678626057E+04  0.20605844991E+04 0.  0.
        3    1    3    3  502    0  0.20479712689E+03  0.16778031623E+03 -0.10858833522E+04  0.11176917118E+04  0.10100000352E+00 0.  1.
       -3    1    3    3    0  502 -0.20479712689E+03 -0.16778031623E+03  0.91254184549E+03  0.95017089393E+03  0.10100000352E+00 0. -1.
</event>
<event>
 5   0  0.8698750E-05  0.1451038E+04  0.7818609E-02  0.8917681E-01
        3   -1    0    0  501    0  0.00000000000E+00  0.00000000000E+00  0.35128151923E+03  0.35128153375E+03  0.10100000352E+00 0.  1.
       -3   -1    0    0    0  501  0.00000000000E+00  0.00000000000E+00 -0.14984509739E+04  0.14984509773E+04  0.10100000352E+00 0. -1.
    10030    2    1    2    0    0  0.00000000000E+00  0.00000000000E+00 -0.11471694546E+04  0.18497325110E+04  0.14510384573E+04 0.  0.
        4    1    3    3  502    0 -0.84919707349E+02 -0.71852040168E+03 -0.64215727754E+03  0.96739366667E+03  0.12699999809E+01 0. -1.
       -4    1    3    3    0  502  0.84919707349E+02  0.71852040168E+03 -0.50501217709E+03  0.88233884434E+03  0.12699999809E+01 0.  1.
</event>
<event>
 5   0  0.1042395E-04  0.2154148E+04  0.7818609E-02  0.8537759E-01
       -1   -1    0    0    0  501  0.00000000000E+00  0.00000000000E+00  0.35914859487E+03  0.35914859491E+03  0.50400001928E-02 0.  1.
        1   -1    0    0  501    0  0.00000000000E+00  0.00000000000E+00 -0.32301061675E+04  0.32301061675E+04  0.50400001928E-02 0. -1.
    10030    2    1    2    0    0  0.00000000000E+00  0.00000000000E+00 -0.28709575726E+04  0.35892547624E+04  0.21541477121E+04 0.  0.
        3    1    3    3  502    0 -0.68298243104E+03  0.55113020702E+02 -0.50836548387E+02  0.68708573775E+03  0.10100000352E+00 0.  1.
       -3    1    3    3    0  502  0.68298243104E+03 -0.55113020702E+02 -0.28201210242E+04  0.29021690246E+04  0.10100000352E+00 0. -1.
</event>
<event>
 5   0  0.2579241E-04  0.1903314E+04  0.7818609E-02  0.8653209E-01
        2   -1    0    0  501    0  0.00000000000E+00  0.00000000000E+00  0.10387266842E+04  0.10387266842E+04  0.25500000920E-02 0. -1.
       -2   -1    0    0    0  501  0.00000000000E+00  0.00000000000E+00 -0.87188552818E+03  0.87188552818E+03  0.25500000920E-02 0.  1.
    10030    2    1    2    0    0  0.00000000000E+00  0.00000000000E+00  0.16684115602E+03  0.19106122124E+04  0.19033137037E+04 0.  0.
        5    1    3    3  502    0 -0.63853240697E+03  0.25179969362E+03  0.74511586512E+03  0.10130875890E+04  0.46999998093E+01 0. -1.
       -5    1    3    3    0  502  0.63853240697E+03 -0.25179969362E+03 -0.57827470910E+03  0.89752462342E+03  0.46999998093E+01 0.  1.
</event>
<event>
 5   0  0.8698750E-05  0.2126663E+04  0.7818609E-02  0.8549588E-01
        3   -1    0    0  501    0  0.00000000000E+00  0.00000000000E+00  0.73688327106E+03  0.73688327798E+03  0.10100000352E+00 0. -1.
       -3   -1    0    0    0  501  0.00000000000E+00  0.00000000000E+00 -0.15344009303E+04  0.15344009336E+04  0.10100000352E+00 0.  1.
    10030    2    1    2    0    0  0.00000000000E+00  0.00000000000E+00 -0.79751765926E+03  0.22712842116E+04  0.21266634791E+04 0.  0.
        4    1    3    3  502    0  0.22469309598E+03  0.38434251854E+03  0.63255147032E+03  0.77351737824E+03  0.12699999809E+01 0. -1.
       -4    1    3    3    0  502 -0.22469309598E+03 -0.38434251854E+03 -0.14300691296E+04  0.14977668334E+04  0.12699999809E+01 0.  1.
</event>
<event>
 5   0  0.2579241E-04  0.2162038E+04  0.7818609E-02  0.8534397E-01
        2   -1    0    0  501    0  0.00000000000E+00  0.00000000000E+00  0.13762397571E+04  0.13762397571E+04  0.25500000920E-02 0. -1.
       -2   -1    0    0    0  501  0.00000000000E+00  0.00000000000E+00 -0.84912708573E+03  0.84912708573E+03  0.25500000920E-02 0.  1.
    10030    2    1    2    0    0  0.00000000000E+00  0.00000000000E+00  0.52711267139E+03  0.22253668428E+04  0.21620383477E+04 0.  0.
        5    1    3    3  502    0 -0.48736202764E+03 -0.67177144318E+03  0.97650798938E+03  0.12815570846E+04  0.46999998093E+01 0. -1.
       -5    1    3    3    0  502  0.48736202764E+03  0.67177144318E+03 -0.44939531799E+03  0.94380975821E+03  0.46999998093E+01 0.  1.
</event>
<event>
 5   0  0.1122711E-04  0.2123137E+04  0.7818609E-02  0.8551119E-01
        1   -1    0    0  501    0  0.00000000000E+00  0.00000000000E+00  0.10107413255E+04  0.10107413255E+04  0.50400001928E-02 0. -1.
       -1   -1    0    0    0  501  0.00000000000E+00  0.00000000000E+00 -0.11149519071E+04  0.11149519071E+04  0.50400001928E-02 0.  1.
    10030    2    1    2    0    0  0.00000000000E+00  0.00000000000E+00 -0.10421058157E+03  0.21256932326E+04  0.21231372716E+04 0.  0.
        1    1    3    3  502    0 -0.72804686640E+03  0.35452500044E+03 -0.73936282939E+03  0.10965389228E+04  0.50400001928E-02 0.  1.
       -1    1    3    3    0  502  0.72804686640E+03 -0.35452500044E+03  0.63515224782E+03  0.10291543099E+04  0.50400001928E-02 0. -1.
</event>
<event>
 5   0  0.1130848E-04  0.2173358E+04  0.7818609E-02  0.8529599E-01
       -1   -1    0    0    0  501  0.00000000000E+00  0.00000000000E+00  0.17934993645E+04  0.17934993645E+04  0.50400001928E-02 0. -1.
        1   -1    0    0  501    0  0.00000000000E+00  0.00000000000E+00 -0.65841761314E+03  0.65841761316E+03  0.50400001928E-02 0.  1.
    10030    2    1    2    0    0  0.00000000000E+00  0.00000000000E+00  0.11350817513E+04  0.24519169776E+04  0.21733582960E+04 0.  0.
        5    1    3    3  502    0 -0.74348957614E+03  0.50103425327E+03  0.12602751123E+04  0.15466504200E+04  0.46999998093E+01 0. -1.
       -5    1    3    3    0  502  0.74348957614E+03 -0.50103425327E+03 -0.12519336102E+03  0.90526655766E+03  0.46999998093E+01 0.  1.
</event>
<event>
 5   0  0.2512839E-04  0.2029155E+04  0.7818609E-02  0.8593110E-01
        2   -1    0    0  501    0  0.00000000000E+00  0.00000000000E+00  0.16221201389E+04  0.16221201389E+04  0.25500000920E-02 0. -1.
       -2   -1    0    0    0  501  0.00000000000E+00  0.00000000000E+00 -0.63458178895E+03  0.63458178896E+03  0.25500000920E-02 0.  1.
    10030    2    1    2    0    0  0.00000000000E+00  0.00000000000E+00  0.98753834993E+03  0.22567019278E+04  0.20291553904E+04 0.  0.
        3    1    3    3  502    0  0.36371254160E+03  0.52834471872E+03  0.13680069445E+04  0.15109195760E+04  0.10100000352E+00 0. -1.
       -3    1    3    3    0  502 -0.36371254160E+03 -0.52834471872E+03 -0.38046859455E+03  0.74578235187E+03  0.10100000352E+00 0.  1.
</event>
<event>
 5   0  0.2579241E-04  0.2055161E+04  0.7818609E-02  0.8581257E-01
       -2   -1    0    0    0  501  0.00000000000E+00  0.00000000000E+00  0.17712654035E+04  0.17712654035E+04  0.25500000920E-02 0.  1.
        2   -1    0    0  501    0  0.00000000000E+00  0.00000000000E+00 -0.59613991741E+03  0.59613991741E+03  0.25500000920E-02 0. -1.
    10030    2    1    2    0    0  0.00000000000E+00  0.00000000000E+00  0.11751254861E+04  0.23674053209E+04  0.20551613186E+04 0.  0.
        5    1    3    3  502    0 -0.33352032866E+03  0.39411848327E+03 -0.43586529035E+03  0.67569655158E+03  0.46999998093E+01 0. -1.
       -5    1    3    3    0  502  0.33352032866E+03 -0.39411848327E+03  0.16109907764E+04  0.16917087693E+04  0.46999998093E+01 0.  1.
</event>
<event>
 5   0  0.8698750E-05  0.1981848E+04  0.7818609E-02  0.8615154E-01
       -3   -1    0    0    0  501  0.00000000000E+00  0.00000000000E+00  0.22143684522E+04  0.22143684545E+04  0.10100000352E+00 0. -1.
        3   -1    0    0  501    0  0.00000000000E+00  0.00000000000E+00 -0.44343604662E+03  0.44343605812E+03  0.10100000352E+00 0.  1.
    10030    2    1    2    0    0  0.00000000000E+00  0.00000000000E+00  0.17709324056E+04  0.26578045127E+04  0.19818484408E+04 0.  0.
        1    1    3    3  502    0 -0.35668238051E+03 -0.85970503077E+01 -0.35430865821E+03  0.50282288646E+03  0.50400001928E-02 0.  1.
       -1    1    3    3    0  502  0.35668238051E+03  0.85970503077E+01  0.21252410638E+04  0.21549816262E+04  0.50400001928E-02 0. -1.
</event>
<event>
 5   0  0.2467483E-04  0.2106713E+04  0.7818609E-02  0.8558292E-01
        2   -1    0    0  501    0  0.00000000000E+00  0.00000000000E+00  0.16562888686E+04  0.16562888686E+04  0.25500000920E-02 0.  1.
       -2   -1    0    0    0  501  0.00000000000E+00  0.00000000000E+00 -0.66990751454E+03  0.66990751455E+03  0.25500000920E-02 0. -1.
    10030    2    1    2    0    0  0.00000000000E+00  0.00000000000E+00  0.98638135409E+03  0.23261963832E+04  0.21067134208E+04 0.  0.
        4    1    3    3  502    0  0.94105657577E+03  0.45563936565E+03  0.35194143405E+03  0.11032040139E+04  0.12699999809E+01 0. -1.
       -4    1    3    3    0  502 -0.94105657577E+03 -0.45563936565E+03  0.63443992004E+03  0.12229923693E+04  0.12699999809E+01 0.  1.
</event>
<event>
 5   0  0.1042395E-04  0.2035038E+04  0.7818609E-02  0.8590412E-01
       -1   -1    0    0    0  501  0.00000000000E+00  0.00000000000E+00  0.42713279246E+03  0.42713279249E+03  0.50400001928E-02 0.  1.
        1   -1    0    0  501    0  0.00000000000E+00  0.00000000000E+00 -0.24239414776E+04  0.24239414776E+04  0.50400001928E-02 0. -1.
    10030    2    1    2    0    0  0.00000000000E+00  0.00000000000E+00 -0.19968086852E+04  0.28510742701E+04  0.20350379772E+04 0.  0.
        3    1    3    3  502    0  0.21389438758E+03  0.94690854459E+03 -0.14255539925E+04  0.17247002048E+04  0.10100000352E+00 0.  1.
       -3    1    3    3    0  502 -0.21389438758E+03 -0.94690854459E+03 -0.57125469268E+03  0.11263740653E+04  0.10100000352E+00 0. -1.
</event>
<event>
 5   0  0.1186038E-04  0.1936391E+04  0.7818609E-02  0.8636951E-01
        1   -1    0    0  501    0  0.00000000000E+00  0.00000000000E+00  0.11052230701E+04  0.11052230701E+04  0.50400001928E-02 0. -1.
       -1   -1    0    0    0  501  0.00000000000E+00  0.00000000000E+00 -0.84815681286E+03  0.84815681288E+03  0.50400001928E-02 0.  1.
    10030    2    1    2    0    0  0.00000000000E+00  0.00000000000E+00  0.25706625723E+03  0.19533798830E+04  0.19363909488E+04 0.  0.
        4    1    3    3  502    0 -0.41096307577E+03 -0.61186615740E+03 -0.50477261132E+03  0.89334643127E+03  0.12699999809E+01 0.  1.
       -4    1    3    3    0  502  0.41096307577E+03  0.61186615740E+03  0.76183886855E+03  0.10600334517E+04  0.12699999809E+01 0. -1.
</event>
<event>
 5   0  0.1186038E-04  0.2031385E+04  0.7818609E-02  0.8592086E-01
       -1   -1    0    0    0  501  0.00000000000E+00  0.00000000000E+00  0.87676273520E+03  0.87676273522E+03  0.50400001928E-02 0. -1.
        1   -1    0    0  501    0  0.00000000000E+00  0.00000000000E+00 -0.11766370716E+04  0.11766370717E+04  0.50400001928E-02 0.  1.
    10030    2    1    2    0    0  0.00000000000E+00  0.00000000000E+00 -0.29987433645E+03  0.20533998069E+04  0.20313852784E+04 0.  0.
        4    1    3    3  502    0 -0.64717950388E+03  0.70888980914E+03 -0.48559578263E+03  0.10757188056E+04  0.12699999809E+01 0.  1.
       -4    1    3    3    0  502  0.64717950388E+03 -0.70888980914E+03  0.18572144618E+03  0.97768100126E+03  0.12699999809E+01 0. -1.
</event>
<event>
 5   0  0.1186038E-04  0.2121395E+04  0.7818609E-02  0.8551877E-01
        1   -1    0    0  501    0  0.00000000000E+00  0.00000000000E+00  0.23364867212E+04  0.23364867212E+04  0.50400001928E-02 0. -1.
       -1   -1    0    0    0  501  0.00000000000E+00  0.00000000000E+00 -0.48152598042E+03  0.48152598045E+03  0.50400001928E-02 0.  1.
    10030    2    1    2    0    0  0.00000000000E+00  0.00000000000E+00  0.18549607408E+04  0.28180127017E+04  0.21213948800E+04 0.  0.
        4    1    3    3  502    0  0.44479457417E+03  0.16993468028E+03 -0.33157843244E+03  0.58022916036E+03  0.12699999809E+01 0.  1.
       -4    1    3    3    0  502 -0.44479457417E+03 -0.16993468028E+03  0.21865391732E+04  0.22377835413E+04  0.12699999809E+01 0. -1.
</event>
<event>
 5   0  0.1122711E-04  0.1423276E+04  0.7818609E-02  0.8937140E-01
        1   -1    0    0  501    0  0.00000000000E+00  0.00000000000E+00  0.51443871360E+03  0.51443871362E+03  0.50400001928E-02 0.  1.
       -1   -1    0    0    0  501  0.00000000000E+00  0.00000000000E+00 -0.98442941045E+03  0.98442941046E+03  0.50400001928E-02 0. -1.
    10030    2    1    2    0    0  0.00000000000E+00  0.00000000000E+00 -0.46999069685E+03  0.14988681241E+04  0.14232759389E+04 0.  0.
        1    1    3    3  502    0 -0.23471861146E+03 -0.56828037770E+03 -0.61234617263E+03  0.86775759830E+03  0.50400001928E-02 0. -1.
       -1    1    3    3    0  502  0.23471861146E+03  0.56828037770E+03  0.14235547578E+03  0.63111052578E+03  0.50400001928E-02 0.  1.
</event>
<event>
 5   0  0.1130848E-04  0.2126276E+04  0.7818609E-02  0.8549756E-01
        1   -1    0    0  501    0  0.00000000000E+00  0.00000000000E+00  0.10667294825E+04  0.10667294825E+04  0.50400001928E-02 0. -1.
       -1   -1    0    0    0  501  0.00000000000E+00  0.00000000000E+00 -0.10595588720E+04  0.10595588720E+04  0.50400001928E-02 0.  1.
    10030    2    1    2    0    0  0.00000000000E+00  0.00000000000E+00  0.71706105097E+01  0.21262883545E+04  0.21262762635E+04 0.  0.
        5    1    3    3  502    0 -0.47419560149E+03 -0.81926472144E+03  0.48751413088E+03  0.10647761596E+04  0.46999998093E+01 0. -1.
       -5    1    3    3    0  502  0.47419560149E+03  0.81926472144E+03 -0.48034352037E+03  0.10615121949E+04  0.46999998093E+01 0.  1.
</event>
<event>
 5   0  0.2467483E-04  0.1967050E+04  0.7818609E-02  0.8622183E-01
       -2   -1    0    0    0  501  0.00000000000E+00  0.00000000000E+00  0.89435414052E+03  0.89435414052E+03  0.25500000920E-02 0.  1.
        2   -1    0    0  501    0  0.00000000000E+00  0.00000000000E+00 -0.10815867846E+04  0.10815867846E+04  0.25500000920E-02 0. -1.
    10030    2    1    2    0    0  0.00000000000E+00  0.00000000000E+00 -0.18723264409E+03  0.19759409251E+04  0.19670501968E+04 0.  0.
        4    1    3    3  502    0 -0.55871026414E+03  0.60771038572E+02 -0.90440118794E+03  0.10647973516E+04  0.12699999809E+01 0. -1.
       -4    1    3    3    0  502  0.55871026414E+03 -0.60771038572E+02  0.71716854384E+03  0.91114357352E+03  0.12699999809E+01 0.  1.
</event>
<event>
 5   0  0.1130848E-04  0.1924841E+04  0.7818609E-02  0.8642589E-01
       -1   -1    0    0    0  501  0.00000000000E+00  0.00000000000E+00  0.45451430950E+03  0.45451430952E+03  0.50400001928E-02 0. -1.
        1   -1    0    0  501    0  0.00000000000E+00  0.00000000000E+00 -0.20378961695E+04  0.20378961695E+04  0.50400001928E-02 0.  1.
    10030    2    1    2    0    0  0.00000000000E+00  0.00000000000E+00 -0.15833818600E+04  0.24924104791E+04  0.19248407418E+04 0.  0.
        5    1    3    3  502    0 -0.91452020811E+03  0.25529052916E+03 -0.99523796758E+03  0.13755148736E+04  0.46999998093E+01 0. -1.
       -5    1    3    3    0  502  0.91452020811E+03 -0.25529052916E+03 -0.58814389245E+03  0.11168956055E+04  0.46999998093E+01 0.  1.
</event>
<event>
 5   0  0.2467483E-04  0.2110808E+04  0.7818609E-02  0.8556497E-01
        2   -1    0    0  501    0  0.00000000000E+00  0.00000000000E+00  0.19494460527E+04  0.19494460527E+04  0.25500000920E-02 0. -1.
       -2   -1    0    0    0  501  0.00000000000E+00  0.00000000000E+00 -0.57138150928E+03  0.57138150928E+03  0.25500000920E-02 0.  1.
    10030    2    1    2    0    0  0.00000000000E+00  0.00000000000E+00  0.13780645434E+04  0.25208275620E+04  0.21108078338E+04 0.  0.
        4    1    3    3  502    0 -0.10195484586E+04 -0.27266185926E+03  0.69766611270E+03  0.12651336557E+04  0.12699999809E+01 0.  1.
       -4    1    3    3    0  502  0.10195484586E+04  0.27266185926E+03  0.68039843073E+03  0.12556939063E+04  0.12699999809E+01 0. -1.
</event>
<event>
 5   0  0.1122711E-04  0.2075174E+04  0.7818609E-02  0.8572259E-01
       -1   -1    0    0    0  501  0.00000000000E+00  0.00000000000E+00  0.71423025893E+03  0.71423025895E+03  0.50400001928E-02 0. -1.
        1   -1    0    0  501    0  0.00000000000E+00  0.00000000000E+00 -0.15073383405E+04  0.15073383405E+04  0.50400001928E-02 0.  1.
    10030    2    1    2    0    0  0.00000000000E+00  0.00000000000E+00 -0.79310808154E+03  0.22215685994E+04  0.20751738754E+04 0.  0.
        1    1    3    3  502    0 -0.24339926994E+03  0.92999457891E+02  0.67863560634E+03  0.72693767958E+03  0.50400001928E-02 0. -1.
       -1    1    3    3    0  502  0.24339926994E+03 -0.92999457891E+02 -0.14717436879E+04  0.14946309199E+04  0.50400001928E-02 0.  1.
</event>
<event>
 5   0  0.2430898E-04  0.2102896E+04  0.7818609E-02  0.8559969E-01
       -2   -1    0    0    0  501  0.00000000000E+00  0.00000000000E+00  0.10560474353E+04  0.10560474353E+04  0.25500000920E-02 0.  1.
        2   -1    0    0  501    0  0.00000000000E+00  0.00000000000E+00 -0.10468684497E+04  0.10468684497E+04  0.25500000920E-02 0. -1.
    10030    2    1    2    0    0  0.00000000000E+00  0.00000000000E+00  0.91789856554E+01  0.21029158850E+04  0.21028958523E+04 0.  0.
        1    1    3    3  502    0  0.24587185173E+03  0.95143052842E+03 -0.36940567878E+03  0.10498254966E+04  0.50400001928E-02 0.  1.
       -1    1    3    3    0  502 -0.24587185173E+03 -0.95143052842E+03  0.37858466443E+03  0.10530903884E+04  0.50400001928E-02 0. -1.
</event>
<event>
 5   0  0.1042395E-04  0.1501272E+04  0.7818609E-02  0.8883608E-01
        1   -1    0    0  501    0  0.00000000000E+00  0.00000000000E+00  0.18288771621E+04  0.18288771621E+04  0.50400001928E-02 0. -1.
       -1   -1    0    0    0  501  0.00000000000E+00  0.00000000000E+00 -0.30808758168E+03  0.30808758172E+03  0.50400001928E-02 0.  1.
    10030    2    1    2    0    0  0.00000000000E+00  0.00000000000E+00  0.15207895804E+04  0.21369647438E+04  0.15012719169E+04 0.  0.
        3    1    3    3  502    0 -0.27363376800E+03 -0.13995973813E+03  0.17352045394E+04  0.17622142239E+04  0.10100000352E+00 0. -1.
       -3    1    3    3    0  502  0.27363376800E+03  0.13995973813E+03 -0.21441495901E+03  0.37475051986E+03  0.10100000352E+00 0.  1.
</event>
<event>
 5   0  0.2448804E-04  0.1982480E+04  0.7818609E-02  0.8614856E-01
       -2   -1    0    0    0  501  0.00000000000E+00  0.00000000000E+00  0.70460606576E+03  0.70460606576E+03  0.25500000920E-02 0.  1.
        2   -1    0    0  501    0  0.00000000000E+00  0.00000000000E+00 -0.13944772579E+04  0.13944772579E+04  0.25500000920E-02 0. -1.
    10030    2    1    2    0    0  0.00000000000E+00  0.00000000000E+00 -0.68987119213E+03  0.20990833237E+04  0.19824804004E+04 0.  0.
        2    1    3    3  502    0  0.11206585997E+01 -0.44689879695E+03  0.59188524411E+03  0.74165216429E+03  0.25500000920E-02 0.  1.
       -2    1    3    3    0  502 -0.11206585997E+01  0.44689879695E+03 -0.12817564362E+04  0.13574311594E+04  0.25500000920E-02 0. -1.
</event>
<event>
 5   0  0.1122711E-04  0.2175745E+04  0.7818609E-02  0.8528592E-01
       -1   -1    0    0    0  501  0.00000000000E+00  0.00000000000E+00  0.97556427459E+03  0.97556427460E+03  0.50400001928E-02 0. -1.
        1   -1    0    0  501    0  0.00000000000E+00  0.00000000000E+00 -0.12131093101E+04  0.12131093101E+04  0.50400001928E-02 0.  1.
    10030    2    1    2    0    0  0.00000000000E+00  0.00000000000E+00 -0.23754503552E+03  0.21886735847E+04  0.21757445660E+04 0.  0.
        1    1    3    3  502    0  0.55464114714E+03 -0.80669069217E+03 -0.59602768455E+03  0.11461351036E+04  0.50400001928E-02 0.  1.
       -1    1    3    3    0  502 -0.55464114714E+03  0.80669069217E+03  0.35848264903E+03  0.10425384811E+04  0.50400001928E-02 0. -1.
</event>
<event>
 5   0  0.1042395E-04  0.1809511E+04  0.7818609E-02  0.8701258E-01
       -1   -1    0    0    0  501  0.00000000000E+00  0.00000000000E+00  0.47488625532E+03  0.47488625535E+03  0.50400001928E-02 0. -1.
        1   -1    0    0  501    0  0.00000000000E+00  0.00000000000E+00 -0.17237450089E+04  0.17237450089E+04  0.50400001928E-02 0.  1.
    10030    2    1    2    0    0  0.00000000000E+00  0.00000000000E+00 -0.12488587536E+04  0.21986312643E+04  0.18095113290E+04 0.  0.
        3    1    3    3  502    0  0.39472836928E+03 -0.61865341259E+03  0.18556358363E+02  0.73408914926E+03  0.10100000352E+00 0. -1.
       -3    1    3    3    0  502 -0.39472836928E+03  0.61865341259E+03 -0.12674151120E+04  0.14645421150E+04  0.10100000352E+00 0.  1.
</event>
<event>
 5   0  0.1122711E-04  0.1808736E+04  0.7818609E-02  0.8701668E-01
       -1   -1    0    0    0  501  0.00000000000E+00  0.00000000000E+00  0.15086426259E+04  0.15086426260E+04  0.50400001928E-02 0. -1.
        1   -1    0    0  501    0  0.00000000000E+00  0.00000000000E+00 -0.54213040848E+03  0.54213040850E+03  0.50400001928E-02 0.  1.
    10030    2    1    2    0    0  0.00000000000E+00  0.00000000000E+00  0.96651221747E+03  0.20507730345E+04  0.18087355175E+04 0.  0.
        1    1    3    3  502    0 -0.30413555315E+01 -0.84517653622E+03  0.84810603354E+03  0.11973372421E+04  0.50400001928E-02 0. -1.
       -1    1    3    3    0  502  0.30413555315E+01  0.84517653622E+03  0.11840618393E+03  0.85343579233E+03  0.50400001928E-02 0.  1.
</event>
<event>
 5   0  0.2579241E-04  0.2164850E+04  0.7818609E-02  0.8533202E-01
       -2   -1    0    0    0  501  0.00000000000E+00  0.00000000000E+00  0.12133185167E+04  0.12133185167E+04  0.25500000920E-02 0.  1.
        2   -1    0    0  501    0  0.00000000000E+00  0.00000000000E+00 -0.96565219244E+03  0.96565219244E+03  0.25500000920E-02 0. -1.
    10030    2    1    2    0    0  0.00000000000E+00  0.00000000000E+00  0.24766632424E+03  0.21789707091E+04  0.21648498200E+04 0.  0.
        5    1    3    3  502    0 -0.75047258711E+03 -0.43325369248E+03  0.77668074354E+03  0.11636893629E+04  0.46999998093E+01 0.  1.
       -5    1    3    3    0  502  0.75047258711E+03  0.43325369248E+03 -0.52901441930E+03  0.10152813462E+04  0.46999998093E+01 0. -1.
</event>
<event>
 5   0  0.2512839E-04  0.2122483E+04  0.7818609E-02  0.8551404E-01
        2   -1    0    0  501    0  0.00000000000E+00  0.00000000000E+00  0.14932596795E+04  0.14932596795E+04  0.25500000920E-02 0.  1.
       -2   -1    0    0    0  501  0.00000000000E+00  0.00000000000E+00 -0.75421143048E+03  0.75421143049E+03  0.25500000920E-02 0. -1.
    10030    2    1    2    0    0  0.00000000000E+00  0.00000000000E+00  0.73904824902E+03  0.22474711100E+04  0.21224829978E+04 0.  0.
        3    1    3    3  502    0  0.66760754926E+03 -0.42179481117E+03 -0.38118378752E+03  0.87687615581E+03  0.10100000352E+00 0. -1.
       -3    1    3    3    0  502 -0.66760754926E+03  0.42179481117E+03  0.11202320365E+04  0.13705949542E+04  0.10100000352E+00 0.  1.
</event>
<event>
 5   0  0.2430898E-04  0.1396846E+04  0.7818609E-02  0.8956104E-01
       -2   -1    0    0    0  501  0.00000000000E+00  0.00000000000E+00  0.31538209730E+03  0.31538209731E+03  0.25500000920E-02 0.  1.
        2   -1    0    0  501    0  0.00000000000E+00  0.00000000000E+00 -0.15466791904E+04  0.15466791904E+04  0.25500000920E-02 0. -1.
    10030    2    1    2    0    0  0.00000000000E+00  0.00000000000E+00 -0.12312970931E+04  0.18620612877E+04  0.13968463436E+04 0.  0.
        1    1    3    3  502    0  0.46130266220E+03 -0.46542269957E+03 -0.29356812146E+03  0.71805339452E+03  0.50400001928E-02 0. -1.
       -1    1    3    3    0  502 -0.46130266220E+03  0.46542269957E+03 -0.93772897164E+03  0.11440078932E+04  0.50400001928E-02 0.  1.
</event>
<event>
 5   0  0.1156733E-04  0.2131107E+04  0.7818609E-02  0.8547663E-01
        1   -1    0    0  501    0  0.00000000000E+00  0.00000000000E+00  0.18210646187E+04  0.18210646187E+04  0.50400001928E-02 0.  1.
       -1   -1    0    0    0  501  0.00000000000E+00  0.00000000000E+00 -0.62348378555E+03  0.62348378557E+03  0.50400001928E-02 0. -1.
    10030    2    1    2    0    0  0.00000000000E+00  0.00000000000E+00  0.11975808331E+04  0.24445484043E+04  0.21311070008E+04 0.  0.
        2    1    3    3  502    0 -0.10553451912E+04 -0.12837700304E+02  0.43065043282E+03  0.11399026600E+04  0.25500000920E-02 0.  1.
       -2    1    3    3    0  502  0.10553451912E+04  0.12837700304E+02  0.76693040031E+03  0.13046457442E+04  0.25500000920E-02 0. -1.
</event>
<event>
 5   0  0.1122711E-04  0.2107771E+04  0.7818609E-02  0.8557828E-01
        1   -1    0    0  501    0  0.00000000000E+00  0.00000000000E+00  0.13330303860E+04  0.13330303860E+04  0.50400001928E-02 0.  1.
       -1   -1    0    0    0  501  0.00000000000E+00  0.00000000000E+00 -0.83319540262E+03  0.83319540263E+03  0.50400001928E-02 0. -1.
    10030    2    1    2    0    0  0.00000000000E+00  0.00000000000E+00  0.49983498341E+03  0.21662257887E+04  0.21077711348E+04 0.  0.
        1    1    3    3  502    0  0.16993755418E+03 -0.47817251837E+03 -0.69935789013E+03  0.86407707304E+03  0.50400001928E-02 0. -1.
       -1    1    3    3    0  502 -0.16993755418E+03  0.47817251837E+03  0.11991928735E+04  0.13021487156E+04  0.50400001928E-02 0.  1.
</event>
<event>
 5   0  0.2579241E-04  0.2194783E+04  0.7818609E-02  0.8520602E-01
        2   -1    0    0  501    0  0.00000000000E+00  0.00000000000E+00  0.72862868329E+03  0.72862868329E+03  0.25500000920E-02 0. -1.
       -2   -1    0    0    0  501  0.00000000000E+00  0.00000000000E+00 -0.16527878449E+04  0.16527878449E+04  0.25500000920E-02 0.  1.
    10030    2    1    2    0    0  0.00000000000E+00  0.00000000000E+00 -0.92415916166E+03  0.23814165282E+04  0.21947834802E+04 0.  0.
        5    1    3    3  502    0  0.53229170128E+03  0.77257836481E+03  0.15556619930E+03  0.95101772717E+03  0.46999998093E+01 0. -1.
       -5    1    3    3    0  502 -0.53229170128E+03 -0.77257836481E+03 -0.10797253610E+04  0.14303988011E+04  0.46999998093E+01 0.  1.
</event>
<event>
 5   0  0.1130848E-04  0.2186573E+04  0.7818609E-02  0.8524037E-01
       -1   -1    0    0    0  501  0.00000000000E+00  0.00000000000E+00  0.75010488198E+03  0.75010488200E+03  0.50400001928E-02 0. -1.
        1   -1    0    0  501    0  0.00000000000E+00  0.00000000000E+00 -0.15934781282E+04  0.15934781282E+04  0.50400001928E-02 0.  1.
    10030    2    1    2    0    0  0.00000000000E+00  0.00000000000E+00 -0.84337324623E+03  0.23435830102E+04  0.21865733222E+04 0.  0.
        5    1    3    3  502    0 -0.10212105251E+04  0.38998001710E+03 -0.40317559204E+03  0.11651300349E+04  0.46999998093E+01 0.  1.
       -5    1    3    3    0  502  0.10212105251E+04 -0.38998001710E+03 -0.44019765419E+03  0.11784529753E+04  0.46999998093E+01 0. -1.
</event>
<event>
 5   0  0.1186038E-04  0.2116803E+04  0.7818609E-02  0.8553877E-01
        1   -1    0    0  501    0  0.00000000000E+00  0.00000000000E+00  0.90815477689E+03  0.90815477691E+03  0.50400001928E-02 0.  1.
       -1   -1    0    0    0  501  0.00000000000E+00  0.00000000000E+00 -0.12335056076E+04  0.12335056076E+04  0.50400001928E-02 0. -1.
    10030    2    1    2    0    0  0.00000000000E+00  0.00000000000E+00 -0.32535083069E+03  0.21416603845E+04  0.21168032595E+04 0.  0.
        4    1    3    3  502    0  0.83817483611E+03 -0.40119571133E+03 -0.67529797139E+03  0.11487053659E+04  0.12699999809E+01 0. -1.
       -4    1    3    3    0  502 -0.83817483611E+03  0.40119571133E+03  0.34994714070E+03  0.99295501855E+03  0.12699999809E+01 0.  1.
</event>
<event>
 5   0  0.2579241E-04  0.2171953E+04  0.7818609E-02  0.8530194E-01
       -2   -1    0    0    0  501  0.00000000000E+00  0.00000000000E+00  0.79527619881E+03  0.79527619882E+03  0.25500000920E-02 0.  1.
        2   -1    0    0  501    0  0.00000000000E+00  0.00000000000E+00 -0.14829369184E+04  0.14829369184E+04  0.25500000920E-02 0. -1.
    10030    2    1    2    0    0  0.00000000000E+00  0.00000000000E+00 -0.68766071963E+03  0.22782131173E+04  0.21719525184E+04 0.  0.
        5    1    3    3  502    0 -0.81521864145E+03  0.76837681442E+02 -0.10920572517E+04  0.13649529639E+04  0.46999998093E+01 0. -1.
       -5    1    3    3    0  502  0.81521864145E+03 -0.76837681442E+02  0.40439653204E+03  0.91326015339E+03  0.46999998093E+01 0.  1.
</event>
<event>
 5   0  0.1130848E-04  0.2146654E+04  0.7818609E-02  0.8540966E-01
        1   -1    0    0  501    0  0.00000000000E+00  0.00000000000E+00  0.10470159509E+04  0.10470159509E+04  0.50400001928E-02 0.  1.
       -1   -1    0    0    0  501  0.00000000000E+00  0.00000000000E+00 -0.11002993546E+04  0.11002993546E+04  0.50400001928E-02 0. -1.
    10030    2    1    2    0    0  0.00000000000E+00  0.00000000000E+00 -0.53283403686E+02  0.21473153055E+04  0.21466541175E+04 0.  0.
        5    1    3    3  502    0  0.40572788646E+03  0.62111510510E+02  0.96539755941E+03  0.10490412267E+04  0.46999998093E+01 0.  1.
       -5    1    3    3    0  502 -0.40572788646E+03 -0.62111510510E+02 -0.10186809631E+04  0.10982740788E+04  0.46999998093E+01 0. -1.
</event>
<event>
 5   0  0.2579241E-04  0.2024617E+04  0.7818609E-02  0.8595197E-01
        2   -1    0    0  501    0  0.00000000000E+00  0.00000000000E+00  0.11363108635E+04  0.11363108635E+04  0.25500000920E-02 0.  1.
       -2   -1    0    0    0  501  0.00000000000E+00  0.00000000000E+00 -0.90183815790E+03  0.90183815790E+03  0.25500000920E-02 0. -1.
    10030    2    1    2    0    0  0.00000000000E+00  0.00000000000E+00  0.23447270563E+03  0.20381490214E+04  0.20246169968E+04 0.  0.
        5    1    3    3  502    0  0.62130595942E+03 -0.72175220987E+03  0.46274901326E+03  0.10588229724E+04  0.46999998093E+01 0.  1.
       -5    1    3    3    0  502 -0.62130595942E+03  0.72175220987E+03 -0.22827630763E+03  0.97932604902E+03  0.46999998093E+01 0. -1.
</event>
<event>
 5   0  0.2467483E-04  0.2101498E+04  0.7818609E-02  0.8560584E-01
       -2   -1    0    0    0  501  0.00000000000E+00  0.00000000000E+00  0.77927067980E+03  0.77927067980E+03  0.25500000920E-02 0. -1.
        2   -1    0    0  501    0  0.00000000000E+00  0.00000000000E+00 -0.14168031034E+04  0.14168031034E+04  0.25500000920E-02 0.  1.
    10030    2    1    2    0    0  0.00000000000E+00  0.00000000000E+00 -0.63753242363E+03  0.21960737832E+04  0.21014976731E+04 0.  0.
        4    1    3    3  502    0  0.44823085518E+03 -0.58683954656E+03  0.46239095534E+03  0.87126262482E+03  0.12699999809E+01 0. -1.
       -4    1    3    3    0  502 -0.44823085518E+03  0.58683954656E+03 -0.10999233790E+04  0.13248111584E+04  0.12699999809E+01 0.  1.
</event>
<event>
 5   0  0.2430898E-04  0.2066089E+04  0.7818609E-02  0.8576330E-01
       -2   -1    0    0    0  501  0.00000000000E+00  0.00000000000E+00  0.65231680639E+03  0.65231680640E+03  0.25500000920E-02 0.  1.
        2   -1    0    0  501    0  0.00000000000E+00  0.00000000000E+00 -0.16359850454E+04  0.16359850454E+04  0.25500000920E-02 0. -1.
    10030    2    1    2    0    0  0.00000000000E+00  0.00000000000E+00 -0.98366823903E+03  0.22883018518E+04  0.20660886139E+04 0.  0.
        1    1    3    3  502    0 -0.32281224005E+03 -0.90767544530E+03 -0.78762895718E+02  0.96658473508E+03  0.50400001928E-02 0.  1.
       -1    1    3    3    0  502  0.32281224005E+03  0.90767544530E+03 -0.90490534331E+03  0.13217171167E+04  0.50400001928E-02 0. -1.
</event>
<event>
 5   0  0.2430898E-04  0.2092217E+04  0.7818609E-02  0.8564680E-01
        2   -1    0    0  501    0  0.00000000000E+00  0.00000000000E+00  0.16364066170E+04  0.16364066170E+04  0.25500000920E-02 0. -1.
       -2   -1    0    0    0  501  0.00000000000E+00  0.00000000000E+00 -0.66874755042E+03  0.66874755043E+03  0.25500000920E-02 0.  1.
    10030    2    1    2    0    0  0.00000000000E+00  0.00000000000E+00  0.96765906660E+03  0.23051541674E+04  0.20922169263E+04 0.  0.
        1    1    3    3  502    0  0.29192391779E+03  0.32055625070E+03 -0.56509758890E+03  0.71225779648E+03  0.50400001928E-02 0.  1.
       -1    1    3    3    0  502 -0.29192391779E+03 -0.32055625070E+03  0.15327566555E+04  0.15928963710E+04  0.50400001928E-02 0. -1.
</event>
<event>
 5   0  0.1156733E-04  0.2110796E+04  0.7818609E-02  0.8556503E-01
       -1   -1    0    0    0  501  0.00000000000E+00  0.00000000000E+00  0.86343455444E+03  0.86343455445E+03  0.50400001928E-02 0.  1.
        1   -1    0    0  501    0  0.00000000000E+00  0.00000000000E+00 -0.12900392422E+04  0.12900392422E+04  0.50400001928E-02 0. -1.
    10030    2    1    2    0    0  0.00000000000E+00  0.00000000000E+00 -0.42660468772E+03  0.21534737966E+04  0.21107955451E+04 0.  0.
        2    1    3    3  502    0  0.60217577116E+03  0.32683728497E+03 -0.10322950107E+04  0.12389799270E+04  0.25500000920E-02 0. -1.
       -2    1    3    3    0  502 -0.60217577116E+03 -0.32683728497E+03  0.60569032302E+03  0.91449386965E+03  0.25500000920E-02 0.  1.
</event>
<event>
 5   0  0.2430898E-04  0.1267524E+04  0.7818609E-02  0.9055723E-01
        2   -1    0    0  501    0  0.00000000000E+00  0.00000000000E+00  0.14087462715E+04  0.14087462715E+04  0.25500000920E-02 0.  1.
       -2   -1    0    0    0  501  0.00000000000E+00  0.00000000000E+00 -0.28511476497E+03  0.28511476498E+03  0.25500000920E-02 0. -1.
    10030    2    1    2    0    0  0.00000000000E+00  0.00000000000E+00  0.11236315065E+04  0.16938610365E+04  0.12675241412E+04 0.  0.
        1    1    3    3  502    0  0.46045129740E+03  0.34300600826E+03  0.92036192207E+03  0.10847739795E+04  0.50400001928E-02 0.  1.
       -1    1    3    3    0  502 -0.46045129740E+03 -0.34300600826E+03  0.20326958446E+03  0.60908705697E+03  0.50400001928E-02 0. -1.
</event>
<event>
 5   0  0.1130848E-04  0.2126699E+04  0.7818609E-02  0.8549573E-01
        1   -1    0    0  501    0  0.00000000000E+00  0.00000000000E+00  0.10276331613E+04  0.10276331613E+04  0.50400001928E-02 0. -1.
       -1   -1    0    0    0  501  0.00000000000E+00  0.00000000000E+00 -0.11003066816E+04  0.11003066816E+04  0.50400001928E-02 0.  1.
    10030    2    1    2    0    0  0.00000000000E+00  0.00000000000E+00 -0.72673520288E+02  0.21279398430E+04  0.21266985058E+04 0.  0.
        5    1    3    3  502    0  0.63397849714E+03  0.17648065832E+03 -0.87205801089E+03  0.10925115203E+04  0.46999998093E+01 0.  1.
       -5    1    3    3    0  502 -0.63397849714E+03 -0.17648065832E+03  0.79938449061E+03  0.10354283227E+04  0.46999998093E+01 0. -1.
</event>
<event>
 5   0  0.1042395E-04  0.2095142E+04  0.7818609E-02  0.8563386E-01
       -1   -1    0    0    0  501  0.00000000000E+00  0.00000000000E+00  0.51360553710E+03  0.51360553712E+03  0.50400001928E-02 0.  1.
        1   -1    0    0  501    0  0.00000000000E+00  0.00000000000E+00 -0.21366695388E+04  0.21366695388E+04  0.50400001928E-02 0. -1.
    10030    2    1    2    0    0  0.00000000000E+00  0.00000000000E+00 -0.16230640017E+04  0.26502750759E+04  0.20951422922E+04 0.  0.
        3    1    3    3  502    0  0.61782188600E+03  0.49459097242E+03  0.56679045958E+02  0.79343344854E+03  0.10100000352E+00 0.  1.
       -3    1    3    3    0  502 -0.61782188600E+03 -0.49459097242E+03 -0.16797430476E+04  0.18568416274E+04  0.10100000352E+00 0. -1.
</event>
<event>
 5   0  0.2467483E-04  0.2065827E+04  0.7818609E-02  0.8576448E-01
        2   -1    0    0  501    0  0.00000000000E+00  0.00000000000E+00  0.11162725092E+04  0.11162725092E+04  0.25500000920E-02 0.  1.
       -2   -1    0    0    0  501  0.00000000000E+00  0.00000000000E+00 -0.95577901363E+03  0.95577901364E+03  0.25500000920E-02 0. -1.
    10030    2    1    2    0    0  0.00000000000E+00  0.00000000000E+00  0.16049349555E+03  0.20720515228E+04  0.20658265540E+04 0.  0.
        4    1    3    3  502    0  0.49270739518E+03 -0.89988480236E+03 -0.39926595410E+02  0.10267175759E+04  0.12699999809E+01 0. -1.
       -4    1    3    3    0  502 -0.49270739518E+03  0.89988480236E+03  0.20042009096E+03  0.10453339469E+04  0.12699999809E+01 0.  1.
</event>
<event>
 5   0  0.1122711E-04  0.3017557E+04  0.7818609E-02  0.8238735E-01
        1   -1    0    0  501    0  0.00000000000E+00  0.00000000000E+00  0.29137298951E+04  0.29137298951E+04  0.50400001928E-02 0.  1.
       -1   -1    0    0    0  501  0.00000000000E+00  0.00000000000E+00 -0.78127078402E+03  0.78127078403E+03  0.50400001928E-02 0. -1.
    10030    2    1    2    0    0  0.00000000000E+00  0.00000000000E+00  0.21324591111E+04  0.36950006791E+04  0.30175566537E+04 0.  0.
        1    1    3    3  502    0 -0.14307127937E+04  0.14008414382E+03  0.50529405173E+03  0.15237731932E+04  0.50400001928E-02 0. -1.
       -1    1    3    3    0  502  0.14307127937E+04 -0.14008414382E+03  0.16271650593E+04  0.21712274860E+04  0.50400001928E-02 0.  1.
</event>
<event>
 5   0  0.2512839E-04  0.2115343E+04  0.7818609E-02  0.8554514E-01
       -2   -1    0    0    0  501  0.00000000000E+00  0.00000000000E+00  0.71677749690E+03  0.71677749691E+03  0.25500000920E-02 0. -1.
        2   -1    0    0  501    0  0.00000000000E+00  0.00000000000E+00 -0.15606927768E+04  0.15606927768E+04  0.25500000920E-02 0.  1.
    10030    2    1    2    0    0  0.00000000000E+00  0.00000000000E+00 -0.84391527989E+03  0.22774702737E+04  0.21153434350E+04 0.  0.
        3    1    3    3  502    0  0.32265859395E+02  0.74134191229E+02  0.71344550789E+03  0.71801216349E+03  0.10100000352E+00 0. -1.
       -3    1    3    3    0  502 -0.32265859395E+02 -0.74134191229E+02 -0.15573607878E+04  0.15594581102E+04  0.10100000352E+00 0.  1.
</event>
<event>
 5   0  0.2512839E-04  0.2111176E+04  0.7818609E-02  0.8556336E-01
        2   -1    0    0  501    0  0.00000000000E+00  0.00000000000E+00  0.14176572479E+04  0.14176572479E+04  0.25500000920E-02 0.  1.
       -2   -1    0    0    0  501  0.00000000000E+00  0.00000000000E+00 -0.78599137205E+03  0.78599137205E+03  0.25500000920E-02 0. -1.
    10030    2    1    2    0    0  0.00000000000E+00  0.00000000000E+00  0.63166587584E+03  0.22036486199E+04  0.21111763217E+04 0.  0.
        3    1    3    3  502    0 -0.58120001002E+03 -0.74814657026E+03  0.80178900073E+03  0.12411214099E+04  0.10100000352E+00 0.  1.
       -3    1    3    3    0  502  0.58120001002E+03  0.74814657026E+03 -0.17012312489E+03  0.96252721004E+03  0.10100000352E+00 0. -1.
</event>
<event>
 5   0  0.2512839E-04  0.2040982E+04  0.7818609E-02  0.8587696E-01
        2   -1    0    0  501    0  0.00000000000E+00  0.00000000000E+00  0.19881093189E+04  0.19881093189E+04  0.25500000920E-02 0. -1.
       -2   -1    0    0    0  501  0.00000000000E+00  0.00000000000E+00 -0.52381535266E+03  0.52381535267E+03  0.25500000920E-02 0.  1.
    10030    2    1    2    0    0  0.00000000000E+00  0.00000000000E+00  0.14642939663E+04  0.25119246716E+04  0.20409822969E+04 0.  0.
        3    1    3    3  502    0  0.95682132068E+03 -0.11756565344E+03  0.32012655714E+03  0.10157803628E+04  0.10100000352E+00 0.  1.
       -3    1    3    3    0  502 -0.95682132068E+03  0.11756565344E+03  0.11441674091E+04  0.14961443088E+04  0.10100000352E+00 0. -1.
</event>
<event>
 5   0  0.1156733E-04  0.2020857E+04  0.7818609E-02  0.8596931E-01
        1   -1    0    0  501    0  0.00000000000E+00  0.00000000000E+00  0.77605279899E+03  0.77605279900E+03  0.50400001928E-02 0. -1.
       -1   -1    0    0    0  501  0.00000000000E+00  0.00000000000E+00 -0.13155883056E+04  0.13155883056E+04  0.50400001928E-02 0.  1.
    10030    2    1    2    0    0  0.00000000000E+00  0.00000000000E+00 -0.53953550658E+03  0.20916411046E+04  0.20208572309E+04 0.  0.
        2    1    3    3  502    0  0.48545909397E+03  0.88467785375E+03 -0.32295392560E+03  0.10595398411E+04  0.25500000920E-02 0.  1.
       -2    1    3    3    0  502 -0.48545909397E+03 -0.88467785375E+03 -0.21658158098E+03  0.10321012635E+04  0.25500000920E-02 0. -1.
</event>
<event>
 5   0  0.2579241E-04  0.2080124E+04  0.7818609E-02  0.8570050E-01
        2   -1    0    0  501    0  0.00000000000E+00  0.00000000000E+00  0.11937416216E+04  0.11937416216E+04  0.25500000920E-02 0.  1.
       -2   -1    0    0    0  501  0.00000000000E+00  0.00000000000E+00 -0.90616681304E+03  0.90616681304E+03  0.25500000920E-02 0. -1.
    10030    2    1    2    0    0  0.00000000000E+00  0.00000000000E+00  0.28757480859E+03  0.20999084347E+04  0.20801240741E+04 0.  0.
        5    1    3    3  502    0 -0.62070079963E+03  0.75732672095E+03  0.49768363587E+03  0.10984190167E+04  0.46999998093E+01 0. -1.
       -5    1    3    3    0  502  0.62070079963E+03 -0.75732672095E+03 -0.21010882728E+03  0.10014894179E+04  0.46999998093E+01 0.  1.
</event>
<event>
 5   0  0.2579241E-04  0.2101826E+04  0.7818609E-02  0.8560440E-01
       -2   -1    0    0    0  501  0.00000000000E+00  0.00000000000E+00  0.11449199459E+04  0.11449199459E+04  0.25500000920E-02 0.  1.
        2   -1    0    0  501    0  0.00000000000E+00  0.00000000000E+00 -0.96462461319E+03  0.96462461320E+03  0.25500000920E-02 0. -1.
    10030    2    1    2    0    0  0.00000000000E+00  0.00000000000E+00  0.18029533270E+03  0.21095445591E+04  0.21018258348E+04 0.  0.
        5    1    3    3  502    0 -0.26372599097E+03 -0.85712006832E+03  0.64005541831E+03  0.11017709555E+04  0.46999998093E+01 0.  1.
       -5    1    3    3    0  502  0.26372599097E+03  0.85712006832E+03 -0.45976008561E+03  0.10077736036E+04  0.46999998093E+01 0. -1.
</event>
<event>
 5   0  0.2467483E-04  0.2072916E+04  0.7818609E-02  0.8573269E-01
        2   -1    0    0  501    0  0.00000000000E+00  0.00000000000E+00  0.74473577122E+03  0.74473577123E+03  0.25500000920E-02 0.  1.
       -2   -1    0    0    0  501  0.00000000000E+00  0.00000000000E+00 -0.14424516778E+04  0.14424516778E+04  0.25500000920E-02 0. -1.
    10030    2    1    2    0    0  0.00000000000E+00  0.00000000000E+00 -0.69771590654E+03  0.21871874490E+04  0.20729161707E+04 0.  0.
        4    1    3    3  502    0  0.17738862954E+03  0.76048913629E+03 -0.10679192938E+04  0.13229753147E+04  0.12699999809E+01 0. -1.
       -4    1    3    3    0  502 -0.17738862954E+03 -0.76048913629E+03  0.37020338723E+03  0.86421213433E+03  0.12699999809E+01 0.  1.
</event>
<event>
 5   0  0.2467483E-04  0.2203412E+04  0.7818609E-02  0.8517009E-01
       -2   -1    0    0    0  501  0.00000000000E+00  0.00000000000E+00  0.97004906821E+03  0.97004906822E+03  0.25500000920E-02 0.  1.
        2   -1    0    0  501    0  0.00000000000E+00  0.00000000000E+00 -0.12512311882E+04  0.12512311882E+04  0.25500000920E-02 0. -1.
    10030    2    1    2    0    0  0.00000000000E+00  0.00000000000E+00 -0.28118212000E+03  0.22212802564E+04  0.22034115805E+04 0.  0.
        4    1    3    3  502    0 -0.22058522778E+03  0.58457216024E+03 -0.10553479002E+04  0.12264351824E+04  0.12699999809E+01 0. -1.
       -4    1    3    3    0  502  0.22058522778E+03 -0.58457216024E+03  0.77416578019E+03  0.99484507405E+03  0.12699999809E+01 0.  1.
</event>
<event>
 5   0  0.1186038E-04  0.2163861E+04  0.7818609E-02  0.8533622E-01
        1   -1    0    0  501    0  0.00000000000E+00  0.00000000000E+00  0.12235635010E+04  0.12235635010E+04  0.50400001928E-02 0.  1.
       -1   -1    0    0    0  501  0.00000000000E+00  0.00000000000E+00 -0.95669223711E+03  0.95669223713E+03  0.50400001928E-02 0. -1.
    10030    2    1    2    0    0  0.00000000000E+00  0.00000000000E+00  0.26687126387E+03  0.21802557381E+04  0.21638610889E+04 0.  0.
        4    1    3    3  502    0 -0.55684373892E+03  0.21723802725E+03  0.10421025631E+04  0.12013520196E+04  0.12699999809E+01 0.  1.
       -4    1    3    3    0  502  0.55684373892E+03 -0.21723802725E+03 -0.77523129920E+03  0.97890371856E+03  0.12699999809E+01 0. -1.
</event>
<event>
 5   0  0.2512839E-04  0.2091353E+04  0.7818609E-02  0.8565062E-01
        2   -1    0    0  501    0  0.00000000000E+00  0.00000000000E+00  0.15939337238E+04  0.15939337238E+04  0.25500000920E-02 0. -1.
       -2   -1    0    0    0  501  0.00000000000E+00  0.00000000000E+00 -0.68600064272E+03  0.68600064273E+03  0.25500000920E-02 0.  1.
    10030    2    1    2    0    0  0.00000000000E+00  0.00000000000E+00  0.90793308112E+03  0.22799343666E+04  0.20913532069E+04 0.  0.
        3    1    3    3  502    0  0.14746526693E+03  0.40244363760E+03 -0.58583834133E+03  0.72588804837E+03  0.10100000352E+00 0.  1.
       -3    1    3    3    0  502 -0.14746526693E+03 -0.40244363760E+03  0.14937714224E+04  0.15540463182E+04  0.10100000352E+00 0. -1.
</event>
<event>
 5   0  0.1186038E-04  0.1727764E+04  0.7818609E-02  0.8745686E-01
       -1   -1    0    0    0  501  0.00000000000E+00  0.00000000000E+00  0.10363790825E+04  0.10363790825E+04  0.50400001928E-02 0. -1.
        1   -1    0    0  501    0  0.00000000000E+00  0.00000000000E+00 -0.72009565796E+03  0.72009565798E+03  0.50400001928E-02 0.  1.
    10030    2    1    2    0    0  0.00000000000E+00  0.00000000000E+00  0.31628342457E+03  0.17564747405E+04  0.17277639623E+04 0.  0.
        4    1    3    3  502    0  0.14738450360E+03  0.21616235694E+03 -0.67885117891E+03  0.72752243434E+03  0.12699999809E+01 0.  1.
       -4    1    3    3    0  502 -0.14738450360E+03 -0.21616235694E+03  0.99513460348E+03  0.10289523062E+04  0.12699999809E+01 0. -1.
</event>
<event>
 5   0  0.2430898E-04  0.2129460E+04  0.7818609E-02  0.8548376E-01
       -2   -1    0    0    0  501  0.00000000000E+00  0.00000000000E+00  0.76524035103E+03  0.76524035104E+03  0.25500000920E-02 0.  1.
        2   -1    0    0  501    0  0.00000000000E+00  0.00000000000E+00 -0.14814304266E+04  0.14814304266E+04  0.25500000920E-02 0. -1.
    10030    2    1    2    0    0  0.00000000000E+00  0.00000000000E+00 -0.71619007553E+03  0.22466707776E+04  0.21294603445E+04 0.  0.
        1    1    3    3  502    0  0.45028860921E+03  0.71132903424E+03 -0.10458187811E+04  0.13425668510E+04  0.50400001928E-02 0. -1.
       -1    1    3    3    0  502 -0.45028860921E+03 -0.71132903424E+03  0.32962870556E+03  0.90410392659E+03  0.50400001928E-02 0.  1.
</event>
<event>
 5   0  0.2448804E-04  0.2108278E+04  0.7818609E-02  0.8557606E-01
        2   -1    0    0  501    0  0.00000000000E+00  0.00000000000E+00  0.14725313809E+04  0.14725313809E+04  0.25500000920E-02 0. -1.
       -2   -1    0    0    0  501  0.00000000000E+00  0.00000000000E+00 -0.75462504058E+03  0.75462504058E+03  0.25500000920E-02 0.  1.
    10030    2    1    2    0    0  0.00000000000E+00  0.00000000000E+00  0.71790634031E+03  0.22271564215E+04  0.21082780206E+04 0.  0.
        2    1    3    3  502    0  0.97925262731E+03  0.34628433272E+03  0.54898681146E+03  0.11748340591E+04  0.25500000920E-02 0.  1.
       -2    1    3    3    0  502 -0.97925262731E+03 -0.34628433272E+03  0.16891952885E+03  0.10523223624E+04  0.25500000920E-02 0. -1.
</event>
<event>
 5   0  0.1122711E-04  0.2041254E+04  0.7818609E-02  0.8587572E-01
       -1   -1    0    0    0  501  0.00000000000E+00  0.00000000000E+00  0.10554552881E+04  0.10554552881E+04  0.50400001928E-02 0.  1.
        1   -1    0    0  501    0  0.00000000000E+00  0.00000000000E+00 -0.98694772941E+03  0.98694772942E+03  0.50400001928E-02 0. -1.
    10030    2    1    2    0    0  0.00000000000E+00  0.00000000000E+00  0.68507558689E+02  0.20424030175E+04  0.20412537325E+04 0.  0.
        1    1    3    3  502    0  0.10958789394E+03  0.81570050444E+03 -0.56966071934E+03  0.10009446312E+04  0.50400001928E-02 0. -1.
       -1    1    3    3    0  502 -0.10958789394E+03 -0.81570050444E+03  0.63816827803E+03  0.10414583864E+04  0.50400001928E-02 0.  1.
</event>
<event>
 5   0  0.1156733E-04  0.2073420E+04  0.7818609E-02  0.8573043E-01
        1   -1    0    0  501    0  0.00000000000E+00  0.00000000000E+00  0.22464411943E+04  0.22464411943E+04  0.50400001928E-02 0. -1.
       -1   -1    0    0    0  501  0.00000000000E+00  0.00000000000E+00 -0.47843116871E+03  0.47843116873E+03  0.50400001928E-02 0.  1.
    10030    2    1    2    0    0  0.00000000000E+00  0.00000000000E+00  0.17680100255E+04  0.27248723630E+04  0.20734198668E+04 0.  0.
        2    1    3    3  502    0  0.42165209805E+03  0.65391941543E+03 -0.16352315143E+02  0.77824706352E+03  0.25500000920E-02 0. -1.
       -2    1    3    3    0  502 -0.42165209805E+03 -0.65391941543E+03  0.17843623407E+04  0.19466252995E+04  0.25500000920E-02 0.  1.
</event>
<event>
 5   0  0.2467483E-04  0.2125895E+04  0.7818609E-02  0.8549921E-01
       -2   -1    0    0    0  501  0.00000000000E+00  0.00000000000E+00  0.77426699430E+03  0.77426699431E+03  0.25500000920E-02 0. -1.
        2   -1    0    0  501    0  0.00000000000E+00  0.00000000000E+00 -0.14592606903E+04  0.14592606903E+04  0.25500000920E-02 0.  1.
    10030    2    1    2    0    0  0.00000000000E+00  0.00000000000E+00 -0.68499369598E+03  0.22335276846E+04  0.21258950008E+04 0.  0.
        4    1    3    3  502    0  0.29777906094E+02 -0.99637606526E+03  0.45246292223E+02  0.99784809814E+03  0.12699999809E+01 0. -1.
       -4    1    3    3    0  502 -0.29777906094E+02  0.99637606526E+03 -0.73023998820E+03  0.12356795865E+04  0.12699999809E+01 0.  1.
</event>
<event>
 5   0  0.2467483E-04  0.2089089E+04  0.7818609E-02  0.8566065E-01
        2   -1    0    0  501    0  0.00000000000E+00  0.00000000000E+00  0.60184144622E+03  0.60184144623E+03  0.25500000920E-02 0.  1.
       -2   -1    0    0    0  501  0.00000000000E+00  0.00000000000E+00 -0.18128917975E+04  0.18128917975E+04  0.25500000920E-02 0. -1.
    10030    2    1    2    0    0  0.00000000000E+00  0.00000000000E+00 -0.12110503513E+04  0.24147332437E+04  0.20890891999E+04 0.  0.
        4    1    3    3  502    0  0.72058723845E+03 -0.56051547739E+03 -0.11922382512E+04  0.15016182035E+04  0.12699999809E+01 0. -1.
       -4    1    3    3    0  502 -0.72058723845E+03  0.56051547739E+03 -0.18812100046E+02  0.91311504018E+03  0.12699999809E+01 0.  1.
</event>
<event>
 5   0  0.1186038E-04  0.2099752E+04  0.7818609E-02  0.8561352E-01
       -1   -1    0    0    0  501  0.00000000000E+00  0.00000000000E+00  0.65977745136E+03  0.65977745138E+03  0.50400001928E-02 0.  1.
        1   -1    0    0  501    0  0.00000000000E+00  0.00000000000E+00 -0.16706239022E+04  0.16706239022E+04  0.50400001928E-02 0. -1.
    10030    2    1    2    0    0  0.00000000000E+00  0.00000000000E+00 -0.10108464508E+04  0.23304013536E+04  0.20997523477E+04 0.  0.
        4    1    3    3  502    0  0.10441709933E+04 -0.10780129163E+03 -0.52540617552E+03  0.11738685803E+04  0.12699999809E+01 0.  1.
       -4    1    3    3    0  502 -0.10441709933E+04  0.10780129163E+03 -0.48544027532E+03  0.11565327732E+04  0.12699999809E+01 0. -1.
</event>
<event>
 5   0  0.1156733E-04  0.2122929E+04  0.7818609E-02  0.8551210E-01
       -1   -1    0    0    0  501  0.00000000000E+00  0.00000000000E+00  0.17730018627E+04  0.17730018627E+04  0.50400001928E-02 0. -1.
        1   -1    0    0  501    0  0.00000000000E+00  0.00000000000E+00 -0.63548007178E+03  0.63548007180E+03  0.50400001928E-02 0.  1.
    10030    2    1    2    0    0  0.00000000000E+00  0.00000000000E+00  0.11375217910E+04  0.24084819345E+04  0.21229294393E+04 0.  0.
        2    1    3    3  502    0 -0.54913446456E+03 -0.78131003704E+03  0.10944601050E+04  0.14525277814E+04  0.25500000920E-02 0. -1.
       -2    1    3    3    0  502  0.54913446456E+03  0.78131003704E+03  0.43061685917E+02  0.95595415316E+03  0.25500000920E-02 0.  1.
</event>
<event>
 5   0  0.2579241E-04  0.2807589E+04  0.7818609E-02  0.8300916E-01
        2   -1    0    0  501    0  0.00000000000E+00  0.00000000000E+00  0.20318382568E+04  0.20318382568E+04  0.25500000920E-02 0. -1.
       -2   -1    0    0    0  501  0.00000000000E+00  0.00000000000E+00 -0.96987973899E+03  0.96987973899E+03  0.25500000920E-02 0.  1.
    10030    2    1    2    0    0  0.00000000000E+00  0.00000000000E+00  0.10619585178E+04  0.30017179958E+04  0.28075888290E+04 0.  0.
        5    1    3    3  502    0 -0.39027532109E+03 -0.21189602663E+03 -0.89279117399E+03  0.99715240696E+03  0.46999998093E+01 0.  1.
       -5    1    3    3    0  502  0.39027532109E+03  0.21189602663E+03  0.19547496918E+04  0.20045655889E+04  0.46999998093E+01 0. -1.
</event>
<event>
 5   0  0.8698750E-05  0.1418733E+04  0.7818609E-02  0.8940369E-01
       -4   -1    0    0    0  501  0.00000000000E+00  0.00000000000E+00  0.31391724091E+03  0.31391980988E+03  0.12699999809E+01 0. -1.
        4   -1    0    0  501    0  0.00000000000E+00  0.00000000000E+00 -0.16029630310E+04  0.16029635341E+04  0.12699999809E+01 0.  1.
    10030    2    1    2    0    0  0.00000000000E+00  0.00000000000E+00 -0.12890457901E+04  0.19168833440E+04  0.14187327816E+04 0.  0.
        1    1    3    3  502    0  0.46217514396E+03  0.47280940829E+03 -0.99175397434E+03  0.11919440196E+04  0.50400001928E-02 0.  1.
       -1    1    3    3    0  502 -0.46217514396E+03 -0.47280940829E+03 -0.29729181575E+03  0.72493932436E+03  0.50400001928E-02 0. -1.
</event>
<event>
 5   0  0.1130848E-04  0.1086243E+04  0.7818609E-02  0.9218705E-01
        1   -1    0    0  501    0  0.00000000000E+00  0.00000000000E+00  0.15714006839E+04  0.15714006839E+04  0.50400001928E-02 0. -1.
       -1   -1    0    0    0  501  0.00000000000E+00  0.00000000000E+00 -0.18771833280E+03  0.18771833287E+03  0.50400001928E-02 0.  1.
    10030    2    1    2    0    0  0.00000000000E+00  0.00000000000E+00  0.13836823511E+04  0.17591190168E+04  0.10862425449E+04 0.  0.
        5    1    3    3  502    0  0.22239725234E+03 -0.10831835549E+03 -0.91152700566E+02  0.26367462677E+03  0.46999998093E+01 0.  1.
       -5    1    3    3    0  502 -0.22239725234E+03  0.10831835549E+03  0.14748350517E+04  0.14954443900E+04  0.46999998093E+01 0. -1.
</event>
<event>
 5   0  0.2448804E-04  0.2150252E+04  0.7818609E-02  0.8539424E-01
        2   -1    0    0  501    0  0.00000000000E+00  0.00000000000E+00  0.13102062934E+04  0.13102062934E+04  0.25500000920E-02 0. -1.
       -2   -1    0    0    0  501  0.00000000000E+00  0.00000000000E+00 -0.88222452139E+03  0.88222452140E+03  0.25500000920E-02 0.  1.
    10030    2    1    2    0    0  0.00000000000E+00  0.00000000000E+00  0.42798177203E+03  0.21924308148E+04  0.21502521900E+04 0.  0.
        2    1    3    3  502    0  0.33652054365E+03 -0.72631244168E+03 -0.51780644850E+03  0.95336213337E+03  0.25500000920E-02 0.  1.
       -2    1    3    3    0  502 -0.33652054365E+03  0.72631244168E+03  0.94578822053E+03  0.12390686814E+04  0.25500000920E-02 0. -1.
</event>
<event>
 5   0  0.1186038E-04  0.2066138E+04  0.7818609E-02  0.8576308E-01
        1   -1    0    0  501    0  0.00000000000E+00  0.00000000000E+00  0.10988955468E+04  0.10988955468E+04  0.50400001928E-02 0. -1.
       -1   -1    0    0    0  501  0.00000000000E+00  0.00000000000E+00 -0.97118565356E+03  0.97118565358E+03  0.50400001928E-02 0.  1.
    10030    2    1    2    0    0  0.00000000000E+00  0.00000000000E+00  0.12770989322E+03  0.20700812004E+04  0.20661380301E+04 0.  0.
        4    1    3    3  502    0 -0.14272950209E+03  0.16651069023E+03 -0.94759260188E+03  0.97264118397E+03  0.12699999809E+01 0.  1.
       -4    1    3    3    0  502  0.14272950209E+03 -0.16651069023E+03  0.10753024951E+04  0.10974400164E+04  0.12699999809E+01 0. -1.
</event>
<event>
 5   0  0.2512839E-04  0.1525945E+04  0.7818609E-02  0.8867381E-01
        2   -1    0    0  501    0  0.00000000000E+00  0.00000000000E+00  0.75802160308E+03  0.75802160308E+03  0.25500000920E-02 0.  1.
       -2   -1    0    0    0  501  0.00000000000E+00  0.00000000000E+00 -0.76795566605E+03  0.76795566606E+03  0.25500000920E-02 0. -1.
    10030    2    1    2    0    0  0.00000000000E+00  0.00000000000E+00 -0.99340629722E+01  0.15259772691E+04  0.15259449336E+04 0.  0.
        3    1    3    3  502    0 -0.54991289837E+03  0.11973686758E+03  0.51020003760E+03  0.75963491351E+03  0.10100000352E+00 0.  1.
       -3    1    3    3    0  502  0.54991289837E+03 -0.11973686758E+03 -0.52013410057E+03  0.76634235563E+03  0.10100000352E+00 0. -1.
</event>
<event>
 5   0  0.1156733E-04  0.2079185E+04  0.7818609E-02  0.8570469E-01
       -1   -1    0    0    0  501  0.00000000000E+00  0.00000000000E+00  0.10430358368E+04  0.10430358369E+04  0.50400001928E-02 0. -1.
        1   -1    0    0  501    0  0.00000000000E+00  0.00000000000E+00 -0.10361601349E+04  0.10361601349E+04  0.50400001928E-02 0.  1.
    10030    2    1    2    0    0  0.00000000000E+00  0.00000000000E+00  0.68757019260E+01  0.20791959718E+04  0.20791846031E+04 0.  0.
        2    1    3    3  502    0  0.29105516189E+03  0.97836638539E+03  0.20051318386E+03  0.10402496951E+04  0.25500000920E-02 0. -1.
       -2    1    3    3    0  502 -0.29105516189E+03 -0.97836638539E+03 -0.19363748193E+03  0.10389462766E+04  0.25500000920E-02 0.  1.
</event>
<event>
 5   0  0.2448804E-04  0.2120884E+04  0.7818609E-02  0.8552099E-01
        2   -1    0    0  501    0  0.00000000000E+00  0.00000000000E+00  0.47102847393E+03  0.47102847394E+03  0.25500000920E-02 0.  1.
       -2   -1    0    0    0  501  0.00000000000E+00  0.00000000000E+00 -0.23874079676E+04  0.23874079676E+04  0.25500000920E-02 0. -1.
    10030    2    1    2    0    0  0.00000000000E+00  0.00000000000E+00 -0.19163794936E+04  0.28584364415E+04  0.21208839022E+04 0.  0.
        2    1    3    3  502    0  0.93878853667E+03  0.32018457627E+03 -0.14637245465E+04  0.17681435540E+04  0.25500000920E-02 0. -1.
       -2    1    3    3    0  502 -0.93878853667E+03 -0.32018457627E+03 -0.45265494718E+03  0.10902928876E+04  0.25500000920E-02 0.  1.
</event>
<event>
 5   0  0.1042395E-04  0.1615645E+04  0.7818609E-02  0.8810994E-01
       -1   -1    0    0    0  501  0.00000000000E+00  0.00000000000E+00  0.56774249632E+03  0.56774249634E+03  0.50400001928E-02 0.  1.
        1   -1    0    0  501    0  0.00000000000E+00  0.00000000000E+00 -0.11494240905E+04  0.11494240905E+04  0.50400001928E-02 0. -1.
    10030    2    1    2    0    0  0.00000000000E+00  0.00000000000E+00 -0.58168159416E+03  0.17171665868E+04  0.16156446422E+04 0.  0.
        3    1    3    3  502    0 -0.57436836223E+03 -0.33316586481E+02  0.31186159752E+03  0.65442087121E+03  0.10100000352E+00 0.  1.
       -3    1    3    3    0  502  0.57436836223E+03  0.33316586481E+02 -0.89354319169E+03  0.10627457156E+04  0.10100000352E+00 0. -1.
</event>
<event>
 5   0  0.2448804E-04  0.1949452E+04  0.7818609E-02  0.8630625E-01
       -2   -1    0    0    0  501  0.00000000000E+00  0.00000000000E+00  0.10102934945E+04  0.10102934945E+04  0.25500000920E-02 0.  1.
        2   -1    0    0  501    0  0.00000000000E+00  0.00000000000E+00 -0.94041063629E+03  0.94041063629E+03  0.25500000920E-02 0. -1.
    10030    2    1    2    0    0  0.00000000000E+00  0.00000000000E+00  0.69882858190E+02  0.19507041308E+04  0.19494519722E+04 0.  0.
        2    1    3    3  502    0  0.25771850841E+03 -0.83501941232E+03  0.46697620700E+03  0.99082946385E+03  0.25500000920E-02 0.  1.
       -2    1    3    3    0  502 -0.25771850841E+03  0.83501941232E+03 -0.39709334881E+03  0.95987466692E+03  0.25500000920E-02 0. -1.
</event>
<event>
 5   0  0.1130848E-04  0.2128277E+04  0.7818609E-02  0.8548888E-01
       -1   -1    0    0    0  501  0.00000000000E+00  0.00000000000E+00  0.86883410803E+03  0.86883410805E+03  0.50400001928E-02 0. -1.
        1   -1    0    0  501    0  0.00000000000E+00  0.00000000000E+00 -0.13033450227E+04  0.13033450227E+04  0.50400001928E-02 0.  1.
    10030    2    1    2    0    0  0.00000000000E+00  0.00000000000E+00 -0.43451091468E+03  0.21721791308E+04  0.21282768714E+04 0.  0.
        5    1    3    3  502    0  0.69622075064E+03 -0.27927902782E+03  0.55306415776E+03  0.93199901373E+03  0.46999998093E+01 0. -1.
       -5    1    3    3    0  502 -0.69622075064E+03  0.27927902782E+03 -0.98757507244E+03  0.12401801170E+04  0.46999998093E+01 0.  1.
</event>
<event>
 5   0  0.1186038E-04  0.2077998E+04  0.7818609E-02  0.8570998E-01
        1   -1    0    0  501    0  0.00000000000E+00  0.00000000000E+00  0.99906374087E+03  0.99906374088E+03  0.50400001928E-02 0. -1.
       -1   -1    0    0    0  501  0.00000000000E+00  0.00000000000E+00 -0.10805307773E+04  0.10805307773E+04  0.50400001928E-02 0.  1.
    10030    2    1    2    0    0  0.00000000000E+00  0.00000000000E+00 -0.81467036417E+02  0.20795945182E+04  0.20779981910E+04 0.  0.
        4    1    3    3  502    0 -0.66396458109E+02 -0.90356664536E+03 -0.54972656388E+03  0.10597367976E+04  0.12699999809E+01 0.  1.
       -4    1    3    3    0  502  0.66396458109E+02  0.90356664536E+03  0.46825952746E+03  0.10198577206E+04  0.12699999809E+01 0. -1.
</event>
<event>
 5   0  0.2512839E-04  0.1280629E+04  0.7818609E-02  0.9045069E-01
       -2   -1    0    0    0  501  0.00000000000E+00  0.00000000000E+00  0.27328762028E+03  0.27328762029E+03  0.25500000920E-02 0. -1.
        2   -1    0    0  501    0  0.00000000000E+00  0.00000000000E+00 -0.15002600099E+04  0.15002600099E+04  0.25500000920E-02 0.  1.
    10030    2    1    2    0    0  0.00000000000E+00  0.00000000000E+00 -0.12269723896E+04  0.17735476301E+04  0.12806287329E+04 0.  0.
        3    1    3    3  502    0 -0.10173331482E+03  0.25486374035E+03 -0.14146949914E+04  0.14410645795E+04  0.10100000352E+00 0.  1.
       -3    1    3    3    0  502  0.10173331482E+03 -0.25486374035E+03  0.18772260184E+03  0.33248305060E+03  0.10100000352E+00 0. -1.
</event>
<event>
 5   0  0.1042395E-04  0.2214755E+04  0.7818609E-02  0.8512312E-01
       -1   -1    0    0    0  501  0.00000000000E+00  0.00000000000E+00  0.92689544565E+03  0.92689544566E+03  0.50400001928E-02 0.  1.
        1   -1    0    0  501    0  0.00000000000E+00  0.00000000000E+00 -0.13230021035E+04  0.13230021035E+04  0.50400001928E-02 0. -1.
    10030    2    1    2    0    0  0.00000000000E+00  0.00000000000E+00 -0.39610665789E+03  0.22498975492E+04  0.22147547263E+04 0.  0.
        3    1    3    3  502    0 -0.16112484042E+03  0.10947947757E+04 -0.15558327139E+03  0.11174716908E+04  0.10100000352E+00 0.  1.
       -3    1    3    3    0  502  0.16112484042E+03 -0.10947947757E+04 -0.24052338650E+03  0.11324258584E+04  0.10100000352E+00 0. -1.
</event>
<event>
 5   0  0.1156733E-04  0.1952625E+04  0.7818609E-02  0.8629096E-01
        1   -1    0    0  501    0  0.00000000000E+00  0.00000000000E+00  0.18565515450E+04  0.18565515450E+04  0.50400001928E-02 0. -1.
       -1   -1    0    0    0  501  0.00000000000E+00  0.00000000000E+00 -0.51341748891E+03  0.51341748893E+03  0.50400001928E-02 0.  1.
    10030    2    1    2    0    0  0.00000000000E+00  0.00000000000E+00  0.13431340561E+04  0.23699690340E+04  0.19526249331E+04 0.  0.
        2    1    3    3  502    0  0.75637545369E+03 -0.13759332296E+03 -0.58845570252E+02  0.77103732115E+03  0.25500000920E-02 0.  1.
       -2    1    3    3    0  502 -0.75637545369E+03  0.13759332296E+03  0.14019796264E+04  0.15989317128E+04  0.25500000920E-02 0. -1.
</event>
<event>
 5   0  0.1156733E-04  0.2043349E+04  0.7818609E-02  0.8586618E-01
       -1   -1    0    0    0  501  0.00000000000E+00  0.00000000000E+00  0.10256804368E+04  0.10256804368E+04  0.50400001928E-02 0.  1.
        1   -1    0    0  501    0  0.00000000000E+00  0.00000000000E+00 -0.10176841919E+04  0.10176841919E+04  0.50400001928E-02 0. -1.
    10030    2    1    2    0    0  0.00000000000E+00  0.00000000000E+00  0.79962449218E+01  0.20433646287E+04  0.20433489829E+04 0.  0.
        2    1    3    3  502    0  0.62933516279E+03 -0.33033983004E+03 -0.72992276198E+03  0.10188102811E+04  0.25500000920E-02 0. -1.
       -2    1    3    3    0  502 -0.62933516279E+03  0.33033983004E+03  0.73791900691E+03  0.10245543476E+04  0.25500000920E-02 0.  1.
</event>
<event>
 5   0  0.2467483E-04  0.2070727E+04  0.7818609E-02  0.8574249E-01
        2   -1    0    0  501    0  0.00000000000E+00  0.00000000000E+00  0.20413052192E+04  0.20413052192E+04  0.25500000920E-02 0. -1.
       -2   -1    0    0    0  501  0.00000000000E+00  0.00000000000E+00 -0.52514319783E+03  0.52514319783E+03  0.25500000920E-02 0.  1.
    10030    2    1    2    0    0  0.00000000000E+00  0.00000000000E+00  0.15161620213E+04  0.25664484170E+04  0.20707269743E+04 0.  0.
        4    1    3    3  502    0 -0.62355979977E+03  0.27462862444E+03  0.17242751638E+04  0.18540156846E+04  0.12699999809E+01 0. -1.
       -4    1    3    3    0  502  0.62355979977E+03 -0.27462862444E+03 -0.20811314247E+03  0.71243273242E+03  0.12699999809E+01 0.  1.
</event>
<event>
 5   0  0.1122711E-04  0.2238256E+04  0.7818609E-02  0.8502672E-01
        1   -1    0    0  501    0  0.00000000000E+00  0.00000000000E+00  0.93015100895E+03  0.93015100896E+03  0.50400001928E-02 0.  1.
       -1   -1    0    0    0  501  0.00000000000E+00  0.00000000000E+00 -0.13464993536E+04  0.13464993536E+04  0.50400001928E-02 0. -1.
    10030    2    1    2    0    0  0.00000000000E+00  0.00000000000E+00 -0.41634834461E+03  0.22766503625E+04  0.22382562251E+04 0.  0.
        1    1    3    3  502    0 -0.85784293608E+03 -0.15021522715E+03  0.50672535116E+03  0.10075860752E+04  0.50400001928E-02 0.  1.
       -1    1    3    3    0  502  0.85784293608E+03  0.15021522715E+03 -0.92307369577E+03  0.12690642873E+04  0.50400001928E-02 0. -1.
</event>
<event>
 5   0  0.1122711E-04  0.1995278E+04  0.7818609E-02  0.8608832E-01
        1   -1    0    0  501    0  0.00000000000E+00  0.00000000000E+00  0.12984604623E+04  0.12984604623E+04  0.50400001928E-02 0.  1.
       -1   -1    0    0    0  501  0.00000000000E+00  0.00000000000E+00 -0.76651028778E+03  0.76651028779E+03  0.50400001928E-02 0. -1.
    10030    2    1    2    0    0  0.00000000000E+00  0.00000000000E+00  0.53195017452E+03  0.20649707501E+04  0.19952777277E+04 0.  0.
        1    1    3    3  502    0  0.64168705185E+03  0.44423141883E+03 -0.37716435459E+03  0.86680838504E+03  0.50400001928E-02 0. -1.
       -1    1    3    3    0  502 -0.64168705185E+03 -0.44423141883E+03  0.90911452910E+03  0.11981623651E+04  0.50400001928E-02 0.  1.
</event>
<event>
 5   0  0.2579241E-04  0.2098121E+04  0.7818609E-02  0.8562072E-01
       -2   -1    0    0    0  501  0.00000000000E+00  0.00000000000E+00  0.10498612688E+04  0.10498612688E+04  0.25500000920E-02 0.  1.
        2   -1    0    0  501    0  0.00000000000E+00  0.00000000000E+00 -0.10482603125E+04  0.10482603125E+04  0.25500000920E-02 0. -1.
    10030    2    1    2    0    0  0.00000000000E+00  0.00000000000E+00  0.16009562938E+01  0.20981215813E+04  0.20981209705E+04 0.  0.
        5    1    3    3  502    0  0.67716348059E+02  0.17154151897E+03 -0.10319116967E+04  0.10482727872E+04  0.46999998093E+01 0. -1.
       -5    1    3    3    0  502 -0.67716348059E+02 -0.17154151897E+03  0.10335126530E+04  0.10498487941E+04  0.46999998093E+01 0.  1.
</event>
<event>
 5   0  0.2430898E-04  0.2111738E+04  0.7818609E-02  0.8556090E-01
       -2   -1    0    0    0  501  0.00000000000E+00  0.00000000000E+00  0.67385033069E+03  0.67385033069E+03  0.25500000920E-02 0. -1.
        2   -1    0    0  501    0  0.00000000000E+00  0.00000000000E+00 -0.16544621394E+04  0.16544621394E+04  0.25500000920E-02 0.  1.
    10030    2    1    2    0    0  0.00000000000E+00  0.00000000000E+00 -0.98061180875E+03  0.23283124701E+04  0.21117384874E+04 0.  0.
        1    1    3    3  502    0  0.81945454857E+03  0.59264007540E+03 -0.15564420668E+03  0.10232072787E+04  0.50400001928E-02 0. -1.
       -1    1    3    3    0  502 -0.81945454857E+03 -0.59264007540E+03 -0.82496760207E+03  0.13051051914E+04  0.50400001928E-02 0.  1.
</event>
<event>
 5   0  0.2430898E-04  0.1280538E+04  0.7818609E-02  0.9045143E-01
        2   -1    0    0  501    0  0.00000000000E+00  0.00000000000E+00  0.80089880401E+03  0.80089880401E+03  0.25500000920E-02 0.  1.
       -2   -1    0    0    0  501  0.00000000000E+00  0.00000000000E+00 -0.51185542580E+03  0.51185542580E+03  0.25500000920E-02 0. -1.
    10030    2    1    2    0    0  0.00000000000E+00  0.00000000000E+00  0.28904337821E+03  0.13127542298E+04  0.12805380094E+04 0.  0.
        1    1    3    3  502    0 -0.60821467327E+02 -0.39863320277E+03 -0.36531988750E+03  0.54411974920E+03  0.50400001928E-02 0. -1.
       -1    1    3    3    0  502  0.60821467327E+02  0.39863320277E+03  0.65436326571E+03  0.76863448061E+03  0.50400001928E-02 0.  1.
</event>
<event>
 5   0  0.1042395E-04  0.2171974E+04  0.7818609E-02  0.8530185E-01
        1   -1    0    0  501    0  0.00000000000E+00  0.00000000000E+00  0.11819338383E+04  0.11819338384E+04  0.50400001928E-02 0.  1.
       -1   -1    0    0    0  501  0.00000000000E+00  0.00000000000E+00 -0.99782889526E+03  0.99782889527E+03  0.50400001928E-02 0. -1.
    10030    2    1    2    0    0  0.00000000000E+00  0.00000000000E+00  0.18410494308E+03  0.21797627336E+04  0.21719739743E+04 0.  0.
        3    1    3    3  502    0 -0.81000592566E+03 -0.17481497446E+03  0.79649398333E+03  0.11493792023E+04  0.10100000352E+00 0.  1.
       -3    1    3    3    0  502  0.81000592566E+03  0.17481497446E+03 -0.61238904024E+03  0.10303835314E+04  0.10100000352E+00 0. -1.
</event>
<event>
 5   0  0.2579241E-04  0.2235163E+04  0.7818609E-02  0.8503933E-01
       -2   -1    0    0    0  501  0.00000000000E+00  0.00000000000E+00  0.10592938794E+04  0.10592938794E+04  0.25500000920E-02 0. -1.
        2   -1    0    0  501    0  0.00000000000E+00  0.00000000000E+00 -0.11790765128E+04  0.11790765128E+04  0.25500000920E-02 0.  1.
    10030    2    1    2    0    0  0.00000000000E+00  0.00000000000E+00 -0.11978263345E+03  0.22383703922E+04  0.22351631111E+04 0.  0.
        5    1    3    3  502    0  0.29747949276E+02  0.58582597254E+03  0.89273042588E+03  0.10682072429E+04  0.46999998093E+01 0. -1.
       -5    1    3    3    0  502 -0.29747949276E+02 -0.58582597254E+03 -0.10125130593E+04  0.11701631493E+04  0.46999998093E+01 0.  1.
</event>
<event>
 5   0  0.2448804E-04  0.2370208E+04  0.7818609E-02  0.8450742E-01
       -2   -1    0    0    0  501  0.00000000000E+00  0.00000000000E+00  0.39839085758E+03  0.39839085758E+03  0.25500000920E-02 0. -1.
        2   -1    0    0  501    0  0.00000000000E+00  0.00000000000E+00 -0.35253607841E+04  0.35253607841E+04  0.25500000920E-02 0.  1.
    10030    2    1    2    0    0  0.00000000000E+00  0.00000000000E+00 -0.31269699265E+04  0.39237516417E+04  0.23702080129E+04 0.  0.
        2    1    3    3  502    0  0.70153592186E+03 -0.57236015744E+03 -0.29761228049E+03  0.95305921589E+03  0.25500000920E-02 0. -1.
       -2    1    3    3    0  502 -0.70153592186E+03  0.57236015744E+03 -0.28293576460E+04  0.29706924258E+04  0.25500000920E-02 0.  1.
</event>
<event>
 5   0  0.1130848E-04  0.1344369E+04  0.7818609E-02  0.8995102E-01
        1   -1    0    0  501    0  0.00000000000E+00  0.00000000000E+00  0.62306758189E+03  0.62306758191E+03  0.50400001928E-02 0.  1.
       -1   -1    0    0    0  501  0.00000000000E+00  0.00000000000E+00 -0.72517307923E+03  0.72517307925E+03  0.50400001928E-02 0. -1.
    10030    2    1    2    0    0  0.00000000000E+00  0.00000000000E+00 -0.10210549735E+03  0.13482406612E+04  0.13443687544E+04 0.  0.
        5    1    3    3  502    0 -0.20393738962E+03 -0.52492360330E+02  0.58911464147E+03  0.62563891948E+03  0.46999998093E+01 0.  1.
       -5    1    3    3    0  502  0.20393738962E+03  0.52492360330E+02 -0.69122013881E+03  0.72260174168E+03  0.46999998093E+01 0. -1.
</event>
<event>
 5   0  0.2430898E-04  0.2105023E+04  0.7818609E-02  0.8559034E-01
        2   -1    0    0  501    0  0.00000000000E+00  0.00000000000E+00  0.17468808193E+04  0.17468808193E+04  0.25500000920E-02 0.  1.
       -2   -1    0    0    0  501  0.00000000000E+00  0.00000000000E+00 -0.63414799844E+03  0.63414799844E+03  0.25500000920E-02 0. -1.
    10030    2    1    2    0    0  0.00000000000E+00  0.00000000000E+00  0.11127328209E+04  0.23810288178E+04  0.21050234917E+04 0.  0.
        1    1    3    3  502    0 -0.88706310926E+03  0.34226456381E+03  0.45788731341E+02  0.95190472180E+03  0.50400001928E-02 0. -1.
       -1    1    3    3    0  502  0.88706310926E+03 -0.34226456381E+03  0.10669440896E+04  0.14291240960E+04  0.50400001928E-02 0.  1.
</event>
<event>
 5   0  0.2467483E-04  0.2121490E+04  0.7818609E-02  0.8551835E-01
       -2   -1    0    0    0  501  0.00000000000E+00  0.00000000000E+00  0.16258479000E+04  0.16258479000E+04  0.25500000920E-02 0. -1.
        2   -1    0    0  501    0  0.00000000000E+00  0.00000000000E+00 -0.69205738408E+03  0.69205738409E+03  0.25500000920E-02 0.  1.
    10030    2    1    2    0    0  0.00000000000E+00  0.00000000000E+00  0.93379051590E+03  0.23179052841E+04  0.21214900844E+04 0.  0.
        4    1    3    3  502    0  0.69338840825E+03  0.50762497629E+03  0.11463275159E+04  0.14326684849E+04  0.12699999809E+01 0. -1.
       -4    1    3    3    0  502 -0.69338840825E+03 -0.50762497629E+03 -0.21253699996E+03  0.88523679912E+03  0.12699999809E+01 0.  1.
</event>
<event>
 5   0  0.2430898E-04  0.2158093E+04  0.7818609E-02  0.8536076E-01
        2   -1    0    0  501    0  0.00000000000E+00  0.00000000000E+00  0.14867446464E+04  0.14867446464E+04  0.25500000920E-02 0.  1.
       -2   -1    0    0    0  501  0.00000000000E+00  0.00000000000E+00 -0.78314817466E+03  0.78314817467E+03  0.25500000920E-02 0. -1.
    10030    2    1    2    0    0  0.00000000000E+00  0.00000000000E+00  0.70359647177E+03  0.22698928211E+04  0.21580930064E+04 0.  0.
        1    1    3    3  502    0  0.28931763200E+03  0.73163434741E+03 -0.42493518983E+03  0.89418310545E+03  0.50400001928E-02 0. -1.
       -1    1    3    3    0  502 -0.28931763200E+03 -0.73163434741E+03  0.11285316616E+04  0.13757097157E+04  0.50400001928E-02 0.  1.
</event>
<event>
 5   0  0.2448804E-04  0.2119791E+04  0.7818609E-02  0.8552575E-01
        2   -1    0    0  501    0  0.00000000000E+00  0.00000000000E+00  0.11628420855E+04  0.11628420855E+04  0.25500000920E-02 0. -1.
       -2   -1    0    0    0  501  0.00000000000E+00  0.00000000000E+00 -0.96606317191E+03  0.96606317191E+03  0.25500000920E-02 0.  1.
    10030    2    1    2    0    0  0.00000000000E+00  0.00000000000E+00  0.19677891357E+03  0.21289052574E+04  0.21197914176E+04 0.  0.
        2    1    3    3  502    0  0.39840205369E+03 -0.70465682130E+03 -0.58874033616E+03  0.10009398661E+04  0.25500000920E-02 0.  1.
       -2    1    3    3    0  502 -0.39840205369E+03  0.70465682130E+03  0.78551924974E+03  0.11279653913E+04  0.25500000920E-02 0. -1.
</event>
<event>
 5   0  0.1156733E-04  0.2089192E+04  0.7818609E-02  0.8566019E-01
        1   -1    0    0  501    0  0.00000000000E+00  0.00000000000E+00  0.12737450425E+04  0.12737450425E+04  0.50400001928E-02 0. -1.
       -1   -1    0    0    0  501  0.00000000000E+00  0.00000000000E+00 -0.85667122170E+03  0.85667122171E+03  0.50400001928E-02 0.  1.
    10030    2    1    2    0    0  0.00000000000E+00  0.00000000000E+00  0.41707382077E+03  0.21304162642E+04  0.20891919220E+04 0.  0.
        2    1    3    3  502    0 -0.18831644039E+03 -0.80977087339E+03 -0.43638930622E+03  0.93895025198E+03  0.25500000920E-02 0.  1.
       -2    1    3    3    0  502  0.18831644039E+03  0.80977087339E+03  0.85346312699E+03  0.11914660122E+04  0.25500000920E-02 0. -1.
</event>
<event>
 5   0  0.1156733E-04  0.2085218E+04  0.7818609E-02  0.8567783E-01
        1   -1    0    0  501    0  0.00000000000E+00  0.00000000000E+00  0.98779809721E+03  0.98779809722E+03  0.50400001928E-02 0.  1.
       -1   -1    0    0    0  501  0.00000000000E+00  0.00000000000E+00 -0.11004610073E+04  0.11004610073E+04  0.50400001928E-02 0. -1.
    10030    2    1    2    0    0  0.00000000000E+00  0.00000000000E+00 -0.11266291009E+03  0.20882591045E+04  0.20852177719E+04 0.  0.
        2    1    3    3  502    0 -0.80000176631E+03  0.16358704064E+03 -0.70555913554E+03  0.10791557996E+04  0.25500000920E-02 0. -1.
       -2    1    3    3    0  502  0.80000176631E+03 -0.16358704064E+03  0.59289622545E+03  0.10091033050E+04  0.25500000920E-02 0.  1.
</event>
<event>
 5   0  0.2430898E-04  0.2346894E+04  0.7818609E-02  0.8459658E-01
        2   -1    0    0  501    0  0.00000000000E+00  0.00000000000E+00  0.17961455381E+04  0.17961455381E+04  0.25500000920E-02 0. -1.
       -2   -1    0    0    0  501  0.00000000000E+00  0.00000000000E+00 -0.76662924715E+03  0.76662924716E+03  0.25500000920E-02 0.  1.
    10030    2    1    2    0    0  0.00000000000E+00  0.00000000000E+00  0.10295162909E+04  0.25627747852E+04  0.23468938635E+04 0.  0.
        1    1    3    3  502    0  0.43376500743E+03 -0.46868054698E+03  0.15897759739E+04  0.17132428852E+04  0.50400001928E-02 0. -1.
       -1    1    3    3    0  502 -0.43376500743E+03  0.46868054698E+03 -0.56025968292E+03  0.84953190000E+03  0.50400001928E-02 0.  1.
</event>
<event>
 5   0  0.1122711E-04  0.2061765E+04  0.7818609E-02  0.8578276E-01
        1   -1    0    0  501    0  0.00000000000E+00  0.00000000000E+00  0.11646425052E+04  0.11646425052E+04  0.50400001928E-02 0.  1.
       -1   -1    0    0    0  501  0.00000000000E+00  0.00000000000E+00 -0.91248522211E+03  0.91248522212E+03  0.50400001928E-02 0. -1.
    10030    2    1    2    0    0  0.00000000000E+00  0.00000000000E+00  0.25215728308E+03  0.20771277273E+04  0.20617653359E+04 0.  0.
        1    1    3    3  502    0  0.27105823557E+03 -0.75358809550E+03  0.78003119012E+03  0.11179518068E+04  0.50400001928E-02 0.  1.
       -1    1    3    3    0  502 -0.27105823557E+03  0.75358809550E+03 -0.52787390704E+03  0.95917592052E+03  0.50400001928E-02 0. -1.
</event>
<event>
 5   0  0.1130848E-04  0.2120456E+04  0.7818609E-02  0.8552285E-01
       -1   -1    0    0    0  501  0.00000000000E+00  0.00000000000E+00  0.11509270333E+04  0.11509270333E+04  0.50400001928E-02 0.  1.
        1   -1    0    0  501    0  0.00000000000E+00  0.00000000000E+00 -0.97667697050E+03  0.97667697051E+03  0.50400001928E-02 0. -1.
    10030    2    1    2    0    0  0.00000000000E+00  0.00000000000E+00  0.17425006277E+03  0.21276040038E+04  0.21204564868E+04 0.  0.
        5    1    3    3  502    0 -0.43913967513E+03 -0.70297751697E+03 -0.57619394603E+03  0.10094763975E+04  0.46999998093E+01 0. -1.
       -5    1    3    3    0  502  0.43913967513E+03  0.70297751697E+03  0.75044400880E+03  0.11181276063E+04  0.46999998093E+01 0.  1.
</event>
<event>
 5   0  0.2430898E-04  0.2095142E+04  0.7818609E-02  0.8563386E-01
        2   -1    0    0  501    0  0.00000000000E+00  0.00000000000E+00  0.19484296176E+04  0.19484296176E+04  0.25500000920E-02 0. -1.
       -2   -1    0    0    0  501  0.00000000000E+00  0.00000000000E+00 -0.56322539441E+03  0.56322539442E+03  0.25500000920E-02 0.  1.
    10030    2    1    2    0    0  0.00000000000E+00  0.00000000000E+00  0.13852042232E+04  0.25116550120E+04  0.20951420380E+04 0.  0.
        1    1    3    3  502    0  0.46868073835E+03  0.43998902772E+03  0.16841715963E+04  0.18026885324E+04  0.50400001928E-02 0. -1.
       -1    1    3    3    0  502 -0.46868073835E+03 -0.43998902772E+03 -0.29896737312E+03  0.70896647962E+03  0.50400001928E-02 0.  1.
</event>
<event>
 5   0  0.1186038E-04  0.2266427E+04  0.7818609E-02  0.8491277E-01
       -1   -1    0    0    0  501  0.00000000000E+00  0.00000000000E+00  0.55515827905E+03  0.55515827907E+03  0.50400001928E-02 0. -1.
        1   -1    0    0  501    0  0.00000000000E+00  0.00000000000E+00 -0.23131655583E+04  0.23131655583E+04  0.50400001928E-02 0.  1.
    10030    2    1    2    0    0  0.00000000000E+00  0.00000000000E+00 -0.17580072793E+04  0.28683238374E+04  0.22664271535E+04 0.  0.
        4    1    3    3  502    0  0.62630842877E+03  0.57280522578E+03  0.71273393404E+02  0.85173328228E+03  0.12699999809E+01 0. -1.
       -4    1    3    3    0  502 -0.62630842877E+03 -0.57280522578E+03 -0.18292806727E+04  0.20165905551E+04  0.12699999809E+01 0.  1.
</event>
<event>
 5   0  0.2448804E-04  0.2068759E+04  0.7818609E-02  0.8575131E-01
       -2   -1    0    0    0  501  0.00000000000E+00  0.00000000000E+00  0.85451417675E+03  0.85451417675E+03  0.25500000920E-02 0.  1.
        2   -1    0    0  501    0  0.00000000000E+00  0.00000000000E+00 -0.12521046836E+04  0.12521046836E+04  0.25500000920E-02 0. -1.
    10030    2    1    2    0    0  0.00000000000E+00  0.00000000000E+00 -0.39759050690E+03  0.21066188604E+04  0.20687592445E+04 0.  0.
        2    1    3    3  502    0  0.97328010767E+02 -0.50666578893E+03 -0.11117278948E+04  0.12256108172E+04  0.25500000920E-02 0. -1.
       -2    1    3    3    0  502 -0.97328010767E+02  0.50666578893E+03  0.71413738786E+03  0.88100804315E+03  0.25500000920E-02 0.  1.
</event>
<event>
 5   0  0.1122711E-04  0.2256902E+04  0.7818609E-02  0.8495111E-01
        1   -1    0    0  501    0  0.00000000000E+00  0.00000000000E+00  0.10797445058E+04  0.10797445058E+04  0.50400001928E-02 0.  1.
       -1   -1    0    0    0  501  0.00000000000E+00  0.00000000000E+00 -0.11793540926E+04  0.11793540927E+04  0.50400001928E-02 0. -1.
    10030    2    1    2    0    0  0.00000000000E+00  0.00000000000E+00 -0.99609586855E+02  0.22590985984E+04  0.22569015060E+04 0.  0.
        1    1    3    3  502    0  0.10048581138E+04 -0.39218342397E+02  0.46267330042E+03  0.11069527949E+04  0.50400001928E-02 0.  1.
       -1    1    3    3    0  502 -0.10048581138E+04  0.39218342397E+02 -0.56228288728E+03  0.11521458035E+04  0.50400001928E-02 0. -1.
</event>
<event>
 5   0  0.1122711E-04  0.1704860E+04  0.7818609E-02  0.8758598E-01
       -1   -1    0    0    0  501  0.00000000000E+00  0.00000000000E+00  0.49062813202E+03  0.49062813204E+03  0.50400001928E-02 0. -1.
        1   -1    0    0  501    0  0.00000000000E+00  0.00000000000E+00 -0.14810332813E+04  0.14810332813E+04  0.50400001928E-02 0.  1.
    10030    2    1    2    0    0  0.00000000000E+00  0.00000000000E+00 -0.99040514924E+03  0.19716614133E+04  0.17048596333E+04 0.  0.
        1    1    3    3  502    0  0.69780086225E+03  0.39926085099E+02 -0.10595394313E+04  0.12693084503E+04  0.50400001928E-02 0.  1.
       -1    1    3    3    0  502 -0.69780086225E+03 -0.39926085099E+02  0.69134282040E+02  0.70235296298E+03  0.50400001928E-02 0. -1.
</event>
<event>
 5   0  0.2579241E-04  0.1990877E+04  0.7818609E-02  0.8610898E-01
        2   -1    0    0  501    0  0.00000000000E+00  0.00000000000E+00  0.15269409469E+04  0.15269409469E+04  0.25500000920E-02 0.  1.
       -2   -1    0    0    0  501  0.00000000000E+00  0.00000000000E+00 -0.64894307010E+03  0.64894307011E+03  0.25500000920E-02 0. -1.
    10030    2    1    2    0    0  0.00000000000E+00  0.00000000000E+00  0.87799787681E+03  0.21758840170E+04  0.19908769384E+04 0.  0.
        5    1    3    3  502    0 -0.60697936264E+02  0.71910241831E+03 -0.31034061709E+03  0.78557362233E+03  0.46999998093E+01 0. -1.
       -5    1    3    3    0  502  0.60697936264E+02 -0.71910241831E+03  0.11883384939E+04  0.13903103947E+04  0.46999998093E+01 0.  1.
</event>
<event>
 5   0  0.1042395E-04  0.1702466E+04  0.7818609E-02  0.8759959E-01
       -1   -1    0    0    0  501  0.00000000000E+00  0.00000000000E+00  0.11174568621E+04  0.11174568621E+04  0.50400001928E-02 0. -1.
        1   -1    0    0  501    0  0.00000000000E+00  0.00000000000E+00 -0.64843432312E+03  0.64843432314E+03  0.50400001928E-02 0.  1.
    10030    2    1    2    0    0  0.00000000000E+00  0.00000000000E+00  0.46902253894E+03  0.17658911852E+04  0.17024657224E+04 0.  0.
        3    1    3    3  502    0 -0.60034306491E+03 -0.57433152260E+03  0.42669445230E+03  0.93398964623E+03  0.10100000352E+00 0. -1.
       -3    1    3    3    0  502  0.60034306491E+03  0.57433152260E+03  0.42328086631E+02  0.83190153898E+03  0.10100000352E+00 0.  1.
</event>
<event>
 5   0  0.1042395E-04  0.2110521E+04  0.7818609E-02  0.8556623E-01
       -1   -1    0    0    0  501  0.00000000000E+00  0.00000000000E+00  0.71735939065E+03  0.71735939067E+03  0.50400001928E-02 0. -1.
        1   -1    0    0  501    0  0.00000000000E+00  0.00000000000E+00 -0.15523245274E+04  0.15523245274E+04  0.50400001928E-02 0.  1.
    10030    2    1    2    0    0  0.00000000000E+00  0.00000000000E+00 -0.83496513672E+03  0.22696839180E+04  0.21105208618E+04 0.  0.
        3    1    3    3  502    0  0.28568364796E+03  0.81128671504E+03 -0.10749585020E+04  0.13767124144E+04  0.10100000352E+00 0.  1.
       -3    1    3    3    0  502 -0.28568364796E+03 -0.81128671504E+03  0.23999336530E+03  0.89297150364E+03  0.10100000352E+00 0. -1.
</event>
<event>
 5   0  0.2448804E-04  0.2089770E+04  0.7818609E-02  0.8565763E-01
       -2   -1    0    0    0  501  0.00000000000E+00  0.00000000000E+00  0.12977054840E+04  0.12977054840E+04  0.25500000920E-02 0. -1.
        2   -1    0    0  501    0  0.00000000000E+00  0.00000000000E+00 -0.84131955600E+03  0.84131955601E+03  0.25500000920E-02 0.  1.
    10030    2    1    2    0    0  0.00000000000E+00  0.00000000000E+00  0.45638592804E+03  0.21390250400E+04  0.20897703239E+04 0.  0.
        2    1    3    3  502    0  0.20430290799E+03 -0.48886320784E+03  0.11500069447E+04  0.12661922789E+04  0.25500000920E-02 0. -1.
       -2    1    3    3    0  502 -0.20430290799E+03  0.48886320784E+03 -0.69362101667E+03  0.87283276117E+03  0.25500000920E-02 0.  1.
</event>
<event>
 5   0  0.2467483E-04  0.1932750E+04  0.7818609E-02  0.8638724E-01
       -2   -1    0    0    0  501  0.00000000000E+00  0.00000000000E+00  0.44472013684E+03  0.44472013685E+03  0.25500000920E-02 0.  1.
        2   -1    0    0  501    0  0.00000000000E+00  0.00000000000E+00 -0.20999295924E+04  0.20999295924E+04  0.25500000920E-02 0. -1.
    10030    2    1    2    0    0  0.00000000000E+00  0.00000000000E+00 -0.16552094555E+04  0.25446497292E+04  0.19327503467E+04 0.  0.
        4    1    3    3  502    0  0.56982543946E+03 -0.42337185196E+03 -0.16908882515E+04  0.18338618946E+04  0.12699999809E+01 0. -1.
       -4    1    3    3    0  502 -0.56982543946E+03  0.42337185196E+03  0.35678795963E+02  0.71078783464E+03  0.12699999809E+01 0.  1.
</event>
<event>
 5   0  0.1042395E-04  0.2073307E+04  0.7818609E-02  0.8573094E-01
        1   -1    0    0  501    0  0.00000000000E+00  0.00000000000E+00  0.10016553498E+04  0.10016553499E+04  0.50400001928E-02 0.  1.
       -1   -1    0    0    0  501  0.00000000000E+00  0.00000000000E+00 -0.10728740473E+04  0.10728740474E+04  0.50400001928E-02 0. -1.
    10030    2    1    2    0    0  0.00000000000E+00  0.00000000000E+00 -0.71218697493E+02  0.20745293972E+04  0.20733065661E+04 0.  0.
        3    1    3    3  502    0 -0.69403931643E+03 -0.73394968550E+03 -0.26872165984E+03  0.10452674559E+04  0.10100000352E+00 0. -1.
       -3    1    3    3    0  502  0.69403931643E+03  0.73394968550E+03  0.19750296235E+03  0.10292619414E+04  0.10100000352E+00 0.  1.
</event>
<event>
 5   0  0.2448804E-04  0.2145730E+04  0.7818609E-02  0.8541362E-01
       -2   -1    0    0    0  501  0.00000000000E+00  0.00000000000E+00  0.12581148839E+04  0.12581148839E+04  0.25500000920E-02 0. -1.
        2   -1    0    0  501    0  0.00000000000E+00  0.00000000000E+00 -0.91489196384E+03  0.91489196384E+03  0.25500000920E-02 0.  1.
    10030    2    1    2    0    0  0.00000000000E+00  0.00000000000E+00  0.34322292007E+03  0.21730068477E+04  0.21457298962E+04 0.  0.
        2    1    3    3  502    0  0.66876190277E+03  0.14865649110E+03 -0.66453439360E+03  0.95443553749E+03  0.25500000920E-02 0.  1.
       -2    1    3    3    0  502 -0.66876190277E+03 -0.14865649110E+03  0.10077573137E+04  0.12185713103E+04  0.25500000920E-02 0. -1.
</event>
<event>
 5   0  0.2467483E-04  0.2108751E+04  0.7818609E-02  0.8557398E-01
       -2   -1    0    0    0  501  0.00000000000E+00  0.00000000000E+00  0.97802663800E+03  0.97802663800E+03  0.25500000920E-02 0.  1.
        2   -1    0    0  501    0  0.00000000000E+00  0.00000000000E+00 -0.11366843931E+04  0.11366843931E+04  0.25500000920E-02 0. -1.
    10030    2    1    2    0    0  0.00000000000E+00  0.00000000000E+00 -0.15865775506E+03  0.21147110311E+04  0.21087509245E+04 0.  0.
        4    1    3    3  502    0  0.46779440117E+03 -0.94297922256E+03 -0.18621952206E+02  0.10528009337E+04  0.12699999809E+01 0.  1.
       -4    1    3    3    0  502 -0.46779440117E+03  0.94297922256E+03 -0.14003580285E+03  0.10619100974E+04  0.12699999809E+01 0. -1.
</event>
<event>
 5   0  0.2512839E-04  0.1904065E+04  0.7818609E-02  0.8652836E-01
       -2   -1    0    0    0  501  0.00000000000E+00  0.00000000000E+00  0.16847733375E+04  0.16847733375E+04  0.25500000920E-02 0.  1.
        2   -1    0    0  501    0  0.00000000000E+00  0.00000000000E+00 -0.53797477802E+03  0.53797477803E+03  0.25500000920E-02 0. -1.
    10030    2    1    2    0    0  0.00000000000E+00  0.00000000000E+00  0.11467985595E+04  0.22227481156E+04  0.19040646652E+04 0.  0.
        3    1    3    3  502    0  0.14470834772E+02 -0.55470369572E+03  0.14764790329E+04  0.15773065459E+04  0.10100000352E+00 0.  1.
       -3    1    3    3    0  502 -0.14470834772E+02  0.55470369572E+03 -0.32968047335E+03  0.64544156964E+03  0.10100000352E+00 0. -1.
</event>
<event>
 5   0  0.1042395E-04  0.2104501E+04  0.7818609E-02  0.8559263E-01
        1   -1    0    0  501    0  0.00000000000E+00  0.00000000000E+00  0.66671732472E+03  0.66671732474E+03  0.50400001928E-02 0. -1.
       -1   -1    0    0    0  501  0.00000000000E+00  0.00000000000E+00 -0.16607197659E+04  0.16607197659E+04  0.50400001928E-02 0.  1.
    10030    2    1    2    0    0  0.00000000000E+00  0.00000000000E+00 -0.99400244114E+03  0.23274370906E+04  0.21045005483E+04 0.  0.
        3    1    3    3  502    0 -0.66464185021E+03 -0.66759893436E+03  0.21483942558E+02  0.94228376628E+03  0.10100000352E+00 0. -1.
       -3    1    3    3    0  502  0.66464185021E+03  0.66759893436E+03 -0.10154863837E+04  0.13851533243E+04  0.10100000352E+00 0.  1.
</event>
<event>
 5   0  0.2448804E-04  0.2025294E+04  0.7818609E-02  0.8594886E-01
        2   -1    0    0  501    0  0.00000000000E+00  0.00000000000E+00  0.13858115475E+04  0.13858115475E+04  0.25500000920E-02 0. -1.
       -2   -1    0    0    0  501  0.00000000000E+00  0.00000000000E+00 -0.73996608941E+03  0.73996608942E+03  0.25500000920E-02 0.  1.
    10030    2    1    2    0    0  0.00000000000E+00  0.00000000000E+00  0.64584545812E+03  0.21257776369E+04  0.20252936098E+04 0.  0.
        2    1    3    3  502    0  0.54850667949E+03  0.82065852603E+03  0.85622642398E+02  0.99079323307E+03  0.25500000920E-02 0.  1.
       -2    1    3    3    0  502 -0.54850667949E+03 -0.82065852603E+03  0.56022281572E+03  0.11349844039E+04  0.25500000920E-02 0. -1.
</event>
<event>
 5   0  0.8698750E-05  0.2257632E+04  0.7818609E-02  0.8494816E-01
        3   -1    0    0  501    0  0.00000000000E+00  0.00000000000E+00  0.13493340668E+04  0.13493340706E+04  0.10100000352E+00 0.  1.
       -3   -1    0    0    0  501  0.00000000000E+00  0.00000000000E+00 -0.94433683156E+03  0.94433683696E+03  0.10100000352E+00 0. -1.
    10030    2    1    2    0    0  0.00000000000E+00  0.00000000000E+00  0.40499723525E+03  0.22936709075E+04  0.22576322711E+04 0.  0.
        2    1    3    3  502    0  0.10068178415E+04 -0.48812306658E+02 -0.31370764622E+03  0.10556880669E+04  0.25500000920E-02 0. -1.
       -2    1    3    3    0  502 -0.10068178415E+04  0.48812306658E+02  0.71870488147E+03  0.12379828407E+04  0.25500000920E-02 0.  1.
</event>
<event>
 5   0  0.1186038E-04  0.2171546E+04  0.7818609E-02  0.8530365E-01
        1   -1    0    0  501    0  0.00000000000E+00  0.00000000000E+00  0.95638643473E+03  0.95638643474E+03  0.50400001928E-02 0. -1.
       -1   -1    0    0    0  501  0.00000000000E+00  0.00000000000E+00 -0.12326639412E+04  0.12326639412E+04  0.50400001928E-02 0.  1.
    10030    2    1    2    0    0  0.00000000000E+00  0.00000000000E+00 -0.27627750648E+03  0.21890503760E+04  0.21715460594E+04 0.  0.
        4    1    3    3  502    0  0.91994208375E+03  0.20153392423E+02 -0.71915428488E+03  0.11678544837E+04  0.12699999809E+01 0.  1.
       -4    1    3    3    0  502 -0.91994208375E+03 -0.20153392423E+02  0.44287677840E+03  0.10211958923E+04  0.12699999809E+01 0. -1.
</event>
<event>
 5   0  0.2448804E-04  0.2042593E+04  0.7818609E-02  0.8586962E-01
       -2   -1    0    0    0  501  0.00000000000E+00  0.00000000000E+00  0.65084355596E+03  0.65084355597E+03  0.25500000920E-02 0.  1.
        2   -1    0    0  501    0  0.00000000000E+00  0.00000000000E+00 -0.16026077308E+04  0.16026077308E+04  0.25500000920E-02 0. -1.
    10030    2    1    2    0    0  0.00000000000E+00  0.00000000000E+00 -0.95176417483E+03  0.22534512868E+04  0.20425933656E+04 0.  0.
        2    1    3    3  502    0  0.47696487066E+03 -0.73737112855E+03 -0.10510824352E+04  0.13696663662E+04  0.25500000920E-02 0. -1.
       -2    1    3    3    0  502 -0.47696487066E+03  0.73737112855E+03  0.99318260339E+02  0.88378492061E+03  0.25500000920E-02 0.  1.
</event>
<event>
 5   0  0.1130848E-04  0.2084932E+04  0.7818609E-02  0.8567910E-01
        1   -1    0    0  501    0  0.00000000000E+00  0.00000000000E+00  0.19439200300E+04  0.19439200300E+04  0.50400001928E-02 0. -1.
       -1   -1    0    0    0  501  0.00000000000E+00  0.00000000000E+00 -0.55904305088E+03  0.55904305090E+03  0.50400001928E-02 0.  1.
    10030    2    1    2    0    0  0.00000000000E+00  0.00000000000E+00  0.13848769791E+04  0.25029630809E+04  0.20849316385E+04 0.  0.
        5    1    3    3  502    0 -0.60616429015E+03  0.71404361109E+03  0.12418163468E+04  0.15554495666E+04  0.46999998093E+01 0.  1.
       -5    1    3    3    0  502  0.60616429015E+03 -0.71404361109E+03  0.14306063232E+03  0.94751351426E+03  0.46999998093E+01 0. -1.
</event>
<event>
 5   0  0.1130848E-04  0.2104542E+04  0.7818609E-02  0.8559245E-01
       -1   -1    0    0    0  501  0.00000000000E+00  0.00000000000E+00  0.11732269695E+04  0.11732269695E+04  0.50400001928E-02 0.  1.
        1   -1    0    0  501    0  0.00000000000E+00  0.00000000000E+00 -0.94378489516E+03  0.94378489518E+03  0.50400001928E-02 0. -1.
    10030    2    1    2    0    0  0.00000000000E+00  0.00000000000E+00  0.22944207433E+03  0.21170118647E+04  0.21045416531E+04 0.  0.
        5    1    3    3  502    0  0.14353814211E+03 -0.11518839133E+02  0.11632581659E+04  0.11721465490E+04  0.46999998093E+01 0.  1.
       -5    1    3    3    0  502 -0.14353814211E+03  0.11518839133E+02 -0.93381609155E+03  0.94486531566E+03  0.46999998093E+01 0. -1.
</event>
<event>
 5   0  0.1042395E-04  0.2046280E+04  0.7818609E-02  0.8585284E-01
       -1   -1    0    0    0  501  0.00000000000E+00  0.00000000000E+00  0.12388703066E+04  0.12388703067E+04  0.50400001928E-02 0. -1.
        1   -1    0    0  501    0  0.00000000000E+00  0.00000000000E+00 -0.84497573752E+03  0.84497573754E+03  0.50400001928E-02 0.  1.
    10030    2    1    2    0    0  0.00000000000E+00  0.00000000000E+00  0.39389456912E+03  0.20838460442E+04  0.20462798939E+04 0.  0.
        3    1    3    3  502    0  0.79201567686E+03  0.43157844753E+03  0.68879066181E+03  0.11348926710E+04  0.10100000352E+00 0. -1.
       -3    1    3    3    0  502 -0.79201567686E+03 -0.43157844753E+03 -0.29489609268E+03  0.94895337317E+03  0.10100000352E+00 0.  1.
</event>
<event>
 5   0  0.1156733E-04  0.2161172E+04  0.7818609E-02  0.8534765E-01
        1   -1    0    0  501    0  0.00000000000E+00  0.00000000000E+00  0.17401687577E+04  0.17401687577E+04  0.50400001928E-02 0.  1.
       -1   -1    0    0    0  501  0.00000000000E+00  0.00000000000E+00 -0.67100714673E+03  0.67100714675E+03  0.50400001928E-02 0. -1.
    10030    2    1    2    0    0  0.00000000000E+00  0.00000000000E+00  0.10691616110E+04  0.24111759045E+04  0.21611716017E+04 0.  0.
        2    1    3    3  502    0  0.29961638420E+03 -0.45751604227E+03  0.15743650846E+04  0.16666482311E+04  0.25500000920E-02 0.  1.
       -2    1    3    3    0  502 -0.29961638420E+03  0.45751604227E+03 -0.50520347363E+03  0.74452767335E+03  0.25500000920E-02 0. -1.
</event>
<event>
 5   0  0.2579241E-04  0.2133058E+04  0.7818609E-02  0.8546819E-01
        2   -1    0    0  501    0  0.00000000000E+00  0.00000000000E+00  0.28134896616E+04  0.28134896616E+04  0.25500000920E-02 0.  1.
       -2   -1    0    0    0  501  0.00000000000E+00  0.00000000000E+00 -0.40429634700E+03  0.40429634701E+03  0.25500000920E-02 0. -1.
    10030    2    1    2    0    0  0.00000000000E+00  0.00000000000E+00  0.24091933146E+04  0.32177860086E+04  0.21330575168E+04 0.  0.
        5    1    3    3  502    0 -0.31650425656E+03 -0.19856818456E+03  0.27115118031E+04  0.27371376685E+04  0.46999998093E+01 0.  1.
       -5    1    3    3    0  502  0.31650425656E+03  0.19856818456E+03 -0.30231848847E+03  0.48064834007E+03  0.46999998093E+01 0. -1.
</event>
<event>
 5   0  0.1186038E-04  0.2058899E+04  0.7818609E-02  0.8579568E-01
       -1   -1    0    0    0  501  0.00000000000E+00  0.00000000000E+00  0.63906012109E+03  0.63906012111E+03  0.50400001928E-02 0. -1.
        1   -1    0    0  501    0  0.00000000000E+00  0.00000000000E+00 -0.16583205377E+04  0.16583205377E+04  0.50400001928E-02 0.  1.
    10030    2    1    2    0    0  0.00000000000E+00  0.00000000000E+00 -0.10192604166E+04  0.22973806589E+04  0.20588992435E+04 0.  0.
        4    1    3    3  502    0 -0.10176573215E+04  0.10938257048E+03 -0.38651450636E+03  0.10940685752E+04  0.12699999809E+01 0. -1.
       -4    1    3    3    0  502  0.10176573215E+04 -0.10938257048E+03 -0.63274591029E+03  0.12033120836E+04  0.12699999809E+01 0.  1.
</event>
<event>
 5   0  0.1130848E-04  0.2093069E+04  0.7818609E-02  0.8564302E-01
       -1   -1    0    0    0  501  0.00000000000E+00  0.00000000000E+00  0.82845293913E+03  0.82845293914E+03  0.50400001928E-02 0. -1.
        1   -1    0    0  501    0  0.00000000000E+00  0.00000000000E+00 -0.13220243083E+04  0.13220243083E+04  0.50400001928E-02 0.  1.
    10030    2    1    2    0    0  0.00000000000E+00  0.00000000000E+00 -0.49357136919E+03  0.21504772475E+04  0.20930694435E+04 0.  0.
        5    1    3    3  502    0 -0.57645384676E+03  0.44718397018E+03  0.52408651181E+03  0.89831024846E+03  0.46999998093E+01 0. -1.
       -5    1    3    3    0  502  0.57645384676E+03 -0.44718397018E+03 -0.10176578810E+04  0.12521669990E+04  0.46999998093E+01 0.  1.
</event>
<event>
 5   0  0.2448804E-04  0.2064632E+04  0.7818609E-02  0.8576985E-01
       -2   -1    0    0    0  501  0.00000000000E+00  0.00000000000E+00  0.50603505553E+03  0.50603505554E+03  0.25500000920E-02 0. -1.
        2   -1    0    0  501    0  0.00000000000E+00  0.00000000000E+00 -0.21059347257E+04  0.21059347257E+04  0.25500000920E-02 0.  1.
    10030    2    1    2    0    0  0.00000000000E+00  0.00000000000E+00 -0.15998996702E+04  0.26119697813E+04  0.20646324573E+04 0.  0.
        2    1    3    3  502    0  0.83837240991E+03 -0.17642569188E+03 -0.71354041826E+02  0.85970094902E+03  0.25500000920E-02 0.  1.
       -2    1    3    3    0  502 -0.83837240991E+03  0.17642569188E+03 -0.15285456284E+04  0.17522688323E+04  0.25500000920E-02 0. -1.
</event>
<event>
 5   0  0.1156733E-04  0.2092509E+04  0.7818609E-02  0.8564550E-01
       -1   -1    0    0    0  501  0.00000000000E+00  0.00000000000E+00  0.64723155316E+03  0.64723155318E+03  0.50400001928E-02 0. -1.
        1   -1    0    0  501    0  0.00000000000E+00  0.00000000000E+00 -0.16912780700E+04  0.16912780700E+04  0.50400001928E-02 0.  1.
    10030    2    1    2    0    0  0.00000000000E+00  0.00000000000E+00 -0.10440465169E+04  0.23385096232E+04  0.20925090510E+04 0.  0.
        2    1    3    3  502    0  0.77375829983E+03  0.66105882693E+03 -0.25068826221E+03  0.10481151101E+04  0.25500000920E-02 0. -1.
       -2    1    3    3    0  502 -0.77375829983E+03 -0.66105882693E+03 -0.79335825466E+03  0.12903945131E+04  0.25500000920E-02 0.  1.
</event>
<event>
 5   0  0.2579241E-04  0.2114143E+04  0.7818609E-02  0.8555039E-01
       -2   -1    0    0    0  501  0.00000000000E+00  0.00000000000E+00  0.10629917109E+04  0.10629917110E+04  0.25500000920E-02 0. -1.
        2   -1    0    0  501    0  0.00000000000E+00  0.00000000000E+00 -0.10511844022E+04  0.10511844022E+04  0.25500000920E-02 0.  1.
    10030    2    1    2    0    0  0.00000000000E+00  0.00000000000E+00  0.11807308779E+02  0.21141761131E+04  0.21141431420E+04 0.  0.
        5    1    3    3  502    0  0.48643606371E+03  0.90701756294E+03 -0.23509245374E+03  0.10557421349E+04  0.46999998093E+01 0.  1.
       -5    1    3    3    0  502 -0.48643606371E+03 -0.90701756294E+03  0.24689976251E+03  0.10584339782E+04  0.46999998093E+01 0. -1.
</event>
<event>
 5   0  0.1122711E-04  0.2108911E+04  0.7818609E-02  0.8557328E-01
        1   -1    0    0  501    0  0.00000000000E+00  0.00000000000E+00  0.14474169772E+04  0.14474169772E+04  0.50400001928E-02 0. -1.
       -1   -1    0    0    0  501  0.00000000000E+00  0.00000000000E+00 -0.76817999639E+03  0.76817999641E+03  0.50400001928E-02 0.  1.
    10030    2    1    2    0    0  0.00000000000E+00  0.00000000000E+00  0.67923698081E+03  0.22155969736E+04  0.21089113479E+04 0.  0.
        1    1    3    3  502    0  0.11256473325E+03  0.17439837099E+03  0.14257411278E+04  0.14407717982E+04  0.50400001928E-02 0. -1.
       -1    1    3    3    0  502 -0.11256473325E+03 -0.17439837099E+03 -0.74650414698E+03  0.77482517542E+03  0.50400001928E-02 0.  1.
</event>
<event>
 5   0  0.2512839E-04  0.1505573E+04  0.7818609E-02  0.8880755E-01
       -2   -1    0    0    0  501  0.00000000000E+00  0.00000000000E+00  0.35656766941E+03  0.35656766941E+03  0.25500000920E-02 0. -1.
        2   -1    0    0  501    0  0.00000000000E+00  0.00000000000E+00 -0.15892846088E+04  0.15892846088E+04  0.25500000920E-02 0.  1.
    10030    2    1    2    0    0  0.00000000000E+00  0.00000000000E+00 -0.12327169394E+04  0.19458522782E+04  0.15055729926E+04 0.  0.
        3    1    3    3  502    0  0.72545465799E+03  0.22182733251E+02 -0.87455723570E+03  0.11364976477E+04  0.10100000352E+00 0.  1.
       -3    1    3    3    0  502 -0.72545465799E+03 -0.22182733251E+02 -0.35815970372E+03  0.80935463057E+03  0.10100000352E+00 0. -1.
</event>
<event>
 5   0  0.2579241E-04  0.2034716E+04  0.7818609E-02  0.8590560E-01
       -2   -1    0    0    0  501  0.00000000000E+00  0.00000000000E+00  0.73694480997E+03  0.73694480998E+03  0.25500000920E-02 0. -1.
        2   -1    0    0  501    0  0.00000000000E+00  0.00000000000E+00 -0.14044700814E+04  0.14044700814E+04  0.25500000920E-02 0.  1.
    10030    2    1    2    0    0  0.00000000000E+00  0.00000000000E+00 -0.66752527142E+03  0.21414148914E+04  0.20347156433E+04 0.  0.
        5    1    3    3  502    0  0.63928669258E+03  0.45879988384E+03  0.34488537335E+03  0.85915820398E+03  0.46999998093E+01 0. -1.
       -5    1    3    3    0  502 -0.63928669258E+03 -0.45879988384E+03 -0.10124106448E+04  0.12822566874E+04  0.46999998093E+01 0.  1.
</event>
<event>
 5   0  0.1122711E-04  0.2119855E+04  0.7818609E-02  0.8552547E-01
        1   -1    0    0  501    0  0.00000000000E+00  0.00000000000E+00  0.18524900006E+04  0.18524900006E+04  0.50400001928E-02 0. -1.
       -1   -1    0    0    0  501  0.00000000000E+00  0.00000000000E+00 -0.60645181749E+03  0.60645181751E+03  0.50400001928E-02 0.  1.
    10030    2    1    2    0    0  0.00000000000E+00  0.00000000000E+00  0.12460381831E+04  0.24589418181E+04  0.21198546439E+04 0.  0.
        1    1    3    3  502    0 -0.61529554114E+02  0.10569694924E+04  0.68073248323E+03  0.12587164525E+04  0.50400001928E-02 0. -1.
       -1    1    3    3    0  502  0.61529554114E+02 -0.10569694924E+04  0.56530569985E+03  0.12002253656E+04  0.50400001928E-02 0.  1.
</event>
<event>
 5   0  0.2448804E-04  0.2132734E+04  0.7818609E-02  0.8546959E-01
        2   -1    0    0  501    0  0.00000000000E+00  0.00000000000E+00  0.12323552120E+04  0.12323552120E+04  0.25500000920E-02 0. -1.
       -2   -1    0    0    0  501  0.00000000000E+00  0.00000000000E+00 -0.92273575362E+03  0.92273575362E+03  0.25500000920E-02 0.  1.
    10030    2    1    2    0    0  0.00000000000E+00  0.00000000000E+00  0.30961945839E+03  0.21550909656E+04  0.21327336592E+04 0.  0.
        2    1    3    3  502    0  0.20062995494E+03 -0.10637163344E+03 -0.89801986015E+03  0.92628665782E+03  0.25500000920E-02 0.  1.
       -2    1    3    3    0  502 -0.20062995494E+03  0.10637163344E+03  0.12076393185E+04  0.12288043078E+04  0.25500000920E-02 0. -1.
</event>
<event>
 5   0  0.2579241E-04  0.2078026E+04  0.7818609E-02  0.8570986E-01
        2   -1    0    0  501    0  0.00000000000E+00  0.00000000000E+00  0.22967684458E+04  0.22967684458E+04  0.25500000920E-02 0. -1.
       -2   -1    0    0    0  501  0.00000000000E+00  0.00000000000E+00 -0.47002889329E+03  0.47002889330E+03  0.25500000920E-02 0.  1.
    10030    2    1    2    0    0  0.00000000000E+00  0.00000000000E+00  0.18267395525E+04  0.27667973391E+04  0.20780255347E+04 0.  0.
        5    1    3    3  502    0 -0.20540533204E+03  0.35538999073E+03  0.21842168582E+04  0.22224578218E+04  0.46999998093E+01 0. -1.
       -5    1    3    3    0  502  0.20540533204E+03 -0.35538999073E+03 -0.35747730574E+03  0.54433951727E+03  0.46999998093E+01 0.  1.
</event>
<event>
 5   0  0.1186038E-04  0.2118513E+04  0.7818609E-02  0.8553132E-01
       -1   -1    0    0    0  501  0.00000000000E+00  0.00000000000E+00  0.14041153762E+04  0.14041153763E+04  0.50400001928E-02 0.  1.
        1   -1    0    0  501    0  0.00000000000E+00  0.00000000000E+00 -0.79909693921E+03  0.79909693923E+03  0.50400001928E-02 0. -1.
    10030    2    1    2    0    0  0.00000000000E+00  0.00000000000E+00  0.60501843703E+03  0.22032123155E+04  0.21185129686E+04 0.  0.
        4    1    3    3  502    0  0.65355832095E+03 -0.19172165019E+03 -0.54117530644E+03  0.86992413189E+03  0.12699999809E+01 0.  1.
       -4    1    3    3    0  502 -0.65355832095E+03  0.19172165019E+03  0.11461937435E+04  0.13332881836E+04  0.12699999809E+01 0. -1.
</event>
<event>
 5   0  0.2579241E-04  0.1947650E+04  0.7818609E-02  0.8631495E-01
       -2   -1    0    0    0  501  0.00000000000E+00  0.00000000000E+00  0.59177452827E+03  0.59177452827E+03  0.25500000920E-02 0.  1.
        2   -1    0    0  501    0  0.00000000000E+00  0.00000000000E+00 -0.16025271333E+04  0.16025271333E+04  0.25500000920E-02 0. -1.
    10030    2    1    2    0    0  0.00000000000E+00  0.00000000000E+00 -0.10107526050E+04  0.21943016615E+04  0.19476495972E+04 0.  0.
        5    1    3    3  502    0 -0.95499134898E+03  0.18503099868E+03 -0.55660689759E+03  0.11207489797E+04  0.46999998093E+01 0.  1.
       -5    1    3    3    0  502  0.95499134898E+03 -0.18503099868E+03 -0.45414570740E+03  0.10735526818E+04  0.46999998093E+01 0. -1.
</event>
<event>
 5   0  0.1186038E-04  0.2087626E+04  0.7818609E-02  0.8566714E-01
       -1   -1    0    0    0  501  0.00000000000E+00  0.00000000000E+00  0.15078711865E+04  0.15078711865E+04  0.50400001928E-02 0. -1.
        1   -1    0    0  501    0  0.00000000000E+00  0.00000000000E+00 -0.72257188962E+03  0.72257188963E+03  0.50400001928E-02 0.  1.
    10030    2    1    2    0    0  0.00000000000E+00  0.00000000000E+00  0.78529929684E+03  0.22304430761E+04  0.20876257639E+04 0.  0.
        4    1    3    3  502    0  0.10390244386E+04  0.83076018534E+02  0.33344856288E+03  0.10943778898E+04  0.12699999809E+01 0. -1.
       -4    1    3    3    0  502 -0.10390244386E+04 -0.83076018534E+02  0.45185073397E+03  0.11360651863E+04  0.12699999809E+01 0.  1.
</event>
<event>
 5   0  0.1130848E-04  0.2106446E+04  0.7818609E-02  0.8558409E-01
        1   -1    0    0  501    0  0.00000000000E+00  0.00000000000E+00  0.21880200056E+04  0.21880200057E+04  0.50400001928E-02 0.  1.
       -1   -1    0    0    0  501  0.00000000000E+00  0.00000000000E+00 -0.50697833652E+03  0.50697833655E+03  0.50400001928E-02 0. -1.
    10030    2    1    2    0    0  0.00000000000E+00  0.00000000000E+00  0.16810416691E+04  0.26949983422E+04  0.21064460523E+04 0.  0.
        5    1    3    3  502    0 -0.40217442594E+03 -0.12827972284E+03  0.20750354202E+04  0.21175443422E+04  0.46999998093E+01 0.  1.
       -5    1    3    3    0  502  0.40217442594E+03  0.12827972284E+03 -0.39399375109E+03  0.57745399996E+03  0.46999998093E+01 0. -1.
</event>
<event>
 5   0  0.1130848E-04  0.2076671E+04  0.7818609E-02  0.8571590E-01
        1   -1    0    0  501    0  0.00000000000E+00  0.00000000000E+00  0.64748029480E+03  0.64748029482E+03  0.50400001928E-02 0.  1.
       -1   -1    0    0    0  501  0.00000000000E+00  0.00000000000E+00 -0.16651324155E+04  0.16651324155E+04  0.50400001928E-02 0. -1.
    10030    2    1    2    0    0  0.00000000000E+00  0.00000000000E+00 -0.10176521207E+04  0.23126127104E+04  0.20766708235E+04 0.  0.
        5    1    3    3  502    0  0.22638050321E+03  0.32409502230E+03 -0.15780318047E+04  0.16268042852E+04  0.46999998093E+01 0. -1.
       -5    1    3    3    0  502 -0.22638050321E+03 -0.32409502230E+03  0.56037968401E+03  0.68580842512E+03  0.46999998093E+01 0.  1.
</event>
<event>
 5   0  0.8698750E-05  0.1113056E+04  0.7818609E-02  0.9192560E-01
       -3   -1    0    0    0  501  0.00000000000E+00  0.00000000000E+00  0.47703829843E+03  0.47703830912E+03  0.10100000352E+00 0. -1.
        3   -1    0    0  501    0  0.00000000000E+00  0.00000000000E+00 -0.64926260561E+03  0.64926261346E+03  0.10100000352E+00 0.  1.
    10030    2    1    2    0    0  0.00000000000E+00  0.00000000000E+00 -0.17222430718E+03  0.11263009226E+04  0.11130555046E+04 0.  0.
        4    1    3    3  502    0 -0.44833172005E+03  0.35299598966E+00  0.24753888453E+03  0.51213139727E+03  0.12699999809E+01 0. -1.
       -4    1    3    3    0  502  0.44833172005E+03 -0.35299598966E+00 -0.41976319171E+03  0.61416952532E+03  0.12699999809E+01 0.  1.
</event>
<event>
 5   0  0.2512839E-04  0.2111076E+04  0.7818609E-02  0.8556380E-01
        2   -1    0    0  501    0  0.00000000000E+00  0.00000000000E+00  0.12632269192E+04  0.12632269192E+04  0.25500000920E-02 0. -1.
       -2   -1    0    0    0  501  0.00000000000E+00  0.00000000000E+00 -0.88199511391E+03  0.88199511392E+03  0.25500000920E-02 0.  1.
    10030    2    1    2    0    0  0.00000000000E+00  0.00000000000E+00  0.38123180528E+03  0.21452220331E+04  0.21110755273E+04 0.  0.
        3    1    3    3  502    0  0.63320456083E+03  0.78400146441E+03 -0.12839448915E+03  0.10159190259E+04  0.10100000352E+00 0.  1.
       -3    1    3    3    0  502 -0.63320456083E+03 -0.78400146441E+03  0.50962629444E+03  0.11293030073E+04  0.10100000352E+00 0. -1.
</event>
<event>
 5   0  0.1130848E-04  0.2123962E+04  0.7818609E-02  0.8550761E-01
       -1   -1    0    0    0  501  0.00000000000E+00  0.00000000000E+00  0.57490815869E+03  0.57490815871E+03  0.50400001928E-02 0.  1.
        1   -1    0    0  501    0  0.00000000000E+00  0.00000000000E+00 -0.19617116747E+04  0.19617116747E+04  0.50400001928E-02 0. -1.
    10030    2    1    2    0    0  0.00000000000E+00  0.00000000000E+00 -0.13868035160E+04  0.25366198334E+04  0.21239623790E+04 0.  0.
        5    1    3    3  502    0  0.53222636082E+03  0.35919426834E+03  0.31680979612E+03  0.71601393735E+03  0.46999998093E+01 0.  1.
       -5    1    3    3    0  502 -0.53222636082E+03 -0.35919426834E+03 -0.17036133121E+04  0.18206058961E+04  0.46999998093E+01 0. -1.
</event>
<event>
 5   0  0.1130848E-04  0.2103325E+04  0.7818609E-02  0.8559780E-01
       -1   -1    0    0    0  501  0.00000000000E+00  0.00000000000E+00  0.72775622597E+03  0.72775622598E+03  0.50400001928E-02 0.  1.
        1   -1    0    0  501    0  0.00000000000E+00  0.00000000000E+00 -0.15197318326E+04  0.15197318326E+04  0.50400001928E-02 0. -1.
    10030    2    1    2    0    0  0.00000000000E+00  0.00000000000E+00 -0.79197560665E+03  0.22474880586E+04  0.21033252749E+04 0.  0.
        5    1    3    3  502    0 -0.29470736918E+03  0.83587907272E+03  0.20887210070E+03  0.91060194492E+03  0.46999998093E+01 0.  1.
       -5    1    3    3    0  502  0.29470736918E+03 -0.83587907272E+03 -0.10008477073E+04  0.13368861137E+04  0.46999998093E+01 0. -1.
</event>
<event>
 5   0  0.2512839E-04  0.2082255E+04  0.7818609E-02  0.8569101E-01
       -2   -1    0    0    0  501  0.00000000000E+00  0.00000000000E+00  0.73046405713E+03  0.73046405713E+03  0.25500000920E-02 0.  1.
        2   -1    0    0  501    0  0.00000000000E+00  0.00000000000E+00 -0.14839145753E+04  0.14839145753E+04  0.25500000920E-02 0. -1.
    10030    2    1    2    0    0  0.00000000000E+00  0.00000000000E+00 -0.75345051817E+03  0.22143786324E+04  0.20822547982E+04 0.  0.
        3    1    3    3  502    0 -0.21270448052E+03  0.71546588317E+03 -0.11485979673E+04  0.13698218595E+04  0.10100000352E+00 0. -1.
       -3    1    3    3    0  502  0.21270448052E+03 -0.71546588317E+03  0.39514744912E+03  0.84455677297E+03  0.10100000352E+00 0.  1.
</event>
<event>
 5   0  0.2430898E-04  0.1711969E+04  0.7818609E-02  0.8754567E-01
        2   -1    0    0  501    0  0.00000000000E+00  0.00000000000E+00  0.93861542319E+03  0.93861542320E+03  0.25500000920E-02 0.  1.
       -2   -1    0    0    0  501  0.00000000000E+00  0.00000000000E+00 -0.78062818515E+03  0.78062818516E+03  0.25500000920E-02 0. -1.
    10030    2    1    2    0    0  0.00000000000E+00  0.00000000000E+00  0.15798723804E+03  0.17192436084E+04  0.17119692221E+04 0.  0.
        1    1    3    3  502    0  0.77446590005E+03  0.10725368623E+03  0.42891193509E+03  0.89177700780E+03  0.50400001928E-02 0.  1.
       -1    1    3    3    0  502 -0.77446590005E+03 -0.10725368623E+03 -0.27092469704E+03  0.82746660056E+03  0.50400001928E-02 0. -1.
</event>
<event>
 5   0  0.2467483E-04  0.2102588E+04  0.7818609E-02  0.8560104E-01
        2   -1    0    0  501    0  0.00000000000E+00  0.00000000000E+00  0.14610743891E+04  0.14610743891E+04  0.25500000920E-02 0.  1.
       -2   -1    0    0    0  501  0.00000000000E+00  0.00000000000E+00 -0.75644305723E+03  0.75644305724E+03  0.25500000920E-02 0. -1.
    10030    2    1    2    0    0  0.00000000000E+00  0.00000000000E+00  0.70463133190E+03  0.22175174464E+04  0.21025884788E+04 0.  0.
        4    1    3    3  502    0 -0.20284972811E+03  0.99746236145E+03  0.62963085216E+03  0.11968775199E+04  0.12699999809E+01 0.  1.
       -4    1    3    3    0  502  0.20284972811E+03 -0.99746236145E+03  0.75000479746E+02  0.10206399265E+04  0.12699999809E+01 0. -1.
</event>
<event>
 5   0  0.1156733E-04  0.2080130E+04  0.7818609E-02  0.8570047E-01
       -1   -1    0    0    0  501  0.00000000000E+00  0.00000000000E+00  0.75639397694E+03  0.75639397695E+03  0.50400001928E-02 0. -1.
        1   -1    0    0  501    0  0.00000000000E+00  0.00000000000E+00 -0.14301209045E+04  0.14301209045E+04  0.50400001928E-02 0.  1.
    10030    2    1    2    0    0  0.00000000000E+00  0.00000000000E+00 -0.67372692753E+03  0.21865148814E+04  0.20801296483E+04 0.  0.
        2    1    3    3  502    0 -0.54167275741E+03 -0.78892110438E+03 -0.76504025216E+03  0.12251907902E+04  0.25500000920E-02 0.  1.
       -2    1    3    3    0  502  0.54167275741E+03  0.78892110438E+03  0.91313324630E+02  0.96132409119E+03  0.25500000920E-02 0. -1.
</event>
<event>
 5   0  0.8698750E-05  0.2122872E+04  0.7818609E-02  0.8551235E-01
       -4   -1    0    0    0  501  0.00000000000E+00  0.00000000000E+00  0.71550968966E+03  0.71551081676E+03  0.12699999809E+01 0. -1.
        4   -1    0    0  501    0  0.00000000000E+00  0.00000000000E+00 -0.15746037622E+04  0.15746042743E+04  0.12699999809E+01 0.  1.
    10030    2    1    2    0    0  0.00000000000E+00  0.00000000000E+00 -0.85909407251E+03  0.22901150911E+04  0.21228717590E+04 0.  0.
        2    1    3    3  502    0 -0.36225384722E+03  0.79352313771E+03  0.22286109843E+03  0.90031877083E+03  0.25500000920E-02 0. -1.
       -2    1    3    3    0  502  0.36225384722E+03 -0.79352313771E+03 -0.10819551709E+04  0.13897963203E+04  0.25500000920E-02 0.  1.
</event>
<event>
 5   0  0.1186038E-04  0.1182669E+04  0.7818609E-02  0.9128163E-01
       -1   -1    0    0    0  501  0.00000000000E+00  0.00000000000E+00  0.51034298205E+03  0.51034298208E+03  0.50400001928E-02 0. -1.
        1   -1    0    0  501    0  0.00000000000E+00  0.00000000000E+00 -0.68517892793E+03  0.68517892795E+03  0.50400001928E-02 0.  1.
    10030    2    1    2    0    0  0.00000000000E+00  0.00000000000E+00 -0.17483594588E+03  0.11955219100E+04  0.11826686051E+04 0.  0.
        4    1    3    3  502    0  0.15327410790E+03 -0.56594952285E+03 -0.98847894508E+01  0.58642231926E+03  0.12699999809E+01 0. -1.
       -4    1    3    3    0  502 -0.15327410790E+03  0.56594952285E+03 -0.16495115643E+03  0.60909959077E+03  0.12699999809E+01 0.  1.
</event>
<event>
 5   0  0.2430898E-04  0.2092035E+04  0.7818609E-02  0.8564760E-01
       -2   -1    0    0    0  501  0.00000000000E+00  0.00000000000E+00  0.62948208887E+03  0.62948208888E+03  0.25500000920E-02 0.  1.
        2   -1    0    0  501    0  0.00000000000E+00  0.00000000000E+00 -0.17381796941E+04  0.17381796941E+04  0.25500000920E-02 0. -1.
    10030    2    1    2    0    0  0.00000000000E+00  0.00000000000E+00 -0.11086976052E+04  0.23676617830E+04  0.20920353579E+04 0.  0.
        1    1    3    3  502    0 -0.37767814828E+03  0.31827502468E+02  0.54903479629E+03  0.66715289189E+03  0.50400001928E-02 0.  1.
       -1    1    3    3    0  502  0.37767814828E+03 -0.31827502468E+02 -0.16577324015E+04  0.17005088911E+04  0.50400001928E-02 0. -1.
</event>
<event>
 5   0  0.8698750E-05  0.2064490E+04  0.7818609E-02  0.8577049E-01
        4   -1    0    0  501    0  0.00000000000E+00  0.00000000000E+00  0.86791484359E+03  0.86791577277E+03  0.12699999809E+01 0.  1.
       -4   -1    0    0    0  501  0.00000000000E+00  0.00000000000E+00 -0.12276868104E+04  0.12276874673E+04  0.12699999809E+01 0. -1.
    10030    2    1    2    0    0  0.00000000000E+00  0.00000000000E+00 -0.35977196685E+03  0.20956032401E+04  0.20644895427E+04 0.  0.
        4    1    3    3  502    0 -0.39501419147E+03 -0.62215556581E+03  0.55378903887E+03  0.92184471144E+03  0.12699999809E+01 0.  1.
       -4    1    3    3    0  502  0.39501419147E+03  0.62215556581E+03 -0.91356100572E+03  0.11737585287E+04  0.12699999809E+01 0. -1.
</event>
<event>
 5   0  0.2448804E-04  0.2254329E+04  0.7818609E-02  0.8496149E-01
        2   -1    0    0  501    0  0.00000000000E+00  0.00000000000E+00  0.17581371160E+04  0.17581371160E+04  0.25500000920E-02 0.  1.
       -2   -1    0    0    0  501  0.00000000000E+00  0.00000000000E+00 -0.72263980500E+03  0.72263980500E+03  0.25500000920E-02 0. -1.
    10030    2    1    2    0    0  0.00000000000E+00  0.00000000000E+00  0.10354973110E+04  0.24807769210E+04  0.22543290467E+04 0.  0.
        2    1    3    3  502    0  0.30774025734E+03 -0.56853604276E+02 -0.67387354312E+03  0.74299525600E+03  0.25500000920E-02 0. -1.
       -2    1    3    3    0  502 -0.30774025734E+03  0.56853604276E+02  0.17093708541E+04  0.17377816650E+04  0.25500000920E-02 0.  1.
</event>
<event>
 5   0  0.1122711E-04  0.2045821E+04  0.7818609E-02  0.8585493E-01
        1   -1    0    0  501    0  0.00000000000E+00  0.00000000000E+00  0.93258685112E+03  0.93258685113E+03  0.50400001928E-02 0. -1.
       -1   -1    0    0    0  501  0.00000000000E+00  0.00000000000E+00 -0.11219822150E+04  0.11219822150E+04  0.50400001928E-02 0.  1.
    10030    2    1    2    0    0  0.00000000000E+00  0.00000000000E+00 -0.18939536385E+03  0.20545690661E+04  0.20458209706E+04 0.  0.
        1    1    3    3  502    0  0.67765976058E+03  0.61942590003E+03 -0.54766367402E+03  0.10690400818E+04  0.50400001928E-02 0.  1.
       -1    1    3    3    0  502 -0.67765976058E+03 -0.61942590003E+03  0.35826831017E+03  0.98552898427E+03  0.50400001928E-02 0. -1.
</event>
<event>
 5   0  0.1186038E-04  0.2001646E+04  0.7818609E-02  0.8605852E-01
        1   -1    0    0  501    0  0.00000000000E+00  0.00000000000E+00  0.16825749974E+04  0.16825749974E+04  0.50400001928E-02 0.  1.
       -1   -1    0    0    0  501  0.00000000000E+00  0.00000000000E+00 -0.59530579002E+03  0.59530579004E+03  0.50400001928E-02 0. -1.
    10030    2    1    2    0    0  0.00000000000E+00  0.00000000000E+00  0.10872692074E+04  0.22778807874E+04  0.20016459608E+04 0.  0.
        4    1    3    3  502    0 -0.99912006628E+03  0.29479180561E+02  0.48633640655E+03  0.11115910409E+04  0.12699999809E+01 0.  1.
       -4    1    3    3    0  502  0.99912006628E+03 -0.29479180561E+02  0.60093280081E+03  0.11662897466E+04  0.12699999809E+01 0. -1.
</event>
<event>
 5   0  0.2448804E-04  0.2134841E+04  0.7818609E-02  0.8546049E-01
       -2   -1    0    0    0  501  0.00000000000E+00  0.00000000000E+00  0.14190022901E+04  0.14190022901E+04  0.25500000920E-02 0. -1.
        2   -1    0    0  501    0  0.00000000000E+00  0.00000000000E+00 -0.80294928078E+03  0.80294928078E+03  0.25500000920E-02 0.  1.
    10030    2    1    2    0    0  0.00000000000E+00  0.00000000000E+00  0.61605300933E+03  0.22219515709E+04  0.21348413227E+04 0.  0.
        2    1    3    3  502    0 -0.20032233808E+03  0.72984995785E+03  0.10914532758E+04  0.13281868292E+04  0.25500000920E-02 0. -1.
       -2    1    3    3    0  502  0.20032233808E+03 -0.72984995785E+03 -0.47540026645E+03  0.89376474167E+03  0.25500000920E-02 0.  1.
</event>
<event>
 5   0  0.2579241E-04  0.1887077E+04  0.7818609E-02  0.8661316E-01
        2   -1    0    0  501    0  0.00000000000E+00  0.00000000000E+00  0.73172675276E+03  0.73172675277E+03  0.25500000920E-02 0.  1.
       -2   -1    0    0    0  501  0.00000000000E+00  0.00000000000E+00 -0.12166633958E+04  0.12166633958E+04  0.25500000920E-02 0. -1.
    10030    2    1    2    0    0  0.00000000000E+00  0.00000000000E+00 -0.48493664299E+03  0.19483901485E+04  0.18870772701E+04 0.  0.
        5    1    3    3  502    0  0.83583807632E+03 -0.39519999046E+03 -0.43682563536E+03  0.10225688476E+04  0.46999998093E+01 0. -1.
       -5    1    3    3    0  502 -0.83583807632E+03  0.39519999046E+03 -0.48111007636E+02  0.92582130097E+03  0.46999998093E+01 0.  1.
</event>
<event>
 5   0  0.1122711E-04  0.2048854E+04  0.7818609E-02  0.8584114E-01
        1   -1    0    0  501    0  0.00000000000E+00  0.00000000000E+00  0.10606100721E+04  0.10606100721E+04  0.50400001928E-02 0.  1.
       -1   -1    0    0    0  501  0.00000000000E+00  0.00000000000E+00 -0.98947830603E+03  0.98947830605E+03  0.50400001928E-02 0. -1.
    10030    2    1    2    0    0  0.00000000000E+00  0.00000000000E+00  0.71131766064E+02  0.20500883782E+04  0.20488539797E+04 0.  0.
        1    1    3    3  502    0  0.16608187048E+03 -0.95663429846E+03 -0.29130858726E+03  0.10137026496E+04  0.50400001928E-02 0. -1.
       -1    1    3    3    0  502 -0.16608187048E+03  0.95663429846E+03  0.36244035332E+03  0.10363857286E+04  0.50400001928E-02 0.  1.
</event>
<event>
 5   0  0.1156733E-04  0.2001355E+04  0.7818609E-02  0.8605988E-01
        1   -1    0    0  501    0  0.00000000000E+00  0.00000000000E+00  0.21935207868E+04  0.21935207868E+04  0.50400001928E-02 0. -1.
       -1   -1    0    0    0  501  0.00000000000E+00  0.00000000000E+00 -0.45650588533E+03  0.45650588536E+03  0.50400001928E-02 0.  1.
    10030    2    1    2    0    0  0.00000000000E+00  0.00000000000E+00  0.17370149014E+04  0.26500266721E+04  0.20013546900E+04 0.  0.
        2    1    3    3  502    0 -0.13800854497E+03 -0.88578446293E+03  0.27976728178E+03  0.93911139128E+03  0.25500000920E-02 0.  1.
       -2    1    3    3    0  502  0.13800854497E+03  0.88578446293E+03  0.14572476196E+04  0.17109152808E+04  0.25500000920E-02 0. -1.
</event>
<event>
 5   0  0.2467483E-04  0.2063439E+04  0.7818609E-02  0.8577522E-01
       -2   -1    0    0    0  501  0.00000000000E+00  0.00000000000E+00  0.56355128824E+03  0.56355128825E+03  0.25500000920E-02 0. -1.
        2   -1    0    0  501    0  0.00000000000E+00  0.00000000000E+00 -0.18888174205E+04  0.18888174205E+04  0.25500000920E-02 0.  1.
    10030    2    1    2    0    0  0.00000000000E+00  0.00000000000E+00 -0.13252661322E+04  0.24523687087E+04  0.20634393527E+04 0.  0.
        4    1    3    3  502    0  0.25062139483E+03 -0.20419269840E+03  0.50180308452E+03  0.59692017068E+03  0.12699999809E+01 0. -1.
       -4    1    3    3    0  502 -0.25062139483E+03  0.20419269840E+03 -0.18270692168E+04  0.18554485381E+04  0.12699999809E+01 0.  1.
</event>
<event>
 5   0  0.1130848E-04  0.2083688E+04  0.7818609E-02  0.8568463E-01
       -1   -1    0    0    0  501  0.00000000000E+00  0.00000000000E+00  0.11168973558E+04  0.11168973558E+04  0.50400001928E-02 0.  1.
        1   -1    0    0  501    0  0.00000000000E+00  0.00000000000E+00 -0.97183437461E+03  0.97183437463E+03  0.50400001928E-02 0. -1.
    10030    2    1    2    0    0  0.00000000000E+00  0.00000000000E+00  0.14506298116E+03  0.20887317304E+04  0.20836883100E+04 0.  0.
        5    1    3    3  502    0 -0.16421033652E+03 -0.88478852049E+03  0.59877967795E+03  0.10809139435E+04  0.46999998093E+01 0.  1.
       -5    1    3    3    0  502  0.16421033652E+03  0.88478852049E+03 -0.45371669678E+03  0.10078177869E+04  0.46999998093E+01 0. -1.
</event>
<event>
 5   0  0.2467483E-04  0.2192648E+04  0.7818609E-02  0.8521494E-01
       -2   -1    0    0    0  501  0.00000000000E+00  0.00000000000E+00  0.79250085285E+03  0.79250085286E+03  0.25500000920E-02 0. -1.
        2   -1    0    0  501    0  0.00000000000E+00  0.00000000000E+00 -0.15166249209E+04  0.15166249209E+04  0.25500000920E-02 0.  1.
    10030    2    1    2    0    0  0.00000000000E+00  0.00000000000E+00 -0.72412406807E+03  0.23091257738E+04  0.21926482101E+04 0.  0.
        4    1    3    3  502    0 -0.39626126913E+02  0.13540660617E+03  0.78289976467E+03  0.79551168021E+03  0.12699999809E+01 0. -1.
       -4    1    3    3    0  502  0.39626126913E+02 -0.13540660617E+03 -0.15070238327E+04  0.15136140936E+04  0.12699999809E+01 0.  1.
</event>
<event>
 5   0  0.2467483E-04  0.1965840E+04  0.7818609E-02  0.8622760E-01
        2   -1    0    0  501    0  0.00000000000E+00  0.00000000000E+00  0.16691655665E+04  0.16691655665E+04  0.25500000920E-02 0.  1.
       -2   -1    0    0    0  501  0.00000000000E+00  0.00000000000E+00 -0.57881128178E+03  0.57881128179E+03  0.25500000920E-02 0. -1.
    10030    2    1    2    0    0  0.00000000000E+00  0.00000000000E+00  0.10903542847E+04  0.22479768483E+04  0.19658401370E+04 0.  0.
        4    1    3    3  502    0 -0.98838614212E+02  0.92447041694E+02  0.16584595879E+04  0.16639727597E+04  0.12699999809E+01 0.  1.
       -4    1    3    3    0  502  0.98838614212E+02 -0.92447041694E+02 -0.56810530318E+03  0.58400408867E+03  0.12699999809E+01 0. -1.
</event>
<event>
 5   0  0.2512839E-04  0.2193166E+04  0.7818609E-02  0.8521278E-01
       -2   -1    0    0    0  501  0.00000000000E+00  0.00000000000E+00  0.13267015612E+04  0.13267015612E+04  0.25500000920E-02 0.  1.
        2   -1    0    0  501    0  0.00000000000E+00  0.00000000000E+00 -0.90637892523E+03  0.90637892523E+03  0.25500000920E-02 0. -1.
    10030    2    1    2    0    0  0.00000000000E+00  0.00000000000E+00  0.42032263594E+03  0.22330804864E+04  0.21931660540E+04 0.  0.
        3    1    3    3  502    0  0.12427767767E+03  0.80382996596E+03 -0.53868736392E+03  0.97558784412E+03  0.10100000352E+00 0. -1.
       -3    1    3    3    0  502 -0.12427767767E+03 -0.80382996596E+03  0.95900999986E+03  0.12574926423E+04  0.10100000352E+00 0.  1.
</event>
<event>
 5   0  0.1156733E-04  0.2099584E+04  0.7818609E-02  0.8561427E-01
       -1   -1    0    0    0  501  0.00000000000E+00  0.00000000000E+00  0.47780027623E+03  0.47780027625E+03  0.50400001928E-02 0. -1.
        1   -1    0    0  501    0  0.00000000000E+00  0.00000000000E+00 -0.23065349148E+04  0.23065349148E+04  0.50400001928E-02 0.  1.
    10030    2    1    2    0    0  0.00000000000E+00  0.00000000000E+00 -0.18287346386E+04  0.27843351911E+04  0.20995837868E+04 0.  0.
        2    1    3    3  502    0  0.64099717409E+03  0.48347349635E+03 -0.17444837220E+02  0.80307429371E+03  0.25500000920E-02 0. -1.
       -2    1    3    3    0  502 -0.64099717409E+03 -0.48347349635E+03 -0.18112898014E+04  0.19812608974E+04  0.25500000920E-02 0.  1.
</event>
<event>
 5   0  0.1122711E-04  0.2067172E+04  0.7818609E-02  0.8575844E-01
       -1   -1    0    0    0  501  0.00000000000E+00  0.00000000000E+00  0.69926758276E+03  0.69926758277E+03  0.50400001928E-02 0. -1.
        1   -1    0    0  501    0  0.00000000000E+00  0.00000000000E+00 -0.15277407756E+04  0.15277407756E+04  0.50400001928E-02 0.  1.
    10030    2    1    2    0    0  0.00000000000E+00  0.00000000000E+00 -0.82847319281E+03  0.22270083583E+04  0.20671715935E+04 0.  0.
        1    1    3    3  502    0  0.29071349456E+02  0.92380455709E+03 -0.91265306074E+03  0.12989209415E+04  0.50400001928E-02 0. -1.
       -1    1    3    3    0  502 -0.29071349456E+02 -0.92380455709E+03  0.84179867933E+02  0.92808741681E+03  0.50400001928E-02 0.  1.
</event>
<event>
 5   0  0.1130848E-04  0.2006152E+04  0.7818609E-02  0.8603750E-01
        1   -1    0    0  501    0  0.00000000000E+00  0.00000000000E+00  0.92842525892E+03  0.92842525893E+03  0.50400001928E-02 0. -1.
       -1   -1    0    0    0  501  0.00000000000E+00  0.00000000000E+00 -0.10837292816E+04  0.10837292816E+04  0.50400001928E-02 0.  1.
    10030    2    1    2    0    0  0.00000000000E+00  0.00000000000E+00 -0.15530402265E+03  0.20121545405E+04  0.20061521765E+04 0.  0.
        5    1    3    3  502    0  0.29536028895E+03 -0.79762336124E+02  0.88047563474E+03  0.93212615236E+03  0.46999998093E+01 0. -1.
       -5    1    3    3    0  502 -0.29536028895E+03  0.79762336124E+02 -0.10357796574E+04  0.10800283882E+04  0.46999998093E+01 0.  1.
</event>
<event>
 5   0  0.2430898E-04  0.2056940E+04  0.7818609E-02  0.8580453E-01
        2   -1    0    0  501    0  0.00000000000E+00  0.00000000000E+00  0.14336691836E+04  0.14336691836E+04  0.25500000920E-02 0. -1.
       -2   -1    0    0    0  501  0.00000000000E+00  0.00000000000E+00 -0.73779233093E+03  0.73779233094E+03  0.25500000920E-02 0.  1.
    10030    2    1    2    0    0  0.00000000000E+00  0.00000000000E+00  0.69587685265E+03  0.21714615145E+04  0.20569395993E+04 0.  0.
        1    1    3    3  502    0  0.44435173474E+03  0.16593058872E+03  0.13113077110E+04  0.13944566459E+04  0.50400001928E-02 0. -1.
       -1    1    3    3    0  502 -0.44435173474E+03 -0.16593058872E+03 -0.61543085832E+03  0.77700486861E+03  0.50400001928E-02 0.  1.
</event>
<event>
 5   0  0.8698750E-05  0.1077411E+04  0.7818609E-02  0.9227493E-01
        4   -1    0    0  501    0  0.00000000000E+00  0.00000000000E+00  0.11768259425E+04  0.11768266277E+04  0.12699999809E+01 0.  1.
       -4   -1    0    0    0  501  0.00000000000E+00  0.00000000000E+00 -0.24659622545E+03  0.24659949575E+03  0.12699999809E+01 0. -1.
    10030    2    1    2    0    0  0.00000000000E+00  0.00000000000E+00  0.93022971701E+03  0.14234261235E+04  0.10774110648E+04 0.  0.
        2    1    3    3  502    0  0.49592325330E+03  0.13606353372E+03  0.25310977800E+03  0.57316465182E+03  0.25500000920E-02 0. -1.
       -2    1    3    3    0  502 -0.49592325330E+03 -0.13606353372E+03  0.67711993902E+03  0.85026147166E+03  0.25500000920E-02 0.  1.
</event>
<event>
 5   0  0.2467483E-04  0.2687994E+04  0.7818609E-02  0.8338911E-01
        2   -1    0    0  501    0  0.00000000000E+00  0.00000000000E+00  0.12546657807E+04  0.12546657807E+04  0.25500000920E-02 0.  1.
       -2   -1    0    0    0  501  0.00000000000E+00  0.00000000000E+00 -0.14396884685E+04  0.14396884685E+04  0.25500000920E-02 0. -1.
    10030    2    1    2    0    0  0.00000000000E+00  0.00000000000E+00 -0.18502268775E+03  0.26943542492E+04  0.26879939407E+04 0.  0.
        4    1    3    3  502    0  0.74396646365E+03  0.60121294787E+03  0.85385353969E+03  0.12821897628E+04  0.12699999809E+01 0.  1.
       -4    1    3    3    0  502 -0.74396646365E+03 -0.60121294787E+03 -0.10388762274E+04  0.14121644864E+04  0.12699999809E+01 0. -1.
</event>
<event>
 5   0  0.1130848E-04  0.2447204E+04  0.7818609E-02  0.8422039E-01
       -1   -1    0    0    0  501  0.00000000000E+00  0.00000000000E+00  0.83331306078E+03  0.83331306080E+03  0.50400001928E-02 0. -1.
        1   -1    0    0  501    0  0.00000000000E+00  0.00000000000E+00 -0.17966865153E+04  0.17966865153E+04  0.50400001928E-02 0.  1.
    10030    2    1    2    0    0  0.00000000000E+00  0.00000000000E+00 -0.96337345447E+03  0.26299995761E+04  0.24472043963E+04 0.  0.
        5    1    3    3  502    0 -0.77751092905E+03  0.53214048492E+03 -0.13206953300E+04  0.16223301098E+04  0.46999998093E+01 0.  1.
       -5    1    3    3    0  502  0.77751092905E+03 -0.53214048492E+03  0.35732187554E+03  0.10076694663E+04  0.46999998093E+01 0. -1.
</event>
<event>
 5   0  0.1042395E-04  0.2109971E+04  0.7818609E-02  0.8556864E-01
       -1   -1    0    0    0  501  0.00000000000E+00  0.00000000000E+00  0.96795410818E+03  0.96795410819E+03  0.50400001928E-02 0. -1.
        1   -1    0    0  501    0  0.00000000000E+00  0.00000000000E+00 -0.11498419781E+04  0.11498419781E+04  0.50400001928E-02 0.  1.
    10030    2    1    2    0    0  0.00000000000E+00  0.00000000000E+00 -0.18188786993E+03  0.21177960863E+04  0.21099708685E+04 0.  0.
        3    1    3    3  502    0  0.51975131812E+03  0.73563233802E+03  0.46036345797E+03  0.10115487596E+04  0.10100000352E+00 0. -1.
       -3    1    3    3    0  502 -0.51975131812E+03 -0.73563233802E+03 -0.64225132790E+03  0.11062473267E+04  0.10100000352E+00 0.  1.
</event>
<event>
 5   0  0.1156733E-04  0.2237540E+04  0.7818609E-02  0.8502964E-01
        1   -1    0    0  501    0  0.00000000000E+00  0.00000000000E+00  0.11205251306E+04  0.11205251306E+04  0.50400001928E-02 0.  1.
       -1   -1    0    0    0  501  0.00000000000E+00  0.00000000000E+00 -0.11170175992E+04  0.11170175992E+04  0.50400001928E-02 0. -1.
    10030    2    1    2    0    0  0.00000000000E+00  0.00000000000E+00  0.35075314500E+01  0.22375427298E+04  0.22375399806E+04 0.  0.
        2    1    3    3  502    0  0.39447894954E+03 -0.10365750880E+04 -0.14502766885E+03  0.11185412730E+04  0.25500000920E-02 0.  1.
       -2    1    3    3    0  502 -0.39447894954E+03  0.10365750880E+04  0.14853520030E+03  0.11190014568E+04  0.25500000920E-02 0. -1.
</event>
<event>
 5   0  0.1156733E-04  0.2268695E+04  0.7818609E-02  0.8490367E-01
       -1   -1    0    0    0  501  0.00000000000E+00  0.00000000000E+00  0.10410755986E+04  0.10410755986E+04  0.50400001928E-02 0. -1.
        1   -1    0    0  501    0  0.00000000000E+00  0.00000000000E+00 -0.12359760210E+04  0.12359760210E+04  0.50400001928E-02 0.  1.
    10030    2    1    2    0    0  0.00000000000E+00  0.00000000000E+00 -0.19490042238E+03  0.22770516196E+04  0.22686951985E+04 0.  0.
        2    1    3    3  502    0  0.81129964620E+02 -0.71043463533E+03  0.78638690084E+03  0.10628752514E+04  0.25500000920E-02 0. -1.
       -2    1    3    3    0  502 -0.81129964620E+02  0.71043463533E+03 -0.98128732322E+03  0.12141763681E+04  0.25500000920E-02 0.  1.
</event>
<event>
 5   0  0.1130848E-04  0.2031240E+04  0.7818609E-02  0.8592152E-01
       -1   -1    0    0    0  501  0.00000000000E+00  0.00000000000E+00  0.80219049291E+03  0.80219049292E+03  0.50400001928E-02 0. -1.
        1   -1    0    0  501    0  0.00000000000E+00  0.00000000000E+00 -0.12858347076E+04  0.12858347076E+04  0.50400001928E-02 0.  1.
    10030    2    1    2    0    0  0.00000000000E+00  0.00000000000E+00 -0.48364421470E+03  0.20880252005E+04  0.20312403875E+04 0.  0.
        5    1    3    3  502    0  0.10149789663E+04 -0.66165681097E+01 -0.20567945676E+03  0.10356409657E+04  0.46999998093E+01 0. -1.
       -5    1    3    3    0  502 -0.10149789663E+04  0.66165681097E+01 -0.27796475794E+03  0.10523842348E+04  0.46999998093E+01 0.  1.
</event>
<event>
 5   0  0.2430898E-04  0.2110127E+04  0.7818609E-02  0.8556796E-01
       -2   -1    0    0    0  501  0.00000000000E+00  0.00000000000E+00  0.60103635986E+03  0.60103635986E+03  0.25500000920E-02 0. -1.
        2   -1    0    0  501    0  0.00000000000E+00  0.00000000000E+00 -0.18520651289E+04  0.18520651289E+04  0.25500000920E-02 0.  1.
    10030    2    1    2    0    0  0.00000000000E+00  0.00000000000E+00 -0.12510287690E+04  0.24531014887E+04  0.21101265206E+04 0.  0.
        1    1    3    3  502    0  0.22287348141E+02  0.68751749205E+02  0.59815516313E+03  0.60250570795E+03  0.50400001928E-02 0. -1.
       -1    1    3    3    0  502 -0.22287348141E+02 -0.68751749205E+02 -0.18491839321E+04  0.18505957808E+04  0.50400001928E-02 0.  1.
</event>
<event>
 5   0  0.1186038E-04  0.2122305E+04  0.7818609E-02  0.8551481E-01
        1   -1    0    0  501    0  0.00000000000E+00  0.00000000000E+00  0.94837058117E+03  0.94837058118E+03  0.50400001928E-02 0. -1.
       -1   -1    0    0    0  501  0.00000000000E+00  0.00000000000E+00 -0.11873470997E+04  0.11873470997E+04  0.50400001928E-02 0.  1.
    10030    2    1    2    0    0  0.00000000000E+00  0.00000000000E+00 -0.23897651849E+03  0.21357176808E+04  0.21223054059E+04 0.  0.
        4    1    3    3  502    0 -0.74889464258E+03 -0.58784865906E+03 -0.59110146814E+03  0.11206300862E+04  0.12699999809E+01 0.  1.
       -4    1    3    3    0  502  0.74889464258E+03  0.58784865906E+03  0.35212494966E+03  0.10150875946E+04  0.12699999809E+01 0. -1.
</event>
<event>
 5   0  0.1122711E-04  0.2025847E+04  0.7818609E-02  0.8594631E-01
       -1   -1    0    0    0  501  0.00000000000E+00  0.00000000000E+00  0.63067755653E+03  0.63067755655E+03  0.50400001928E-02 0. -1.
        1   -1    0    0  501    0  0.00000000000E+00  0.00000000000E+00 -0.16268435468E+04  0.16268435468E+04  0.50400001928E-02 0.  1.
    10030    2    1    2    0    0  0.00000000000E+00  0.00000000000E+00 -0.99616599031E+03  0.22575211034E+04  0.20258467000E+04 0.  0.
        1    1    3    3  502    0 -0.48832790248E+03 -0.24134511276E+03  0.45357078113E+03  0.70882865159E+03  0.50400001928E-02 0. -1.
       -1    1    3    3    0  502  0.48832790248E+03  0.24134511276E+03 -0.14497367714E+04  0.15486924518E+04  0.50400001928E-02 0.  1.
</event>
<event>
 5   0  0.2467483E-04  0.1880883E+04  0.7818609E-02  0.8664431E-01
        2   -1    0    0  501    0  0.00000000000E+00  0.00000000000E+00  0.13791345547E+04  0.13791345547E+04  0.25500000920E-02 0. -1.
       -2   -1    0    0    0  501  0.00000000000E+00  0.00000000000E+00 -0.64129332651E+03  0.64129332651E+03  0.25500000920E-02 0.  1.
    10030    2    1    2    0    0  0.00000000000E+00  0.00000000000E+00  0.73784122822E+03  0.20204278812E+04  0.18808825442E+04 0.  0.
        4    1    3    3  502    0 -0.18567839785E+03  0.79207914364E+03 -0.13784543640E+03  0.82514775311E+03  0.12699999809E+01 0.  1.
       -4    1    3    3    0  502  0.18567839785E+03 -0.79207914364E+03  0.87568666461E+03  0.11952801281E+04  0.12699999809E+01 0. -1.
</event>
<event>
 5   0  0.1130848E-04  0.2241449E+04  0.7818609E-02  0.8501372E-01
        1   -1    0    0  501    0  0.00000000000E+00  0.00000000000E+00  0.12430858625E+04  0.12430858626E+04  0.50400001928E-02 0.  1.
       -1   -1    0    0    0  501  0.00000000000E+00  0.00000000000E+00 -0.10104072413E+04  0.10104072414E+04  0.50400001928E-02 0. -1.
    10030    2    1    2    0    0  0.00000000000E+00  0.00000000000E+00  0.23267862120E+03  0.22534931039E+04  0.22414486005E+04 0.  0.
        5    1    3    3  502    0 -0.11402271851E+03  0.27718959579E+01  0.12372257534E+04  0.12424807921E+04  0.46999998093E+01 0.  1.
       -5    1    3    3    0  502  0.11402271851E+03 -0.27718959579E+01 -0.10045471322E+04  0.10110123118E+04  0.46999998093E+01 0. -1.
</event>
<event>
 5   0  0.1130848E-04  0.2073049E+04  0.7818609E-02  0.8573209E-01
       -1   -1    0    0    0  501  0.00000000000E+00  0.00000000000E+00  0.87116557142E+03  0.87116557144E+03  0.50400001928E-02 0. -1.
        1   -1    0    0  501    0  0.00000000000E+00  0.00000000000E+00 -0.12332711385E+04  0.12332711385E+04  0.50400001928E-02 0.  1.
    10030    2    1    2    0    0  0.00000000000E+00  0.00000000000E+00 -0.36210556709E+03  0.21044367100E+04  0.20730493059E+04 0.  0.
        5    1    3    3  502    0 -0.92572601290E+03  0.15773772143E+03  0.26435160668E+03  0.97557864966E+03  0.46999998093E+01 0. -1.
       -5    1    3    3    0  502  0.92572601290E+03 -0.15773772143E+03 -0.62645717377E+03  0.11288580603E+04  0.46999998093E+01 0.  1.
</event>
<event>
 5   0  0.1186038E-04  0.2147654E+04  0.7818609E-02  0.8540537E-01
       -1   -1    0    0    0  501  0.00000000000E+00  0.00000000000E+00  0.89161605230E+03  0.89161605231E+03  0.50400001928E-02 0. -1.
        1   -1    0    0  501    0  0.00000000000E+00  0.00000000000E+00 -0.12932749013E+04  0.12932749014E+04  0.50400001928E-02 0.  1.
    10030    2    1    2    0    0  0.00000000000E+00  0.00000000000E+00 -0.40165884905E+03  0.21848909537E+04  0.21476542199E+04 0.  0.
        4    1    3    3  502    0  0.34788691171E+03 -0.10034857401E+04 -0.39671616743E+02  0.10628190740E+04  0.12699999809E+01 0. -1.
       -4    1    3    3    0  502 -0.34788691171E+03  0.10034857401E+04 -0.36198723231E+03  0.11220718797E+04  0.12699999809E+01 0.  1.
</event>
<event>
 5   0  0.2430898E-04  0.1680253E+04  0.7818609E-02  0.8772707E-01
        2   -1    0    0  501    0  0.00000000000E+00  0.00000000000E+00  0.64519618856E+03  0.64519618857E+03  0.25500000920E-02 0.  1.
       -2   -1    0    0    0  501  0.00000000000E+00  0.00000000000E+00 -0.10939505179E+04  0.10939505179E+04  0.25500000920E-02 0. -1.
    10030    2    1    2    0    0  0.00000000000E+00  0.00000000000E+00 -0.44875432938E+03  0.17391467065E+04  0.16802532008E+04 0.  0.
        1    1    3    3  502    0  0.74464019106E+03  0.30024828999E+03 -0.48038145945E+03  0.93563048069E+03  0.50400001928E-02 0. -1.
       -1    1    3    3    0  502 -0.74464019106E+03 -0.30024828999E+03  0.31627130067E+02  0.80351622583E+03  0.50400001928E-02 0.  1.
</event>
<event>
 5   0  0.1186038E-04  0.2173154E+04  0.7818609E-02  0.8529686E-01
        1   -1    0    0  501    0  0.00000000000E+00  0.00000000000E+00  0.26691071059E+04  0.26691071059E+04  0.50400001928E-02 0.  1.
       -1   -1    0    0    0  501  0.00000000000E+00  0.00000000000E+00 -0.44233876587E+03  0.44233876590E+03  0.50400001928E-02 0. -1.
    10030    2    1    2    0    0  0.00000000000E+00  0.00000000000E+00  0.22267683400E+04  0.31114458718E+04  0.21731539690E+04 0.  0.
        4    1    3    3  502    0  0.88317978413E+03 -0.28250896518E+03  0.30240575499E+03  0.97533004673E+03  0.12699999809E+01 0. -1.
       -4    1    3    3    0  502 -0.88317978413E+03  0.28250896518E+03  0.19243625850E+04  0.21361158251E+04  0.12699999809E+01 0.  1.
</event>
<event>
 5   0  0.2430898E-04  0.2107373E+04  0.7818609E-02  0.8558002E-01
        2   -1    0    0  501    0  0.00000000000E+00  0.00000000000E+00  0.17888589795E+04  0.17888589795E+04  0.25500000920E-02 0.  1.
       -2   -1    0    0    0  501  0.00000000000E+00  0.00000000000E+00 -0.62065006708E+03  0.62065006708E+03  0.25500000920E-02 0. -1.
    10030    2    1    2    0    0  0.00000000000E+00  0.00000000000E+00  0.11682089124E+04  0.24095090466E+04  0.21073731949E+04 0.  0.
        1    1    3    3  502    0 -0.11563173922E+03  0.57545813964E+02  0.17797736612E+04  0.17844541196E+04  0.50400001928E-02 0.  1.
       -1    1    3    3    0  502  0.11563173922E+03 -0.57545813964E+02 -0.61156474876E+03  0.62505492701E+03  0.50400001928E-02 0. -1.
</event>
<event>
 5   0  0.2512839E-04  0.2124735E+04  0.7818609E-02  0.8550425E-01
        2   -1    0    0  501    0  0.00000000000E+00  0.00000000000E+00  0.68031033660E+03  0.68031033660E+03  0.25500000920E-02 0. -1.
       -2   -1    0    0    0  501  0.00000000000E+00  0.00000000000E+00 -0.16589854495E+04  0.16589854495E+04  0.25500000920E-02 0.  1.
    10030    2    1    2    0    0  0.00000000000E+00  0.00000000000E+00 -0.97867511288E+03  0.23392957861E+04  0.21247352301E+04 0.  0.
        3    1    3    3  502    0 -0.25601934902E+03 -0.34707302247E+02 -0.16238699543E+04  0.16442944209E+04  0.10100000352E+00 0.  1.
       -3    1    3    3    0  502  0.25601934902E+03  0.34707302247E+02  0.64519484146E+03  0.69500136515E+03  0.10100000352E+00 0. -1.
</event>
<event>
 5   0  0.2512839E-04  0.1965041E+04  0.7818609E-02  0.8623142E-01
        2   -1    0    0  501    0  0.00000000000E+00  0.00000000000E+00  0.16477588507E+04  0.16477588507E+04  0.25500000920E-02 0. -1.
       -2   -1    0    0    0  501  0.00000000000E+00  0.00000000000E+00 -0.58585448218E+03  0.58585448218E+03  0.25500000920E-02 0.  1.
    10030    2    1    2    0    0  0.00000000000E+00  0.00000000000E+00  0.10619043686E+04  0.22336133329E+04  0.19650413820E+04 0.  0.
        3    1    3    3  502    0 -0.44758111072E+02  0.77409443141E+02  0.16431242384E+04  0.16455554635E+04  0.10100000352E+00 0. -1.
       -3    1    3    3    0  502  0.44758111072E+02 -0.77409443141E+02 -0.58121986989E+03  0.58805786939E+03  0.10100000352E+00 0.  1.
</event>
<event>
 5   0  0.1122711E-04  0.2068761E+04  0.7818609E-02  0.8575130E-01
        1   -1    0    0  501    0  0.00000000000E+00  0.00000000000E+00  0.17946098245E+04  0.17946098245E+04  0.50400001928E-02 0. -1.
       -1   -1    0    0    0  501  0.00000000000E+00  0.00000000000E+00 -0.59619839699E+03  0.59619839701E+03  0.50400001928E-02 0.  1.
    10030    2    1    2    0    0  0.00000000000E+00  0.00000000000E+00  0.11984114275E+04  0.23908082215E+04  0.20687614658E+04 0.  0.
        1    1    3    3  502    0  0.14805194282E+03 -0.47919214241E+02  0.17810048390E+04  0.17877902185E+04  0.50400001928E-02 0. -1.
       -1    1    3    3    0  502 -0.14805194282E+03  0.47919214241E+02 -0.58259341146E+03  0.60301800303E+03  0.50400001928E-02 0.  1.
</event>
<event>
 5   0  0.1130848E-04  0.1605708E+04  0.7818609E-02  0.8817049E-01
       -1   -1    0    0    0  501  0.00000000000E+00  0.00000000000E+00  0.50846163381E+03  0.50846163383E+03  0.50400001928E-02 0. -1.
        1   -1    0    0  501    0  0.00000000000E+00  0.00000000000E+00 -0.12676956440E+04  0.12676956440E+04  0.50400001928E-02 0.  1.
    10030    2    1    2    0    0  0.00000000000E+00  0.00000000000E+00 -0.75923401021E+03  0.17761572779E+04  0.16057080661E+04 0.  0.
        5    1    3    3  502    0 -0.29939038766E+02  0.77055410126E+03 -0.62671894425E+03  0.99370453058E+03  0.46999998093E+01 0.  1.
       -5    1    3    3    0  502  0.29939038766E+02 -0.77055410126E+03 -0.13251506596E+03  0.78245274728E+03  0.46999998093E+01 0. -1.
</event>
<event>
 5   0  0.2512839E-04  0.1781780E+04  0.7818609E-02  0.8716049E-01
        2   -1    0    0  501    0  0.00000000000E+00  0.00000000000E+00  0.20203337119E+04  0.20203337119E+04  0.25500000920E-02 0. -1.
       -2   -1    0    0    0  501  0.00000000000E+00  0.00000000000E+00 -0.39284842684E+03  0.39284842685E+03  0.25500000920E-02 0.  1.
    10030    2    1    2    0    0  0.00000000000E+00  0.00000000000E+00  0.16274852850E+04  0.24131821387E+04  0.17817799195E+04 0.  0.
        3    1    3    3  502    0 -0.48249270103E+03  0.79110586590E+02 -0.19489838969E+03  0.52634882347E+03  0.10100000352E+00 0.  1.
       -3    1    3    3    0  502  0.48249270103E+03 -0.79110586590E+02  0.18223836747E+04  0.18868333152E+04  0.10100000352E+00 0. -1.
</event>
<event>
 5   0  0.1130848E-04  0.2093544E+04  0.7818609E-02  0.8564093E-01
        1   -1    0    0  501    0  0.00000000000E+00  0.00000000000E+00  0.14699825790E+04  0.14699825790E+04  0.50400001928E-02 0. -1.
       -1   -1    0    0    0  501  0.00000000000E+00  0.00000000000E+00 -0.74540446791E+03  0.74540446793E+03  0.50400001928E-02 0.  1.
    10030    2    1    2    0    0  0.00000000000E+00  0.00000000000E+00  0.72457811109E+03  0.22153870469E+04  0.20935439639E+04 0.  0.
        5    1    3    3  502    0 -0.26266120981E+03 -0.78816858021E+03  0.10361459963E+04  0.13280893184E+04  0.46999998093E+01 0. -1.
       -5    1    3    3    0  502  0.26266120981E+03  0.78816858021E+03 -0.31156788522E+03  0.88729772854E+03  0.46999998093E+01 0.  1.
</event>
<event>
 5   0  0.2448804E-04  0.2108623E+04  0.7818609E-02  0.8557454E-01
        2   -1    0    0  501    0  0.00000000000E+00  0.00000000000E+00  0.21311811875E+04  0.21311811875E+04  0.25500000920E-02 0. -1.
       -2   -1    0    0    0  501  0.00000000000E+00  0.00000000000E+00 -0.52157595443E+03  0.52157595444E+03  0.25500000920E-02 0.  1.
    10030    2    1    2    0    0  0.00000000000E+00  0.00000000000E+00  0.16096052331E+04  0.26527571420E+04  0.21086231166E+04 0.  0.
        2    1    3    3  502    0 -0.75694765679E+03 -0.65767981231E+02 -0.11476156111E+03  0.76841746362E+03  0.25500000920E-02 0.  1.
       -2    1    3    3    0  502  0.75694765679E+03  0.65767981231E+02  0.17243667942E+04  0.18843396784E+04  0.25500000920E-02 0. -1.
</event>
<event>
 5   0  0.1042395E-04  0.1972068E+04  0.7818609E-02  0.8619792E-01
        1   -1    0    0  501    0  0.00000000000E+00  0.00000000000E+00  0.18674340597E+04  0.18674340597E+04  0.50400001928E-02 0.  1.
       -1   -1    0    0    0  501  0.00000000000E+00  0.00000000000E+00 -0.52064092285E+03  0.52064092288E+03  0.50400001928E-02 0. -1.
    10030    2    1    2    0    0  0.00000000000E+00  0.00000000000E+00  0.13467931369E+04  0.23880749826E+04  0.19720675366E+04 0.  0.
        3    1    3    3  502    0 -0.90262151799E+03  0.18188483580E+03  0.24619568033E+03  0.95311070787E+03  0.10100000352E+00 0. -1.
       -3    1    3    3    0  502  0.90262151799E+03 -0.18188483580E+03  0.11005974565E+04  0.14349642747E+04  0.10100000352E+00 0.  1.
</event>
<event>
 5   0  0.1122711E-04  0.2112358E+04  0.7818609E-02  0.8555819E-01
        1   -1    0    0  501    0  0.00000000000E+00  0.00000000000E+00  0.15812464342E+04  0.15812464342E+04  0.50400001928E-02 0. -1.
       -1   -1    0    0    0  501  0.00000000000E+00  0.00000000000E+00 -0.70546526475E+03  0.70546526477E+03  0.50400001928E-02 0.  1.
    10030    2    1    2    0    0  0.00000000000E+00  0.00000000000E+00  0.87578116948E+03  0.22867116990E+04  0.21123583355E+04 0.  0.
        1    1    3    3  502    0 -0.74382509446E+03  0.71373741576E+03  0.68668063441E+03  0.12386392386E+04  0.50400001928E-02 0. -1.
       -1    1    3    3    0  502  0.74382509446E+03 -0.71373741576E+03  0.18910053507E+03  0.10480724604E+04  0.50400001928E-02 0.  1.
</event>
<event>
 5   0  0.1186038E-04  0.2069017E+04  0.7818609E-02  0.8575016E-01
        1   -1    0    0  501    0  0.00000000000E+00  0.00000000000E+00  0.87665971136E+03  0.87665971138E+03  0.50400001928E-02 0.  1.
       -1   -1    0    0    0  501  0.00000000000E+00  0.00000000000E+00 -0.12207792394E+04  0.12207792394E+04  0.50400001928E-02 0. -1.
    10030    2    1    2    0    0  0.00000000000E+00  0.00000000000E+00 -0.34411952802E+03  0.20974389508E+04  0.20690171344E+04 0.  0.
        4    1    3    3  502    0 -0.70956874736E+03 -0.15829564281E+03 -0.91814602604E+03  0.11711272586E+04  0.12699999809E+01 0. -1.
       -4    1    3    3    0  502  0.70956874736E+03  0.15829564281E+03  0.57402649802E+03  0.92631169219E+03  0.12699999809E+01 0.  1.
</event>
<event>
 5   0  0.2467483E-04  0.2112923E+04  0.7818609E-02  0.8555572E-01
        2   -1    0    0  501    0  0.00000000000E+00  0.00000000000E+00  0.20505077335E+04  0.20505077335E+04  0.25500000920E-02 0.  1.
       -2   -1    0    0    0  501  0.00000000000E+00  0.00000000000E+00 -0.54430968418E+03  0.54430968419E+03  0.25500000920E-02 0. -1.
    10030    2    1    2    0    0  0.00000000000E+00  0.00000000000E+00  0.15061980493E+04  0.25948174177E+04  0.21129232990E+04 0.  0.
        4    1    3    3  502    0 -0.43506927063E+03  0.62857223154E+03 -0.14239995343E+03  0.77760380667E+03  0.12699999809E+01 0. -1.
       -4    1    3    3    0  502  0.43506927063E+03 -0.62857223154E+03  0.16485980028E+04  0.18172136110E+04  0.12699999809E+01 0.  1.
</event>
<event>
 5   0  0.1042395E-04  0.2098391E+04  0.7818609E-02  0.8561953E-01
        1   -1    0    0  501    0  0.00000000000E+00  0.00000000000E+00  0.20111223286E+04  0.20111223286E+04  0.50400001928E-02 0.  1.
       -1   -1    0    0    0  501  0.00000000000E+00  0.00000000000E+00 -0.54736150337E+03  0.54736150339E+03  0.50400001928E-02 0. -1.
    10030    2    1    2    0    0  0.00000000000E+00  0.00000000000E+00  0.14637608252E+04  0.25584838320E+04  0.20983907560E+04 0.  0.
        3    1    3    3  502    0 -0.67003749067E+03  0.40867852613E+03 -0.11709805946E+03  0.79352400238E+03  0.10100000352E+00 0. -1.
       -3    1    3    3    0  502  0.67003749067E+03 -0.40867852613E+03  0.15808588847E+04  0.17649598296E+04  0.10100000352E+00 0.  1.
</event>
<event>
 5   0  0.1130848E-04  0.2119763E+04  0.7818609E-02  0.8552587E-01
        1   -1    0    0  501    0  0.00000000000E+00  0.00000000000E+00  0.61449899879E+03  0.61449899881E+03  0.50400001928E-02 0.  1.
       -1   -1    0    0    0  501  0.00000000000E+00  0.00000000000E+00 -0.18280723327E+04  0.18280723327E+04  0.50400001928E-02 0. -1.
    10030    2    1    2    0    0  0.00000000000E+00  0.00000000000E+00 -0.12135733339E+04  0.24425713315E+04  0.21197628341E+04 0.  0.
        5    1    3    3  502    0  0.67311859416E+03 -0.61053567834E+02  0.33393994628E+03  0.75389266986E+03  0.46999998093E+01 0.  1.
       -5    1    3    3    0  502 -0.67311859416E+03  0.61053567834E+02 -0.15475132802E+04  0.16886786616E+04  0.46999998093E+01 0. -1.
</event>
<event>
 5   0  0.1186038E-04  0.2104888E+04  0.7818609E-02  0.8559093E-01
        1   -1    0    0  501    0  0.00000000000E+00  0.00000000000E+00  0.96602892482E+03  0.96602892484E+03  0.50400001928E-02 0.  1.
       -1   -1    0    0    0  501  0.00000000000E+00  0.00000000000E+00 -0.11465896628E+04  0.11465896628E+04  0.50400001928E-02 0. -1.
    10030    2    1    2    0    0  0.00000000000E+00  0.00000000000E+00 -0.18056073797E+03  0.21126185876E+04  0.21048883858E+04 0.  0.
        4    1    3    3  502    0  0.48129122728E+03  0.81617451436E+02 -0.10260856365E+04  0.11362904559E+04  0.12699999809E+01 0. -1.
       -4    1    3    3    0  502 -0.48129122728E+03 -0.81617451436E+02  0.84552489855E+03  0.97632813172E+03  0.12699999809E+01 0.  1.
</event>
<event>
 5   0  0.2448804E-04  0.2086009E+04  0.7818609E-02  0.8567432E-01
        2   -1    0    0  501    0  0.00000000000E+00  0.00000000000E+00  0.92732558804E+03  0.92732558804E+03  0.25500000920E-02 0. -1.
       -2   -1    0    0    0  501  0.00000000000E+00  0.00000000000E+00 -0.11731140010E+04  0.11731140010E+04  0.25500000920E-02 0.  1.
    10030    2    1    2    0    0  0.00000000000E+00  0.00000000000E+00 -0.24578841293E+03  0.21004395890E+04  0.20860092337E+04 0.  0.
        2    1    3    3  502    0 -0.25756552230E+03 -0.47399777313E+03 -0.10217309649E+04  0.11553995205E+04  0.25500000920E-02 0.  1.
       -2    1    3    3    0  502  0.25756552230E+03  0.47399777313E+03  0.77594255197E+03  0.94504006856E+03  0.25500000920E-02 0. -1.
</event>
<event>
 5   0  0.2467483E-04  0.2033494E+04  0.7818609E-02  0.8591119E-01
        2   -1    0    0  501    0  0.00000000000E+00  0.00000000000E+00  0.18432671218E+04  0.18432671218E+04  0.25500000920E-02 0. -1.
       -2   -1    0    0    0  501  0.00000000000E+00  0.00000000000E+00 -0.56083799844E+03  0.56083799845E+03  0.25500000920E-02 0.  1.
    10030    2    1    2    0    0  0.00000000000E+00  0.00000000000E+00  0.12824291234E+04  0.24041051202E+04  0.20334937848E+04 0.  0.
        4    1    3    3  502    0  0.21687001070E+03  0.84882248068E+03  0.12512395187E+04  0.15274600327E+04  0.12699999809E+01 0. -1.
       -4    1    3    3    0  502 -0.21687001070E+03 -0.84882248068E+03  0.31189604629E+02  0.87664508759E+03  0.12699999809E+01 0.  1.
</event>
<event>
 5   0  0.2467483E-04  0.2117490E+04  0.7818609E-02  0.8553578E-01
       -2   -1    0    0    0  501  0.00000000000E+00  0.00000000000E+00  0.77373587380E+03  0.77373587381E+03  0.25500000920E-02 0. -1.
        2   -1    0    0  501    0  0.00000000000E+00  0.00000000000E+00 -0.14487390621E+04  0.14487390621E+04  0.25500000920E-02 0.  1.
    10030    2    1    2    0    0  0.00000000000E+00  0.00000000000E+00 -0.67500318832E+03  0.22224749359E+04  0.21174903864E+04 0.  0.
        4    1    3    3  502    0  0.10477001473E+04 -0.69287181307E+02 -0.48011881133E+03  0.11545527264E+04  0.12699999809E+01 0.  1.
       -4    1    3    3    0  502 -0.10477001473E+04  0.69287181307E+02 -0.19488437699E+03  0.10679222095E+04  0.12699999809E+01 0. -1.
</event>
<event>
 5   0  0.1186038E-04  0.1955982E+04  0.7818609E-02  0.8627481E-01
        1   -1    0    0  501    0  0.00000000000E+00  0.00000000000E+00  0.99584165321E+03  0.99584165322E+03  0.50400001928E-02 0. -1.
       -1   -1    0    0    0  501  0.00000000000E+00  0.00000000000E+00 -0.96046054546E+03  0.96046054547E+03  0.50400001928E-02 0.  1.
    10030    2    1    2    0    0  0.00000000000E+00  0.00000000000E+00  0.35381107751E+02  0.19563021987E+04  0.19559822264E+04 0.  0.
        4    1    3    3  502    0 -0.36634148203E+03  0.46471493334E+03 -0.76108883384E+03  0.96406632377E+03  0.12699999809E+01 0.  1.
       -4    1    3    3    0  502  0.36634148203E+03 -0.46471493334E+03  0.79646994159E+03  0.99223587492E+03  0.12699999809E+01 0. -1.
</event>
<event>
 5   0  0.2448804E-04  0.2051065E+04  0.7818609E-02  0.8583112E-01
       -2   -1    0    0    0  501  0.00000000000E+00  0.00000000000E+00  0.83322037694E+03  0.83322037694E+03  0.25500000920E-02 0.  1.
        2   -1    0    0  501    0  0.00000000000E+00  0.00000000000E+00 -0.12622308383E+04  0.12622308383E+04  0.25500000920E-02 0. -1.
    10030    2    1    2    0    0  0.00000000000E+00  0.00000000000E+00 -0.42901046135E+03  0.20954512152E+04  0.20510645576E+04 0.  0.
        2    1    3    3  502    0 -0.50906313252E+03 -0.88726445846E+03 -0.13989772885E+03  0.10324509028E+04  0.25500000920E-02 0.  1.
       -2    1    3    3    0  502  0.50906313252E+03  0.88726445846E+03 -0.28911273250E+03  0.10630003124E+04  0.25500000920E-02 0. -1.
</event>
<event>
 5   0  0.2467483E-04  0.2065347E+04  0.7818609E-02  0.8576664E-01
       -2   -1    0    0    0  501  0.00000000000E+00  0.00000000000E+00  0.13619014574E+04  0.13619014574E+04  0.25500000920E-02 0.  1.
        2   -1    0    0  501    0  0.00000000000E+00  0.00000000000E+00 -0.78303329203E+03  0.78303329203E+03  0.25500000920E-02 0. -1.
    10030    2    1    2    0    0  0.00000000000E+00  0.00000000000E+00  0.57886816535E+03  0.21449347494E+04  0.20653466359E+04 0.  0.
        4    1    3    3  502    0 -0.31343956522E+03  0.79630497935E+03 -0.31082349863E+03  0.91047176858E+03  0.12699999809E+01 0. -1.
       -4    1    3    3    0  502  0.31343956522E+03 -0.79630497935E+03  0.88969166398E+03  0.12344629808E+04  0.12699999809E+01 0.  1.
</event>
<event>
 5   0  0.2579241E-04  0.1932066E+04  0.7818609E-02  0.8639058E-01
        2   -1    0    0  501    0  0.00000000000E+00  0.00000000000E+00  0.75459879853E+03  0.75459879853E+03  0.25500000920E-02 0. -1.
       -2   -1    0    0    0  501  0.00000000000E+00  0.00000000000E+00 -0.12367098400E+04  0.12367098400E+04  0.25500000920E-02 0.  1.
    10030    2    1    2    0    0  0.00000000000E+00  0.00000000000E+00 -0.48211104147E+03  0.19913086385E+04  0.19320660024E+04 0.  0.
        5    1    3    3  502    0 -0.68221536464E+03  0.19541155388E+03  0.43447631215E+03  0.83210289926E+03  0.46999998093E+01 0. -1.
       -5    1    3    3    0  502  0.68221536464E+03 -0.19541155388E+03 -0.91658735362E+03  0.11592057393E+04  0.46999998093E+01 0.  1.
</event>
<event>
 5   0  0.1156733E-04  0.2081138E+04  0.7818609E-02  0.8569598E-01
       -1   -1    0    0    0  501  0.00000000000E+00  0.00000000000E+00  0.46988158977E+03  0.46988158980E+03  0.50400001928E-02 0.  1.
        1   -1    0    0  501    0  0.00000000000E+00  0.00000000000E+00 -0.23043757396E+04  0.23043757396E+04  0.50400001928E-02 0. -1.
    10030    2    1    2    0    0  0.00000000000E+00  0.00000000000E+00 -0.18344941498E+04  0.27742573294E+04  0.20811378964E+04 0.  0.
        2    1    3    3  502    0 -0.57430166612E+03 -0.85603818414E+03 -0.11065209671E+04  0.15122871510E+04  0.25500000920E-02 0.  1.
       -2    1    3    3    0  502  0.57430166612E+03  0.85603818414E+03 -0.72797318273E+03  0.12619701784E+04  0.25500000920E-02 0. -1.
</event>
<event>
 5   0  0.2579241E-04  0.2121277E+04  0.7818609E-02  0.8551928E-01
        2   -1    0    0  501    0  0.00000000000E+00  0.00000000000E+00  0.17236734902E+04  0.17236734902E+04  0.25500000920E-02 0. -1.
       -2   -1    0    0    0  501  0.00000000000E+00  0.00000000000E+00 -0.65264942990E+03  0.65264942991E+03  0.25500000920E-02 0.  1.
    10030    2    1    2    0    0  0.00000000000E+00  0.00000000000E+00  0.10710240603E+04  0.23763229201E+04  0.21212774649E+04 0.  0.
        5    1    3    3  502    0 -0.15367274279E+03 -0.47392720531E+03  0.15844166280E+04  0.16609095246E+04  0.46999998093E+01 0. -1.
       -5    1    3    3    0  502  0.15367274279E+03  0.47392720531E+03 -0.51339256775E+03  0.71541339547E+03  0.46999998093E+01 0.  1.
</event>
<event>
 5   0  0.1130848E-04  0.2235428E+04  0.7818609E-02  0.8503825E-01
       -1   -1    0    0    0  501  0.00000000000E+00  0.00000000000E+00  0.14562938076E+04  0.14562938076E+04  0.50400001928E-02 0. -1.
        1   -1    0    0  501    0  0.00000000000E+00  0.00000000000E+00 -0.85785212442E+03  0.85785212443E+03  0.50400001928E-02 0.  1.
    10030    2    1    2    0    0  0.00000000000E+00  0.00000000000E+00  0.59844168313E+03  0.23141459320E+04  0.22354281349E+04 0.  0.
        5    1    3    3  502    0  0.86042514964E+03  0.40804681814E+03  0.90500135689E+03  0.13137287353E+04  0.46999998093E+01 0. -1.
       -5    1    3    3    0  502 -0.86042514964E+03 -0.40804681814E+03 -0.30655967375E+03  0.10004171967E+04  0.46999998093E+01 0.  1.
</event>
<event>
 5   0  0.1156733E-04  0.2072044E+04  0.7818609E-02  0.8573659E-01
        1   -1    0    0  501    0  0.00000000000E+00  0.00000000000E+00  0.19538697404E+04  0.19538697404E+04  0.50400001928E-02 0. -1.
       -1   -1    0    0    0  501  0.00000000000E+00  0.00000000000E+00 -0.54934154772E+03  0.54934154775E+03  0.50400001928E-02 0.  1.
    10030    2    1    2    0    0  0.00000000000E+00  0.00000000000E+00  0.14045281926E+04  0.25032112881E+04  0.20720442343E+04 0.  0.
        2    1    3    3  502    0 -0.16015344910E+03  0.95011423274E+03  0.11622515755E+04  0.15097002707E+04  0.25500000920E-02 0. -1.
       -2    1    3    3    0  502  0.16015344910E+03 -0.95011423274E+03  0.24227661709E+03  0.99351101741E+03  0.25500000920E-02 0.  1.
</event>
<event>
 5   0  0.2430898E-04  0.2067306E+04  0.7818609E-02  0.8575784E-01
       -2   -1    0    0    0  501  0.00000000000E+00  0.00000000000E+00  0.58247510301E+03  0.58247510301E+03  0.25500000920E-02 0. -1.
        2   -1    0    0  501    0  0.00000000000E+00  0.00000000000E+00 -0.18343075043E+04  0.18343075043E+04  0.25500000920E-02 0.  1.
    10030    2    1    2    0    0  0.00000000000E+00  0.00000000000E+00 -0.12518324012E+04  0.24167826073E+04  0.20673059304E+04 0.  0.
        1    1    3    3  502    0 -0.75506632724E+03 -0.57365696629E+03 -0.14499627673E+03  0.95928691943E+03  0.50400001928E-02 0. -1.
       -1    1    3    3    0  502  0.75506632724E+03  0.57365696629E+03 -0.11068361245E+04  0.14574956878E+04  0.50400001928E-02 0.  1.
</event>
<event>
 5   0  0.1186038E-04  0.2115489E+04  0.7818609E-02  0.8554451E-01
        1   -1    0    0  501    0  0.00000000000E+00  0.00000000000E+00  0.80893836044E+03  0.80893836046E+03  0.50400001928E-02 0.  1.
       -1   -1    0    0    0  501  0.00000000000E+00  0.00000000000E+00 -0.13830765105E+04  0.13830765105E+04  0.50400001928E-02 0. -1.
    10030    2    1    2    0    0  0.00000000000E+00  0.00000000000E+00 -0.57413815009E+03  0.21920148710E+04  0.21154892057E+04 0.  0.
        4    1    3    3  502    0  0.49784347954E+03 -0.14889333615E+03 -0.12417023413E+04  0.13460474260E+04  0.12699999809E+01 0. -1.
       -4    1    3    3    0  502 -0.49784347954E+03  0.14889333615E+03  0.66756419124E+03  0.84596744500E+03  0.12699999809E+01 0.  1.
</event>
<event>
 5   0  0.2512839E-04  0.2081360E+04  0.7818609E-02  0.8569499E-01
        2   -1    0    0  501    0  0.00000000000E+00  0.00000000000E+00  0.71663907357E+03  0.71663907358E+03  0.25500000920E-02 0. -1.
       -2   -1    0    0    0  501  0.00000000000E+00  0.00000000000E+00 -0.15112420174E+04  0.15112420174E+04  0.25500000920E-02 0.  1.
    10030    2    1    2    0    0  0.00000000000E+00  0.00000000000E+00 -0.79460294387E+03  0.22278810910E+04  0.20813602085E+04 0.  0.
        3    1    3    3  502    0  0.75276236170E+03  0.47887762791E+03  0.17617559652E+03  0.90940244486E+03  0.10100000352E+00 0. -1.
       -3    1    3    3    0  502 -0.75276236170E+03 -0.47887762791E+03 -0.97077854039E+03  0.13184786462E+04  0.10100000352E+00 0.  1.
</event>
<event>
 5   0  0.1130848E-04  0.2036615E+04  0.7818609E-02  0.8589691E-01
       -1   -1    0    0    0  501  0.00000000000E+00  0.00000000000E+00  0.12191663180E+04  0.12191663180E+04  0.50400001928E-02 0.  1.
        1   -1    0    0  501    0  0.00000000000E+00  0.00000000000E+00 -0.85054025941E+03  0.85054025943E+03  0.50400001928E-02 0. -1.
    10030    2    1    2    0    0  0.00000000000E+00  0.00000000000E+00  0.36862605860E+03  0.20697065774E+04  0.20366148742E+04 0.  0.
        5    1    3    3  502    0 -0.91344321196E+03  0.44881868055E+03  0.21818989330E+03  0.10408869434E+04  0.46999998093E+01 0. -1.
       -5    1    3    3    0  502  0.91344321196E+03 -0.44881868055E+03  0.15043616530E+03  0.10288196340E+04  0.46999998093E+01 0.  1.
</event>
<event>
 5   0  0.1042395E-04  0.2072575E+04  0.7818609E-02  0.8573421E-01
       -1   -1    0    0    0  501  0.00000000000E+00  0.00000000000E+00  0.64729014066E+03  0.64729014068E+03  0.50400001928E-02 0.  1.
        1   -1    0    0  501    0  0.00000000000E+00  0.00000000000E+00 -0.16590580170E+04  0.16590580170E+04  0.50400001928E-02 0. -1.
    10030    2    1    2    0    0  0.00000000000E+00  0.00000000000E+00 -0.10117678763E+04  0.23063481577E+04  0.20725751105E+04 0.  0.
        3    1    3    3  502    0  0.17335568683E+03 -0.50266937027E+03 -0.14956843435E+04  0.15873879033E+04  0.10100000352E+00 0. -1.
       -3    1    3    3    0  502 -0.17335568683E+03  0.50266937027E+03  0.48391646717E+03  0.71896025437E+03  0.10100000352E+00 0.  1.
</event>
<event>
 5   0  0.8698750E-05  0.1998219E+04  0.7818609E-02  0.8607454E-01
        3   -1    0    0  501    0  0.00000000000E+00  0.00000000000E+00  0.12138426970E+04  0.12138427012E+04  0.10100000352E+00 0. -1.
       -3   -1    0    0    0  501  0.00000000000E+00  0.00000000000E+00 -0.82236303866E+03  0.82236304486E+03  0.10100000352E+00 0.  1.
    10030    2    1    2    0    0  0.00000000000E+00  0.00000000000E+00  0.39147965832E+03  0.20362057460E+04  0.19982185860E+04 0.  0.
        4    1    3    3  502    0 -0.39443645114E+03 -0.36161089445E+03 -0.66402683141E+03  0.85280466621E+03  0.12699999809E+01 0.  1.
       -4    1    3    3    0  502  0.39443645114E+03  0.36161089445E+03  0.10555064897E+04  0.11834010798E+04  0.12699999809E+01 0. -1.
</event>
<event>
 5   0  0.2448804E-04  0.2147336E+04  0.7818609E-02  0.8540673E-01
        2   -1    0    0  501    0  0.00000000000E+00  0.00000000000E+00  0.12373208962E+04  0.12373208962E+04  0.25500000920E-02 0.  1.
       -2   -1    0    0    0  501  0.00000000000E+00  0.00000000000E+00 -0.93166071857E+03  0.93166071857E+03  0.25500000920E-02 0. -1.
    10030    2    1    2    0    0  0.00000000000E+00  0.00000000000E+00  0.30566017759E+03  0.21689816147E+04  0.21473362803E+04 0.  0.
        2    1    3    3  502    0  0.98194149968E+03  0.10463994039E+03 -0.27284964486E+03  0.10245025889E+04  0.25500000920E-02 0. -1.
       -2    1    3    3    0  502 -0.98194149968E+03 -0.10463994039E+03  0.57850982245E+03  0.11444790258E+04  0.25500000920E-02 0.  1.
</event>
<event>
 5   0  0.2579241E-04  0.2076077E+04  0.7818609E-02  0.8571856E-01
        2   -1    0    0  501    0  0.00000000000E+00  0.00000000000E+00  0.15677256658E+04  0.15677256658E+04  0.25500000920E-02 0. -1.
       -2   -1    0    0    0  501  0.00000000000E+00  0.00000000000E+00 -0.68731653018E+03  0.68731653018E+03  0.25500000920E-02 0.  1.
    10030    2    1    2    0    0  0.00000000000E+00  0.00000000000E+00  0.88040913560E+03  0.22550421960E+04  0.20760768434E+04 0.  0.
        5    1    3    3  502    0 -0.43408114573E+02 -0.38978237404E+03 -0.60373098953E+03  0.71994983245E+03  0.46999998093E+01 0.  1.
       -5    1    3    3    0  502  0.43408114573E+02  0.38978237404E+03  0.14841401251E+04  0.15350923635E+04  0.46999998093E+01 0. -1.
</event>
<event>
 5   0  0.1186038E-04  0.2063111E+04  0.7818609E-02  0.8577670E-01
       -1   -1    0    0    0  501  0.00000000000E+00  0.00000000000E+00  0.20424202443E+04  0.20424202443E+04  0.50400001928E-02 0. -1.
        1   -1    0    0  501    0  0.00000000000E+00  0.00000000000E+00 -0.52100286485E+03  0.52100286488E+03  0.50400001928E-02 0.  1.
    10030    2    1    2    0    0  0.00000000000E+00  0.00000000000E+00  0.15214173795E+04  0.25634231092E+04  0.20631110475E+04 0.  0.
        4    1    3    3  502    0  0.28723991220E+03 -0.52844477160E+03  0.18020013241E+04  0.18997291988E+04  0.12699999809E+01 0. -1.
       -4    1    3    3    0  502 -0.28723991220E+03  0.52844477160E+03 -0.28058394466E+03  0.66369391039E+03  0.12699999809E+01 0.  1.
</event>
<event>
 5   0  0.2467483E-04  0.1609526E+04  0.7818609E-02  0.8814717E-01
        2   -1    0    0  501    0  0.00000000000E+00  0.00000000000E+00  0.95983058737E+03  0.95983058737E+03  0.25500000920E-02 0. -1.
       -2   -1    0    0    0  501  0.00000000000E+00  0.00000000000E+00 -0.67474767736E+03  0.67474767737E+03  0.25500000920E-02 0.  1.
    10030    2    1    2    0    0  0.00000000000E+00  0.00000000000E+00  0.28508291000E+03  0.16345782647E+04  0.16095259669E+04 0.  0.
        4    1    3    3  502    0  0.11074946164E+03  0.76775341489E+03  0.36019269330E+03  0.85524916752E+03  0.12699999809E+01 0.  1.
       -4    1    3    3    0  502 -0.11074946164E+03 -0.76775341489E+03 -0.75109783294E+02  0.77932909722E+03  0.12699999809E+01 0. -1.
</event>
<event>
 5   0  0.1130848E-04  0.2092909E+04  0.7818609E-02  0.8564373E-01
       -1   -1    0    0    0  501  0.00000000000E+00  0.00000000000E+00  0.12668331169E+04  0.12668331169E+04  0.50400001928E-02 0.  1.
        1   -1    0    0  501    0  0.00000000000E+00  0.00000000000E+00 -0.86441319456E+03  0.86441319457E+03  0.50400001928E-02 0. -1.
    10030    2    1    2    0    0  0.00000000000E+00  0.00000000000E+00  0.40241992232E+03  0.21312463115E+04  0.20929092303E+04 0.  0.
        5    1    3    3  502    0 -0.20229756659E+03 -0.33312171886E+03 -0.78773885971E+03  0.87889077030E+03  0.46999998093E+01 0. -1.
       -5    1    3    3    0  502  0.20229756659E+03  0.33312171886E+03  0.11901587820E+04  0.12523555412E+04  0.46999998093E+01 0.  1.
</event>
<event>
 5   0  0.2448804E-04  0.2083726E+04  0.7818609E-02  0.8568446E-01
       -2   -1    0    0    0  501  0.00000000000E+00  0.00000000000E+00  0.10624064636E+04  0.10624064636E+04  0.25500000920E-02 0.  1.
        2   -1    0    0  501    0  0.00000000000E+00  0.00000000000E+00 -0.10217168347E+04  0.10217168347E+04  0.25500000920E-02 0. -1.
    10030    2    1    2    0    0  0.00000000000E+00  0.00000000000E+00  0.40689628960E+02  0.20841232983E+04  0.20837260560E+04 0.  0.
        2    1    3    3  502    0  0.42773611790E+03  0.86603306791E+03  0.41094084805E+03  0.10496874972E+04  0.25500000920E-02 0.  1.
       -2    1    3    3    0  502 -0.42773611790E+03 -0.86603306791E+03 -0.37025121909E+03  0.10344358011E+04  0.25500000920E-02 0. -1.
</event>
<event>
 5   0  0.2512839E-04  0.2109979E+04  0.7818609E-02  0.8556860E-01
        2   -1    0    0  501    0  0.00000000000E+00  0.00000000000E+00  0.10175225809E+04  0.10175225809E+04  0.25500000920E-02 0.  1.
       -2   -1    0    0    0  501  0.00000000000E+00  0.00000000000E+00 -0.10938363857E+04  0.10938363857E+04  0.25500000920E-02 0. -1.
    10030    2    1    2    0    0  0.00000000000E+00  0.00000000000E+00 -0.76313804800E+02  0.21113589665E+04  0.21099793574E+04 0.  0.
        3    1    3    3  502    0  0.99602260926E+02  0.22827106601E+03 -0.10639978893E+04  0.10927578911E+04  0.10100000352E+00 0. -1.
       -3    1    3    3    0  502 -0.99602260926E+02 -0.22827106601E+03  0.98768408447E+03  0.10186010754E+04  0.10100000352E+00 0.  1.
</event>
<event>
 5   0  0.1156733E-04  0.1977401E+04  0.7818609E-02  0.8617260E-01
       -1   -1    0    0    0  501  0.00000000000E+00  0.00000000000E+00  0.68193524830E+03  0.68193524832E+03  0.50400001928E-02 0.  1.
        1   -1    0    0  501    0  0.00000000000E+00  0.00000000000E+00 -0.14334620809E+04  0.14334620809E+04  0.50400001928E-02 0. -1.
    10030    2    1    2    0    0  0.00000000000E+00  0.00000000000E+00 -0.75152683259E+03  0.21153973292E+04  0.19774006373E+04 0.  0.
        2    1    3    3  502    0 -0.18330162519E+03  0.66289947701E+03 -0.11356082323E+04  0.13276450052E+04  0.25500000920E-02 0. -1.
       -2    1    3    3    0  502  0.18330162519E+03 -0.66289947701E+03  0.38408139973E+03  0.78775232405E+03  0.25500000920E-02 0.  1.
</event>
<event>
 5   0  0.1130848E-04  0.1038648E+04  0.7818609E-02  0.9267143E-01
       -1   -1    0    0    0  501  0.00000000000E+00  0.00000000000E+00  0.48449023612E+03  0.48449023615E+03  0.50400001928E-02 0.  1.
        1   -1    0    0  501    0  0.00000000000E+00  0.00000000000E+00 -0.55666253873E+03  0.55666253875E+03  0.50400001928E-02 0. -1.
    10030    2    1    2    0    0  0.00000000000E+00  0.00000000000E+00 -0.72172302602E+02  0.10411527749E+04  0.10386482848E+04 0.  0.
        5    1    3    3  502    0  0.46480816384E+03  0.15344229261E+03  0.13778037190E+03  0.50852402815E+03  0.46999998093E+01 0.  1.
       -5    1    3    3    0  502 -0.46480816384E+03 -0.15344229261E+03 -0.20995267450E+03  0.53262874674E+03  0.46999998093E+01 0. -1.
</event>
<event>
 5   0  0.2512839E-04  0.2075348E+04  0.7818609E-02  0.8572181E-01
        2   -1    0    0  501    0  0.00000000000E+00  0.00000000000E+00  0.12452440906E+04  0.12452440906E+04  0.25500000920E-02 0.  1.
       -2   -1    0    0    0  501  0.00000000000E+00  0.00000000000E+00 -0.86470352196E+03  0.86470352196E+03  0.25500000920E-02 0. -1.
    10030    2    1    2    0    0  0.00000000000E+00  0.00000000000E+00  0.38054056869E+03  0.21099476126E+04  0.20753476344E+04 0.  0.
        3    1    3    3  502    0  0.38137143952E+03 -0.40787286202E+03  0.10794732230E+04  0.12153464098E+04  0.10100000352E+00 0.  1.
       -3    1    3    3    0  502 -0.38137143952E+03  0.40787286202E+03 -0.69893265436E+03  0.89460120276E+03  0.10100000352E+00 0. -1.
</event>
<event>
 5   0  0.2512839E-04  0.1255909E+04  0.7818609E-02  0.9065280E-01
        2   -1    0    0  501    0  0.00000000000E+00  0.00000000000E+00  0.37308471507E+03  0.37308471508E+03  0.25500000920E-02 0.  1.
       -2   -1    0    0    0  501  0.00000000000E+00  0.00000000000E+00 -0.10569359661E+04  0.10569359661E+04  0.25500000920E-02 0. -1.
    10030    2    1    2    0    0  0.00000000000E+00  0.00000000000E+00 -0.68385125099E+03  0.14300206811E+04  0.12559086810E+04 0.  0.
        3    1    3    3  502    0 -0.15243520302E+03  0.56728356598E+03 -0.89160333998E+02  0.59413526298E+03  0.10100000352E+00 0.  1.
       -3    1    3    3    0  502  0.15243520302E+03 -0.56728356598E+03 -0.59469091699E+03  0.83588541817E+03  0.10100000352E+00 0. -1.
</event>
<event>
 5   0  0.2448804E-04  0.2068344E+04  0.7818609E-02  0.8575318E-01
        2   -1    0    0  501    0  0.00000000000E+00  0.00000000000E+00  0.11544095586E+04  0.11544095586E+04  0.25500000920E-02 0.  1.
       -2   -1    0    0    0  501  0.00000000000E+00  0.00000000000E+00 -0.92645820569E+03  0.92645820569E+03  0.25500000920E-02 0. -1.
    10030    2    1    2    0    0  0.00000000000E+00  0.00000000000E+00  0.22795135287E+03  0.20808677643E+04  0.20683444667E+04 0.  0.
        2    1    3    3  502    0  0.31787641004E+03 -0.98254996177E+03  0.16964941175E+03  0.10465327335E+04  0.25500000920E-02 0.  1.
       -2    1    3    3    0  502 -0.31787641004E+03  0.98254996177E+03  0.58301941117E+02  0.10343350307E+04  0.25500000920E-02 0. -1.
</event>
<event>
 5   0  0.1122711E-04  0.2064065E+04  0.7818609E-02  0.8577241E-01
       -1   -1    0    0    0  501  0.00000000000E+00  0.00000000000E+00  0.64461284873E+03  0.64461284875E+03  0.50400001928E-02 0. -1.
        1   -1    0    0  501    0  0.00000000000E+00  0.00000000000E+00 -0.16522949925E+04  0.16522949925E+04  0.50400001928E-02 0.  1.
    10030    2    1    2    0    0  0.00000000000E+00  0.00000000000E+00 -0.10076821438E+04  0.22969078413E+04  0.20640645165E+04 0.  0.
        1    1    3    3  502    0 -0.65441576681E+03 -0.19834408751E+02 -0.13916061856E+04  0.15379275586E+04  0.50400001928E-02 0.  1.
       -1    1    3    3    0  502  0.65441576681E+03  0.19834408751E+02  0.38392404181E+03  0.75898028270E+03  0.50400001928E-02 0. -1.
</event>
<event>
 5   0  0.2467483E-04  0.2088180E+04  0.7818609E-02  0.8566468E-01
       -2   -1    0    0    0  501  0.00000000000E+00  0.00000000000E+00  0.13069256469E+04  0.13069256469E+04  0.25500000920E-02 0. -1.
        2   -1    0    0  501    0  0.00000000000E+00  0.00000000000E+00 -0.83411352639E+03  0.83411352639E+03  0.25500000920E-02 0.  1.
    10030    2    1    2    0    0  0.00000000000E+00  0.00000000000E+00  0.47281212052E+03  0.21410391733E+04  0.20881804137E+04 0.  0.
        4    1    3    3  502    0 -0.70821301776E+03  0.14262420679E+03  0.10092878897E+04  0.12411974057E+04  0.12699999809E+01 0. -1.
       -4    1    3    3    0  502  0.70821301776E+03 -0.14262420679E+03 -0.53647576915E+03  0.89984176757E+03  0.12699999809E+01 0.  1.
</event>
<event>
 5   0  0.2512839E-04  0.1977584E+04  0.7818609E-02  0.8617173E-01
       -2   -1    0    0    0  501  0.00000000000E+00  0.00000000000E+00  0.52956569685E+03  0.52956569685E+03  0.25500000920E-02 0. -1.
        2   -1    0    0  501    0  0.00000000000E+00  0.00000000000E+00 -0.18462485315E+04  0.18462485315E+04  0.25500000920E-02 0.  1.
    10030    2    1    2    0    0  0.00000000000E+00  0.00000000000E+00 -0.13166828347E+04  0.23758142284E+04  0.19775842740E+04 0.  0.
        3    1    3    3  502    0  0.70681967099E+02 -0.69307735792E+03  0.18463971244E+03  0.72072463406E+03  0.10100000352E+00 0. -1.
       -3    1    3    3    0  502 -0.70681967099E+02  0.69307735792E+03 -0.15013225471E+04  0.16550895943E+04  0.10100000352E+00 0.  1.
</event>
<event>
 5   0  0.1156733E-04  0.2097163E+04  0.7818609E-02  0.8562494E-01
       -1   -1    0    0    0  501  0.00000000000E+00  0.00000000000E+00  0.44405932927E+03  0.44405932930E+03  0.50400001928E-02 0. -1.
        1   -1    0    0  501    0  0.00000000000E+00  0.00000000000E+00 -0.24760735342E+04  0.24760735342E+04  0.50400001928E-02 0.  1.
    10030    2    1    2    0    0  0.00000000000E+00  0.00000000000E+00 -0.20320142049E+04  0.29201328635E+04  0.20971633726E+04 0.  0.
        2    1    3    3  502    0 -0.18451323123E+03  0.20621856245E+03 -0.24243163943E+04  0.24400576238E+04  0.25500000920E-02 0.  1.
       -2    1    3    3    0  502  0.18451323123E+03 -0.20621856245E+03  0.39230218934E+03  0.48007523969E+03  0.25500000920E-02 0. -1.
</event>
<event>
 5   0  0.1122711E-04  0.2033755E+04  0.7818609E-02  0.8591000E-01
        1   -1    0    0  501    0  0.00000000000E+00  0.00000000000E+00  0.15965113146E+04  0.15965113146E+04  0.50400001928E-02 0.  1.
       -1   -1    0    0    0  501  0.00000000000E+00  0.00000000000E+00 -0.64768717372E+03  0.64768717374E+03  0.50400001928E-02 0. -1.
    10030    2    1    2    0    0  0.00000000000E+00  0.00000000000E+00  0.94882414085E+03  0.22441984883E+04  0.20337550503E+04 0.  0.
        1    1    3    3  502    0 -0.92570608549E+03 -0.14966635326E+03  0.40382633496E+02  0.93859604257E+03  0.50400001928E-02 0.  1.
       -1    1    3    3    0  502  0.92570608549E+03  0.14966635326E+03  0.90844150736E+03  0.13056024457E+04  0.50400001928E-02 0. -1.
</event>
<event>
 5   0  0.2430898E-04  0.2143022E+04  0.7818609E-02  0.8542525E-01
       -2   -1    0    0    0  501  0.00000000000E+00  0.00000000000E+00  0.12815270119E+04  0.12815270119E+04  0.25500000920E-02 0. -1.
        2   -1    0    0  501    0  0.00000000000E+00  0.00000000000E+00 -0.89591209949E+03  0.89591209950E+03  0.25500000920E-02 0.  1.
    10030    2    1    2    0    0  0.00000000000E+00  0.00000000000E+00  0.38561491239E+03  0.21774391114E+04  0.21430217505E+04 0.  0.
        1    1    3    3  502    0 -0.75294827991E+03  0.18070038910E+03 -0.55973025455E+03  0.95544842913E+03  0.50400001928E-02 0.  1.
       -1    1    3    3    0  502  0.75294827991E+03 -0.18070038910E+03  0.94534516694E+03  0.12219906823E+04  0.50400001928E-02 0. -1.
</event>
<event>
 5   0  0.1130848E-04  0.2050831E+04  0.7818609E-02  0.8583217E-01
        1   -1    0    0  501    0  0.00000000000E+00  0.00000000000E+00  0.10071343592E+04  0.10071343592E+04  0.50400001928E-02 0.  1.
       -1   -1    0    0    0  501  0.00000000000E+00  0.00000000000E+00 -0.10440284870E+04  0.10440284870E+04  0.50400001928E-02 0. -1.
    10030    2    1    2    0    0  0.00000000000E+00  0.00000000000E+00 -0.36894127737E+02  0.20511628462E+04  0.20508310133E+04 0.  0.
        5    1    3    3  502    0  0.52999596380E+03  0.90901576638E+02 -0.89168400664E+03  0.10412882771E+04  0.46999998093E+01 0. -1.
       -5    1    3    3    0  502 -0.52999596380E+03 -0.90901576638E+02  0.85478987891E+03  0.10098745691E+04  0.46999998093E+01 0.  1.
</event>
<event>
 5   0  0.1122711E-04  0.2090332E+04  0.7818609E-02  0.8565514E-01
        1   -1    0    0  501    0  0.00000000000E+00  0.00000000000E+00  0.10776619700E+04  0.10776619701E+04  0.50400001928E-02 0. -1.
       -1   -1    0    0    0  501  0.00000000000E+00  0.00000000000E+00 -0.10136494775E+04  0.10136494775E+04  0.50400001928E-02 0.  1.
    10030    2    1    2    0    0  0.00000000000E+00  0.00000000000E+00  0.64012492534E+02  0.20913114476E+04  0.20903315458E+04 0.  0.
        1    1    3    3  502    0  0.53015648648E+03  0.68132626962E+03 -0.55742195901E+03  0.10276140454E+04  0.50400001928E-02 0.  1.
       -1    1    3    3    0  502 -0.53015648648E+03 -0.68132626962E+03  0.62143445155E+03  0.10636974022E+04  0.50400001928E-02 0. -1.
</event>
<event>
 5   0  0.2512839E-04  0.2087569E+04  0.7818609E-02  0.8566739E-01
       -2   -1    0    0    0  501  0.00000000000E+00  0.00000000000E+00  0.91638869506E+03  0.91638869506E+03  0.25500000920E-02 0. -1.
        2   -1    0    0  501    0  0.00000000000E+00  0.00000000000E+00 -0.11888907764E+04  0.11888907764E+04  0.25500000920E-02 0.  1.
    10030    2    1    2    0    0  0.00000000000E+00  0.00000000000E+00 -0.27250208131E+03  0.21052794714E+04  0.20875689853E+04 0.  0.
        3    1    3    3  502    0  0.68284841553E+02 -0.31067313298E+03 -0.11388205974E+04  0.11824098183E+04  0.10100000352E+00 0.  1.
       -3    1    3    3    0  502 -0.68284841553E+02  0.31067313298E+03  0.86631851610E+03  0.92286965313E+03  0.10100000352E+00 0. -1.
</event>
<event>
 5   0  0.1122711E-04  0.2096558E+04  0.7818609E-02  0.8562761E-01
        1   -1    0    0  501    0  0.00000000000E+00  0.00000000000E+00  0.16196828946E+04  0.16196828946E+04  0.50400001928E-02 0. -1.
       -1   -1    0    0    0  501  0.00000000000E+00  0.00000000000E+00 -0.67845930679E+03  0.67845930680E+03  0.50400001928E-02 0.  1.
    10030    2    1    2    0    0  0.00000000000E+00  0.00000000000E+00  0.94122358777E+03  0.22981422014E+04  0.20965580687E+04 0.  0.
        1    1    3    3  502    0 -0.59983074274E+03 -0.83735116040E+03  0.68410807860E+03  0.12365103109E+04  0.50400001928E-02 0. -1.
       -1    1    3    3    0  502  0.59983074274E+03  0.83735116040E+03  0.25711550917E+03  0.10616318905E+04  0.50400001928E-02 0.  1.
</event>
<event>
 5   0  0.1122711E-04  0.1960417E+04  0.7818609E-02  0.8625354E-01
        1   -1    0    0  501    0  0.00000000000E+00  0.00000000000E+00  0.56396525345E+03  0.56396525347E+03  0.50400001928E-02 0. -1.
       -1   -1    0    0    0  501  0.00000000000E+00  0.00000000000E+00 -0.17036665294E+04  0.17036665294E+04  0.50400001928E-02 0.  1.
    10030    2    1    2    0    0  0.00000000000E+00  0.00000000000E+00 -0.11397012760E+04  0.22676317829E+04  0.19604170231E+04 0.  0.
        1    1    3    3  502    0 -0.14609517469E+03 -0.71006298963E+03  0.19329279314E+03  0.75026352252E+03  0.50400001928E-02 0. -1.
       -1    1    3    3    0  502  0.14609517469E+03  0.71006298963E+03 -0.13329940691E+04  0.15173682604E+04  0.50400001928E-02 0.  1.
</event>
<event>
 5   0  0.1156733E-04  0.2060135E+04  0.7818609E-02  0.8579010E-01
        1   -1    0    0  501    0  0.00000000000E+00  0.00000000000E+00  0.13136886172E+04  0.13136886172E+04  0.50400001928E-02 0. -1.
       -1   -1    0    0    0  501  0.00000000000E+00  0.00000000000E+00 -0.80767939499E+03  0.80767939500E+03  0.50400001928E-02 0.  1.
    10030    2    1    2    0    0  0.00000000000E+00  0.00000000000E+00  0.50600922219E+03  0.21213680122E+04  0.20601351679E+04 0.  0.
        2    1    3    3  502    0 -0.82083869196E+03  0.22907763652E+03 -0.34280056562E+03  0.91856679102E+03  0.25500000920E-02 0.  1.
       -2    1    3    3    0  502  0.82083869196E+03 -0.22907763652E+03  0.84880978781E+03  0.12028012212E+04  0.25500000920E-02 0. -1.
</event>
<event>
 5   0  0.2430898E-04  0.2111095E+04  0.7818609E-02  0.8556372E-01
       -2   -1    0    0    0  501  0.00000000000E+00  0.00000000000E+00  0.12493624624E+04  0.12493624624E+04  0.25500000920E-02 0. -1.
        2   -1    0    0  501    0  0.00000000000E+00  0.00000000000E+00 -0.89179935023E+03  0.89179935023E+03  0.25500000920E-02 0.  1.
    10030    2    1    2    0    0  0.00000000000E+00  0.00000000000E+00  0.35756311217E+03  0.21411618126E+04  0.21110951018E+04 0.  0.
        1    1    3    3  502    0 -0.76034757110E+03  0.18519672008E+03  0.89721621655E+03  0.11905558338E+04  0.50400001928E-02 0. -1.
       -1    1    3    3    0  502  0.76034757110E+03 -0.18519672008E+03 -0.53965310438E+03  0.95060597889E+03  0.50400001928E-02 0.  1.
</event>
<event>
 5   0  0.8698750E-05  0.2159487E+04  0.7818609E-02  0.8535482E-01
       -3   -1    0    0    0  501  0.00000000000E+00  0.00000000000E+00  0.15257355158E+04  0.15257355191E+04  0.10100000352E+00 0.  1.
        3   -1    0    0  501    0  0.00000000000E+00  0.00000000000E+00 -0.76412086739E+03  0.76412087407E+03  0.10100000352E+00 0. -1.
    10030    2    1    2    0    0  0.00000000000E+00  0.00000000000E+00  0.76161464838E+03  0.22898563932E+04  0.21594873069E+04 0.  0.
        4    1    3    3  502    0 -0.19053111752E+03 -0.10471782584E+03  0.15022846506E+04  0.15179356752E+04  0.12699999809E+01 0.  1.
       -4    1    3    3    0  502  0.19053111752E+03  0.10471782584E+03 -0.74067000220E+03  0.77192071798E+03  0.12699999809E+01 0. -1.
</event>
<event>
 5   0  0.2512839E-04  0.2022218E+04  0.7818609E-02  0.8596303E-01
       -2   -1    0    0    0  501  0.00000000000E+00  0.00000000000E+00  0.42060730717E+03  0.42060730718E+03  0.25500000920E-02 0. -1.
        2   -1    0    0  501    0  0.00000000000E+00  0.00000000000E+00 -0.24306321840E+04  0.24306321840E+04  0.25500000920E-02 0.  1.
    10030    2    1    2    0    0  0.00000000000E+00  0.00000000000E+00 -0.20100248768E+04  0.28512394911E+04  0.20222182450E+04 0.  0.
        3    1    3    3  502    0 -0.65930542090E+03 -0.71356987007E+03 -0.13999916518E+04  0.17040663816E+04  0.10100000352E+00 0. -1.
       -3    1    3    3    0  502  0.65930542090E+03  0.71356987007E+03 -0.61003322499E+03  0.11471731096E+04  0.10100000352E+00 0.  1.
</event>
<event>
 5   0  0.2448804E-04  0.2183215E+04  0.7818609E-02  0.8525447E-01
        2   -1    0    0  501    0  0.00000000000E+00  0.00000000000E+00  0.11250344577E+04  0.11250344577E+04  0.25500000920E-02 0.  1.
       -2   -1    0    0    0  501  0.00000000000E+00  0.00000000000E+00 -0.10591738269E+04  0.10591738269E+04  0.25500000920E-02 0. -1.
    10030    2    1    2    0    0  0.00000000000E+00  0.00000000000E+00  0.65860630775E+02  0.21842082846E+04  0.21832151080E+04 0.  0.
        2    1    3    3  502    0 -0.60504431915E+03  0.50809517797E+03  0.78651112666E+03  0.11148269329E+04  0.25500000920E-02 0.  1.
       -2    1    3    3    0  502  0.60504431915E+03 -0.50809517797E+03 -0.72065049588E+03  0.10693813516E+04  0.25500000920E-02 0. -1.
</event>
<event>
 5   0  0.2430898E-04  0.2145569E+04  0.7818609E-02  0.8541431E-01
        2   -1    0    0  501    0  0.00000000000E+00  0.00000000000E+00  0.10556899153E+04  0.10556899153E+04  0.25500000920E-02 0. -1.
       -2   -1    0    0    0  501  0.00000000000E+00  0.00000000000E+00 -0.10901562264E+04  0.10901562264E+04  0.25500000920E-02 0.  1.
    10030    2    1    2    0    0  0.00000000000E+00  0.00000000000E+00 -0.34466311039E+02  0.21458461417E+04  0.21455693271E+04 0.  0.
        1    1    3    3  502    0 -0.82569494632E+03  0.66998724732E+03  0.12495367248E+03  0.10706392839E+04  0.50400001928E-02 0.  1.
       -1    1    3    3    0  502  0.82569494632E+03 -0.66998724732E+03 -0.15941998352E+03  0.10752068578E+04  0.50400001928E-02 0. -1.
</event>
<event>
 5   0  0.2512839E-04  0.1824853E+04  0.7818609E-02  0.8693194E-01
       -2   -1    0    0    0  501  0.00000000000E+00  0.00000000000E+00  0.64970113671E+03  0.64970113671E+03  0.25500000920E-02 0.  1.
        2   -1    0    0  501    0  0.00000000000E+00  0.00000000000E+00 -0.12813918696E+04  0.12813918696E+04  0.25500000920E-02 0. -1.
    10030    2    1    2    0    0  0.00000000000E+00  0.00000000000E+00 -0.63169073289E+03  0.19310930063E+04  0.18248526015E+04 0.  0.
        3    1    3    3  502    0 -0.63309366625E+03 -0.48746580462E+03  0.15036118350E+03  0.81304304722E+03  0.10100000352E+00 0.  1.
       -3    1    3    3    0  502  0.63309366625E+03  0.48746580462E+03 -0.78205191639E+03  0.11180499591E+04  0.10100000352E+00 0. -1.
</event>
<event>
 5   0  0.1122711E-04  0.1940890E+04  0.7818609E-02  0.8634766E-01
       -1   -1    0    0    0  501  0.00000000000E+00  0.00000000000E+00  0.66040803630E+03  0.66040803632E+03  0.50400001928E-02 0. -1.
        1   -1    0    0  501    0  0.00000000000E+00  0.00000000000E+00 -0.14260331329E+04  0.14260331329E+04  0.50400001928E-02 0.  1.
    10030    2    1    2    0    0  0.00000000000E+00  0.00000000000E+00 -0.76562509660E+03  0.20864411692E+04  0.19408902504E+04 0.  0.
        1    1    3    3  502    0 -0.67722227946E+03  0.15832696556E+03  0.34474832349E+03  0.77624020148E+03  0.50400001928E-02 0. -1.
       -1    1    3    3    0  502  0.67722227946E+03 -0.15832696556E+03 -0.11103734201E+04  0.13102009677E+04  0.50400001928E-02 0.  1.
</event>
<event>
 5   0  0.8698750E-05  0.1810305E+04  0.7818609E-02  0.8700838E-01
        3   -1    0    0  501    0  0.00000000000E+00  0.00000000000E+00  0.11825943175E+04  0.11825943218E+04  0.10100000352E+00 0. -1.
       -3   -1    0    0    0  501  0.00000000000E+00  0.00000000000E+00 -0.69279977584E+03  0.69279978320E+03  0.10100000352E+00 0.  1.
    10030    2    1    2    0    0  0.00000000000E+00  0.00000000000E+00  0.48979454168E+03  0.18753941050E+04  0.18103050451E+04 0.  0.
        4    1    3    3  502    0 -0.41542596853E+03  0.32170219808E+03 -0.51864314972E+03  0.73828407082E+03  0.12699999809E+01 0.  1.
       -4    1    3    3    0  502  0.41542596853E+03 -0.32170219808E+03  0.10084376914E+04  0.11371100342E+04  0.12699999809E+01 0. -1.
</event>
<event>
 5   0  0.8698750E-05  0.2101185E+04  0.7818609E-02  0.8560721E-01
       -3   -1    0    0    0  501  0.00000000000E+00  0.00000000000E+00  0.88808491972E+03  0.88808492546E+03  0.10100000352E+00 0. -1.
        3   -1    0    0  501    0  0.00000000000E+00  0.00000000000E+00 -0.12428370145E+04  0.12428370186E+04  0.10100000352E+00 0.  1.
    10030    2    1    2    0    0  0.00000000000E+00  0.00000000000E+00 -0.35475209473E+03  0.21309219440E+04  0.21011852091E+04 0.  0.
        5    1    3    3  502    0 -0.28416120070E+03  0.65688998068E+03  0.60257944932E+03  0.93561536832E+03  0.46999998093E+01 0. -1.
       -5    1    3    3    0  502  0.28416120070E+03 -0.65688998068E+03 -0.95733154405E+03  0.11953065757E+04  0.46999998093E+01 0.  1.
</event>
<event>
 5   0  0.2467483E-04  0.2072082E+04  0.7818609E-02  0.8573642E-01
        2   -1    0    0  501    0  0.00000000000E+00  0.00000000000E+00  0.87546558824E+03  0.87546558825E+03  0.25500000920E-02 0. -1.
       -2   -1    0    0    0  501  0.00000000000E+00  0.00000000000E+00 -0.12260691609E+04  0.12260691609E+04  0.25500000920E-02 0.  1.
    10030    2    1    2    0    0  0.00000000000E+00  0.00000000000E+00 -0.35060357262E+03  0.21015347491E+04  0.20720823914E+04 0.  0.
        4    1    3    3  502    0 -0.46483896687E+03  0.51353147103E+03 -0.95670071279E+03  0.11811298420E+04  0.12699999809E+01 0.  1.
       -4    1    3    3    0  502  0.46483896687E+03 -0.51353147103E+03  0.60609714017E+03  0.92040490713E+03  0.12699999809E+01 0. -1.
</event>
<event>
 5   0  0.2448804E-04  0.2085776E+04  0.7818609E-02  0.8567535E-01
       -2   -1    0    0    0  501  0.00000000000E+00  0.00000000000E+00  0.62542562566E+03  0.62542562566E+03  0.25500000920E-02 0.  1.
        2   -1    0    0  501    0  0.00000000000E+00  0.00000000000E+00 -0.17390002706E+04  0.17390002706E+04  0.25500000920E-02 0. -1.
    10030    2    1    2    0    0  0.00000000000E+00  0.00000000000E+00 -0.11135746450E+04  0.23644258963E+04  0.20857759537E+04 0.  0.
        2    1    3    3  502    0 -0.10139693806E+04  0.23655924647E+03 -0.48952058954E+03  0.11505323070E+04  0.25500000920E-02 0. -1.
       -2    1    3    3    0  502  0.10139693806E+04 -0.23655924647E+03 -0.62405405544E+03  0.12138935893E+04  0.25500000920E-02 0.  1.
</event>
<event>
 5   0  0.1156733E-04  0.2091506E+04  0.7818609E-02  0.8564995E-01
       -1   -1    0    0    0  501  0.00000000000E+00  0.00000000000E+00  0.76008004759E+03  0.76008004761E+03  0.50400001928E-02 0.  1.
        1   -1    0    0  501    0  0.00000000000E+00  0.00000000000E+00 -0.14387943140E+04  0.14387943140E+04  0.50400001928E-02 0. -1.
    10030    2    1    2    0    0  0.00000000000E+00  0.00000000000E+00 -0.67871426642E+03  0.21988743616E+04  0.20915055350E+04 0.  0.
        2    1    3    3  502    0 -0.88746653443E+03  0.34845424782E+03 -0.79104210924E+03  0.12388562593E+04  0.25500000920E-02 0.  1.
       -2    1    3    3    0  502  0.88746653443E+03 -0.34845424782E+03  0.11232784282E+03  0.96001810235E+03  0.25500000920E-02 0. -1.
</event>
<event>
 5   0  0.1156733E-04  0.2022928E+04  0.7818609E-02  0.8595976E-01
        1   -1    0    0  501    0  0.00000000000E+00  0.00000000000E+00  0.14022836086E+04  0.14022836086E+04  0.50400001928E-02 0.  1.
       -1   -1    0    0    0  501  0.00000000000E+00  0.00000000000E+00 -0.72956636718E+03  0.72956636720E+03  0.50400001928E-02 0. -1.
    10030    2    1    2    0    0  0.00000000000E+00  0.00000000000E+00  0.67271724143E+03  0.21318499758E+04  0.20229275401E+04 0.  0.
        2    1    3    3  502    0  0.10039394716E+04  0.79807121285E+02  0.23752559124E+03  0.10347376700E+04  0.25500000920E-02 0. -1.
       -2    1    3    3    0  502 -0.10039394716E+04 -0.79807121285E+02  0.43519165018E+03  0.10971123058E+04  0.25500000920E-02 0.  1.
</event>
<event>
 5   0  0.2430898E-04  0.2134624E+04  0.7818609E-02  0.8546143E-01
        2   -1    0    0  501    0  0.00000000000E+00  0.00000000000E+00  0.14267839522E+04  0.14267839522E+04  0.25500000920E-02 0.  1.
       -2   -1    0    0    0  501  0.00000000000E+00  0.00000000000E+00 -0.79840760256E+03  0.79840760256E+03  0.25500000920E-02 0. -1.
    10030    2    1    2    0    0  0.00000000000E+00  0.00000000000E+00  0.62837634961E+03  0.22251915547E+04  0.21346242336E+04 0.  0.
        1    1    3    3  502    0 -0.60738350971E+02  0.21291741446E+03 -0.77420434376E+03  0.80524240983E+03  0.50400001928E-02 0. -1.
       -1    1    3    3    0  502  0.60738350971E+02 -0.21291741446E+03  0.14025806934E+04  0.14199491449E+04  0.50400001928E-02 0.  1.
</event>
<event>
 5   0  0.1122711E-04  0.2056724E+04  0.7818609E-02  0.8580550E-01
        1   -1    0    0  501    0  0.00000000000E+00  0.00000000000E+00  0.56626102213E+03  0.56626102215E+03  0.50400001928E-02 0.  1.
       -1   -1    0    0    0  501  0.00000000000E+00  0.00000000000E+00 -0.18675634538E+04  0.18675634538E+04  0.50400001928E-02 0. -1.
    10030    2    1    2    0    0  0.00000000000E+00  0.00000000000E+00 -0.13013024316E+04  0.24338244759E+04  0.20567239876E+04 0.  0.
        1    1    3    3  502    0  0.91439315728E+03  0.42578142945E+03 -0.41361547857E+03  0.10901754152E+04  0.50400001928E-02 0. -1.
       -1    1    3    3    0  502 -0.91439315728E+03 -0.42578142945E+03 -0.88768695305E+03  0.13436490607E+04  0.50400001928E-02 0.  1.
</event>
<event>
 5   0  0.1130848E-04  0.2146370E+04  0.7818609E-02  0.8541088E-01
       -1   -1    0    0    0  501  0.00000000000E+00  0.00000000000E+00  0.10377382556E+04  0.10377382556E+04  0.50400001928E-02 0.  1.
        1   -1    0    0  501    0  0.00000000000E+00  0.00000000000E+00 -0.11098424994E+04  0.11098424994E+04  0.50400001928E-02 0. -1.
    10030    2    1    2    0    0  0.00000000000E+00  0.00000000000E+00 -0.72104243801E+02  0.21475807549E+04  0.21463699767E+04 0.  0.
        5    1    3    3  502    0 -0.63558256231E+03 -0.26774748746E+03  0.78663430702E+03  0.10461689794E+04  0.46999998093E+01 0.  1.
       -5    1    3    3    0  502  0.63558256231E+03  0.26774748746E+03 -0.85873855082E+03  0.11014117755E+04  0.46999998093E+01 0. -1.
</event>
<event>
 5   0  0.1122711E-04  0.2100423E+04  0.7818609E-02  0.8561057E-01
       -1   -1    0    0    0  501  0.00000000000E+00  0.00000000000E+00  0.70004643651E+03  0.70004643653E+03  0.50400001928E-02 0. -1.
        1   -1    0    0  501    0  0.00000000000E+00  0.00000000000E+00 -0.15755297016E+04  0.15755297016E+04  0.50400001928E-02 0.  1.
    10030    2    1    2    0    0  0.00000000000E+00  0.00000000000E+00 -0.87548326508E+03  0.22755761381E+04  0.21004227700E+04 0.  0.
        1    1    3    3  502    0 -0.20634946500E+03  0.73379451517E+03 -0.12204180316E+04  0.14389074550E+04  0.50400001928E-02 0.  1.
       -1    1    3    3    0  502  0.20634946500E+03 -0.73379451517E+03  0.34493476649E+03  0.83666868314E+03  0.50400001928E-02 0. -1.
</event>
<event>
 5   0  0.1042395E-04  0.2084744E+04  0.7818609E-02  0.8567994E-01
       -1   -1    0    0    0  501  0.00000000000E+00  0.00000000000E+00  0.14554540359E+04  0.14554540359E+04  0.50400001928E-02 0.  1.
        1   -1    0    0  501    0  0.00000000000E+00  0.00000000000E+00 -0.74652932674E+03  0.74652932676E+03  0.50400001928E-02 0. -1.
    10030    2    1    2    0    0  0.00000000000E+00  0.00000000000E+00  0.70892470918E+03  0.22019833627E+04  0.20847437460E+04 0.  0.
        3    1    3    3  502    0 -0.27710671341E+03 -0.41428131984E+03 -0.61251202158E+03  0.78967596479E+03  0.10100000352E+00 0. -1.
       -3    1    3    3    0  502  0.27710671341E+03  0.41428131984E+03  0.13214367308E+04  0.14123073979E+04  0.10100000352E+00 0.  1.
</event>
<event>
 5   0  0.2512839E-04  0.1044221E+04  0.7818609E-02  0.9261331E-01
        2   -1    0    0  501    0  0.00000000000E+00  0.00000000000E+00  0.23959792012E+04  0.23959792012E+04  0.25500000920E-02 0. -1.
       -2   -1    0    0    0  501  0.00000000000E+00  0.00000000000E+00 -0.11377363403E+03  0.11377363406E+03  0.25500000920E-02 0.  1.
    10030    2    1    2    0    0  0.00000000000E+00  0.00000000000E+00  0.22822055671E+04  0.25097528352E+04  0.10442207828E+04 0.  0.
        3    1    3    3  502    0 -0.13995267279E+03  0.46796741831E+03  0.69780111789E+03  0.85176679059E+03  0.10100000352E+00 0.  1.
       -3    1    3    3    0  502  0.13995267279E+03 -0.46796741831E+03  0.15844044493E+04  0.16579860446E+04  0.10100000352E+00 0. -1.
</event>
<event>
 5   0  0.2430898E-04  0.2130811E+04  0.7818609E-02  0.8547791E-01
        2   -1    0    0  501    0  0.00000000000E+00  0.00000000000E+00  0.88723359653E+03  0.88723359654E+03  0.25500000920E-02 0. -1.
       -2   -1    0    0    0  501  0.00000000000E+00  0.00000000000E+00 -0.12793573538E+04  0.12793573538E+04  0.25500000920E-02 0.  1.
    10030    2    1    2    0    0  0.00000000000E+00  0.00000000000E+00 -0.39212375724E+03  0.21665909503E+04  0.21308109501E+04 0.  0.
        1    1    3    3  502    0  0.87926530394E+03  0.48499828014E+03  0.16594742152E+03  0.10177766716E+04  0.50400001928E-02 0. -1.
       -1    1    3    3    0  502 -0.87926530394E+03 -0.48499828014E+03 -0.55807117877E+03  0.11488142787E+04  0.50400001928E-02 0.  1.
</event>
<event>
 5   0  0.8698750E-05  0.2129489E+04  0.7818609E-02  0.8548363E-01
       -3   -1    0    0    0  501  0.00000000000E+00  0.00000000000E+00  0.97567344109E+03  0.97567344632E+03  0.10100000352E+00 0.  1.
        3   -1    0    0  501    0  0.00000000000E+00  0.00000000000E+00 -0.11619472518E+04  0.11619472562E+04  0.10100000352E+00 0. -1.
    10030    2    1    2    0    0  0.00000000000E+00  0.00000000000E+00 -0.18627381073E+03  0.21376207025E+04  0.21294892193E+04 0.  0.
        1    1    3    3  502    0 -0.78853745768E+02  0.10343540274E+04 -0.33400088635E+03  0.10897994124E+04  0.50400001928E-02 0. -1.
       -1    1    3    3    0  502  0.78853745768E+02 -0.10343540274E+04  0.14772707562E+03  0.10478212901E+04  0.50400001928E-02 0.  1.
</event>
<event>
 5   0  0.2467483E-04  0.2086712E+04  0.7818609E-02  0.8567120E-01
        2   -1    0    0  501    0  0.00000000000E+00  0.00000000000E+00  0.15168555183E+04  0.15168555183E+04  0.25500000920E-02 0. -1.
       -2   -1    0    0    0  501  0.00000000000E+00  0.00000000000E+00 -0.71766315538E+03  0.71766315539E+03  0.25500000920E-02 0.  1.
    10030    2    1    2    0    0  0.00000000000E+00  0.00000000000E+00  0.79919236297E+03  0.22345186737E+04  0.20867115925E+04 0.  0.
        4    1    3    3  502    0 -0.62388452250E+03 -0.17161318506E+03 -0.47685701134E+03  0.80378927889E+03  0.12699999809E+01 0.  1.
       -4    1    3    3    0  502  0.62388452250E+03  0.17161318506E+03  0.12760493743E+04  0.14307293948E+04  0.12699999809E+01 0. -1.
</event>
<event>
 5   0  0.1156733E-04  0.2111363E+04  0.7818609E-02  0.8556254E-01
       -1   -1    0    0    0  501  0.00000000000E+00  0.00000000000E+00  0.83229765033E+03  0.83229765035E+03  0.50400001928E-02 0. -1.
        1   -1    0    0  501    0  0.00000000000E+00  0.00000000000E+00 -0.13390201962E+04  0.13390201962E+04  0.50400001928E-02 0.  1.
    10030    2    1    2    0    0  0.00000000000E+00  0.00000000000E+00 -0.50672254590E+03  0.21713178466E+04  0.21113629372E+04 0.  0.
        2    1    3    3  502    0  0.13188787496E+03 -0.28965744210E+03  0.78178360420E+03  0.84408616215E+03  0.25500000920E-02 0. -1.
       -2    1    3    3    0  502 -0.13188787496E+03  0.28965744210E+03 -0.12885061501E+04  0.13272316844E+04  0.25500000920E-02 0.  1.
</event>
<event>
 5   0  0.2579241E-04  0.2285708E+04  0.7818609E-02  0.8483578E-01
        2   -1    0    0  501    0  0.00000000000E+00  0.00000000000E+00  0.17476840426E+04  0.17476840426E+04  0.25500000920E-02 0. -1.
       -2   -1    0    0    0  501  0.00000000000E+00  0.00000000000E+00 -0.74734080053E+03  0.74734080053E+03  0.25500000920E-02 0.  1.
    10030    2    1    2    0    0  0.00000000000E+00  0.00000000000E+00  0.10003432421E+04  0.24950248432E+04  0.22857082854E+04 0.  0.
        5    1    3    3  502    0 -0.38524387841E+03 -0.90765592354E+03  0.11308735442E+04  0.15003830126E+04  0.46999998093E+01 0. -1.
       -5    1    3    3    0  502  0.38524387841E+03  0.90765592354E+03 -0.13053030212E+03  0.99464183059E+03  0.46999998093E+01 0.  1.
</event>
<event>
 5   0  0.2579241E-04  0.2115497E+04  0.7818609E-02  0.8554447E-01
        2   -1    0    0  501    0  0.00000000000E+00  0.00000000000E+00  0.11589349510E+04  0.11589349510E+04  0.25500000920E-02 0. -1.
       -2   -1    0    0    0  501  0.00000000000E+00  0.00000000000E+00 -0.96539656797E+03  0.96539656797E+03  0.25500000920E-02 0.  1.
    10030    2    1    2    0    0  0.00000000000E+00  0.00000000000E+00  0.19353838303E+03  0.21243315190E+04  0.21154969385E+04 0.  0.
        5    1    3    3  502    0  0.14625941004E+03  0.65822305980E+03 -0.72159450469E+03  0.98760828808E+03  0.46999998093E+01 0.  1.
       -5    1    3    3    0  502 -0.14625941004E+03 -0.65822305980E+03  0.91513288772E+03  0.11367232309E+04  0.46999998093E+01 0. -1.
</event>
<event>
 5   0  0.2512839E-04  0.1876957E+04  0.7818609E-02  0.8666412E-01
        2   -1    0    0  501    0  0.00000000000E+00  0.00000000000E+00  0.76715195340E+03  0.76715195341E+03  0.25500000920E-02 0.  1.
       -2   -1    0    0    0  501  0.00000000000E+00  0.00000000000E+00 -0.11480674673E+04  0.11480674673E+04  0.25500000920E-02 0. -1.
    10030    2    1    2    0    0  0.00000000000E+00  0.00000000000E+00 -0.38091551392E+03  0.19152194207E+04  0.18769573253E+04 0.  0.
        3    1    3    3  502    0 -0.60310875594E+02  0.76017312114E+03  0.36772335018E+03  0.84659379178E+03  0.10100000352E+00 0.  1.
       -3    1    3    3    0  502  0.60310875594E+02 -0.76017312114E+03 -0.74863886410E+03  0.10686256290E+04  0.10100000352E+00 0. -1.
</event>
<event>
 5   0  0.2579241E-04  0.2083170E+04  0.7818609E-02  0.8568694E-01
        2   -1    0    0  501    0  0.00000000000E+00  0.00000000000E+00  0.25563477090E+04  0.25563477090E+04  0.25500000920E-02 0. -1.
       -2   -1    0    0    0  501  0.00000000000E+00  0.00000000000E+00 -0.42439414359E+03  0.42439414360E+03  0.25500000920E-02 0.  1.
    10030    2    1    2    0    0  0.00000000000E+00  0.00000000000E+00  0.21319535654E+04  0.29807418526E+04  0.20831696971E+04 0.  0.
        5    1    3    3  502    0  0.10969517819E+03 -0.96240237897E+03  0.51807271867E+03  0.10984865966E+04  0.46999998093E+01 0.  1.
       -5    1    3    3    0  502 -0.10969517819E+03  0.96240237897E+03  0.16138808467E+04  0.18822552560E+04  0.46999998093E+01 0. -1.
</event>
<event>
 5   0  0.2448804E-04  0.1361076E+04  0.7818609E-02  0.8982486E-01
        2   -1    0    0  501    0  0.00000000000E+00  0.00000000000E+00  0.21159368643E+04  0.21159368643E+04  0.25500000920E-02 0. -1.
       -2   -1    0    0    0  501  0.00000000000E+00  0.00000000000E+00 -0.21887788315E+03  0.21887788316E+03  0.25500000920E-02 0.  1.
    10030    2    1    2    0    0  0.00000000000E+00  0.00000000000E+00  0.18970589811E+04  0.23348147474E+04  0.13610757242E+04 0.  0.
        2    1    3    3  502    0 -0.92481630787E+02  0.25452841039E+03 -0.12246647802E+03  0.29721305822E+03  0.25500000920E-02 0.  1.
       -2    1    3    3    0  502  0.92481630787E+02 -0.25452841039E+03  0.20195254591E+04  0.20376016892E+04  0.25500000920E-02 0. -1.
</event>
<event>
 5   0  0.2579241E-04  0.2239869E+04  0.7818609E-02  0.8502015E-01
        2   -1    0    0  501    0  0.00000000000E+00  0.00000000000E+00  0.15154247347E+04  0.15154247347E+04  0.25500000920E-02 0. -1.
       -2   -1    0    0    0  501  0.00000000000E+00  0.00000000000E+00 -0.82765768610E+03  0.82765768611E+03  0.25500000920E-02 0.  1.
    10030    2    1    2    0    0  0.00000000000E+00  0.00000000000E+00  0.68776704857E+03  0.23430824208E+04  0.22398686831E+04 0.  0.
        5    1    3    3  502    0  0.82832280601E+03  0.30558783348E+03 -0.37687127628E+03  0.95997741839E+03  0.46999998093E+01 0.  1.
       -5    1    3    3    0  502 -0.82832280601E+03 -0.30558783348E+03  0.10646383249E+04  0.13831050024E+04  0.46999998093E+01 0. -1.
</event>
<event>
 5   0  0.2448804E-04  0.1854239E+04  0.7818609E-02  0.8677976E-01
        2   -1    0    0  501    0  0.00000000000E+00  0.00000000000E+00  0.15279831679E+04  0.15279831679E+04  0.25500000920E-02 0. -1.
       -2   -1    0    0    0  501  0.00000000000E+00  0.00000000000E+00 -0.56253925944E+03  0.56253925945E+03  0.25500000920E-02 0.  1.
    10030    2    1    2    0    0  0.00000000000E+00  0.00000000000E+00  0.96544390842E+03  0.20905224273E+04  0.18542389487E+04 0.  0.
        2    1    3    3  502    0 -0.27256042974E+03 -0.16557680801E+03 -0.49875365996E+03  0.59199668964E+03  0.25500000920E-02 0.  1.
       -2    1    3    3    0  502  0.27256042974E+03  0.16557680801E+03  0.14641975684E+04  0.14985257377E+04  0.25500000920E-02 0. -1.
</event>
<event>
 5   0  0.2467483E-04  0.2118298E+04  0.7818609E-02  0.8553225E-01
       -2   -1    0    0    0  501  0.00000000000E+00  0.00000000000E+00  0.10105310153E+04  0.10105310153E+04  0.25500000920E-02 0.  1.
        2   -1    0    0  501    0  0.00000000000E+00  0.00000000000E+00 -0.11101062745E+04  0.11101062745E+04  0.25500000920E-02 0. -1.
    10030    2    1    2    0    0  0.00000000000E+00  0.00000000000E+00 -0.99575259186E+02  0.21206372899E+04  0.21182982044E+04 0.  0.
        4    1    3    3  502    0 -0.18915453252E+03  0.25696664387E+02 -0.10927419606E+04  0.11092909271E+04  0.12699999809E+01 0. -1.
       -4    1    3    3    0  502  0.18915453252E+03 -0.25696664387E+02  0.99316670139E+03  0.10113463627E+04  0.12699999809E+01 0.  1.
</event>
<event>
 5   0  0.2430898E-04  0.2041980E+04  0.7818609E-02  0.8587241E-01
        2   -1    0    0  501    0  0.00000000000E+00  0.00000000000E+00  0.89123864543E+03  0.89123864543E+03  0.25500000920E-02 0. -1.
       -2   -1    0    0    0  501  0.00000000000E+00  0.00000000000E+00 -0.11696310156E+04  0.11696310156E+04  0.25500000920E-02 0.  1.
    10030    2    1    2    0    0  0.00000000000E+00  0.00000000000E+00 -0.27839237015E+03  0.20608696610E+04  0.20419797864E+04 0.  0.
        1    1    3    3  502    0 -0.72340099580E+03 -0.46246047094E+03  0.41840154936E+03  0.95511179683E+03  0.50400001928E-02 0. -1.
       -1    1    3    3    0  502  0.72340099580E+03  0.46246047094E+03 -0.69679391951E+03  0.11057578642E+04  0.50400001928E-02 0.  1.
</event>
<event>
 5   0  0.1122711E-04  0.2084757E+04  0.7818609E-02  0.8567988E-01
       -1   -1    0    0    0  501  0.00000000000E+00  0.00000000000E+00  0.90107067546E+03  0.90107067548E+03  0.50400001928E-02 0. -1.
        1   -1    0    0  501    0  0.00000000000E+00  0.00000000000E+00 -0.12058468079E+04  0.12058468079E+04  0.50400001928E-02 0.  1.
    10030    2    1    2    0    0  0.00000000000E+00  0.00000000000E+00 -0.30477613246E+03  0.21069174834E+04  0.20847572499E+04 0.  0.
        1    1    3    3  502    0 -0.51303074608E+03  0.80933104655E+03 -0.56703687077E+03  0.11134397614E+04  0.50400001928E-02 0. -1.
       -1    1    3    3    0  502  0.51303074608E+03 -0.80933104655E+03  0.26226073831E+03  0.99347772205E+03  0.50400001928E-02 0.  1.
</event>
<event>
 5   0  0.1130848E-04  0.1741243E+04  0.7818609E-02  0.8738185E-01
       -1   -1    0    0    0  501  0.00000000000E+00  0.00000000000E+00  0.23055673297E+04  0.23055673297E+04  0.50400001928E-02 0. -1.
        1   -1    0    0  501    0  0.00000000000E+00  0.00000000000E+00 -0.32876168611E+03  0.32876168614E+03  0.50400001928E-02 0.  1.
    10030    2    1    2    0    0  0.00000000000E+00  0.00000000000E+00  0.19768056435E+04  0.26343290158E+04  0.17412434669E+04 0.  0.
        5    1    3    3  502    0 -0.75927947162E+03  0.20538105870E+03  0.15530077072E+04  0.17408451177E+04  0.46999998093E+01 0. -1.
       -5    1    3    3    0  502  0.75927947162E+03 -0.20538105870E+03  0.42379793637E+03  0.89348389810E+03  0.46999998093E+01 0.  1.
</event>
<event>
 5   0  0.1156733E-04  0.1857932E+04  0.7818609E-02  0.8676084E-01
        1   -1    0    0  501    0  0.00000000000E+00  0.00000000000E+00  0.15257741397E+04  0.15257741397E+04  0.50400001928E-02 0.  1.
       -1   -1    0    0    0  501  0.00000000000E+00  0.00000000000E+00 -0.56560011727E+03  0.56560011729E+03  0.50400001928E-02 0. -1.
    10030    2    1    2    0    0  0.00000000000E+00  0.00000000000E+00  0.96017402241E+03  0.20913742570E+04  0.18579322187E+04 0.  0.
        2    1    3    3  502    0 -0.62412951240E+03  0.61633945902E+03  0.13576796060E+03  0.88760628442E+03  0.25500000920E-02 0.  1.
       -2    1    3    3    0  502  0.62412951240E+03 -0.61633945902E+03  0.82440606181E+03  0.12037679726E+04  0.25500000920E-02 0. -1.
</event>
<event>
 5   0  0.1130848E-04  0.2094647E+04  0.7818609E-02  0.8563605E-01
       -1   -1    0    0    0  501  0.00000000000E+00  0.00000000000E+00  0.72211049693E+03  0.72211049694E+03  0.50400001928E-02 0. -1.
        1   -1    0    0  501    0  0.00000000000E+00  0.00000000000E+00 -0.15190012992E+04  0.15190012992E+04  0.50400001928E-02 0.  1.
    10030    2    1    2    0    0  0.00000000000E+00  0.00000000000E+00 -0.79689080230E+03  0.22411117962E+04  0.20946472572E+04 0.  0.
        5    1    3    3  502    0  0.81058996556E+03  0.28986368443E+03 -0.10366325516E+04  0.13474814228E+04  0.46999998093E+01 0.  1.
       -5    1    3    3    0  502 -0.81058996556E+03 -0.28986368443E+03  0.23974174931E+03  0.89363037335E+03  0.46999998093E+01 0. -1.
</event>
<event>
 5   0  0.2430898E-04  0.1991073E+04  0.7818609E-02  0.8610806E-01
        2   -1    0    0  501    0  0.00000000000E+00  0.00000000000E+00  0.69943491546E+03  0.69943491547E+03  0.25500000920E-02 0. -1.
       -2   -1    0    0    0  501  0.00000000000E+00  0.00000000000E+00 -0.14169903280E+04  0.14169903280E+04  0.25500000920E-02 0.  1.
    10030    2    1    2    0    0  0.00000000000E+00  0.00000000000E+00 -0.71755541254E+03  0.21164252435E+04  0.19910725856E+04 0.  0.
        1    1    3    3  502    0  0.40630697206E+03  0.80299845426E+03 -0.81125386448E+03  0.12116206938E+04  0.50400001928E-02 0.  1.
       -1    1    3    3    0  502 -0.40630697206E+03 -0.80299845426E+03  0.93698451938E+02  0.90480454962E+03  0.50400001928E-02 0. -1.
</event>
<event>
 5   0  0.2467483E-04  0.2093260E+04  0.7818609E-02  0.8564218E-01
       -2   -1    0    0    0  501  0.00000000000E+00  0.00000000000E+00  0.12251212844E+04  0.12251212844E+04  0.25500000920E-02 0. -1.
        2   -1    0    0  501    0  0.00000000000E+00  0.00000000000E+00 -0.89414338232E+03  0.89414338233E+03  0.25500000920E-02 0.  1.
    10030    2    1    2    0    0  0.00000000000E+00  0.00000000000E+00  0.33097790209E+03  0.21192646667E+04  0.20932597440E+04 0.  0.
        4    1    3    3  502    0 -0.75479453681E+03  0.65016737306E+03  0.49041223694E+03  0.11103774947E+04  0.12699999809E+01 0. -1.
       -4    1    3    3    0  502  0.75479453681E+03 -0.65016737306E+03 -0.15943433486E+03  0.10088871720E+04  0.12699999809E+01 0.  1.
</event>
<event>
 5   0  0.1186038E-04  0.2095937E+04  0.7818609E-02  0.8563035E-01
        1   -1    0    0  501    0  0.00000000000E+00  0.00000000000E+00  0.16891698817E+04  0.16891698817E+04  0.50400001928E-02 0.  1.
       -1   -1    0    0    0  501  0.00000000000E+00  0.00000000000E+00 -0.65016412011E+03  0.65016412013E+03  0.50400001928E-02 0. -1.
    10030    2    1    2    0    0  0.00000000000E+00  0.00000000000E+00  0.10390057615E+04  0.23393340018E+04  0.20959366878E+04 0.  0.
        4    1    3    3  502    0 -0.50623542229E+03 -0.69788620290E+03 -0.14542909588E+03  0.87434014537E+03  0.12699999809E+01 0. -1.
       -4    1    3    3    0  502  0.50623542229E+03  0.69788620290E+03  0.11844348574E+04  0.14649938564E+04  0.12699999809E+01 0.  1.
</event>
<event>
 5   0  0.1156733E-04  0.2057411E+04  0.7818609E-02  0.8580240E-01
        1   -1    0    0  501    0  0.00000000000E+00  0.00000000000E+00  0.12116001648E+04  0.12116001648E+04  0.50400001928E-02 0. -1.
       -1   -1    0    0    0  501  0.00000000000E+00  0.00000000000E+00 -0.87341902247E+03  0.87341902248E+03  0.50400001928E-02 0.  1.
    10030    2    1    2    0    0  0.00000000000E+00  0.00000000000E+00  0.33818114229E+03  0.20850191872E+04  0.20574106363E+04 0.  0.
        2    1    3    3  502    0  0.36364320467E+03  0.79362614926E+03 -0.38241408893E+03  0.95305791037E+03  0.25500000920E-02 0.  1.
       -2    1    3    3    0  502 -0.36364320467E+03 -0.79362614926E+03  0.72059523122E+03  0.11319612769E+04  0.25500000920E-02 0. -1.
</event>
<event>
 5   0  0.1156733E-04  0.1631015E+04  0.7818609E-02  0.8801718E-01
       -1   -1    0    0    0  501  0.00000000000E+00  0.00000000000E+00  0.53727579561E+03  0.53727579564E+03  0.50400001928E-02 0.  1.
        1   -1    0    0  501    0  0.00000000000E+00  0.00000000000E+00 -0.12378226326E+04  0.12378226326E+04  0.50400001928E-02 0. -1.
    10030    2    1    2    0    0  0.00000000000E+00  0.00000000000E+00 -0.70054683697E+03  0.17750984282E+04  0.16310145797E+04 0.  0.
        2    1    3    3  502    0  0.21674242197E+03 -0.16974968325E+03 -0.11857187621E+04  0.12172597156E+04  0.25500000920E-02 0. -1.
       -2    1    3    3    0  502 -0.21674242197E+03  0.16974968325E+03  0.48517192509E+03  0.55783871266E+03  0.25500000920E-02 0.  1.
</event>
<event>
 5   0  0.2448804E-04  0.2061071E+04  0.7818609E-02  0.8578589E-01
       -2   -1    0    0    0  501  0.00000000000E+00  0.00000000000E+00  0.43342856146E+03  0.43342856147E+03  0.25500000920E-02 0.  1.
        2   -1    0    0  501    0  0.00000000000E+00  0.00000000000E+00 -0.24502380987E+04  0.24502380987E+04  0.25500000920E-02 0. -1.
    10030    2    1    2    0    0  0.00000000000E+00  0.00000000000E+00 -0.20168095372E+04  0.28836666601E+04  0.20610707648E+04 0.  0.
        2    1    3    3  502    0 -0.75429506304E+03  0.62799329205E+03 -0.14478827700E+04  0.17492001409E+04  0.25500000920E-02 0. -1.
       -2    1    3    3    0  502  0.75429506304E+03 -0.62799329205E+03 -0.56892676717E+03  0.11344665193E+04  0.25500000920E-02 0.  1.
</event>
<event>
 5   0  0.1122711E-04  0.2134832E+04  0.7818609E-02  0.8546053E-01
       -1   -1    0    0    0  501  0.00000000000E+00  0.00000000000E+00  0.10738581100E+04  0.10738581100E+04  0.50400001928E-02 0.  1.
        1   -1    0    0  501    0  0.00000000000E+00  0.00000000000E+00 -0.10610125463E+04  0.10610125463E+04  0.50400001928E-02 0. -1.
    10030    2    1    2    0    0  0.00000000000E+00  0.00000000000E+00  0.12845563692E+02  0.21348706563E+04  0.21348320099E+04 0.  0.
        1    1    3    3  502    0 -0.10199565079E+03  0.41548320746E+02 -0.10553155875E+04  0.10610468250E+04  0.50400001928E-02 0. -1.
       -1    1    3    3    0  502  0.10199565079E+03 -0.41548320746E+02  0.10681611511E+04  0.10738238313E+04  0.50400001928E-02 0.  1.
</event>
<event>
 5   0  0.1186038E-04  0.2078573E+04  0.7818609E-02  0.8570741E-01
        1   -1    0    0  501    0  0.00000000000E+00  0.00000000000E+00  0.12762712698E+04  0.12762712699E+04  0.50400001928E-02 0.  1.
       -1   -1    0    0    0  501  0.00000000000E+00  0.00000000000E+00 -0.84630613082E+03  0.84630613083E+03  0.50400001928E-02 0. -1.
    10030    2    1    2    0    0  0.00000000000E+00  0.00000000000E+00  0.42996513903E+03  0.21225774007E+04  0.20785727799E+04 0.  0.
        4    1    3    3  502    0  0.47552360056E+03  0.87272018114E+03  0.52530987506E+03  0.11241509182E+04  0.12699999809E+01 0. -1.
       -4    1    3    3    0  502 -0.47552360056E+03 -0.87272018114E+03 -0.95344736034E+02  0.99842648244E+03  0.12699999809E+01 0.  1.
</event>
<event>
 5   0  0.1042395E-04  0.2077461E+04  0.7818609E-02  0.8571237E-01
       -1   -1    0    0    0  501  0.00000000000E+00  0.00000000000E+00  0.71591026186E+03  0.71591026187E+03  0.50400001928E-02 0. -1.
        1   -1    0    0  501    0  0.00000000000E+00  0.00000000000E+00 -0.15071184289E+04  0.15071184289E+04  0.50400001928E-02 0.  1.
    10030    2    1    2    0    0  0.00000000000E+00  0.00000000000E+00 -0.79120816708E+03  0.22230286908E+04  0.20774614790E+04 0.  0.
        3    1    3    3  502    0 -0.55313479925E+03  0.69701937198E+03 -0.96903311597E+03  0.13156060585E+04  0.10100000352E+00 0.  1.
       -3    1    3    3    0  502  0.55313479925E+03 -0.69701937198E+03  0.17782494889E+03  0.90742263235E+03  0.10100000352E+00 0. -1.
</event>
<event>
 5   0  0.1186038E-04  0.2070720E+04  0.7818609E-02  0.8574252E-01
        1   -1    0    0  501    0  0.00000000000E+00  0.00000000000E+00  0.16558857479E+04  0.16558857479E+04  0.50400001928E-02 0. -1.
       -1   -1    0    0    0  501  0.00000000000E+00  0.00000000000E+00 -0.64736954552E+03  0.64736954554E+03  0.50400001928E-02 0.  1.
    10030    2    1    2    0    0  0.00000000000E+00  0.00000000000E+00  0.10085162024E+04  0.23032552934E+04  0.20707196856E+04 0.  0.
        4    1    3    3  502    0  0.15843420971E+03 -0.31259669850E+03  0.15879061656E+04  0.16261198290E+04  0.12699999809E+01 0. -1.
       -4    1    3    3    0  502 -0.15843420971E+03  0.31259669850E+03 -0.57938996324E+03  0.67713546439E+03  0.12699999809E+01 0.  1.
</event>
<event>
 5   0  0.2467483E-04  0.2125346E+04  0.7818609E-02  0.8550160E-01
        2   -1    0    0  501    0  0.00000000000E+00  0.00000000000E+00  0.19322212189E+04  0.19322212189E+04  0.25500000920E-02 0. -1.
       -2   -1    0    0    0  501  0.00000000000E+00  0.00000000000E+00 -0.58444344394E+03  0.58444344394E+03  0.25500000920E-02 0.  1.
    10030    2    1    2    0    0  0.00000000000E+00  0.00000000000E+00  0.13477777749E+04  0.25166646628E+04  0.21253461117E+04 0.  0.
        4    1    3    3  502    0 -0.47466778358E+03  0.55691951927E+03 -0.23857793626E+03  0.76966869515E+03  0.12699999809E+01 0.  1.
       -4    1    3    3    0  502  0.47466778358E+03 -0.55691951927E+03  0.15863557112E+04  0.17469959677E+04  0.12699999809E+01 0. -1.
</event>
<event>
 5   0  0.2448804E-04  0.2094690E+04  0.7818609E-02  0.8563586E-01
       -2   -1    0    0    0  501  0.00000000000E+00  0.00000000000E+00  0.13135347570E+04  0.13135347570E+04  0.25500000920E-02 0.  1.
        2   -1    0    0  501    0  0.00000000000E+00  0.00000000000E+00 -0.83509919160E+03  0.83509919161E+03  0.25500000920E-02 0. -1.
    10030    2    1    2    0    0  0.00000000000E+00  0.00000000000E+00  0.47843556544E+03  0.21486339486E+04  0.20946902528E+04 0.  0.
        2    1    3    3  502    0  0.15394295189E+03  0.75366433344E+03  0.96831320801E+03  0.12366643962E+04  0.25500000920E-02 0.  1.
       -2    1    3    3    0  502 -0.15394295189E+03 -0.75366433344E+03 -0.48987764258E+03  0.91196955248E+03  0.25500000920E-02 0. -1.
</event>
<event>
 5   0  0.2579241E-04  0.2108409E+04  0.7818609E-02  0.8557548E-01
       -2   -1    0    0    0  501  0.00000000000E+00  0.00000000000E+00  0.60272394310E+03  0.60272394310E+03  0.25500000920E-02 0. -1.
        2   -1    0    0  501    0  0.00000000000E+00  0.00000000000E+00 -0.18438748494E+04  0.18438748494E+04  0.25500000920E-02 0.  1.
    10030    2    1    2    0    0  0.00000000000E+00  0.00000000000E+00 -0.12411509063E+04  0.24465987925E+04  0.21084093718E+04 0.  0.
        5    1    3    3  502    0  0.85041629769E+03 -0.57112869905E+03 -0.90934860617E+03  0.13697929945E+04  0.46999998093E+01 0.  1.
       -5    1    3    3    0  502 -0.85041629769E+03  0.57112869905E+03 -0.33180230015E+03  0.10768057980E+04  0.46999998093E+01 0. -1.
</event>
<event>
 5   0  0.2512839E-04  0.2141098E+04  0.7818609E-02  0.8543352E-01
       -2   -1    0    0    0  501  0.00000000000E+00  0.00000000000E+00  0.12498108941E+04  0.12498108941E+04  0.25500000920E-02 0. -1.
        2   -1    0    0  501    0  0.00000000000E+00  0.00000000000E+00 -0.91699903063E+03  0.91699903064E+03  0.25500000920E-02 0.  1.
    10030    2    1    2    0    0  0.00000000000E+00  0.00000000000E+00  0.33281186342E+03  0.21668099247E+04  0.21410982026E+04 0.  0.
        3    1    3    3  502    0  0.58775906899E+03  0.23077553268E+03 -0.70847382798E+03  0.94902752583E+03  0.10100000352E+00 0.  1.
       -3    1    3    3    0  502 -0.58775906899E+03 -0.23077553268E+03  0.10412856914E+04  0.12177823989E+04  0.10100000352E+00 0. -1.
</event>
<event>
 5   0  0.2430898E-04  0.2093557E+04  0.7818609E-02  0.8564087E-01
       -2   -1    0    0    0  501  0.00000000000E+00  0.00000000000E+00  0.62407133663E+03  0.62407133664E+03  0.25500000920E-02 0. -1.
        2   -1    0    0  501    0  0.00000000000E+00  0.00000000000E+00 -0.17558012017E+04  0.17558012017E+04  0.25500000920E-02 0.  1.
    10030    2    1    2    0    0  0.00000000000E+00  0.00000000000E+00 -0.11317298651E+04  0.23798725383E+04  0.20935569759E+04 0.  0.
        1    1    3    3  502    0  0.83136463572E+03 -0.46056378632E+03 -0.10645634476E+04  0.14270884671E+04  0.50400001928E-02 0.  1.
       -1    1    3    3    0  502 -0.83136463572E+03  0.46056378632E+03 -0.67166417430E+02  0.95278407126E+03  0.50400001928E-02 0. -1.
</event>
<event>
 5   0  0.1042395E-04  0.1973208E+04  0.7818609E-02  0.8619250E-01
        1   -1    0    0  501    0  0.00000000000E+00  0.00000000000E+00  0.11309006540E+04  0.11309006540E+04  0.50400001928E-02 0.  1.
       -1   -1    0    0    0  501  0.00000000000E+00  0.00000000000E+00 -0.86071918156E+03  0.86071918158E+03  0.50400001928E-02 0. -1.
    10030    2    1    2    0    0  0.00000000000E+00  0.00000000000E+00  0.27018147242E+03  0.19916198356E+04  0.19732084384E+04 0.  0.
        3    1    3    3  502    0 -0.20369673467E+03  0.84875604911E+03  0.59928266093E+03  0.10587818040E+04  0.10100000352E+00 0.  1.
       -3    1    3    3    0  502  0.20369673467E+03 -0.84875604911E+03 -0.32910118851E+03  0.93283803155E+03  0.10100000352E+00 0. -1.
</event>
<event>
 5   0  0.1042395E-04  0.2093601E+04  0.7818609E-02  0.8564067E-01
       -1   -1    0    0    0  501  0.00000000000E+00  0.00000000000E+00  0.61073679796E+03  0.61073679798E+03  0.50400001928E-02 0. -1.
        1   -1    0    0  501    0  0.00000000000E+00  0.00000000000E+00 -0.17942118176E+04  0.17942118176E+04  0.50400001928E-02 0.  1.
    10030    2    1    2    0    0  0.00000000000E+00  0.00000000000E+00 -0.11834750196E+04  0.24049486155E+04  0.20936008983E+04 0.  0.
        3    1    3    3  502    0  0.32166608683E+03 -0.39558963811E+03  0.45846034432E+03  0.68567202853E+03  0.10100000352E+00 0. -1.
       -3    1    3    3    0  502 -0.32166608683E+03  0.39558963811E+03 -0.16419353639E+04  0.17192765870E+04  0.10100000352E+00 0.  1.
</event>
<event>
 5   0  0.2579241E-04  0.2046315E+04  0.7818609E-02  0.8585268E-01
        2   -1    0    0  501    0  0.00000000000E+00  0.00000000000E+00  0.12346373410E+04  0.12346373410E+04  0.25500000920E-02 0.  1.
       -2   -1    0    0    0  501  0.00000000000E+00  0.00000000000E+00 -0.84790159122E+03  0.84790159122E+03  0.25500000920E-02 0. -1.
    10030    2    1    2    0    0  0.00000000000E+00  0.00000000000E+00  0.38673574979E+03  0.20825389322E+04  0.20463147031E+04 0.  0.
        5    1    3    3  502    0 -0.14122395501E+03 -0.61690448994E+02  0.12227468197E+04  0.12324292240E+04  0.46999998093E+01 0.  1.
       -5    1    3    3    0  502  0.14122395501E+03  0.61690448994E+02 -0.83601106995E+03  0.85010970824E+03  0.46999998093E+01 0. -1.
</event>
<event>
 5   0  0.1186038E-04  0.2148874E+04  0.7818609E-02  0.8540014E-01
        1   -1    0    0  501    0  0.00000000000E+00  0.00000000000E+00  0.23109612715E+04  0.23109612716E+04  0.50400001928E-02 0. -1.
       -1   -1    0    0    0  501  0.00000000000E+00  0.00000000000E+00 -0.49953883279E+03  0.49953883282E+03  0.50400001928E-02 0.  1.
    10030    2    1    2    0    0  0.00000000000E+00  0.00000000000E+00  0.18114224388E+04  0.28105001044E+04  0.21488740273E+04 0.  0.
        4    1    3    3  502    0 -0.92678816385E+03 -0.10438059347E+03  0.20799934520E+03  0.95556106527E+03  0.12699999809E+01 0. -1.
       -4    1    3    3    0  502  0.92678816385E+03  0.10438059347E+03  0.16034230936E+04  0.18549390391E+04  0.12699999809E+01 0.  1.
</event>
<event>
 5   0  0.2430898E-04  0.2039761E+04  0.7818609E-02  0.8588253E-01
        2   -1    0    0  501    0  0.00000000000E+00  0.00000000000E+00  0.20088925143E+04  0.20088925143E+04  0.25500000920E-02 0. -1.
       -2   -1    0    0    0  501  0.00000000000E+00  0.00000000000E+00 -0.51777593161E+03  0.51777593162E+03  0.25500000920E-02 0.  1.
    10030    2    1    2    0    0  0.00000000000E+00  0.00000000000E+00  0.14911165826E+04  0.25266684459E+04  0.20397609596E+04 0.  0.
        1    1    3    3  502    0 -0.10779373633E+03 -0.96806045084E+03  0.37107556942E+03  0.10423327704E+04  0.50400001928E-02 0.  1.
       -1    1    3    3    0  502  0.10779373633E+03  0.96806045084E+03  0.11200410132E+04  0.14843356754E+04  0.50400001928E-02 0. -1.
</event>
<event>
 5   0  0.2512839E-04  0.2055108E+04  0.7818609E-02  0.8581280E-01
       -2   -1    0    0    0  501  0.00000000000E+00  0.00000000000E+00  0.87501825236E+03  0.87501825237E+03  0.25500000920E-02 0.  1.
        2   -1    0    0  501    0  0.00000000000E+00  0.00000000000E+00 -0.12066806506E+04  0.12066806506E+04  0.25500000920E-02 0. -1.
    10030    2    1    2    0    0  0.00000000000E+00  0.00000000000E+00 -0.33166239827E+03  0.20816989030E+04  0.20551083612E+04 0.  0.
        3    1    3    3  502    0 -0.35367236432E+03  0.73482225986E+03  0.46741326898E+03  0.93995907841E+03  0.10100000352E+00 0.  1.
       -3    1    3    3    0  502  0.35367236432E+03 -0.73482225986E+03 -0.79907566725E+03  0.11417398246E+04  0.10100000352E+00 0. -1.
</event>
<event>
 5   0  0.1042395E-04  0.2146560E+04  0.7818609E-02  0.8541006E-01
       -1   -1    0    0    0  501  0.00000000000E+00  0.00000000000E+00  0.14281181867E+04  0.14281181867E+04  0.50400001928E-02 0. -1.
        1   -1    0    0  501    0  0.00000000000E+00  0.00000000000E+00 -0.80660709637E+03  0.80660709638E+03  0.50400001928E-02 0.  1.
    10030    2    1    2    0    0  0.00000000000E+00  0.00000000000E+00  0.62151109033E+03  0.22347252831E+04  0.21465602846E+04 0.  0.
        3    1    3    3  502    0 -0.12405914621E+03 -0.92435897724E+03  0.86370144789E+03  0.12711453071E+04  0.10100000352E+00 0. -1.
       -3    1    3    3    0  502  0.12405914621E+03  0.92435897724E+03 -0.24219035756E+03  0.96357997595E+03  0.10100000352E+00 0.  1.
</event>
<event>
 5   0  0.2512839E-04  0.1638818E+04  0.7818609E-02  0.8797049E-01
       -2   -1    0    0    0  501  0.00000000000E+00  0.00000000000E+00  0.21697991857E+03  0.21697991858E+03  0.25500000920E-02 0.  1.
        2   -1    0    0  501    0  0.00000000000E+00  0.00000000000E+00 -0.30944376724E+04  0.30944376724E+04  0.25500000920E-02 0. -1.
    10030    2    1    2    0    0  0.00000000000E+00  0.00000000000E+00 -0.28774577538E+04  0.33114175910E+04  0.16388176643E+04 0.  0.
        3    1    3    3  502    0  0.55992911165E+03  0.34522551273E+03 -0.45145780196E+03  0.79781916614E+03  0.10100000352E+00 0.  1.
       -3    1    3    3    0  502 -0.55992911165E+03 -0.34522551273E+03 -0.24259999518E+04  0.25135984248E+04  0.10100000352E+00 0. -1.
</event>
<event>
 5   0  0.2430898E-04  0.2025193E+04  0.7818609E-02  0.8594932E-01
       -2   -1    0    0    0  501  0.00000000000E+00  0.00000000000E+00  0.46773806408E+03  0.46773806409E+03  0.25500000920E-02 0. -1.
        2   -1    0    0  501    0  0.00000000000E+00  0.00000000000E+00 -0.21921492949E+04  0.21921492949E+04  0.25500000920E-02 0.  1.
    10030    2    1    2    0    0  0.00000000000E+00  0.00000000000E+00 -0.17244112308E+04  0.26598873590E+04  0.20251929956E+04 0.  0.
        1    1    3    3  502    0  0.21822918059E+03  0.19861528346E+03 -0.21344278458E+04  0.21547283437E+04  0.50400001928E-02 0.  1.
       -1    1    3    3    0  502 -0.21822918059E+03 -0.19861528346E+03  0.41001661503E+03  0.50515901527E+03  0.50400001928E-02 0. -1.
</event>
<event>
 5   0  0.1156733E-04  0.2061063E+04  0.7818609E-02  0.8578592E-01
        1   -1    0    0  501    0  0.00000000000E+00  0.00000000000E+00  0.61632241958E+03  0.61632241960E+03  0.50400001928E-02 0.  1.
       -1   -1    0    0    0  501  0.00000000000E+00  0.00000000000E+00 -0.17231159105E+04  0.17231159105E+04  0.50400001928E-02 0. -1.
    10030    2    1    2    0    0  0.00000000000E+00  0.00000000000E+00 -0.11067934909E+04  0.23394383301E+04  0.20610628008E+04 0.  0.
        2    1    3    3  502    0  0.22483039099E+03  0.82810362222E+03  0.94376525801E+02  0.86325618589E+03  0.25500000920E-02 0.  1.
       -2    1    3    3    0  502 -0.22483039099E+03 -0.82810362222E+03 -0.12011700167E+04  0.14761821442E+04  0.25500000920E-02 0. -1.
</event>
<event>
 5   0  0.2467483E-04  0.1823719E+04  0.7818609E-02  0.8693787E-01
        2   -1    0    0  501    0  0.00000000000E+00  0.00000000000E+00  0.17739621694E+04  0.17739621694E+04  0.25500000920E-02 0. -1.
       -2   -1    0    0    0  501  0.00000000000E+00  0.00000000000E+00 -0.46871767305E+03  0.46871767306E+03  0.25500000920E-02 0.  1.
    10030    2    1    2    0    0  0.00000000000E+00  0.00000000000E+00  0.13052444964E+04  0.22426798425E+04  0.18237186407E+04 0.  0.
        4    1    3    3  502    0 -0.37846286659E+03  0.82519588068E+03  0.75771498694E+03  0.11825041214E+04  0.12699999809E+01 0. -1.
       -4    1    3    3    0  502  0.37846286659E+03 -0.82519588068E+03  0.54752950941E+03  0.10601757210E+04  0.12699999809E+01 0.  1.
</event>
<event>
 5   0  0.2448804E-04  0.2129543E+04  0.7818609E-02  0.8548340E-01
        2   -1    0    0  501    0  0.00000000000E+00  0.00000000000E+00  0.21294881831E+04  0.21294881831E+04  0.25500000920E-02 0. -1.
       -2   -1    0    0    0  501  0.00000000000E+00  0.00000000000E+00 -0.53239939863E+03  0.53239939864E+03  0.25500000920E-02 0.  1.
    10030    2    1    2    0    0  0.00000000000E+00  0.00000000000E+00  0.15970887845E+04  0.26618875818E+04  0.21295428881E+04 0.  0.
        2    1    3    3  502    0 -0.38021771793E+03 -0.21931577354E+03 -0.41404857917E+03  0.60340794449E+03  0.25500000920E-02 0.  1.
       -2    1    3    3    0  502  0.38021771793E+03  0.21931577354E+03  0.20111373637E+04  0.20584796373E+04  0.25500000920E-02 0. -1.
</event>
<event>
 5   0  0.1042395E-04  0.2094970E+04  0.7818609E-02  0.8563462E-01
       -1   -1    0    0    0  501  0.00000000000E+00  0.00000000000E+00  0.77997526913E+03  0.77997526915E+03  0.50400001928E-02 0.  1.
        1   -1    0    0  501    0  0.00000000000E+00  0.00000000000E+00 -0.14067435913E+04  0.14067435913E+04  0.50400001928E-02 0. -1.
    10030    2    1    2    0    0  0.00000000000E+00  0.00000000000E+00 -0.62676832219E+03  0.21867188605E+04  0.20949703686E+04 0.  0.
        3    1    3    3  502    0 -0.83970413718E+03 -0.38556846905E+02  0.33899628958E+03  0.90637087497E+03  0.10100000352E+00 0.  1.
       -3    1    3    3    0  502  0.83970413718E+03  0.38556846905E+02 -0.96576461178E+03  0.12803479855E+04  0.10100000352E+00 0. -1.
</event>
<event>
 5   0  0.1186038E-04  0.2081127E+04  0.7818609E-02  0.8569603E-01
       -1   -1    0    0    0  501  0.00000000000E+00  0.00000000000E+00  0.98174353747E+03  0.98174353748E+03  0.50400001928E-02 0.  1.
        1   -1    0    0  501    0  0.00000000000E+00  0.00000000000E+00 -0.11029072768E+04  0.11029072768E+04  0.50400001928E-02 0. -1.
    10030    2    1    2    0    0  0.00000000000E+00  0.00000000000E+00 -0.12116373932E+03  0.20846508143E+04  0.20811267058E+04 0.  0.
        4    1    3    3  502    0 -0.54211658564E+03  0.40544406177E+03  0.73100639897E+03  0.99631684112E+03  0.12699999809E+01 0.  1.
       -4    1    3    3    0  502  0.54211658564E+03 -0.40544406177E+03 -0.85217013830E+03  0.10883339732E+04  0.12699999809E+01 0. -1.
</event>
<event>
 5   0  0.1130848E-04  0.2088932E+04  0.7818609E-02  0.8566134E-01
        1   -1    0    0  501    0  0.00000000000E+00  0.00000000000E+00  0.16400610996E+04  0.16400610996E+04  0.50400001928E-02 0. -1.
       -1   -1    0    0    0  501  0.00000000000E+00  0.00000000000E+00 -0.66516403794E+03  0.66516403796E+03  0.50400001928E-02 0.  1.
    10030    2    1    2    0    0  0.00000000000E+00  0.00000000000E+00  0.97489706162E+03  0.23052251375E+04  0.20889324197E+04 0.  0.
        5    1    3    3  502    0 -0.19356202981E+03  0.54486527416E+03  0.14473039198E+04  0.15585426374E+04  0.46999998093E+01 0. -1.
       -5    1    3    3    0  502  0.19356202981E+03 -0.54486527416E+03 -0.47240685816E+03  0.74668250013E+03  0.46999998093E+01 0.  1.
</event>
<event>
 5   0  0.1186038E-04  0.2128789E+04  0.7818609E-02  0.8548666E-01
        1   -1    0    0  501    0  0.00000000000E+00  0.00000000000E+00  0.20339058869E+04  0.20339058869E+04  0.50400001928E-02 0.  1.
       -1   -1    0    0    0  501  0.00000000000E+00  0.00000000000E+00 -0.55702485752E+03  0.55702485755E+03  0.50400001928E-02 0. -1.
    10030    2    1    2    0    0  0.00000000000E+00  0.00000000000E+00  0.14768810294E+04  0.25909307445E+04  0.21287894559E+04 0.  0.
        4    1    3    3  502    0 -0.98284027589E+03 -0.39390163774E+03  0.87065614248E+03  0.13708308574E+04  0.12699999809E+01 0.  1.
       -4    1    3    3    0  502  0.98284027589E+03  0.39390163774E+03  0.60622488690E+03  0.12200998871E+04  0.12699999809E+01 0. -1.
</event>
<event>
 5   0  0.1122711E-04  0.2082596E+04  0.7818609E-02  0.8568949E-01
        1   -1    0    0  501    0  0.00000000000E+00  0.00000000000E+00  0.11677191291E+04  0.11677191291E+04  0.50400001928E-02 0.  1.
       -1   -1    0    0    0  501  0.00000000000E+00  0.00000000000E+00 -0.92856364632E+03  0.92856364634E+03  0.50400001928E-02 0. -1.
    10030    2    1    2    0    0  0.00000000000E+00  0.00000000000E+00  0.23915548279E+03  0.20962827755E+04  0.20825960073E+04 0.  0.
        1    1    3    3  502    0 -0.46271776232E+03  0.88976499385E+03 -0.16246376286E+03  0.10159645398E+04  0.50400001928E-02 0. -1.
       -1    1    3    3    0  502  0.46271776232E+03 -0.88976499385E+03  0.40161924565E+03  0.10803182357E+04  0.50400001928E-02 0.  1.
</event>
<event>
 5   0  0.2579241E-04  0.1948417E+04  0.7818609E-02  0.8631125E-01
        2   -1    0    0  501    0  0.00000000000E+00  0.00000000000E+00  0.10334802065E+04  0.10334802065E+04  0.25500000920E-02 0.  1.
       -2   -1    0    0    0  501  0.00000000000E+00  0.00000000000E+00 -0.91833573210E+03  0.91833573211E+03  0.25500000920E-02 0. -1.
    10030    2    1    2    0    0  0.00000000000E+00  0.00000000000E+00  0.11514447436E+03  0.19518159386E+04  0.19484165900E+04 0.  0.
        5    1    3    3  502    0 -0.40604187150E+03  0.17187535834E+03 -0.81264848074E+03  0.92457059409E+03  0.46999998093E+01 0. -1.
       -5    1    3    3    0  502  0.40604187150E+03 -0.17187535834E+03  0.92779295510E+03  0.10272453445E+04  0.46999998093E+01 0.  1.
</event>
<event>
 5   0  0.1186038E-04  0.2098876E+04  0.7818609E-02  0.8561739E-01
       -1   -1    0    0    0  501  0.00000000000E+00  0.00000000000E+00  0.61500429669E+03  0.61500429671E+03  0.50400001928E-02 0. -1.
        1   -1    0    0  501    0  0.00000000000E+00  0.00000000000E+00 -0.17907523538E+04  0.17907523538E+04  0.50400001928E-02 0.  1.
    10030    2    1    2    0    0  0.00000000000E+00  0.00000000000E+00 -0.11757480571E+04  0.24057566506E+04  0.20988762631E+04 0.  0.
        4    1    3    3  502    0 -0.12585690719E+03 -0.48113275185E+03  0.47135841718E+03  0.68520730902E+03  0.12699999809E+01 0. -1.
       -4    1    3    3    0  502  0.12585690719E+03  0.48113275185E+03 -0.16471064743E+04  0.17205493415E+04  0.12699999809E+01 0.  1.
</event>
<event>
 5   0  0.1156733E-04  0.2095962E+04  0.7818609E-02  0.8563024E-01
       -1   -1    0    0    0  501  0.00000000000E+00  0.00000000000E+00  0.64618758732E+03  0.64618758734E+03  0.50400001928E-02 0. -1.
        1   -1    0    0  501    0  0.00000000000E+00  0.00000000000E+00 -0.16996060970E+04  0.16996060970E+04  0.50400001928E-02 0.  1.
    10030    2    1    2    0    0  0.00000000000E+00  0.00000000000E+00 -0.10534185096E+04  0.23457936843E+04  0.20959621783E+04 0.  0.
        2    1    3    3  502    0  0.43817211671E+03 -0.56394219229E+03  0.33167786235E+03  0.78742352295E+03  0.25500000920E-02 0. -1.
       -2    1    3    3    0  502 -0.43817211671E+03  0.56394219229E+03 -0.13850963720E+04  0.15583701614E+04  0.25500000920E-02 0.  1.
</event>
<event>
 5   0  0.2512839E-04  0.2169566E+04  0.7818609E-02  0.8531203E-01
        2   -1    0    0  501    0  0.00000000000E+00  0.00000000000E+00  0.17460684115E+04  0.17460684115E+04  0.25500000920E-02 0. -1.
       -2   -1    0    0    0  501  0.00000000000E+00  0.00000000000E+00 -0.67394535250E+03  0.67394535251E+03  0.25500000920E-02 0.  1.
    10030    2    1    2    0    0  0.00000000000E+00  0.00000000000E+00  0.10721230590E+04  0.24200137640E+04  0.21695664923E+04 0.  0.
        3    1    3    3  502    0 -0.12039846253E+03 -0.30090773467E+03 -0.61867846273E+03  0.69842988553E+03  0.10100000352E+00 0.  1.
       -3    1    3    3    0  502  0.12039846253E+03  0.30090773467E+03  0.16908015217E+04  0.17215838785E+04  0.10100000352E+00 0. -1.
</event>
<event>
 5   0  0.2512839E-04  0.2196399E+04  0.7818609E-02  0.8519928E-01
        2   -1    0    0  501    0  0.00000000000E+00  0.00000000000E+00  0.13587313926E+04  0.13587313926E+04  0.25500000920E-02 0.  1.
       -2   -1    0    0    0  501  0.00000000000E+00  0.00000000000E+00 -0.88762389478E+03  0.88762389478E+03  0.25500000920E-02 0. -1.
    10030    2    1    2    0    0  0.00000000000E+00  0.00000000000E+00  0.47110749780E+03  0.22463552874E+04  0.21963992812E+04 0.  0.
        3    1    3    3  502    0  0.43460305010E+03  0.98579225403E+03  0.45341575967E+03  0.11688678456E+04  0.10100000352E+00 0.  1.
       -3    1    3    3    0  502 -0.43460305010E+03 -0.98579225403E+03  0.17691738134E+02  0.10774874417E+04  0.10100000352E+00 0. -1.
</event>
<event>
 5   0  0.1130848E-04  0.2116954E+04  0.7818609E-02  0.8553812E-01
        1   -1    0    0  501    0  0.00000000000E+00  0.00000000000E+00  0.12241327771E+04  0.12241327771E+04  0.50400001928E-02 0.  1.
       -1   -1    0    0    0  501  0.00000000000E+00  0.00000000000E+00 -0.91523836995E+03  0.91523836996E+03  0.50400001928E-02 0. -1.
    10030    2    1    2    0    0  0.00000000000E+00  0.00000000000E+00  0.30889440715E+03  0.21393711471E+04  0.21169537430E+04 0.  0.
        5    1    3    3  502    0  0.69065240053E+03 -0.32400928678E+03  0.89595302139E+03  0.11767483430E+04  0.46999998093E+01 0.  1.
       -5    1    3    3    0  502 -0.69065240053E+03  0.32400928678E+03 -0.58705861424E+03  0.96262280403E+03  0.46999998093E+01 0. -1.
</event>
<event>
 5   0  0.2579241E-04  0.2103912E+04  0.7818609E-02  0.8559522E-01
       -2   -1    0    0    0  501  0.00000000000E+00  0.00000000000E+00  0.47430369570E+03  0.47430369570E+03  0.25500000920E-02 0. -1.
        2   -1    0    0  501    0  0.00000000000E+00  0.00000000000E+00 -0.23331278279E+04  0.23331278279E+04  0.25500000920E-02 0.  1.
    10030    2    1    2    0    0  0.00000000000E+00  0.00000000000E+00 -0.18588241322E+04  0.28074315236E+04  0.21039117389E+04 0.  0.
        5    1    3    3  502    0  0.72192409835E+03 -0.16582935358E+03  0.67290977488E+02  0.74379025534E+03  0.46999998093E+01 0. -1.
       -5    1    3    3    0  502 -0.72192409835E+03  0.16582935358E+03 -0.19261151097E+04  0.20636412682E+04  0.46999998093E+01 0.  1.
</event>
<event>
 5   0  0.2512839E-04  0.2130574E+04  0.7818609E-02  0.8547893E-01
       -2   -1    0    0    0  501  0.00000000000E+00  0.00000000000E+00  0.13432784353E+04  0.13432784353E+04  0.25500000920E-02 0.  1.
        2   -1    0    0  501    0  0.00000000000E+00  0.00000000000E+00 -0.84482627379E+03  0.84482627379E+03  0.25500000920E-02 0. -1.
    10030    2    1    2    0    0  0.00000000000E+00  0.00000000000E+00  0.49845216148E+03  0.21881047091E+04  0.21305744907E+04 0.  0.
        3    1    3    3  502    0 -0.76652196350E+03  0.80439500753E+02  0.10044816279E+04  0.12661002270E+04  0.10100000352E+00 0.  1.
       -3    1    3    3    0  502  0.76652196350E+03 -0.80439500753E+02 -0.50602946644E+03  0.92200448205E+03  0.10100000352E+00 0. -1.
</event>
<event>
 5   0  0.1042395E-04  0.2085224E+04  0.7818609E-02  0.8567780E-01
       -1   -1    0    0    0  501  0.00000000000E+00  0.00000000000E+00  0.18490546511E+04  0.18490546511E+04  0.50400001928E-02 0. -1.
        1   -1    0    0  501    0  0.00000000000E+00  0.00000000000E+00 -0.58788971738E+03  0.58788971741E+03  0.50400001928E-02 0.  1.
    10030    2    1    2    0    0  0.00000000000E+00  0.00000000000E+00  0.12611649337E+04  0.24369443685E+04  0.20852244160E+04 0.  0.
        3    1    3    3  502    0 -0.77822860261E+03  0.67298755687E+03  0.82783622728E+03  0.13205547467E+04  0.10100000352E+00 0. -1.
       -3    1    3    3    0  502  0.77822860261E+03 -0.67298755687E+03  0.43332870640E+03  0.11163896218E+04  0.10100000352E+00 0.  1.
</event>
<event>
 5   0  0.1042395E-04  0.2067173E+04  0.7818609E-02  0.8575843E-01
        1   -1    0    0  501    0  0.00000000000E+00  0.00000000000E+00  0.11660701544E+04  0.11660701545E+04  0.50400001928E-02 0. -1.
       -1   -1    0    0    0  501  0.00000000000E+00  0.00000000000E+00 -0.91615536537E+03  0.91615536539E+03  0.50400001928E-02 0.  1.
    10030    2    1    2    0    0  0.00000000000E+00  0.00000000000E+00  0.24991478907E+03  0.20822255198E+04  0.20671733632E+04 0.  0.
        3    1    3    3  502    0  0.95158609467E+03  0.34945005051E+03 -0.78179060860E+02  0.10167317292E+04  0.10100000352E+00 0.  1.
       -3    1    3    3    0  502 -0.95158609467E+03 -0.34945005051E+03  0.32809384993E+03  0.10654937907E+04  0.10100000352E+00 0. -1.
</event>
<event>
 5   0  0.1186038E-04  0.2064041E+04  0.7818609E-02  0.8577251E-01
       -1   -1    0    0    0  501  0.00000000000E+00  0.00000000000E+00  0.50440248489E+03  0.50440248492E+03  0.50400001928E-02 0. -1.
        1   -1    0    0  501    0  0.00000000000E+00  0.00000000000E+00 -0.21115407033E+04  0.21115407033E+04  0.50400001928E-02 0.  1.
    10030    2    1    2    0    0  0.00000000000E+00  0.00000000000E+00 -0.16071382184E+04  0.26159431882E+04  0.20640410633E+04 0.  0.
        4    1    3    3  502    0 -0.28451762362E+03 -0.15311684746E+03 -0.20457848420E+04  0.20711427473E+04  0.12699999809E+01 0.  1.
       -4    1    3    3    0  502  0.28451762362E+03  0.15311684746E+03  0.43864662359E+03  0.54480044091E+03  0.12699999809E+01 0. -1.
</event>
<event>
 5   0  0.2430898E-04  0.2121266E+04  0.7818609E-02  0.8551933E-01
       -2   -1    0    0    0  501  0.00000000000E+00  0.00000000000E+00  0.94438529939E+03  0.94438529939E+03  0.25500000920E-02 0. -1.
        2   -1    0    0  501    0  0.00000000000E+00  0.00000000000E+00 -0.11911897238E+04  0.11911897238E+04  0.25500000920E-02 0.  1.
    10030    2    1    2    0    0  0.00000000000E+00  0.00000000000E+00 -0.24680442445E+03  0.21355750232E+04  0.21212657203E+04 0.  0.
        1    1    3    3  502    0  0.38168824498E+03  0.11221468353E+02  0.87278276448E+03  0.95266027088E+03  0.50400001928E-02 0. -1.
       -1    1    3    3    0  502 -0.38168824498E+03 -0.11221468353E+02 -0.11195871889E+04  0.11829147524E+04  0.50400001928E-02 0.  1.
</event>
<event>
 5   0  0.8698750E-05  0.2095032E+04  0.7818609E-02  0.8563435E-01
        4   -1    0    0  501    0  0.00000000000E+00  0.00000000000E+00  0.57734816094E+03  0.57734955775E+03  0.12699999809E+01 0.  1.
       -4   -1    0    0    0  501  0.00000000000E+00  0.00000000000E+00 -0.19005641210E+04  0.19005645453E+04  0.12699999809E+01 0. -1.
    10030    2    1    2    0    0  0.00000000000E+00  0.00000000000E+00 -0.13232159600E+04  0.24779141031E+04  0.20950317003E+04 0.  0.
        5    1    3    3  502    0 -0.10433295388E+04 -0.29102442071E+02 -0.76662649271E+03  0.12950373539E+04  0.46999998093E+01 0.  1.
       -5    1    3    3    0  502  0.10433295388E+04  0.29102442071E+02 -0.55658946734E+03  0.11828767492E+04  0.46999998093E+01 0. -1.
</event>
<event>
 5   0  0.2448804E-04  0.2092776E+04  0.7818609E-02  0.8564432E-01
       -2   -1    0    0    0  501  0.00000000000E+00  0.00000000000E+00  0.87244932099E+03  0.87244932099E+03  0.25500000920E-02 0.  1.
        2   -1    0    0  501    0  0.00000000000E+00  0.00000000000E+00 -0.12550049010E+04  0.12550049010E+04  0.25500000920E-02 0. -1.
    10030    2    1    2    0    0  0.00000000000E+00  0.00000000000E+00 -0.38255558002E+03  0.21274542220E+04  0.20927763127E+04 0.  0.
        2    1    3    3  502    0 -0.33446439329E+03 -0.23753845838E+03 -0.11698486608E+04  0.12396922355E+04  0.25500000920E-02 0. -1.
       -2    1    3    3    0  502  0.33446439329E+03  0.23753845838E+03  0.78729308079E+03  0.88776198649E+03  0.25500000920E-02 0.  1.
</event>
<event>
 5   0  0.2512839E-04  0.2133499E+04  0.7818609E-02  0.8546629E-01
       -2   -1    0    0    0  501  0.00000000000E+00  0.00000000000E+00  0.11807282331E+04  0.11807282331E+04  0.25500000920E-02 0. -1.
        2   -1    0    0  501    0  0.00000000000E+00  0.00000000000E+00 -0.96377356588E+03  0.96377356588E+03  0.25500000920E-02 0.  1.
    10030    2    1    2    0    0  0.00000000000E+00  0.00000000000E+00  0.21695466719E+03  0.21445017989E+04  0.21334991535E+04 0.  0.
        3    1    3    3  502    0  0.10979955803E+03 -0.97470303344E+03  0.52998789815E+03  0.11148942231E+04  0.10100000352E+00 0. -1.
       -3    1    3    3    0  502 -0.10979955803E+03  0.97470303344E+03 -0.31303323096E+03  0.10296075758E+04  0.10100000352E+00 0.  1.
</event>
<event>
 5   0  0.1186038E-04  0.2110501E+04  0.7818609E-02  0.8556632E-01
       -1   -1    0    0    0  501  0.00000000000E+00  0.00000000000E+00  0.21203626111E+04  0.21203626111E+04  0.50400001928E-02 0. -1.
        1   -1    0    0  501    0  0.00000000000E+00  0.00000000000E+00 -0.52517114273E+03  0.52517114275E+03  0.50400001928E-02 0.  1.
    10030    2    1    2    0    0  0.00000000000E+00  0.00000000000E+00  0.15951914684E+04  0.26455337539E+04  0.21105006567E+04 0.  0.
        4    1    3    3  502    0  0.11089537289E+03  0.97385412823E+03  0.30750377395E+03  0.10272535377E+04  0.12699999809E+01 0. -1.
       -4    1    3    3    0  502 -0.11089537289E+03 -0.97385412823E+03  0.12876876944E+04  0.16182802162E+04  0.12699999809E+01 0.  1.
</event>
<event>
 5   0  0.1122711E-04  0.2111800E+04  0.7818609E-02  0.8556063E-01
        1   -1    0    0  501    0  0.00000000000E+00  0.00000000000E+00  0.16064913614E+04  0.16064913614E+04  0.50400001928E-02 0.  1.
       -1   -1    0    0    0  501  0.00000000000E+00  0.00000000000E+00 -0.69401201375E+03  0.69401201377E+03  0.50400001928E-02 0. -1.
    10030    2    1    2    0    0  0.00000000000E+00  0.00000000000E+00  0.91247934768E+03  0.23005033752E+04  0.21117995216E+04 0.  0.
        1    1    3    3  502    0 -0.31666593672E+03 -0.60499888227E+02 -0.63908512409E+03  0.71579839886E+03  0.50400001928E-02 0. -1.
       -1    1    3    3    0  502  0.31666593672E+03  0.60499888227E+02  0.15515644718E+04  0.15847049763E+04  0.50400001928E-02 0.  1.
</event>
<event>
 5   0  0.2512839E-04  0.2067814E+04  0.7818609E-02  0.8575556E-01
       -2   -1    0    0    0  501  0.00000000000E+00  0.00000000000E+00  0.14208557892E+04  0.14208557892E+04  0.25500000920E-02 0. -1.
        2   -1    0    0  501    0  0.00000000000E+00  0.00000000000E+00 -0.75233779234E+03  0.75233779234E+03  0.25500000920E-02 0.  1.
    10030    2    1    2    0    0  0.00000000000E+00  0.00000000000E+00  0.66851799685E+03  0.21731935815E+04  0.20678138288E+04 0.  0.
        3    1    3    3  502    0  0.16864879045E+03  0.11450956493E+03 -0.73100827633E+03  0.75889917989E+03  0.10100000352E+00 0.  1.
       -3    1    3    3    0  502 -0.16864879045E+03 -0.11450956493E+03  0.13995262732E+04  0.14142944016E+04  0.10100000352E+00 0. -1.
</event>
<event>
 5   0  0.2579241E-04  0.2125495E+04  0.7818609E-02  0.8550095E-01
       -2   -1    0    0    0  501  0.00000000000E+00  0.00000000000E+00  0.88026606210E+03  0.88026606210E+03  0.25500000920E-02 0. -1.
        2   -1    0    0  501    0  0.00000000000E+00  0.00000000000E+00 -0.12830574420E+04  0.12830574420E+04  0.25500000920E-02 0.  1.
    10030    2    1    2    0    0  0.00000000000E+00  0.00000000000E+00 -0.40279137994E+03  0.21633235041E+04  0.21254946925E+04 0.  0.
        5    1    3    3  502    0 -0.96093234243E+03 -0.42009222188E+03 -0.37633077065E+03  0.11142330908E+04  0.46999998093E+01 0.  1.
       -5    1    3    3    0  502  0.96093234243E+03  0.42009222188E+03 -0.26460609294E+02  0.10490904134E+04  0.46999998093E+01 0. -1.
</event>
<event>
 5   0  0.1042395E-04  0.2099095E+04  0.7818609E-02  0.8561642E-01
       -1   -1    0    0    0  501  0.00000000000E+00  0.00000000000E+00  0.61258127995E+03  0.61258127997E+03  0.50400001928E-02 0. -1.
        1   -1    0    0  501    0  0.00000000000E+00  0.00000000000E+00 -0.17982094413E+04  0.17982094413E+04  0.50400001928E-02 0.  1.
    10030    2    1    2    0    0  0.00000000000E+00  0.00000000000E+00 -0.11856281614E+04  0.24107907213E+04  0.20990945107E+04 0.  0.
        3    1    3    3  502    0 -0.28215267830E+03 -0.86257564597E+03 -0.11982578106E+04  0.15031529096E+04  0.10100000352E+00 0.  1.
       -3    1    3    3    0  502  0.28215267830E+03  0.86257564597E+03  0.12629649249E+02  0.90763781165E+03  0.10100000352E+00 0. -1.
</event>
<event>
 5   0  0.1186038E-04  0.2103500E+04  0.7818609E-02  0.8559703E-01
       -1   -1    0    0    0  501  0.00000000000E+00  0.00000000000E+00  0.56641166786E+03  0.56641166788E+03  0.50400001928E-02 0.  1.
        1   -1    0    0  501    0  0.00000000000E+00  0.00000000000E+00 -0.19529584425E+04  0.19529584425E+04  0.50400001928E-02 0. -1.
    10030    2    1    2    0    0  0.00000000000E+00  0.00000000000E+00 -0.13865467746E+04  0.25193701104E+04  0.21035003672E+04 0.  0.
        4    1    3    3  502    0  0.10511028751E+04 -0.36396816423E+02 -0.68620250867E+03  0.12557935650E+04  0.12699999809E+01 0.  1.
       -4    1    3    3    0  502 -0.10511028751E+04  0.36396816423E+02 -0.70034426596E+03  0.12635765453E+04  0.12699999809E+01 0. -1.
</event>
<event>
 5   0  0.1156733E-04  0.2132474E+04  0.7818609E-02  0.8547072E-01
        1   -1    0    0  501    0  0.00000000000E+00  0.00000000000E+00  0.10257358510E+04  0.10257358510E+04  0.50400001928E-02 0. -1.
       -1   -1    0    0    0  501  0.00000000000E+00  0.00000000000E+00 -0.11083378218E+04  0.11083378218E+04  0.50400001928E-02 0.  1.
    10030    2    1    2    0    0  0.00000000000E+00  0.00000000000E+00 -0.82601970847E+02  0.21340736728E+04  0.21324744677E+04 0.  0.
        2    1    3    3  502    0 -0.30521254378E+03 -0.94397539465E+03  0.34965500558E+03  0.10519043994E+04  0.25500000920E-02 0. -1.
       -2    1    3    3    0  502  0.30521254378E+03  0.94397539465E+03 -0.43225697643E+03  0.10821692734E+04  0.25500000920E-02 0.  1.
</event>
<event>
 5   0  0.2467483E-04  0.2096430E+04  0.7818609E-02  0.8562817E-01
        2   -1    0    0  501    0  0.00000000000E+00  0.00000000000E+00  0.82146172139E+03  0.82146172140E+03  0.25500000920E-02 0. -1.
       -2   -1    0    0    0  501  0.00000000000E+00  0.00000000000E+00 -0.13375608938E+04  0.13375608938E+04  0.25500000920E-02 0.  1.
    10030    2    1    2    0    0  0.00000000000E+00  0.00000000000E+00 -0.51609917243E+03  0.21590226152E+04  0.20964303702E+04 0.  0.
        4    1    3    3  502    0  0.31281659469E+03 -0.16534986987E+03 -0.12741995618E+04  0.13224148130E+04  0.12699999809E+01 0.  1.
       -4    1    3    3    0  502 -0.31281659469E+03  0.16534986987E+03  0.75810038942E+03  0.83660780220E+03  0.12699999809E+01 0. -1.
</event>
<event>
 5   0  0.1130848E-04  0.2042556E+04  0.7818609E-02  0.8586979E-01
        1   -1    0    0  501    0  0.00000000000E+00  0.00000000000E+00  0.15909160511E+04  0.15909160511E+04  0.50400001928E-02 0. -1.
       -1   -1    0    0    0  501  0.00000000000E+00  0.00000000000E+00 -0.65560271125E+03  0.65560271127E+03  0.50400001928E-02 0.  1.
    10030    2    1    2    0    0  0.00000000000E+00  0.00000000000E+00  0.93531333981E+03  0.22465187623E+04  0.20425561206E+04 0.  0.
        5    1    3    3  502    0 -0.22875564803E+02 -0.36556426784E+03  0.15161761078E+04  0.15597988990E+04  0.46999998093E+01 0. -1.
       -5    1    3    3    0  502  0.22875564803E+02  0.36556426784E+03 -0.58086276804E+03  0.68671986332E+03  0.46999998093E+01 0.  1.
</event>
<event>
 5   0  0.2579241E-04  0.1286958E+04  0.7818609E-02  0.9039972E-01
       -2   -1    0    0    0  501  0.00000000000E+00  0.00000000000E+00  0.48583431635E+03  0.48583431636E+03  0.25500000920E-02 0.  1.
        2   -1    0    0  501    0  0.00000000000E+00  0.00000000000E+00 -0.85227616637E+03  0.85227616638E+03  0.25500000920E-02 0. -1.
    10030    2    1    2    0    0  0.00000000000E+00  0.00000000000E+00 -0.36644185002E+03  0.13381104827E+04  0.12869576662E+04 0.  0.
        5    1    3    3  502    0  0.40283489427E+03  0.33870409819E+02  0.33729661460E+03  0.52651139866E+03  0.46999998093E+01 0.  1.
       -5    1    3    3    0  502 -0.40283489427E+03 -0.33870409819E+02 -0.70373846462E+03  0.81159908408E+03  0.46999998093E+01 0. -1.
</event>
<event>
 5   0  0.1156733E-04  0.1672633E+04  0.7818609E-02  0.8777129E-01
        1   -1    0    0  501    0  0.00000000000E+00  0.00000000000E+00  0.81483333997E+03  0.81483333998E+03  0.50400001928E-02 0. -1.
       -1   -1    0    0    0  501  0.00000000000E+00  0.00000000000E+00 -0.85836581401E+03  0.85836581403E+03  0.50400001928E-02 0.  1.
    10030    2    1    2    0    0  0.00000000000E+00  0.00000000000E+00 -0.43532474044E+02  0.16731991540E+04  0.16726327549E+04 0.  0.
        2    1    3    3  502    0 -0.13277387766E+03 -0.54068736587E+03 -0.64603953991E+03  0.85284161328E+03  0.25500000920E-02 0.  1.
       -2    1    3    3    0  502  0.13277387766E+03  0.54068736587E+03  0.60250706587E+03  0.82035754073E+03  0.25500000920E-02 0. -1.
</event>
<event>
 5   0  0.2430898E-04  0.2085656E+04  0.7818609E-02  0.8567589E-01
       -2   -1    0    0    0  501  0.00000000000E+00  0.00000000000E+00  0.77776877252E+03  0.77776877253E+03  0.25500000920E-02 0.  1.
        2   -1    0    0  501    0  0.00000000000E+00  0.00000000000E+00 -0.13982175760E+04  0.13982175760E+04  0.25500000920E-02 0. -1.
    10030    2    1    2    0    0  0.00000000000E+00  0.00000000000E+00 -0.62044880348E+03  0.21759863485E+04  0.20856557413E+04 0.  0.
        1    1    3    3  502    0 -0.89391412704E+03  0.23242406022E+03 -0.81532733592E+03  0.12320154524E+04  0.50400001928E-02 0. -1.
       -1    1    3    3    0  502  0.89391412704E+03 -0.23242406022E+03  0.19487853244E+03  0.94397089612E+03  0.50400001928E-02 0.  1.
</event>
<event>
 5   0  0.1130848E-04  0.2076527E+04  0.7818609E-02  0.8571654E-01
        1   -1    0    0  501    0  0.00000000000E+00  0.00000000000E+00  0.91536797042E+03  0.91536797044E+03  0.50400001928E-02 0.  1.
       -1   -1    0    0    0  501  0.00000000000E+00  0.00000000000E+00 -0.11776588121E+04  0.11776588121E+04  0.50400001928E-02 0. -1.
    10030    2    1    2    0    0  0.00000000000E+00  0.00000000000E+00 -0.26229084165E+03  0.20930267825E+04  0.20765270590E+04 0.  0.
        5    1    3    3  502    0  0.35087992308E+03 -0.97711229812E+03 -0.14141970340E+03  0.10478009286E+04  0.46999998093E+01 0. -1.
       -5    1    3    3    0  502 -0.35087992308E+03  0.97711229812E+03 -0.12087113825E+03  0.10452258539E+04  0.46999998093E+01 0.  1.
</event>
<event>
 5   0  0.1156733E-04  0.2113335E+04  0.7818609E-02  0.8555392E-01
        1   -1    0    0  501    0  0.00000000000E+00  0.00000000000E+00  0.15360287932E+04  0.15360287932E+04  0.50400001928E-02 0. -1.
       -1   -1    0    0    0  501  0.00000000000E+00  0.00000000000E+00 -0.72690418658E+03  0.72690418660E+03  0.50400001928E-02 0.  1.
    10030    2    1    2    0    0  0.00000000000E+00  0.00000000000E+00  0.80912460662E+03  0.22629329798E+04  0.21133345788E+04 0.  0.
        2    1    3    3  502    0 -0.90975937098E+03 -0.52008108564E+02  0.97738756867E+03  0.13362834339E+04  0.25500000920E-02 0. -1.
       -2    1    3    3    0  502  0.90975937098E+03  0.52008108564E+02 -0.16826296204E+03  0.92664954586E+03  0.25500000920E-02 0.  1.
</event>
<event>
 5   0  0.2448804E-04  0.2062520E+04  0.7818609E-02  0.8577936E-01
        2   -1    0    0  501    0  0.00000000000E+00  0.00000000000E+00  0.12634767290E+04  0.12634767290E+04  0.25500000920E-02 0. -1.
       -2   -1    0    0    0  501  0.00000000000E+00  0.00000000000E+00 -0.84172279037E+03  0.84172279037E+03  0.25500000920E-02 0.  1.
    10030    2    1    2    0    0  0.00000000000E+00  0.00000000000E+00  0.42175393861E+03  0.21051995194E+04  0.20625199712E+04 0.  0.
        2    1    3    3  502    0  0.97237590026E+03 -0.32411751156E+03  0.94813344917E+02  0.10293476687E+04  0.25500000920E-02 0.  1.
       -2    1    3    3    0  502 -0.97237590026E+03  0.32411751156E+03  0.32694059369E+03  0.10758518506E+04  0.25500000920E-02 0. -1.
</event>
<event>
 5   0  0.2448804E-04  0.2058635E+04  0.7818609E-02  0.8579687E-01
        2   -1    0    0  501    0  0.00000000000E+00  0.00000000000E+00  0.16327518582E+04  0.16327518582E+04  0.25500000920E-02 0. -1.
       -2   -1    0    0    0  501  0.00000000000E+00  0.00000000000E+00 -0.64890122639E+03  0.64890122640E+03  0.25500000920E-02 0.  1.
    10030    2    1    2    0    0  0.00000000000E+00  0.00000000000E+00  0.98385063178E+03  0.22816530846E+04  0.20586351626E+04 0.  0.
        2    1    3    3  502    0  0.49023919763E+03  0.81857904132E+03  0.91987468837E+03  0.13253586534E+04  0.25500000920E-02 0. -1.
       -2    1    3    3    0  502 -0.49023919763E+03 -0.81857904132E+03  0.63975943403E+02  0.95629443119E+03  0.25500000920E-02 0.  1.
</event>
<event>
 5   0  0.2467483E-04  0.2131275E+04  0.7818609E-02  0.8547590E-01
        2   -1    0    0  501    0  0.00000000000E+00  0.00000000000E+00  0.10922107292E+04  0.10922107292E+04  0.25500000920E-02 0.  1.
       -2   -1    0    0    0  501  0.00000000000E+00  0.00000000000E+00 -0.10397110248E+04  0.10397110248E+04  0.25500000920E-02 0. -1.
    10030    2    1    2    0    0  0.00000000000E+00  0.00000000000E+00  0.52499704327E+02  0.21319217540E+04  0.21312752394E+04 0.  0.
        4    1    3    3  502    0 -0.10639731278E+04  0.72217311678E+01 -0.32852363088E+02  0.10645054536E+04  0.12699999809E+01 0.  1.
       -4    1    3    3    0  502  0.10639731278E+04 -0.72217311678E+01  0.85352067415E+02  0.10674163004E+04  0.12699999809E+01 0. -1.
</event>
<event>
 5   0  0.2448804E-04  0.1505768E+04  0.7818609E-02  0.8880627E-01
       -2   -1    0    0    0  501  0.00000000000E+00  0.00000000000E+00  0.36122483575E+03  0.36122483575E+03  0.25500000920E-02 0. -1.
        2   -1    0    0  501    0  0.00000000000E+00  0.00000000000E+00 -0.15692000496E+04  0.15692000496E+04  0.25500000920E-02 0.  1.
    10030    2    1    2    0    0  0.00000000000E+00  0.00000000000E+00 -0.12079752138E+04  0.19304248853E+04  0.15057676184E+04 0.  0.
        2    1    3    3  502    0 -0.60585375813E+03 -0.23681497256E+03 -0.10899628598E+04  0.12693144383E+04  0.25500000920E-02 0.  1.
       -2    1    3    3    0  502  0.60585375813E+03  0.23681497256E+03 -0.11801235399E+03  0.66111044703E+03  0.25500000920E-02 0. -1.
</event>
<event>
 5   0  0.2448804E-04  0.2163015E+04  0.7818609E-02  0.8533982E-01
        2   -1    0    0  501    0  0.00000000000E+00  0.00000000000E+00  0.30579354140E+04  0.30579354140E+04  0.25500000920E-02 0. -1.
       -2   -1    0    0    0  501  0.00000000000E+00  0.00000000000E+00 -0.38249943023E+03  0.38249943024E+03  0.25500000920E-02 0.  1.
    10030    2    1    2    0    0  0.00000000000E+00  0.00000000000E+00  0.26754359838E+04  0.34404348442E+04  0.21630150749E+04 0.  0.
        2    1    3    3  502    0  0.21573639861E+03 -0.10577450777E+04  0.12335176860E+04  0.16391866046E+04  0.25500000920E-02 0.  1.
       -2    1    3    3    0  502 -0.21573639861E+03  0.10577450777E+04  0.14419182978E+04  0.18012482396E+04  0.25500000920E-02 0. -1.
</event>
<event>
 5   0  0.2512839E-04  0.2097687E+04  0.7818609E-02  0.8562263E-01
        2   -1    0    0  501    0  0.00000000000E+00  0.00000000000E+00  0.96235572771E+03  0.96235572771E+03  0.25500000920E-02 0. -1.
       -2   -1    0    0    0  501  0.00000000000E+00  0.00000000000E+00 -0.11431043448E+04  0.11431043448E+04  0.25500000920E-02 0.  1.
    10030    2    1    2    0    0  0.00000000000E+00  0.00000000000E+00 -0.18074861711E+03  0.21054600725E+04  0.20976873109E+04 0.  0.
        3    1    3    3  502    0 -0.29172469898E+03 -0.90128556022E+03 -0.54221349634E+03  0.10915193296E+04  0.10100000352E+00 0. -1.
       -3    1    3    3    0  502  0.29172469898E+03  0.90128556022E+03  0.36146487924E+03  0.10139407429E+04  0.10100000352E+00 0.  1.
</event>
<event>
 5   0  0.1186038E-04  0.2095803E+04  0.7818609E-02  0.8563094E-01
       -1   -1    0    0    0  501  0.00000000000E+00  0.00000000000E+00  0.66737397897E+03  0.66737397899E+03  0.50400001928E-02 0. -1.
        1   -1    0    0  501    0  0.00000000000E+00  0.00000000000E+00 -0.16454008303E+04  0.16454008303E+04  0.50400001928E-02 0.  1.
    10030    2    1    2    0    0  0.00000000000E+00  0.00000000000E+00 -0.97802685136E+03  0.23127748093E+04  0.20958031388E+04 0.  0.
        4    1    3    3  502    0 -0.30650974336E+03  0.55973935405E+03  0.42820234064E+03  0.76851494760E+03  0.12699999809E+01 0. -1.
       -4    1    3    3    0  502  0.30650974336E+03 -0.55973935405E+03 -0.14062291920E+04  0.15442598617E+04  0.12699999809E+01 0.  1.
</event>
<event>
 5   0  0.1122711E-04  0.2186500E+04  0.7818609E-02  0.8524068E-01
       -1   -1    0    0    0  501  0.00000000000E+00  0.00000000000E+00  0.10473430651E+04  0.10473430651E+04  0.50400001928E-02 0. -1.
        1   -1    0    0  501    0  0.00000000000E+00  0.00000000000E+00 -0.11411695932E+04  0.11411695932E+04  0.50400001928E-02 0.  1.
    10030    2    1    2    0    0  0.00000000000E+00  0.00000000000E+00 -0.93826528103E+02  0.21885126582E+04  0.21865004546E+04 0.  0.
        1    1    3    3  502    0  0.25371683183E+03  0.14201571694E+03 -0.11017594825E+04  0.11394799919E+04  0.50400001928E-02 0.  1.
       -1    1    3    3    0  502 -0.25371683183E+03 -0.14201571694E+03  0.10079329544E+04  0.10490326664E+04  0.50400001928E-02 0. -1.
</event>
<event>
 5   0  0.1042395E-04  0.2093022E+04  0.7818609E-02  0.8564323E-01
        1   -1    0    0  501    0  0.00000000000E+00  0.00000000000E+00  0.71017753239E+03  0.71017753241E+03  0.50400001928E-02 0. -1.
       -1   -1    0    0    0  501  0.00000000000E+00  0.00000000000E+00 -0.15421292795E+04  0.15421292795E+04  0.50400001928E-02 0.  1.
    10030    2    1    2    0    0  0.00000000000E+00  0.00000000000E+00 -0.83195174706E+03  0.22523068119E+04  0.20930222802E+04 0.  0.
        3    1    3    3  502    0  0.96116276953E+03 -0.37013798066E+03 -0.61541680779E+03  0.11998224251E+04  0.10100000352E+00 0.  1.
       -3    1    3    3    0  502 -0.96116276953E+03  0.37013798066E+03 -0.21653493928E+03  0.10524843868E+04  0.10100000352E+00 0. -1.
</event>
<event>
 5   0  0.1156733E-04  0.2007512E+04  0.7818609E-02  0.8603116E-01
        1   -1    0    0  501    0  0.00000000000E+00  0.00000000000E+00  0.11625340699E+04  0.11625340699E+04  0.50400001928E-02 0.  1.
       -1   -1    0    0    0  501  0.00000000000E+00  0.00000000000E+00 -0.86666406979E+03  0.86666406980E+03  0.50400001928E-02 0. -1.
    10030    2    1    2    0    0  0.00000000000E+00  0.00000000000E+00  0.29587000012E+03  0.20291981397E+04  0.20075123993E+04 0.  0.
        2    1    3    3  502    0 -0.47286125387E+03  0.22324124789E+02  0.10426123084E+04  0.11450487141E+04  0.25500000920E-02 0.  1.
       -2    1    3    3    0  502  0.47286125387E+03 -0.22324124789E+02 -0.74674230826E+03  0.88414942567E+03  0.25500000920E-02 0. -1.
</event>
<event>
 5   0  0.1042395E-04  0.1804074E+04  0.7818609E-02  0.8704136E-01
       -1   -1    0    0    0  501  0.00000000000E+00  0.00000000000E+00  0.56465056017E+03  0.56465056020E+03  0.50400001928E-02 0. -1.
        1   -1    0    0  501    0  0.00000000000E+00  0.00000000000E+00 -0.14410167241E+04  0.14410167241E+04  0.50400001928E-02 0.  1.
    10030    2    1    2    0    0  0.00000000000E+00  0.00000000000E+00 -0.87636616393E+03  0.20056672843E+04  0.18040741676E+04 0.  0.
        3    1    3    3  502    0 -0.37414050362E+03  0.78151748182E+03 -0.71705163804E+03  0.11246838456E+04  0.10100000352E+00 0.  1.
       -3    1    3    3    0  502  0.37414050362E+03 -0.78151748182E+03 -0.15931452589E+03  0.88098343867E+03  0.10100000352E+00 0. -1.
</event>
<event>
 5   0  0.2467483E-04  0.2314767E+04  0.7818609E-02  0.8472121E-01
        2   -1    0    0  501    0  0.00000000000E+00  0.00000000000E+00  0.10886079838E+04  0.10886079838E+04  0.25500000920E-02 0.  1.
       -2   -1    0    0    0  501  0.00000000000E+00  0.00000000000E+00 -0.12305044139E+04  0.12305044139E+04  0.25500000920E-02 0. -1.
    10030    2    1    2    0    0  0.00000000000E+00  0.00000000000E+00 -0.14189643018E+03  0.23191123977E+04  0.23147673136E+04 0.  0.
        4    1    3    3  502    0 -0.11385445238E+04 -0.83050118038E+02  0.12007788819E+03  0.11478681400E+04  0.12699999809E+01 0.  1.
       -4    1    3    3    0  502  0.11385445238E+04  0.83050118038E+02 -0.26197431837E+03  0.11712442577E+04  0.12699999809E+01 0. -1.
</event>
<event>
 5   0  0.2467483E-04  0.2076891E+04  0.7818609E-02  0.8571492E-01
       -2   -1    0    0    0  501  0.00000000000E+00  0.00000000000E+00  0.14661113584E+04  0.14661113584E+04  0.25500000920E-02 0. -1.
        2   -1    0    0  501    0  0.00000000000E+00  0.00000000000E+00 -0.73552986197E+03  0.73552986197E+03  0.25500000920E-02 0.  1.
    10030    2    1    2    0    0  0.00000000000E+00  0.00000000000E+00  0.73058149642E+03  0.22016412204E+04  0.20768906423E+04 0.  0.
        4    1    3    3  502    0  0.39224879602E+02  0.55497410409E+03 -0.56420778158E+03  0.79238051534E+03  0.12699999809E+01 0.  1.
       -4    1    3    3    0  502 -0.39224879602E+02 -0.55497410409E+03  0.12947892780E+04  0.14092607050E+04  0.12699999809E+01 0. -1.
</event>
<event>
 5   0  0.2448804E-04  0.1696200E+04  0.7818609E-02  0.8763534E-01
       -2   -1    0    0    0  501  0.00000000000E+00  0.00000000000E+00  0.40419759256E+03  0.40419759257E+03  0.25500000920E-02 0.  1.
        2   -1    0    0  501    0  0.00000000000E+00  0.00000000000E+00 -0.17795105921E+04  0.17795105921E+04  0.25500000920E-02 0. -1.
    10030    2    1    2    0    0  0.00000000000E+00  0.00000000000E+00 -0.13753129995E+04  0.21837081847E+04  0.16962003387E+04 0.  0.
        2    1    3    3  502    0 -0.14359097638E+03 -0.34182192973E+03  0.29433850270E+03  0.47338753080E+03  0.25500000920E-02 0.  1.
       -2    1    3    3    0  502  0.14359097638E+03  0.34182192973E+03 -0.16696515022E+04  0.17103206539E+04  0.25500000920E-02 0. -1.
</event>
<event>
 5   0  0.8698750E-05  0.2111544E+04  0.7818609E-02  0.8556175E-01
       -3   -1    0    0    0  501  0.00000000000E+00  0.00000000000E+00  0.89200212824E+03  0.89200213396E+03  0.10100000352E+00 0. -1.
        3   -1    0    0  501    0  0.00000000000E+00  0.00000000000E+00 -0.12496094469E+04  0.12496094510E+04  0.10100000352E+00 0.  1.
    10030    2    1    2    0    0  0.00000000000E+00  0.00000000000E+00 -0.35760731863E+03  0.21416115849E+04  0.21115437922E+04 0.  0.
        2    1    3    3  502    0  0.67230777377E+03 -0.49377108974E+03 -0.83520301399E+03  0.11804116682E+04  0.25500000920E-02 0.  1.
       -2    1    3    3    0  502 -0.67230777377E+03  0.49377108974E+03  0.47759569536E+03  0.96119991675E+03  0.25500000920E-02 0. -1.
</event>
<event>
 5   0  0.1186038E-04  0.2048669E+04  0.7818609E-02  0.8584198E-01
       -1   -1    0    0    0  501  0.00000000000E+00  0.00000000000E+00  0.52942033330E+03  0.52942033332E+03  0.50400001928E-02 0.  1.
        1   -1    0    0  501    0  0.00000000000E+00  0.00000000000E+00 -0.19819055640E+04  0.19819055640E+04  0.50400001928E-02 0. -1.
    10030    2    1    2    0    0  0.00000000000E+00  0.00000000000E+00 -0.14524852307E+04  0.25113258973E+04  0.20486689379E+04 0.  0.
        4    1    3    3  502    0 -0.45940597119E+03  0.13609190464E+03 -0.18360680934E+04  0.18975569845E+04  0.12699999809E+01 0. -1.
       -4    1    3    3    0  502  0.45940597119E+03 -0.13609190464E+03  0.38358286272E+03  0.61376891282E+03  0.12699999809E+01 0.  1.
</event>
<event>
 5   0  0.1042395E-04  0.2073532E+04  0.7818609E-02  0.8572993E-01
       -1   -1    0    0    0  501  0.00000000000E+00  0.00000000000E+00  0.10315283733E+04  0.10315283733E+04  0.50400001928E-02 0. -1.
        1   -1    0    0  501    0  0.00000000000E+00  0.00000000000E+00 -0.10420300355E+04  0.10420300356E+04  0.50400001928E-02 0.  1.
    10030    2    1    2    0    0  0.00000000000E+00  0.00000000000E+00 -0.10501662231E+02  0.20735584089E+04  0.20735318156E+04 0.  0.
        3    1    3    3  502    0 -0.67584509967E+03  0.78603106210E+03  0.11245076833E+02  0.10366956599E+04  0.10100000352E+00 0. -1.
       -3    1    3    3    0  502  0.67584509967E+03 -0.78603106210E+03 -0.21746739064E+02  0.10368627490E+04  0.10100000352E+00 0.  1.
</event>
<event>
 5   0  0.1186038E-04  0.1940398E+04  0.7818609E-02  0.8635005E-01
        1   -1    0    0  501    0  0.00000000000E+00  0.00000000000E+00  0.10938018025E+04  0.10938018025E+04  0.50400001928E-02 0. -1.
       -1   -1    0    0    0  501  0.00000000000E+00  0.00000000000E+00 -0.86056352579E+03  0.86056352581E+03  0.50400001928E-02 0.  1.
    10030    2    1    2    0    0  0.00000000000E+00  0.00000000000E+00  0.23323827673E+03  0.19543653283E+04  0.19403978311E+04 0.  0.
        4    1    3    3  502    0  0.54268458404E+03 -0.91208149603E+02 -0.68816872917E+03  0.88113750176E+03  0.12699999809E+01 0.  1.
       -4    1    3    3    0  502 -0.54268458404E+03  0.91208149603E+02  0.92140700590E+03  0.10732278266E+04  0.12699999809E+01 0. -1.
</event>
<event>
 5   0  0.1186038E-04  0.2192459E+04  0.7818609E-02  0.8521574E-01
       -1   -1    0    0    0  501  0.00000000000E+00  0.00000000000E+00  0.10451095916E+04  0.10451095916E+04  0.50400001928E-02 0. -1.
        1   -1    0    0  501    0  0.00000000000E+00  0.00000000000E+00 -0.11498493823E+04  0.11498493823E+04  0.50400001928E-02 0.  1.
    10030    2    1    2    0    0  0.00000000000E+00  0.00000000000E+00 -0.10473979070E+03  0.21949589739E+04  0.21924585454E+04 0.  0.
        4    1    3    3  502    0  0.80854977060E+03 -0.40641233960E+03 -0.67177841065E+03  0.11270366308E+04  0.12699999809E+01 0.  1.
       -4    1    3    3    0  502 -0.80854977060E+03  0.40641233960E+03  0.56703861995E+03  0.10679223430E+04  0.12699999809E+01 0. -1.
</event>
<event>
 5   0  0.2430898E-04  0.2098567E+04  0.7818609E-02  0.8561875E-01
        2   -1    0    0  501    0  0.00000000000E+00  0.00000000000E+00  0.13921776255E+04  0.13921776255E+04  0.25500000920E-02 0.  1.
       -2   -1    0    0    0  501  0.00000000000E+00  0.00000000000E+00 -0.79084471752E+03  0.79084471753E+03  0.25500000920E-02 0. -1.
    10030    2    1    2    0    0  0.00000000000E+00  0.00000000000E+00  0.60133290799E+03  0.21830223430E+04  0.20985674361E+04 0.  0.
        1    1    3    3  502    0  0.23501362736E+03  0.44723397386E+03 -0.65598867476E+03  0.82799201316E+03  0.50400001928E-02 0. -1.
       -1    1    3    3    0  502 -0.23501362736E+03 -0.44723397386E+03  0.12573215828E+04  0.13550303299E+04  0.50400001928E-02 0.  1.
</event>
<event>
 5   0  0.2448804E-04  0.1925359E+04  0.7818609E-02  0.8642336E-01
       -2   -1    0    0    0  501  0.00000000000E+00  0.00000000000E+00  0.84681068709E+03  0.84681068709E+03  0.25500000920E-02 0. -1.
        2   -1    0    0  501    0  0.00000000000E+00  0.00000000000E+00 -0.10944023086E+04  0.10944023086E+04  0.25500000920E-02 0.  1.
    10030    2    1    2    0    0  0.00000000000E+00  0.00000000000E+00 -0.24759162152E+03  0.19412129957E+04  0.19253587415E+04 0.  0.
        2    1    3    3  502    0  0.60835941134E+03  0.63051870010E+03  0.27835776293E+03  0.91931390109E+03  0.25500000920E-02 0.  1.
       -2    1    3    3    0  502 -0.60835941134E+03 -0.63051870010E+03 -0.52594938445E+03  0.10218990946E+04  0.25500000920E-02 0. -1.
</event>
<event>
 5   0  0.2512839E-04  0.2150600E+04  0.7818609E-02  0.8539276E-01
       -2   -1    0    0    0  501  0.00000000000E+00  0.00000000000E+00  0.84994743092E+03  0.84994743093E+03  0.25500000920E-02 0. -1.
        2   -1    0    0  501    0  0.00000000000E+00  0.00000000000E+00 -0.13604014913E+04  0.13604014913E+04  0.25500000920E-02 0.  1.
    10030    2    1    2    0    0  0.00000000000E+00  0.00000000000E+00 -0.51045406035E+03  0.22103489222E+04  0.21505996862E+04 0.  0.
        3    1    3    3  502    0  0.18874992452E+03 -0.20526070475E+03 -0.13225936041E+04  0.13516702049E+04  0.10100000352E+00 0.  1.
       -3    1    3    3    0  502 -0.18874992452E+03  0.20526070475E+03  0.81213954374E+03  0.85867871735E+03  0.10100000352E+00 0. -1.
</event>
<event>
 5   0  0.2579241E-04  0.2080970E+04  0.7818609E-02  0.8569673E-01
       -2   -1    0    0    0  501  0.00000000000E+00  0.00000000000E+00  0.68112967217E+03  0.68112967217E+03  0.25500000920E-02 0.  1.
        2   -1    0    0  501    0  0.00000000000E+00  0.00000000000E+00 -0.15894318532E+04  0.15894318532E+04  0.25500000920E-02 0. -1.
    10030    2    1    2    0    0  0.00000000000E+00  0.00000000000E+00 -0.90830218106E+03  0.22705615254E+04  0.20809701556E+04 0.  0.
        5    1    3    3  502    0  0.10189716129E+04  0.18768210748E+03 -0.35029862756E+03  0.10937362295E+04  0.46999998093E+01 0. -1.
       -5    1    3    3    0  502 -0.10189716129E+04 -0.18768210748E+03 -0.55800355350E+03  0.11768252959E+04  0.46999998093E+01 0.  1.
</event>
<event>
 5   0  0.1130848E-04  0.2089746E+04  0.7818609E-02  0.8565774E-01
        1   -1    0    0  501    0  0.00000000000E+00  0.00000000000E+00  0.10681073739E+04  0.10681073739E+04  0.50400001928E-02 0.  1.
       -1   -1    0    0    0  501  0.00000000000E+00  0.00000000000E+00 -0.10221442843E+04  0.10221442843E+04  0.50400001928E-02 0. -1.
    10030    2    1    2    0    0  0.00000000000E+00  0.00000000000E+00  0.45963089599E+02  0.20902516581E+04  0.20897462498E+04 0.  0.
        5    1    3    3  502    0 -0.39492135550E+03 -0.77536294131E+03 -0.55559347178E+03  0.10324033919E+04  0.46999998093E+01 0. -1.
       -5    1    3    3    0  502  0.39492135550E+03  0.77536294131E+03  0.60155656138E+03  0.10578482662E+04  0.46999998093E+01 0.  1.
</event>
<event>
 5   0  0.1156733E-04  0.2099312E+04  0.7818609E-02  0.8561547E-01
        1   -1    0    0  501    0  0.00000000000E+00  0.00000000000E+00  0.83081491601E+03  0.83081491602E+03  0.50400001928E-02 0. -1.
       -1   -1    0    0    0  501  0.00000000000E+00  0.00000000000E+00 -0.13261410000E+04  0.13261410000E+04  0.50400001928E-02 0.  1.
    10030    2    1    2    0    0  0.00000000000E+00  0.00000000000E+00 -0.49532608396E+03  0.21569559160E+04  0.20993120049E+04 0.  0.
        2    1    3    3  502    0  0.75133554756E+03 -0.20682489302E+03 -0.97017611123E+03  0.12443967728E+04  0.25500000920E-02 0.  1.
       -2    1    3    3    0  502 -0.75133554756E+03  0.20682489302E+03  0.47485002727E+03  0.91255914318E+03  0.25500000920E-02 0. -1.
</event>
<event>
 5   0  0.1130848E-04  0.1295354E+04  0.7818609E-02  0.9033257E-01
        1   -1    0    0  501    0  0.00000000000E+00  0.00000000000E+00  0.27412711537E+03  0.27412711542E+03  0.50400001928E-02 0. -1.
       -1   -1    0    0    0  501  0.00000000000E+00  0.00000000000E+00 -0.15302596987E+04  0.15302596987E+04  0.50400001928E-02 0.  1.
    10030    2    1    2    0    0  0.00000000000E+00  0.00000000000E+00 -0.12561325833E+04  0.18043868141E+04  0.12953542790E+04 0.  0.
        5    1    3    3  502    0  0.50637683230E+03 -0.31001619128E+03 -0.98845495993E+03  0.11530797167E+04  0.46999998093E+01 0.  1.
       -5    1    3    3    0  502 -0.50637683230E+03  0.31001619128E+03 -0.26767762338E+03  0.65130709746E+03  0.46999998093E+01 0. -1.
</event>
<event>
 5   0  0.2448804E-04  0.2225381E+04  0.7818609E-02  0.8507938E-01
        2   -1    0    0  501    0  0.00000000000E+00  0.00000000000E+00  0.10966750022E+04  0.10966750022E+04  0.25500000920E-02 0. -1.
       -2   -1    0    0    0  501  0.00000000000E+00  0.00000000000E+00 -0.11289398568E+04  0.11289398569E+04  0.25500000920E-02 0.  1.
    10030    2    1    2    0    0  0.00000000000E+00  0.00000000000E+00 -0.32264854626E+02  0.22256148591E+04  0.22253809741E+04 0.  0.
        2    1    3    3  502    0 -0.95710031652E+03 -0.47527211045E+03 -0.32625456114E+03  0.11173032863E+04  0.25500000920E-02 0.  1.
       -2    1    3    3    0  502  0.95710031652E+03  0.47527211045E+03  0.29398970652E+03  0.11083115728E+04  0.25500000920E-02 0. -1.
</event>
<event>
 5   0  0.2430898E-04  0.1994913E+04  0.7818609E-02  0.8609003E-01
        2   -1    0    0  501    0  0.00000000000E+00  0.00000000000E+00  0.70226382078E+03  0.70226382078E+03  0.25500000920E-02 0.  1.
       -2   -1    0    0    0  501  0.00000000000E+00  0.00000000000E+00 -0.14167318815E+04  0.14167318815E+04  0.25500000920E-02 0. -1.
    10030    2    1    2    0    0  0.00000000000E+00  0.00000000000E+00 -0.71446806071E+03  0.21189957023E+04  0.19949130749E+04 0.  0.
        1    1    3    3  502    0  0.69157705623E+03  0.81355377831E+02  0.40134452879E+03  0.80372567025E+03  0.50400001928E-02 0.  1.
       -1    1    3    3    0  502 -0.69157705623E+03 -0.81355377831E+02 -0.11158125895E+04  0.13152700320E+04  0.50400001928E-02 0. -1.
</event>
<event>
 5   0  0.2430898E-04  0.2109151E+04  0.7818609E-02  0.8557223E-01
        2   -1    0    0  501    0  0.00000000000E+00  0.00000000000E+00  0.11640170094E+04  0.11640170094E+04  0.25500000920E-02 0.  1.
       -2   -1    0    0    0  501  0.00000000000E+00  0.00000000000E+00 -0.95542385672E+03  0.95542385673E+03  0.25500000920E-02 0. -1.
    10030    2    1    2    0    0  0.00000000000E+00  0.00000000000E+00  0.20859315271E+03  0.21194408662E+04  0.21091511282E+04 0.  0.
        1    1    3    3  502    0  0.10011426386E+04  0.37475280851E+02  0.43520333475E+03  0.10922879300E+04  0.50400001928E-02 0. -1.
       -1    1    3    3    0  502 -0.10011426386E+04 -0.37475280851E+02 -0.22661018204E+03  0.10271529361E+04  0.50400001928E-02 0.  1.
</event>
<event>
 5   0  0.2512839E-04  0.1855710E+04  0.7818609E-02  0.8677222E-01
       -2   -1    0    0    0  501  0.00000000000E+00  0.00000000000E+00  0.47672827021E+03  0.47672827022E+03  0.25500000920E-02 0. -1.
        2   -1    0    0  501    0  0.00000000000E+00  0.00000000000E+00 -0.18058817873E+04  0.18058817873E+04  0.25500000920E-02 0.  1.
    10030    2    1    2    0    0  0.00000000000E+00  0.00000000000E+00 -0.13291535171E+04  0.22826100575E+04  0.18557099996E+04 0.  0.
        3    1    3    3  502    0  0.45378271975E+03 -0.58278135713E+02 -0.16574917942E+04  0.17194749652E+04  0.10100000352E+00 0.  1.
       -3    1    3    3    0  502 -0.45378271975E+03  0.58278135713E+02  0.32833827709E+03  0.56313509236E+03  0.10100000352E+00 0. -1.
</event>
<event>
 5   0  0.1186038E-04  0.1949210E+04  0.7818609E-02  0.8630742E-01
        1   -1    0    0  501    0  0.00000000000E+00  0.00000000000E+00  0.97651762106E+03  0.97651762107E+03  0.50400001928E-02 0.  1.
       -1   -1    0    0    0  501  0.00000000000E+00  0.00000000000E+00 -0.97269622385E+03  0.97269622386E+03  0.50400001928E-02 0. -1.
    10030    2    1    2    0    0  0.00000000000E+00  0.00000000000E+00  0.38213972099E+01  0.19492138449E+04  0.19492100990E+04 0.  0.
        4    1    3    3  502    0  0.85679568087E+02 -0.92891270332E+03 -0.28028408685E+03  0.97405368488E+03  0.12699999809E+01 0.  1.
       -4    1    3    3    0  502 -0.85679568087E+02  0.92891270332E+03  0.28410548406E+03  0.97516016005E+03  0.12699999809E+01 0. -1.
</event>
<event>
 5   0  0.2512839E-04  0.2060931E+04  0.7818609E-02  0.8578652E-01
       -2   -1    0    0    0  501  0.00000000000E+00  0.00000000000E+00  0.12187746050E+04  0.12187746050E+04  0.25500000920E-02 0. -1.
        2   -1    0    0  501    0  0.00000000000E+00  0.00000000000E+00 -0.87125138102E+03  0.87125138103E+03  0.25500000920E-02 0.  1.
    10030    2    1    2    0    0  0.00000000000E+00  0.00000000000E+00  0.34752322396E+03  0.20900259860E+04  0.20609309137E+04 0.  0.
        3    1    3    3  502    0 -0.75718873291E+03  0.27178992505E+03 -0.47926585319E+03  0.93642955359E+03  0.10100000352E+00 0.  1.
       -3    1    3    3    0  502  0.75718873291E+03 -0.27178992505E+03  0.82678907715E+03  0.11535964324E+04  0.10100000352E+00 0. -1.
</event>
<event>
 5   0  0.1156733E-04  0.2098809E+04  0.7818609E-02  0.8561768E-01
       -1   -1    0    0    0  501  0.00000000000E+00  0.00000000000E+00  0.78712944821E+03  0.78712944822E+03  0.50400001928E-02 0. -1.
        1   -1    0    0  501    0  0.00000000000E+00  0.00000000000E+00 -0.13990710983E+04  0.13990710983E+04  0.50400001928E-02 0.  1.
    10030    2    1    2    0    0  0.00000000000E+00  0.00000000000E+00 -0.61194165004E+03  0.21862005465E+04  0.20988092449E+04 0.  0.
        2    1    3    3  502    0 -0.44459397977E+03 -0.94950067900E+03 -0.25898478348E+03  0.10799483619E+04  0.25500000920E-02 0. -1.
       -2    1    3    3    0  502  0.44459397977E+03  0.94950067900E+03 -0.35295686657E+03  0.11062521846E+04  0.25500000920E-02 0.  1.
</event>
<event>
 5   0  0.8698750E-05  0.2197227E+04  0.7818609E-02  0.8519583E-01
        4   -1    0    0  501    0  0.00000000000E+00  0.00000000000E+00  0.82603023044E+03  0.82603120673E+03  0.12699999809E+01 0. -1.
       -4   -1    0    0    0  501  0.00000000000E+00  0.00000000000E+00 -0.14611454344E+04  0.14611459863E+04  0.12699999809E+01 0.  1.
    10030    2    1    2    0    0  0.00000000000E+00  0.00000000000E+00 -0.63511520395E+03  0.22871771930E+04  0.21972273870E+04 0.  0.
        1    1    3    3  502    0 -0.90895007270E+03 -0.47394693600E+03  0.93759239562E+02  0.10293720065E+04  0.50400001928E-02 0. -1.
       -1    1    3    3    0  502  0.90895007270E+03  0.47394693600E+03 -0.72887444351E+03  0.12578051865E+04  0.50400001928E-02 0.  1.
</event>
<event>
 5   0  0.2512839E-04  0.1966282E+04  0.7818609E-02  0.8622549E-01
        2   -1    0    0  501    0  0.00000000000E+00  0.00000000000E+00  0.15711500473E+04  0.15711500473E+04  0.25500000920E-02 0.  1.
       -2   -1    0    0    0  501  0.00000000000E+00  0.00000000000E+00 -0.61519665292E+03  0.61519665293E+03  0.25500000920E-02 0. -1.
    10030    2    1    2    0    0  0.00000000000E+00  0.00000000000E+00  0.95595339440E+03  0.21863467003E+04  0.19662820249E+04 0.  0.
        3    1    3    3  502    0 -0.12869697886E+03 -0.36812584737E+03  0.14814717082E+04  0.15319392887E+04  0.10100000352E+00 0.  1.
       -3    1    3    3    0  502  0.12869697886E+03  0.36812584737E+03 -0.52551831383E+03  0.65440741151E+03  0.10100000352E+00 0. -1.
</event>
<event>
 5   0  0.1156733E-04  0.2086840E+04  0.7818609E-02  0.8567063E-01
       -1   -1    0    0    0  501  0.00000000000E+00  0.00000000000E+00  0.66287989660E+03  0.66287989662E+03  0.50400001928E-02 0.  1.
        1   -1    0    0  501    0  0.00000000000E+00  0.00000000000E+00 -0.16424169499E+04  0.16424169499E+04  0.50400001928E-02 0. -1.
    10030    2    1    2    0    0  0.00000000000E+00  0.00000000000E+00 -0.97953705329E+03  0.23052968465E+04  0.20868398865E+04 0.  0.
        2    1    3    3  502    0 -0.10346213887E+04  0.39634895078E+02 -0.34695715458E+03  0.10919668539E+04  0.25500000920E-02 0.  1.
       -2    1    3    3    0  502  0.10346213887E+04 -0.39634895078E+02 -0.63257989870E+03  0.12133299927E+04  0.25500000920E-02 0. -1.
</event>
<event>
 5   0  0.1156733E-04  0.2079849E+04  0.7818609E-02  0.8570172E-01
       -1   -1    0    0    0  501  0.00000000000E+00  0.00000000000E+00  0.10296334188E+04  0.10296334188E+04  0.50400001928E-02 0.  1.
        1   -1    0    0  501    0  0.00000000000E+00  0.00000000000E+00 -0.10503186841E+04  0.10503186841E+04  0.50400001928E-02 0. -1.
    10030    2    1    2    0    0  0.00000000000E+00  0.00000000000E+00 -0.20685265277E+02  0.20799521029E+04  0.20798492422E+04 0.  0.
        2    1    3    3  502    0  0.52687701631E+03  0.71052393362E+02 -0.90414037083E+03  0.10488649308E+04  0.25500000920E-02 0. -1.
       -2    1    3    3    0  502 -0.52687701631E+03 -0.71052393362E+02  0.88345510555E+03  0.10310871721E+04  0.25500000920E-02 0.  1.
</event>
<event>
 5   0  0.1130848E-04  0.2176198E+04  0.7818609E-02  0.8528401E-01
       -1   -1    0    0    0  501  0.00000000000E+00  0.00000000000E+00  0.13884235040E+04  0.13884235040E+04  0.50400001928E-02 0.  1.
        1   -1    0    0  501    0  0.00000000000E+00  0.00000000000E+00 -0.85273619001E+03  0.85273619002E+03  0.50400001928E-02 0. -1.
    10030    2    1    2    0    0  0.00000000000E+00  0.00000000000E+00  0.53568731396E+03  0.22411596940E+04  0.21761975728E+04 0.  0.
        5    1    3    3  502    0 -0.74175984149E+03 -0.50170828035E+03 -0.36868272021E+03  0.96843580025E+03  0.46999998093E+01 0. -1.
       -5    1    3    3    0  502  0.74175984149E+03  0.50170828035E+03  0.90437003418E+03  0.12727238938E+04  0.46999998093E+01 0.  1.
</event>
<event>
 5   0  0.2448804E-04  0.2094980E+04  0.7818609E-02  0.8563458E-01
       -2   -1    0    0    0  501  0.00000000000E+00  0.00000000000E+00  0.60849125029E+03  0.60849125030E+03  0.25500000920E-02 0.  1.
        2   -1    0    0  501    0  0.00000000000E+00  0.00000000000E+00 -0.18032056232E+04  0.18032056233E+04  0.25500000920E-02 0. -1.
    10030    2    1    2    0    0  0.00000000000E+00  0.00000000000E+00 -0.11947143730E+04  0.24116968735E+04  0.20949795648E+04 0.  0.
        2    1    3    3  502    0 -0.33739506735E+03 -0.64990647069E+03 -0.14596057614E+04  0.16329919874E+04  0.25500000920E-02 0. -1.
       -2    1    3    3    0  502  0.33739506735E+03  0.64990647069E+03  0.26489138842E+03  0.77870488619E+03  0.25500000920E-02 0.  1.
</event>
<event>
 5   0  0.2448804E-04  0.1324348E+04  0.7818609E-02  0.9010477E-01
       -2   -1    0    0    0  501  0.00000000000E+00  0.00000000000E+00  0.63425303074E+03  0.63425303075E+03  0.25500000920E-02 0.  1.
        2   -1    0    0  501    0  0.00000000000E+00  0.00000000000E+00 -0.69132402955E+03  0.69132402956E+03  0.25500000920E-02 0. -1.
    10030    2    1    2    0    0  0.00000000000E+00  0.00000000000E+00 -0.57070998812E+02  0.13255770603E+04  0.13243479316E+04 0.  0.
        2    1    3    3  502    0  0.58006105031E+03 -0.23706391675E+02 -0.34732999320E+03  0.67651381307E+03  0.25500000920E-02 0. -1.
       -2    1    3    3    0  502 -0.58006105031E+03  0.23706391675E+02  0.29025899439E+03  0.64906324724E+03  0.25500000920E-02 0.  1.
</event>
<event>
 5   0  0.1042395E-04  0.2086539E+04  0.7818609E-02  0.8567196E-01
        1   -1    0    0  501    0  0.00000000000E+00  0.00000000000E+00  0.15491704638E+04  0.15491704638E+04  0.50400001928E-02 0. -1.
       -1   -1    0    0    0  501  0.00000000000E+00  0.00000000000E+00 -0.70257659306E+03  0.70257659308E+03  0.50400001928E-02 0.  1.
    10030    2    1    2    0    0  0.00000000000E+00  0.00000000000E+00  0.84659387073E+03  0.22517470569E+04  0.20865386712E+04 0.  0.
        3    1    3    3  502    0 -0.45290054469E+03  0.75589646107E+02  0.14342618375E+04  0.15059680364E+04  0.10100000352E+00 0. -1.
       -3    1    3    3    0  502  0.45290054469E+03 -0.75589646107E+02 -0.58766796678E+03  0.74577902046E+03  0.10100000352E+00 0.  1.
</event>
<event>
 5   0  0.2467483E-04  0.2068343E+04  0.7818609E-02  0.8575318E-01
       -2   -1    0    0    0  501  0.00000000000E+00  0.00000000000E+00  0.13200896309E+04  0.13200896309E+04  0.25500000920E-02 0.  1.
        2   -1    0    0  501    0  0.00000000000E+00  0.00000000000E+00 -0.81018040777E+03  0.81018040777E+03  0.25500000920E-02 0. -1.
    10030    2    1    2    0    0  0.00000000000E+00  0.00000000000E+00  0.50990922314E+03  0.21302700387E+04  0.20683430619E+04 0.  0.
        4    1    3    3  502    0  0.25764632287E+03  0.45707180867E+03  0.11728232842E+04  0.12848394199E+04  0.12699999809E+01 0.  1.
       -4    1    3    3    0  502 -0.25764632287E+03 -0.45707180867E+03 -0.66291406107E+03  0.84543061881E+03  0.12699999809E+01 0. -1.
</event>
<event>
 5   0  0.1122711E-04  0.2422532E+04  0.7818609E-02  0.8431116E-01
       -1   -1    0    0    0  501  0.00000000000E+00  0.00000000000E+00  0.71204013551E+03  0.71204013553E+03  0.50400001928E-02 0. -1.
        1   -1    0    0  501    0  0.00000000000E+00  0.00000000000E+00 -0.20605092853E+04  0.20605092854E+04  0.50400001928E-02 0.  1.
    10030    2    1    2    0    0  0.00000000000E+00  0.00000000000E+00 -0.13484691498E+04  0.27725494209E+04  0.24225319901E+04 0.  0.
        1    1    3    3  502    0 -0.25631075332E+03 -0.11598060202E+04 -0.40262723657E+03  0.12541745885E+04  0.50400001928E-02 0.  1.
       -1    1    3    3    0  502  0.25631075332E+03  0.11598060202E+04 -0.94584191326E+03  0.15183748324E+04  0.50400001928E-02 0. -1.
</event>
<event>
 5   0  0.2448804E-04  0.2057846E+04  0.7818609E-02  0.8580043E-01
       -2   -1    0    0    0  501  0.00000000000E+00  0.00000000000E+00  0.63972791048E+03  0.63972791048E+03  0.25500000920E-02 0. -1.
        2   -1    0    0  501    0  0.00000000000E+00  0.00000000000E+00 -0.16548950335E+04  0.16548950335E+04  0.25500000920E-02 0.  1.
    10030    2    1    2    0    0  0.00000000000E+00  0.00000000000E+00 -0.10151671230E+04  0.22946229439E+04  0.20578460018E+04 0.  0.
        2    1    3    3  502    0  0.70280188863E+03 -0.15496351725E+03 -0.13275423939E+04  0.15100705262E+04  0.25500000920E-02 0.  1.
       -2    1    3    3    0  502 -0.70280188863E+03  0.15496351725E+03  0.31237527093E+03  0.78455241778E+03  0.25500000920E-02 0. -1.
</event>
<event>
 5   0  0.1042395E-04  0.1166645E+04  0.7818609E-02  0.9142564E-01
       -1   -1    0    0    0  501  0.00000000000E+00  0.00000000000E+00  0.25563103362E+03  0.25563103367E+03  0.50400001928E-02 0.  1.
        1   -1    0    0  501    0  0.00000000000E+00  0.00000000000E+00 -0.13310785267E+04  0.13310785267E+04  0.50400001928E-02 0. -1.
    10030    2    1    2    0    0  0.00000000000E+00  0.00000000000E+00 -0.10754474931E+04  0.15867095604E+04  0.11666447268E+04 0.  0.
        3    1    3    3  502    0  0.54906673470E+03  0.11978714585E+03 -0.32509362512E+03  0.64923733315E+03  0.10100000352E+00 0.  1.
       -3    1    3    3    0  502 -0.54906673470E+03 -0.11978714585E+03 -0.75035386794E+03  0.93747222721E+03  0.10100000352E+00 0. -1.
</event>
<event>
 5   0  0.2430898E-04  0.2186828E+04  0.7818609E-02  0.8523931E-01
       -2   -1    0    0    0  501  0.00000000000E+00  0.00000000000E+00  0.99637886836E+03  0.99637886836E+03  0.25500000920E-02 0. -1.
        2   -1    0    0  501    0  0.00000000000E+00  0.00000000000E+00 -0.11998990184E+04  0.11998990184E+04  0.25500000920E-02 0.  1.
    10030    2    1    2    0    0  0.00000000000E+00  0.00000000000E+00 -0.20352015003E+03  0.21962778867E+04  0.21868278634E+04 0.  0.
        1    1    3    3  502    0  0.52524042035E+03 -0.79459154041E+03 -0.64101686475E+03  0.11481096795E+04  0.50400001928E-02 0.  1.
       -1    1    3    3    0  502 -0.52524042035E+03  0.79459154041E+03  0.43749671472E+03  0.10481682072E+04  0.50400001928E-02 0. -1.
</event>
<event>
 5   0  0.8698750E-05  0.2089813E+04  0.7818609E-02  0.8565744E-01
        4   -1    0    0  501    0  0.00000000000E+00  0.00000000000E+00  0.11708328778E+04  0.11708335666E+04  0.12699999809E+01 0. -1.
       -4   -1    0    0    0  501  0.00000000000E+00  0.00000000000E+00 -0.93252249628E+03  0.93252336109E+03  0.12699999809E+01 0.  1.
    10030    2    1    2    0    0  0.00000000000E+00  0.00000000000E+00  0.23831038150E+03  0.21033569277E+04  0.20898130364E+04 0.  0.
        3    1    3    3  502    0 -0.46482306206E+03 -0.88176526222E+03  0.43464989707E+03  0.10874240203E+04  0.10100000352E+00 0. -1.
       -3    1    3    3    0  502  0.46482306206E+03  0.88176526222E+03 -0.19633951557E+03  0.10159329074E+04  0.10100000352E+00 0.  1.
</event>
<event>
 5   0  0.1122711E-04  0.2053682E+04  0.7818609E-02  0.8581926E-01
       -1   -1    0    0    0  501  0.00000000000E+00  0.00000000000E+00  0.94498821003E+03  0.94498821004E+03  0.50400001928E-02 0.  1.
        1   -1    0    0  501    0  0.00000000000E+00  0.00000000000E+00 -0.11157833567E+04  0.11157833568E+04  0.50400001928E-02 0. -1.
    10030    2    1    2    0    0  0.00000000000E+00  0.00000000000E+00 -0.17079514672E+03  0.20607715668E+04  0.20536816862E+04 0.  0.
        1    1    3    3  502    0 -0.28279472950E+03 -0.54842913188E+03  0.73820066688E+03  0.96212660099E+03  0.50400001928E-02 0.  1.
       -1    1    3    3    0  502  0.28279472950E+03  0.54842913188E+03 -0.90899581360E+03  0.10986449658E+04  0.50400001928E-02 0. -1.
</event>
<event>
 5   0  0.1186038E-04  0.2103621E+04  0.7818609E-02  0.8559650E-01
       -1   -1    0    0    0  501  0.00000000000E+00  0.00000000000E+00  0.56929015548E+03  0.56929015550E+03  0.50400001928E-02 0.  1.
        1   -1    0    0  501    0  0.00000000000E+00  0.00000000000E+00 -0.19433072573E+04  0.19433072573E+04  0.50400001928E-02 0. -1.
    10030    2    1    2    0    0  0.00000000000E+00  0.00000000000E+00 -0.13740171018E+04  0.25125974128E+04  0.21036213449E+04 0.  0.
        4    1    3    3  502    0 -0.12033304028E+03  0.10191783385E+04 -0.96224171712E+03  0.14068103146E+04  0.12699999809E+01 0. -1.
       -4    1    3    3    0  502  0.12033304028E+03 -0.10191783385E+04 -0.41177538470E+03  0.11057870982E+04  0.12699999809E+01 0.  1.
</event>
<event>
 5   0  0.1186038E-04  0.1993393E+04  0.7818609E-02  0.8609716E-01
       -1   -1    0    0    0  501  0.00000000000E+00  0.00000000000E+00  0.12256503337E+04  0.12256503337E+04  0.50400001928E-02 0.  1.
        1   -1    0    0  501    0  0.00000000000E+00  0.00000000000E+00 -0.81051157786E+03  0.81051157788E+03  0.50400001928E-02 0. -1.
    10030    2    1    2    0    0  0.00000000000E+00  0.00000000000E+00  0.41513875583E+03  0.20361619116E+04  0.19933928724E+04 0.  0.
        4    1    3    3  502    0  0.46063894221E+03 -0.49079633538E+03  0.95841406516E+03  0.11711654072E+04  0.12699999809E+01 0.  1.
       -4    1    3    3    0  502 -0.46063894221E+03  0.49079633538E+03 -0.54327530933E+03  0.86499650435E+03  0.12699999809E+01 0. -1.
</event>
<event>
 5   0  0.2448804E-04  0.2023113E+04  0.7818609E-02  0.8595890E-01
       -2   -1    0    0    0  501  0.00000000000E+00  0.00000000000E+00  0.79617447213E+03  0.79617447214E+03  0.25500000920E-02 0.  1.
        2   -1    0    0  501    0  0.00000000000E+00  0.00000000000E+00 -0.12852036682E+04  0.12852036682E+04  0.25500000920E-02 0. -1.
    10030    2    1    2    0    0  0.00000000000E+00  0.00000000000E+00 -0.48902919602E+03  0.20813781403E+04  0.20231128017E+04 0.  0.
        2    1    3    3  502    0  0.45816361346E+03  0.14164543522E+03 -0.11608218832E+04  0.12559796059E+04  0.25500000920E-02 0. -1.
       -2    1    3    3    0  502 -0.45816361346E+03 -0.14164543522E+03  0.67179268716E+03  0.82539853437E+03  0.25500000920E-02 0.  1.
</event>
<event>
 5   0  0.2448804E-04  0.2069475E+04  0.7818609E-02  0.8574810E-01
       -2   -1    0    0    0  501  0.00000000000E+00  0.00000000000E+00  0.13356711705E+04  0.13356711705E+04  0.25500000920E-02 0. -1.
        2   -1    0    0  501    0  0.00000000000E+00  0.00000000000E+00 -0.80160612467E+03  0.80160612467E+03  0.25500000920E-02 0.  1.
    10030    2    1    2    0    0  0.00000000000E+00  0.00000000000E+00  0.53406504587E+03  0.21372772952E+04  0.20694754803E+04 0.  0.
        2    1    3    3  502    0 -0.54096615593E+03 -0.87740310882E+03  0.17350278652E+03  0.10452673410E+04  0.25500000920E-02 0.  1.
       -2    1    3    3    0  502  0.54096615593E+03  0.87740310882E+03  0.36056225935E+03  0.10920099542E+04  0.25500000920E-02 0. -1.
</event>
<event>
 5   0  0.2467483E-04  0.1942044E+04  0.7818609E-02  0.8634207E-01
       -2   -1    0    0    0  501  0.00000000000E+00  0.00000000000E+00  0.53608004939E+03  0.53608004940E+03  0.25500000920E-02 0. -1.
        2   -1    0    0  501    0  0.00000000000E+00  0.00000000000E+00 -0.17588496480E+04  0.17588496480E+04  0.25500000920E-02 0.  1.
    10030    2    1    2    0    0  0.00000000000E+00  0.00000000000E+00 -0.12227695986E+04  0.22949296974E+04  0.19420444960E+04 0.  0.
        4    1    3    3  502    0 -0.15805173920E+03 -0.46058396300E+03 -0.16041354076E+04  0.16764158071E+04  0.12699999809E+01 0.  1.
       -4    1    3    3    0  502  0.15805173920E+03  0.46058396300E+03  0.38136580908E+03  0.61851389028E+03  0.12699999809E+01 0. -1.
</event>
<event>
 5   0  0.2579241E-04  0.2190962E+04  0.7818609E-02  0.8522199E-01
       -2   -1    0    0    0  501  0.00000000000E+00  0.00000000000E+00  0.81249111695E+03  0.81249111696E+03  0.25500000920E-02 0. -1.
        2   -1    0    0  501    0  0.00000000000E+00  0.00000000000E+00 -0.14770359611E+04  0.14770359611E+04  0.25500000920E-02 0.  1.
    10030    2    1    2    0    0  0.00000000000E+00  0.00000000000E+00 -0.66454484413E+03  0.22895270780E+04  0.21909619785E+04 0.  0.
        5    1    3    3  502    0 -0.22236768480E+03 -0.81900029697E+03  0.39160098496E+03  0.93465624435E+03  0.46999998093E+01 0. -1.
       -5    1    3    3    0  502  0.22236768480E+03  0.81900029697E+03 -0.10561458291E+04  0.13548708337E+04  0.46999998093E+01 0.  1.
</event>
<event>
 5   0  0.2448804E-04  0.2087064E+04  0.7818609E-02  0.8566963E-01
        2   -1    0    0  501    0  0.00000000000E+00  0.00000000000E+00  0.15008767771E+04  0.15008767771E+04  0.25500000920E-02 0. -1.
       -2   -1    0    0    0  501  0.00000000000E+00  0.00000000000E+00 -0.72554841631E+03  0.72554841632E+03  0.25500000920E-02 0.  1.
    10030    2    1    2    0    0  0.00000000000E+00  0.00000000000E+00  0.77532836075E+03  0.22264251934E+04  0.20870637448E+04 0.  0.
        2    1    3    3  502    0  0.53629501279E+03 -0.85140330755E+03  0.68263987629E+03  0.12159346749E+04  0.25500000920E-02 0.  1.
       -2    1    3    3    0  502 -0.53629501279E+03  0.85140330755E+03  0.92688484454E+02  0.10104905185E+04  0.25500000920E-02 0. -1.
</event>
<event>
 5   0  0.2430898E-04  0.2154605E+04  0.7818609E-02  0.8537564E-01
       -2   -1    0    0    0  501  0.00000000000E+00  0.00000000000E+00  0.45856143222E+03  0.45856143222E+03  0.25500000920E-02 0. -1.
        2   -1    0    0  501    0  0.00000000000E+00  0.00000000000E+00 -0.25309160142E+04  0.25309160142E+04  0.25500000920E-02 0.  1.
    10030    2    1    2    0    0  0.00000000000E+00  0.00000000000E+00 -0.20723545820E+04  0.29894774464E+04  0.21546048105E+04 0.  0.
        1    1    3    3  502    0 -0.59875464495E+03 -0.25454643545E+03 -0.22275392360E+04  0.23206102776E+04  0.50400001928E-02 0.  1.
       -1    1    3    3    0  502  0.59875464495E+03  0.25454643545E+03  0.15518465401E+03  0.66886716881E+03  0.50400001928E-02 0. -1.
</event>
<event>
 5   0  0.2467483E-04  0.1951819E+04  0.7818609E-02  0.8629484E-01
       -2   -1    0    0    0  501  0.00000000000E+00  0.00000000000E+00  0.71078073329E+03  0.71078073329E+03  0.25500000920E-02 0.  1.
        2   -1    0    0  501    0  0.00000000000E+00  0.00000000000E+00 -0.13399340671E+04  0.13399340671E+04  0.25500000920E-02 0. -1.
    10030    2    1    2    0    0  0.00000000000E+00  0.00000000000E+00 -0.62915333385E+03  0.20507148004E+04  0.19518189658E+04 0.  0.
        4    1    3    3  502    0 -0.54658571792E+03 -0.26460233476E+03 -0.11172402416E+04  0.12716122494E+04  0.12699999809E+01 0. -1.
       -4    1    3    3    0  502  0.54658571792E+03  0.26460233476E+03  0.48808690773E+03  0.77910255101E+03  0.12699999809E+01 0.  1.
</event>
<event>
 5   0  0.2467483E-04  0.2067341E+04  0.7818609E-02  0.8575768E-01
       -2   -1    0    0    0  501  0.00000000000E+00  0.00000000000E+00  0.87074989644E+03  0.87074989644E+03  0.25500000920E-02 0.  1.
        2   -1    0    0  501    0  0.00000000000E+00  0.00000000000E+00 -0.12270746537E+04  0.12270746537E+04  0.25500000920E-02 0. -1.
    10030    2    1    2    0    0  0.00000000000E+00  0.00000000000E+00 -0.35632475728E+03  0.20978245502E+04  0.20673414112E+04 0.  0.
        4    1    3    3  502    0  0.95497112224E+03 -0.89353182346E+02  0.21290263216E+03  0.98248815728E+03  0.12699999809E+01 0.  1.
       -4    1    3    3    0  502 -0.95497112224E+03  0.89353182346E+02 -0.56922738944E+03  0.11153363929E+04  0.12699999809E+01 0. -1.
</event>
<event>
 5   0  0.2579241E-04  0.2125525E+04  0.7818609E-02  0.8550082E-01
       -2   -1    0    0    0  501  0.00000000000E+00  0.00000000000E+00  0.10886153203E+04  0.10886153203E+04  0.25500000920E-02 0. -1.
        2   -1    0    0  501    0  0.00000000000E+00  0.00000000000E+00 -0.10375234700E+04  0.10375234700E+04  0.25500000920E-02 0.  1.
    10030    2    1    2    0    0  0.00000000000E+00  0.00000000000E+00  0.51091850294E+02  0.21261387904E+04  0.21255248243E+04 0.  0.
        5    1    3    3  502    0 -0.95793430229E+03 -0.15109285960E+01  0.48589777028E+03  0.10741318092E+04  0.46999998093E+01 0. -1.
       -5    1    3    3    0  502  0.95793430229E+03  0.15109285960E+01 -0.43480591998E+03  0.10520069812E+04  0.46999998093E+01 0.  1.
</event>
<event>
 5   0  0.1186038E-04  0.2154689E+04  0.7818609E-02  0.8537528E-01
       -1   -1    0    0    0  501  0.00000000000E+00  0.00000000000E+00  0.79533059237E+03  0.79533059238E+03  0.50400001928E-02 0.  1.
        1   -1    0    0  501    0  0.00000000000E+00  0.00000000000E+00 -0.14593572940E+04  0.14593572940E+04  0.50400001928E-02 0. -1.
    10030    2    1    2    0    0  0.00000000000E+00  0.00000000000E+00 -0.66402670159E+03  0.22546878863E+04  0.21546893058E+04 0.  0.
        4    1    3    3  502    0 -0.26043814544E+03 -0.67960058359E+02 -0.14236064557E+04  0.14488283372E+04  0.12699999809E+01 0. -1.
       -4    1    3    3    0  502  0.26043814544E+03  0.67960058359E+02  0.75957975412E+03  0.80585954911E+03  0.12699999809E+01 0.  1.
</event>
<event>
 5   0  0.2579241E-04  0.2122224E+04  0.7818609E-02  0.8551516E-01
        2   -1    0    0  501    0  0.00000000000E+00  0.00000000000E+00  0.18405579601E+04  0.18405579601E+04  0.25500000920E-02 0. -1.
       -2   -1    0    0    0  501  0.00000000000E+00  0.00000000000E+00 -0.61174856757E+03  0.61174856757E+03  0.25500000920E-02 0.  1.
    10030    2    1    2    0    0  0.00000000000E+00  0.00000000000E+00  0.12288093925E+04  0.24523065277E+04  0.21222240180E+04 0.  0.
        5    1    3    3  502    0 -0.62292487522E+03 -0.66681890961E+03 -0.11351723785E+02  0.91259728797E+03  0.46999998093E+01 0.  1.
       -5    1    3    3    0  502  0.62292487522E+03  0.66681890961E+03  0.12401611163E+04  0.15397092397E+04  0.46999998093E+01 0. -1.
</event>
<event>
 5   0  0.2512839E-04  0.2110857E+04  0.7818609E-02  0.8556476E-01
        2   -1    0    0  501    0  0.00000000000E+00  0.00000000000E+00  0.90646998360E+03  0.90646998361E+03  0.25500000920E-02 0.  1.
       -2   -1    0    0    0  501  0.00000000000E+00  0.00000000000E+00 -0.12288650494E+04  0.12288650494E+04  0.25500000920E-02 0. -1.
    10030    2    1    2    0    0  0.00000000000E+00  0.00000000000E+00 -0.32239506581E+03  0.21353350330E+04  0.21108569646E+04 0.  0.
        3    1    3    3  502    0  0.25697532005E+03 -0.71550499685E+03 -0.90176999065E+03  0.11794799031E+04  0.10100000352E+00 0. -1.
       -3    1    3    3    0  502 -0.25697532005E+03  0.71550499685E+03  0.57937492484E+03  0.95585512990E+03  0.10100000352E+00 0.  1.
</event>
<event>
 5   0  0.1156733E-04  0.2055128E+04  0.7818609E-02  0.8581272E-01
       -1   -1    0    0    0  501  0.00000000000E+00  0.00000000000E+00  0.15221124212E+04  0.15221124212E+04  0.50400001928E-02 0.  1.
        1   -1    0    0  501    0  0.00000000000E+00  0.00000000000E+00 -0.69369873253E+03  0.69369873255E+03  0.50400001928E-02 0. -1.
    10030    2    1    2    0    0  0.00000000000E+00  0.00000000000E+00  0.82841368867E+03  0.22158111537E+04  0.20551276918E+04 0.  0.
        2    1    3    3  502    0  0.98745813973E+03  0.88173040830E+01  0.10784977247E+03  0.99336946601E+03  0.25500000920E-02 0. -1.
       -2    1    3    3    0  502 -0.98745813973E+03 -0.88173040830E+01  0.72056391620E+03  0.12224416877E+04  0.25500000920E-02 0.  1.
</event>
<event>
 5   0  0.1122711E-04  0.2143126E+04  0.7818609E-02  0.8542480E-01
       -1   -1    0    0    0  501  0.00000000000E+00  0.00000000000E+00  0.85626041338E+03  0.85626041340E+03  0.50400001928E-02 0.  1.
        1   -1    0    0  501    0  0.00000000000E+00  0.00000000000E+00 -0.13410028428E+04  0.13410028428E+04  0.50400001928E-02 0. -1.
    10030    2    1    2    0    0  0.00000000000E+00  0.00000000000E+00 -0.48474242937E+03  0.21972632562E+04  0.21431263598E+04 0.  0.
        1    1    3    3  502    0  0.12391564688E+03 -0.46314776243E+03  0.74016170596E+03  0.88187317024E+03  0.50400001928E-02 0.  1.
       -1    1    3    3    0  502 -0.12391564688E+03  0.46314776243E+03 -0.12249041353E+04  0.13153900859E+04  0.50400001928E-02 0. -1.
</event>
<event>
 5   0  0.1130848E-04  0.2028932E+04  0.7818609E-02  0.8593212E-01
        1   -1    0    0  501    0  0.00000000000E+00  0.00000000000E+00  0.60001857895E+03  0.60001857897E+03  0.50400001928E-02 0.  1.
       -1   -1    0    0    0  501  0.00000000000E+00  0.00000000000E+00 -0.17151814962E+04  0.17151814962E+04  0.50400001928E-02 0. -1.
    10030    2    1    2    0    0  0.00000000000E+00  0.00000000000E+00 -0.11151629173E+04  0.23152000752E+04  0.20289315060E+04 0.  0.
        5    1    3    3  502    0 -0.52961004966E+03 -0.44296377446E+03 -0.14056947295E+04  0.15661109389E+04  0.46999998093E+01 0. -1.
       -5    1    3    3    0  502  0.52961004966E+03  0.44296377446E+03  0.29053181229E+03  0.74908913631E+03  0.46999998093E+01 0.  1.
</event>
<event>
 5   0  0.1130848E-04  0.2022575E+04  0.7818609E-02  0.8596138E-01
       -1   -1    0    0    0  501  0.00000000000E+00  0.00000000000E+00  0.10023190926E+04  0.10023190926E+04  0.50400001928E-02 0.  1.
        1   -1    0    0  501    0  0.00000000000E+00  0.00000000000E+00 -0.10203364372E+04  0.10203364372E+04  0.50400001928E-02 0. -1.
    10030    2    1    2    0    0  0.00000000000E+00  0.00000000000E+00 -0.18017344565E+02  0.20226555298E+04  0.20225752811E+04 0.  0.
        5    1    3    3  502    0 -0.11377015869E+03  0.71590567122E+03 -0.71417211375E+03  0.10176091967E+04  0.46999998093E+01 0.  1.
       -5    1    3    3    0  502  0.11377015869E+03 -0.71590567122E+03  0.69615476919E+03  0.10050463331E+04  0.46999998093E+01 0. -1.
</event>
<event>
 5   0  0.2430898E-04  0.2084517E+04  0.7818609E-02  0.8568095E-01
       -2   -1    0    0    0  501  0.00000000000E+00  0.00000000000E+00  0.87548267052E+03  0.87548267052E+03  0.25500000920E-02 0.  1.
        2   -1    0    0  501    0  0.00000000000E+00  0.00000000000E+00 -0.12408039803E+04  0.12408039803E+04  0.25500000920E-02 0. -1.
    10030    2    1    2    0    0  0.00000000000E+00  0.00000000000E+00 -0.36532130979E+03  0.21162866508E+04  0.20845166176E+04 0.  0.
        1    1    3    3  502    0 -0.10144640314E+04 -0.13246154155E+03  0.19418336906E+02  0.10232596947E+04  0.50400001928E-02 0.  1.
       -1    1    3    3    0  502  0.10144640314E+04  0.13246154155E+03 -0.38473964669E+03  0.10930269561E+04  0.50400001928E-02 0. -1.
</event>
<event>
 5   0  0.2430898E-04  0.2086503E+04  0.7818609E-02  0.8567212E-01
        2   -1    0    0  501    0  0.00000000000E+00  0.00000000000E+00  0.86346108662E+03  0.86346108662E+03  0.25500000920E-02 0.  1.
       -2   -1    0    0    0  501  0.00000000000E+00  0.00000000000E+00 -0.12604782247E+04  0.12604782247E+04  0.25500000920E-02 0. -1.
    10030    2    1    2    0    0  0.00000000000E+00  0.00000000000E+00 -0.39701713805E+03  0.21239393113E+04  0.20865031968E+04 0.  0.
        1    1    3    3  502    0  0.23469704312E+03 -0.86078052392E+03  0.35188477785E+03  0.95908743570E+03  0.50400001928E-02 0.  1.
       -1    1    3    3    0  502 -0.23469704312E+03  0.86078052392E+03 -0.74890191589E+03  0.11648518756E+04  0.50400001928E-02 0. -1.
</event>
<event>
 5   0  0.1122711E-04  0.2093356E+04  0.7818609E-02  0.8564176E-01
        1   -1    0    0  501    0  0.00000000000E+00  0.00000000000E+00  0.28439033059E+04  0.28439033059E+04  0.50400001928E-02 0.  1.
       -1   -1    0    0    0  501  0.00000000000E+00  0.00000000000E+00 -0.38522238025E+03  0.38522238028E+03  0.50400001928E-02 0. -1.
    10030    2    1    2    0    0  0.00000000000E+00  0.00000000000E+00  0.24586809257E+04  0.32291256862E+04  0.20933563488E+04 0.  0.
        1    1    3    3  502    0  0.98731890084E+03 -0.14485163532E+03  0.17165415344E+04  0.19855214548E+04  0.50400001928E-02 0.  1.
       -1    1    3    3    0  502 -0.98731890084E+03  0.14485163532E+03  0.74213939128E+03  0.12436042314E+04  0.50400001928E-02 0. -1.
</event>
<event>
 5   0  0.2448804E-04  0.1756338E+04  0.7818609E-02  0.8729870E-01
       -2   -1    0    0    0  501  0.00000000000E+00  0.00000000000E+00  0.76031067518E+03  0.76031067519E+03  0.25500000920E-02 0.  1.
        2   -1    0    0  501    0  0.00000000000E+00  0.00000000000E+00 -0.10142963905E+04  0.10142963905E+04  0.25500000920E-02 0. -1.
    10030    2    1    2    0    0  0.00000000000E+00  0.00000000000E+00 -0.25398571527E+03  0.17746070656E+04  0.17563375228E+04 0.  0.
        2    1    3    3  502    0 -0.74113428461E+03  0.18212381858E+03  0.31195824733E+03  0.82447987314E+03  0.25500000920E-02 0.  1.
       -2    1    3    3    0  502  0.74113428461E+03 -0.18212381858E+03 -0.56594396260E+03  0.95012719251E+03  0.25500000920E-02 0. -1.
</event>
<event>
 5   0  0.8698750E-05  0.2140472E+04  0.7818609E-02  0.8543622E-01
        3   -1    0    0  501    0  0.00000000000E+00  0.00000000000E+00  0.16883430747E+04  0.16883430778E+04  0.10100000352E+00 0.  1.
       -3   -1    0    0    0  501  0.00000000000E+00  0.00000000000E+00 -0.67841958838E+03  0.67841959590E+03  0.10100000352E+00 0. -1.
    10030    2    1    2    0    0  0.00000000000E+00  0.00000000000E+00  0.10099234864E+04  0.23667626737E+04  0.21404719351E+04 0.  0.
        3    1    3    3  502    0 -0.63498338054E+03 -0.24342839505E+02 -0.44724781623E+03  0.77706311630E+03  0.10100000352E+00 0. -1.
       -3    1    3    3    0  502  0.63498338054E+03  0.24342839505E+02  0.14571713026E+04  0.15896995574E+04  0.10100000352E+00 0.  1.
</event>
<event>
 5   0  0.2579241E-04  0.2111899E+04  0.7818609E-02  0.8556020E-01
        2   -1    0    0  501    0  0.00000000000E+00  0.00000000000E+00  0.86343611205E+03  0.86343611206E+03  0.25500000920E-02 0. -1.
       -2   -1    0    0    0  501  0.00000000000E+00  0.00000000000E+00 -0.12913864677E+04  0.12913864677E+04  0.25500000920E-02 0.  1.
    10030    2    1    2    0    0  0.00000000000E+00  0.00000000000E+00 -0.42795035565E+03  0.21548225798E+04  0.21118993450E+04 0.  0.
        5    1    3    3  502    0 -0.10018101852E+04  0.30163199332E+03 -0.68236142493E+02  0.10484673422E+04  0.46999998093E+01 0. -1.
       -5    1    3    3    0  502  0.10018101852E+04 -0.30163199332E+03 -0.35971421316E+03  0.11063552376E+04  0.46999998093E+01 0.  1.
</event>
<event>
 5   0  0.2579241E-04  0.1996379E+04  0.7818609E-02  0.8608315E-01
        2   -1    0    0  501    0  0.00000000000E+00  0.00000000000E+00  0.23151837654E+04  0.23151837654E+04  0.25500000920E-02 0.  1.
       -2   -1    0    0    0  501  0.00000000000E+00  0.00000000000E+00 -0.43036861911E+03  0.43036861912E+03  0.25500000920E-02 0. -1.
    10030    2    1    2    0    0  0.00000000000E+00  0.00000000000E+00  0.18848151463E+04  0.27455523845E+04  0.19963791625E+04 0.  0.
        5    1    3    3  502    0 -0.94446538053E+03 -0.76436701916E+02  0.13740372242E+04  0.16690889155E+04  0.46999998093E+01 0. -1.
       -5    1    3    3    0  502  0.94446538053E+03  0.76436701916E+02  0.51077792211E+03  0.10764634690E+04  0.46999998093E+01 0.  1.
</event>
<event>
 5   0  0.1122711E-04  0.2022001E+04  0.7818609E-02  0.8596403E-01
       -1   -1    0    0    0  501  0.00000000000E+00  0.00000000000E+00  0.44158510357E+03  0.44158510360E+03  0.50400001928E-02 0.  1.
        1   -1    0    0  501    0  0.00000000000E+00  0.00000000000E+00 -0.23146656616E+04  0.23146656617E+04  0.50400001928E-02 0. -1.
    10030    2    1    2    0    0  0.00000000000E+00  0.00000000000E+00 -0.18730805581E+04  0.27562507653E+04  0.20220008665E+04 0.  0.
        1    1    3    3  502    0 -0.72969402881E+03  0.33368656394E+03 -0.17749726946E+04  0.19479035307E+04  0.50400001928E-02 0. -1.
       -1    1    3    3    0  502  0.72969402881E+03 -0.33368656394E+03 -0.98107863512E+02  0.80834723451E+03  0.50400001928E-02 0.  1.
</event>
<event>
 5   0  0.1186038E-04  0.2113349E+04  0.7818609E-02  0.8555386E-01
       -1   -1    0    0    0  501  0.00000000000E+00  0.00000000000E+00  0.55530876057E+03  0.55530876059E+03  0.50400001928E-02 0. -1.
        1   -1    0    0  501    0  0.00000000000E+00  0.00000000000E+00 -0.20107027848E+04  0.20107027849E+04  0.50400001928E-02 0.  1.
    10030    2    1    2    0    0  0.00000000000E+00  0.00000000000E+00 -0.14553940243E+04  0.25660115454E+04  0.21133488793E+04 0.  0.
        4    1    3    3  502    0  0.45018281354E+03 -0.39373831888E+02  0.43205947968E+03  0.62521346045E+03  0.12699999809E+01 0. -1.
       -4    1    3    3    0  502 -0.45018281354E+03  0.39373831888E+02 -0.18874535040E+04  0.19407980850E+04  0.12699999809E+01 0.  1.
</event>
<event>
 5   0  0.2512839E-04  0.2082646E+04  0.7818609E-02  0.8568927E-01
        2   -1    0    0  501    0  0.00000000000E+00  0.00000000000E+00  0.13728376678E+04  0.13728376678E+04  0.25500000920E-02 0.  1.
       -2   -1    0    0    0  501  0.00000000000E+00  0.00000000000E+00 -0.78986261457E+03  0.78986261457E+03  0.25500000920E-02 0. -1.
    10030    2    1    2    0    0  0.00000000000E+00  0.00000000000E+00  0.58297505320E+03  0.21627002823E+04  0.20826455768E+04 0.  0.
        3    1    3    3  502    0  0.83126106063E+03 -0.45379512583E+02 -0.35809640835E+03  0.90624902701E+03  0.10100000352E+00 0. -1.
       -3    1    3    3    0  502 -0.83126106063E+03  0.45379512583E+02  0.94107146155E+03  0.12564512553E+04  0.10100000352E+00 0.  1.
</event>
<event>
 5   0  0.2430898E-04  0.2100282E+04  0.7818609E-02  0.8561119E-01
        2   -1    0    0  501    0  0.00000000000E+00  0.00000000000E+00  0.14649209257E+04  0.14649209257E+04  0.25500000920E-02 0. -1.
       -2   -1    0    0    0  501  0.00000000000E+00  0.00000000000E+00 -0.75280260135E+03  0.75280260135E+03  0.25500000920E-02 0.  1.
    10030    2    1    2    0    0  0.00000000000E+00  0.00000000000E+00  0.71211832432E+03  0.22177235270E+04  0.21002821559E+04 0.  0.
        1    1    3    3  502    0  0.70546353157E+03 -0.74346308089E+03  0.59772378247E+03  0.11864610685E+04  0.50400001928E-02 0. -1.
       -1    1    3    3    0  502 -0.70546353157E+03  0.74346308089E+03  0.11439454185E+03  0.10312624585E+04  0.50400001928E-02 0.  1.
</event>
<event>
 5   0  0.2579241E-04  0.2068491E+04  0.7818609E-02  0.8575252E-01
        2   -1    0    0  501    0  0.00000000000E+00  0.00000000000E+00  0.70741571321E+03  0.70741571322E+03  0.25500000920E-02 0. -1.
       -2   -1    0    0    0  501  0.00000000000E+00  0.00000000000E+00 -0.15120719301E+04  0.15120719301E+04  0.25500000920E-02 0.  1.
    10030    2    1    2    0    0  0.00000000000E+00  0.00000000000E+00 -0.80465621690E+03  0.22194876433E+04  0.20684906989E+04 0.  0.
        5    1    3    3  502    0  0.10042784373E+04 -0.20530017177E+03 -0.54991130602E+03  0.11632488447E+04  0.46999998093E+01 0.  1.
       -5    1    3    3    0  502 -0.10042784373E+04  0.20530017177E+03 -0.25474491089E+03  0.10562387987E+04  0.46999998093E+01 0. -1.
</event>
<event>
 5   0  0.1156733E-04  0.2188713E+04  0.7818609E-02  0.8523141E-01
        1   -1    0    0  501    0  0.00000000000E+00  0.00000000000E+00  0.10173076147E+04  0.10173076147E+04  0.50400001928E-02 0. -1.
       -1   -1    0    0    0  501  0.00000000000E+00  0.00000000000E+00 -0.11772413270E+04  0.11772413270E+04  0.50400001928E-02 0.  1.
    10030    2    1    2    0    0  0.00000000000E+00  0.00000000000E+00 -0.15993371229E+03  0.21945489416E+04  0.21887133812E+04 0.  0.
        2    1    3    3  502    0 -0.29019881976E+03 -0.81676690475E+03 -0.74979968999E+03  0.11460903572E+04  0.25500000920E-02 0. -1.
       -2    1    3    3    0  502  0.29019881976E+03  0.81676690475E+03  0.58986597769E+03  0.10484585845E+04  0.25500000920E-02 0.  1.
</event>
<event>
 5   0  0.2512839E-04  0.1529516E+04  0.7818609E-02  0.8865059E-01
       -2   -1    0    0    0  501  0.00000000000E+00  0.00000000000E+00  0.79981375912E+03  0.79981375912E+03  0.25500000920E-02 0.  1.
        2   -1    0    0  501    0  0.00000000000E+00  0.00000000000E+00 -0.73123871313E+03  0.73123871313E+03  0.25500000920E-02 0. -1.
    10030    2    1    2    0    0  0.00000000000E+00  0.00000000000E+00  0.68575045992E+02  0.15310524723E+04  0.15295159809E+04 0.  0.
        3    1    3    3  502    0 -0.61057698365E+03  0.45978560792E+03  0.88117002553E+01  0.76438518724E+03  0.10100000352E+00 0.  1.
       -3    1    3    3    0  502  0.61057698365E+03 -0.45978560792E+03  0.59763345737E+02  0.76666728501E+03  0.10100000352E+00 0. -1.
</event>
<event>
 5   0  0.2467483E-04  0.2086714E+04  0.7818609E-02  0.8567118E-01
       -2   -1    0    0    0  501  0.00000000000E+00  0.00000000000E+00  0.25521233320E+04  0.25521233320E+04  0.25500000920E-02 0. -1.
        2   -1    0    0  501    0  0.00000000000E+00  0.00000000000E+00 -0.42654455750E+03  0.42654455750E+03  0.25500000920E-02 0.  1.
    10030    2    1    2    0    0  0.00000000000E+00  0.00000000000E+00  0.21255787745E+04  0.29786678895E+04  0.20867144676E+04 0.  0.
        4    1    3    3  502    0 -0.62979196096E+03 -0.14235133478E+03  0.22326760367E+04  0.23241655953E+04  0.12699999809E+01 0. -1.
       -4    1    3    3    0  502  0.62979196096E+03  0.14235133478E+03 -0.10709726223E+03  0.65450229418E+03  0.12699999809E+01 0.  1.
</event>
<event>
 5   0  0.8698750E-05  0.2237833E+04  0.7818609E-02  0.8502844E-01
        3   -1    0    0  501    0  0.00000000000E+00  0.00000000000E+00  0.23881766680E+04  0.23881766701E+04  0.10100000352E+00 0. -1.
       -3   -1    0    0    0  501  0.00000000000E+00  0.00000000000E+00 -0.52423830492E+03  0.52423831465E+03  0.10100000352E+00 0.  1.
    10030    2    1    2    0    0  0.00000000000E+00  0.00000000000E+00  0.18639383631E+04  0.29124149848E+04  0.22378326171E+04 0.  0.
        2    1    3    3  502    0  0.72500864950E+02 -0.88403579755E+03  0.18196249811E+04  0.20243050014E+04  0.25500000920E-02 0. -1.
       -2    1    3    3    0  502 -0.72500864950E+02  0.88403579755E+03  0.44313381972E+02  0.88810998339E+03  0.25500000920E-02 0.  1.
</event>
<event>
 5   0  0.2512839E-04  0.2156140E+04  0.7818609E-02  0.8536909E-01
        2   -1    0    0  501    0  0.00000000000E+00  0.00000000000E+00  0.18053022806E+04  0.18053022806E+04  0.25500000920E-02 0. -1.
       -2   -1    0    0    0  501  0.00000000000E+00  0.00000000000E+00 -0.64378946288E+03  0.64378946289E+03  0.25500000920E-02 0.  1.
    10030    2    1    2    0    0  0.00000000000E+00  0.00000000000E+00  0.11615128178E+04  0.24490917435E+04  0.21561396853E+04 0.  0.
        3    1    3    3  502    0 -0.78167601430E+03  0.45295716598E+03  0.12489398349E+04  0.15414403352E+04  0.10100000352E+00 0. -1.
       -3    1    3    3    0  502  0.78167601430E+03 -0.45295716598E+03 -0.87427017124E+02  0.90765140835E+03  0.10100000352E+00 0.  1.
</event>
<event>
 5   0  0.2467483E-04  0.2131280E+04  0.7818609E-02  0.8547588E-01
       -2   -1    0    0    0  501  0.00000000000E+00  0.00000000000E+00  0.21226448155E+04  0.21226448155E+04  0.25500000920E-02 0.  1.
        2   -1    0    0  501    0  0.00000000000E+00  0.00000000000E+00 -0.53498740972E+03  0.53498740973E+03  0.25500000920E-02 0. -1.
    10030    2    1    2    0    0  0.00000000000E+00  0.00000000000E+00  0.15876574057E+04  0.26576322252E+04  0.21312796640E+04 0.  0.
        4    1    3    3  502    0 -0.27425123409E+03 -0.10250030547E+04  0.91690386510E+03  0.14023406548E+04  0.12699999809E+01 0.  1.
       -4    1    3    3    0  502  0.27425123409E+03  0.10250030547E+04  0.67075354063E+03  0.12552915704E+04  0.12699999809E+01 0. -1.
</event>
<event>
 5   0  0.2430898E-04  0.2181472E+04  0.7818609E-02  0.8526179E-01
        2   -1    0    0  501    0  0.00000000000E+00  0.00000000000E+00  0.16346929449E+04  0.16346929449E+04  0.25500000920E-02 0. -1.
       -2   -1    0    0    0  501  0.00000000000E+00  0.00000000000E+00 -0.72778528461E+03  0.72778528461E+03  0.25500000920E-02 0.  1.
    10030    2    1    2    0    0  0.00000000000E+00  0.00000000000E+00  0.90690766032E+03  0.23624782295E+04  0.21814724112E+04 0.  0.
        1    1    3    3  502    0 -0.25007437625E+03  0.46471437824E+03 -0.58032360516E+03  0.78439284401E+03  0.50400001928E-02 0.  1.
       -1    1    3    3    0  502  0.25007437625E+03 -0.46471437824E+03  0.14872312655E+04  0.15780853855E+04  0.50400001928E-02 0. -1.
</event>
<event>
 5   0  0.1186038E-04  0.2050169E+04  0.7818609E-02  0.8583518E-01
        1   -1    0    0  501    0  0.00000000000E+00  0.00000000000E+00  0.13351655548E+04  0.13351655548E+04  0.50400001928E-02 0.  1.
       -1   -1    0    0    0  501  0.00000000000E+00  0.00000000000E+00 -0.78701703901E+03  0.78701703902E+03  0.50400001928E-02 0. -1.
    10030    2    1    2    0    0  0.00000000000E+00  0.00000000000E+00  0.54814851581E+03  0.21221825939E+04  0.20501688141E+04 0.  0.
        4    1    3    3  502    0 -0.99015748016E+03 -0.15759201404E+03  0.49499384268E+03  0.11181536547E+04  0.12699999809E+01 0. -1.
       -4    1    3    3    0  502  0.99015748016E+03  0.15759201404E+03  0.53154673138E+02  0.10040289391E+04  0.12699999809E+01 0.  1.
</event>
<event>
 5   0  0.2512839E-04  0.2097949E+04  0.7818609E-02  0.8562147E-01
       -2   -1    0    0    0  501  0.00000000000E+00  0.00000000000E+00  0.51002919750E+03  0.51002919750E+03  0.25500000920E-02 0.  1.
        2   -1    0    0  501    0  0.00000000000E+00  0.00000000000E+00 -0.21574210457E+04  0.21574210457E+04  0.25500000920E-02 0. -1.
    10030    2    1    2    0    0  0.00000000000E+00  0.00000000000E+00 -0.16473918482E+04  0.26674502432E+04  0.20979492126E+04 0.  0.
        3    1    3    3  502    0  0.10470396535E+03 -0.94544076430E+03 -0.13859132578E+04  0.16809451887E+04  0.10100000352E+00 0.  1.
       -3    1    3    3    0  502 -0.10470396535E+03  0.94544076430E+03 -0.26147859046E+03  0.98650505453E+03  0.10100000352E+00 0. -1.
</event>
<event>
 5   0  0.2579241E-04  0.2119367E+04  0.7818609E-02  0.8552760E-01
        2   -1    0    0  501    0  0.00000000000E+00  0.00000000000E+00  0.11657539068E+04  0.11657539068E+04  0.25500000920E-02 0.  1.
       -2   -1    0    0    0  501  0.00000000000E+00  0.00000000000E+00 -0.96326410087E+03  0.96326410087E+03  0.25500000920E-02 0. -1.
    10030    2    1    2    0    0  0.00000000000E+00  0.00000000000E+00  0.20248980595E+03  0.21290180077E+04  0.21193667817E+04 0.  0.
        5    1    3    3  502    0  0.71068158851E+03 -0.64179857983E+03 -0.35462009725E+03  0.10211519185E+04  0.46999998093E+01 0.  1.
       -5    1    3    3    0  502 -0.71068158851E+03  0.64179857983E+03  0.55710990320E+03  0.11078660892E+04  0.46999998093E+01 0. -1.
</event>
<event>
 5   0  0.1042395E-04  0.2099409E+04  0.7818609E-02  0.8561504E-01
       -1   -1    0    0    0  501  0.00000000000E+00  0.00000000000E+00  0.72944013804E+03  0.72944013806E+03  0.50400001928E-02 0.  1.
        1   -1    0    0  501    0  0.00000000000E+00  0.00000000000E+00 -0.15105824500E+04  0.15105824500E+04  0.50400001928E-02 0. -1.
    10030    2    1    2    0    0  0.00000000000E+00  0.00000000000E+00 -0.78114231196E+03  0.22400225881E+04  0.20994089367E+04 0.  0.
        3    1    3    3  502    0  0.67640487342E+03  0.80206450741E+03 -0.42511939135E+03  0.11320589799E+04  0.10100000352E+00 0. -1.
       -3    1    3    3    0  502 -0.67640487342E+03 -0.80206450741E+03 -0.35602292061E+03  0.11079636082E+04  0.10100000352E+00 0.  1.
</event>
<event>
 5   0  0.1186038E-04  0.2067988E+04  0.7818609E-02  0.8575478E-01
        1   -1    0    0  501    0  0.00000000000E+00  0.00000000000E+00  0.19476639551E+04  0.19476639551E+04  0.50400001928E-02 0.  1.
       -1   -1    0    0    0  501  0.00000000000E+00  0.00000000000E+00 -0.54893631851E+03  0.54893631853E+03  0.50400001928E-02 0. -1.
    10030    2    1    2    0    0  0.00000000000E+00  0.00000000000E+00  0.13987276365E+04  0.24966002736E+04  0.20679878928E+04 0.  0.
        4    1    3    3  502    0  0.20641439332E+01 -0.55348030164E+03 -0.35503656863E+03  0.65756922294E+03  0.12699999809E+01 0. -1.
       -4    1    3    3    0  502 -0.20641439332E+01  0.55348030164E+03  0.17537642052E+04  0.18390310506E+04  0.12699999809E+01 0.  1.
</event>
<event>
 5   0  0.2467483E-04  0.2069156E+04  0.7818609E-02  0.8574953E-01
        2   -1    0    0  501    0  0.00000000000E+00  0.00000000000E+00  0.33573658837E+04  0.33573658837E+04  0.25500000920E-02 0. -1.
       -2   -1    0    0    0  501  0.00000000000E+00  0.00000000000E+00 -0.31880697045E+03  0.31880697046E+03  0.25500000920E-02 0.  1.
    10030    2    1    2    0    0  0.00000000000E+00  0.00000000000E+00  0.30385589133E+04  0.36761728542E+04  0.20691560077E+04 0.  0.
        4    1    3    3  502    0 -0.26320127719E+02  0.42532212058E+03 -0.15564236685E+03  0.45367148316E+03  0.12699999809E+01 0.  1.
       -4    1    3    3    0  502  0.26320127719E+02 -0.42532212058E+03  0.31942012801E+04  0.32225013710E+04  0.12699999809E+01 0. -1.
</event>
<event>
 5   0  0.1042395E-04  0.2160220E+04  0.7818609E-02  0.8535170E-01
       -1   -1    0    0    0  501  0.00000000000E+00  0.00000000000E+00  0.91063987613E+03  0.91063987615E+03  0.50400001928E-02 0. -1.
        1   -1    0    0  501    0  0.00000000000E+00  0.00000000000E+00 -0.12811185121E+04  0.12811185121E+04  0.50400001928E-02 0.  1.
    10030    2    1    2    0    0  0.00000000000E+00  0.00000000000E+00 -0.37047863595E+03  0.21917583882E+04  0.21602199917E+04 0.  0.
        3    1    3    3  502    0  0.36213020825E+03 -0.84311485737E+03 -0.76334447420E+03  0.11935978162E+04  0.10100000352E+00 0.  1.
       -3    1    3    3    0  502 -0.36213020825E+03  0.84311485737E+03  0.39286583825E+03  0.99816057200E+03  0.10100000352E+00 0. -1.
</event>
<event>
 5   0  0.2579241E-04  0.2101502E+04  0.7818609E-02  0.8560582E-01
        2   -1    0    0  501    0  0.00000000000E+00  0.00000000000E+00  0.14007755721E+04  0.14007755722E+04  0.25500000920E-02 0.  1.
       -2   -1    0    0    0  501  0.00000000000E+00  0.00000000000E+00 -0.78819039838E+03  0.78819039838E+03  0.25500000920E-02 0. -1.
    10030    2    1    2    0    0  0.00000000000E+00  0.00000000000E+00  0.61258517377E+03  0.21889659705E+04  0.21015021830E+04 0.  0.
        5    1    3    3  502    0 -0.69444756360E+03  0.63090951375E+03 -0.18641831817E+03  0.95659715266E+03  0.46999998093E+01 0. -1.
       -5    1    3    3    0  502  0.69444756360E+03 -0.63090951375E+03  0.79900349194E+03  0.12323688179E+04  0.46999998093E+01 0.  1.
</event>
<event>
 5   0  0.2448804E-04  0.2078704E+04  0.7818609E-02  0.8570683E-01
       -2   -1    0    0    0  501  0.00000000000E+00  0.00000000000E+00  0.10844911827E+04  0.10844911827E+04  0.25500000920E-02 0. -1.
        2   -1    0    0  501    0  0.00000000000E+00  0.00000000000E+00 -0.99609127415E+03  0.99609127416E+03  0.25500000920E-02 0.  1.
    10030    2    1    2    0    0  0.00000000000E+00  0.00000000000E+00  0.88399908499E+02  0.20805824568E+04  0.20787036383E+04 0.  0.
        2    1    3    3  502    0 -0.63713883642E+03  0.68491485090E+03 -0.40919728278E+03  0.10210272602E+04  0.25500000920E-02 0. -1.
       -2    1    3    3    0  502  0.63713883642E+03 -0.68491485090E+03  0.49759719128E+03  0.10595551966E+04  0.25500000920E-02 0.  1.
</event>
<event>
 5   0  0.2579241E-04  0.1758490E+04  0.7818609E-02  0.8728691E-01
       -2   -1    0    0    0  501  0.00000000000E+00  0.00000000000E+00  0.54796080071E+03  0.54796080071E+03  0.25500000920E-02 0.  1.
        2   -1    0    0  501    0  0.00000000000E+00  0.00000000000E+00 -0.14108156785E+04  0.14108156785E+04  0.25500000920E-02 0. -1.
    10030    2    1    2    0    0  0.00000000000E+00  0.00000000000E+00 -0.86285487778E+03  0.19587764792E+04  0.17584899077E+04 0.  0.
        5    1    3    3  502    0 -0.31160728059E+03 -0.31347860432E+03 -0.12780489376E+04  0.13523309911E+04  0.46999998093E+01 0. -1.
       -5    1    3    3    0  502  0.31160728059E+03  0.31347860432E+03  0.41519405982E+03  0.60644548806E+03  0.46999998093E+01 0.  1.
</event>
<event>
 5   0  0.1130848E-04  0.2052838E+04  0.7818609E-02  0.8582308E-01
       -1   -1    0    0    0  501  0.00000000000E+00  0.00000000000E+00  0.15286830931E+04  0.15286830931E+04  0.50400001928E-02 0. -1.
        1   -1    0    0  501    0  0.00000000000E+00  0.00000000000E+00 -0.68917877917E+03  0.68917877919E+03  0.50400001928E-02 0.  1.
    10030    2    1    2    0    0  0.00000000000E+00  0.00000000000E+00  0.83950431396E+03  0.22178618723E+04  0.20528379847E+04 0.  0.
        5    1    3    3  502    0 -0.63555641305E+03 -0.62494201749E+03 -0.13011063338E+03  0.90079706167E+03  0.46999998093E+01 0.  1.
       -5    1    3    3    0  502  0.63555641305E+03  0.62494201749E+03  0.96961494734E+03  0.13170648107E+04  0.46999998093E+01 0. -1.
</event>
<event>
 5   0  0.1186038E-04  0.2069124E+04  0.7818609E-02  0.8574968E-01
        1   -1    0    0  501    0  0.00000000000E+00  0.00000000000E+00  0.22086035283E+04  0.22086035283E+04  0.50400001928E-02 0.  1.
       -1   -1    0    0    0  501  0.00000000000E+00  0.00000000000E+00 -0.48461321319E+03  0.48461321321E+03  0.50400001928E-02 0. -1.
    10030    2    1    2    0    0  0.00000000000E+00  0.00000000000E+00  0.17239903151E+04  0.26932167415E+04  0.20691239234E+04 0.  0.
        4    1    3    3  502    0  0.72467551739E+03 -0.30123659169E+03 -0.15435742592E+02  0.78494456156E+03  0.12699999809E+01 0. -1.
       -4    1    3    3    0  502 -0.72467551739E+03  0.30123659169E+03  0.17394260577E+04  0.19082721800E+04  0.12699999809E+01 0.  1.
</event>
<event>
 5   0  0.2512839E-04  0.2107924E+04  0.7818609E-02  0.8557761E-01
       -2   -1    0    0    0  501  0.00000000000E+00  0.00000000000E+00  0.10851994044E+04  0.10851994044E+04  0.25500000920E-02 0.  1.
        2   -1    0    0  501    0  0.00000000000E+00  0.00000000000E+00 -0.10236234881E+04  0.10236234881E+04  0.25500000920E-02 0. -1.
    10030    2    1    2    0    0  0.00000000000E+00  0.00000000000E+00  0.61575916356E+02  0.21088228925E+04  0.21079237174E+04 0.  0.
        3    1    3    3  502    0 -0.68115996829E+03  0.36418120341E+03 -0.68661537318E+03  0.10334638514E+04  0.10100000352E+00 0. -1.
       -3    1    3    3    0  502  0.68115996829E+03 -0.36418120341E+03  0.74819128953E+03  0.10753590411E+04  0.10100000352E+00 0.  1.
</event>
<event>
 5   0  0.1156733E-04  0.2039520E+04  0.7818609E-02  0.8588364E-01
        1   -1    0    0  501    0  0.00000000000E+00  0.00000000000E+00  0.12409175817E+04  0.12409175817E+04  0.50400001928E-02 0. -1.
       -1   -1    0    0    0  501  0.00000000000E+00  0.00000000000E+00 -0.83801694680E+03  0.83801694682E+03  0.50400001928E-02 0.  1.
    10030    2    1    2    0    0  0.00000000000E+00  0.00000000000E+00  0.40290063491E+03  0.20789345285E+04  0.20395195151E+04 0.  0.
        2    1    3    3  502    0 -0.84995755768E+03 -0.56330121877E+03  0.18801028024E+03  0.10368625649E+04  0.25500000920E-02 0.  1.
       -2    1    3    3    0  502  0.84995755768E+03  0.56330121877E+03  0.21489035467E+03  0.10420719637E+04  0.25500000920E-02 0. -1.
</event>
<event>
 5   0  0.2467483E-04  0.2115440E+04  0.7818609E-02  0.8554472E-01
       -2   -1    0    0    0  501  0.00000000000E+00  0.00000000000E+00  0.54437564056E+03  0.54437564056E+03  0.25500000920E-02 0.  1.
        2   -1    0    0  501    0  0.00000000000E+00  0.00000000000E+00 -0.20551455121E+04  0.20551455121E+04  0.25500000920E-02 0. -1.
    10030    2    1    2    0    0  0.00000000000E+00  0.00000000000E+00 -0.15107698715E+04  0.25995211526E+04  0.21154395804E+04 0.  0.
        4    1    3    3  502    0  0.71807097006E+03  0.46557118324E+03 -0.15192278204E+04  0.17436849566E+04  0.12699999809E+01 0. -1.
       -4    1    3    3    0  502 -0.71807097006E+03 -0.46557118324E+03  0.84579488383E+01  0.85583619607E+03  0.12699999809E+01 0.  1.
</event>
<event>
 5   0  0.1186038E-04  0.2111250E+04  0.7818609E-02  0.8556304E-01
       -1   -1    0    0    0  501  0.00000000000E+00  0.00000000000E+00  0.81818212608E+03  0.81818212610E+03  0.50400001928E-02 0.  1.
        1   -1    0    0  501    0  0.00000000000E+00  0.00000000000E+00 -0.13619761249E+04  0.13619761249E+04  0.50400001928E-02 0. -1.
    10030    2    1    2    0    0  0.00000000000E+00  0.00000000000E+00 -0.54379399879E+03  0.21801582510E+04  0.21112503609E+04 0.  0.
        4    1    3    3  502    0  0.78601077184E+03 -0.56318414215E+03  0.16542701680E+03  0.98099797258E+03  0.12699999809E+01 0.  1.
       -4    1    3    3    0  502 -0.78601077184E+03  0.56318414215E+03 -0.70922101559E+03  0.11991602784E+04  0.12699999809E+01 0. -1.
</event>
<event>
 5   0  0.1122711E-04  0.1653099E+04  0.7818609E-02  0.8788575E-01
        1   -1    0    0  501    0  0.00000000000E+00  0.00000000000E+00  0.13040545206E+04  0.13040545206E+04  0.50400001928E-02 0.  1.
       -1   -1    0    0    0  501  0.00000000000E+00  0.00000000000E+00 -0.52389231898E+03  0.52389231900E+03  0.50400001928E-02 0. -1.
    10030    2    1    2    0    0  0.00000000000E+00  0.00000000000E+00  0.78016220161E+03  0.18279468396E+04  0.16530990858E+04 0.  0.
        1    1    3    3  502    0 -0.64021110250E+02  0.42967053701E+03 -0.38747917865E+03  0.58211303614E+03  0.50400001928E-02 0. -1.
       -1    1    3    3    0  502  0.64021110250E+02 -0.42967053701E+03  0.11676413803E+04  0.12458338035E+04  0.50400001928E-02 0.  1.
</event>
<event>
 5   0  0.1130848E-04  0.1819316E+04  0.7818609E-02  0.8696094E-01
       -1   -1    0    0    0  501  0.00000000000E+00  0.00000000000E+00  0.99699721337E+03  0.99699721339E+03  0.50400001928E-02 0.  1.
        1   -1    0    0  501    0  0.00000000000E+00  0.00000000000E+00 -0.82997005533E+03  0.82997005534E+03  0.50400001928E-02 0. -1.
    10030    2    1    2    0    0  0.00000000000E+00  0.00000000000E+00  0.16702715805E+03  0.18269672687E+04  0.18193161708E+04 0.  0.
        5    1    3    3  502    0 -0.52937948898E+03 -0.37066199098E+03 -0.55935268914E+03  0.85471075561E+03  0.46999998093E+01 0. -1.
       -5    1    3    3    0  502  0.52937948898E+03  0.37066199098E+03  0.72637984718E+03  0.97225651312E+03  0.46999998093E+01 0.  1.
</event>
<event>
 5   0  0.1042395E-04  0.2093139E+04  0.7818609E-02  0.8564272E-01
       -1   -1    0    0    0  501  0.00000000000E+00  0.00000000000E+00  0.75027867524E+03  0.75027867526E+03  0.50400001928E-02 0. -1.
        1   -1    0    0  501    0  0.00000000000E+00  0.00000000000E+00 -0.14598672288E+04  0.14598672288E+04  0.50400001928E-02 0.  1.
    10030    2    1    2    0    0  0.00000000000E+00  0.00000000000E+00 -0.70958855356E+03  0.22101459041E+04  0.20931385530E+04 0.  0.
        3    1    3    3  502    0 -0.11069447949E+03 -0.10009552749E+04 -0.65557305245E+03  0.12016408646E+04  0.10100000352E+00 0.  1.
       -3    1    3    3    0  502  0.11069447949E+03  0.10009552749E+04 -0.54015501111E+02  0.10085050395E+04  0.10100000352E+00 0. -1.
</event>
<event>
 5   0  0.2448804E-04  0.2093635E+04  0.7818609E-02  0.8564053E-01
        2   -1    0    0  501    0  0.00000000000E+00  0.00000000000E+00  0.23193040020E+04  0.23193040020E+04  0.25500000920E-02 0.  1.
       -2   -1    0    0    0  501  0.00000000000E+00  0.00000000000E+00 -0.47248076733E+03  0.47248076734E+03  0.25500000920E-02 0. -1.
    10030    2    1    2    0    0  0.00000000000E+00  0.00000000000E+00  0.18468232347E+04  0.27917847693E+04  0.20936346716E+04 0.  0.
        2    1    3    3  502    0  0.18973211818E+03 -0.89584012004E+03  0.24701744186E+03  0.94844367989E+03  0.25500000920E-02 0. -1.
       -2    1    3    3    0  502 -0.18973211818E+03  0.89584012004E+03  0.15998057928E+04  0.18433410894E+04  0.25500000920E-02 0.  1.
</event>
<event>
 5   0  0.1186038E-04  0.1992645E+04  0.7818609E-02  0.8610067E-01
       -1   -1    0    0    0  501  0.00000000000E+00  0.00000000000E+00  0.98136918886E+03  0.98136918888E+03  0.50400001928E-02 0.  1.
        1   -1    0    0  501    0  0.00000000000E+00  0.00000000000E+00 -0.10115037071E+04  0.10115037072E+04  0.50400001928E-02 0. -1.
    10030    2    1    2    0    0  0.00000000000E+00  0.00000000000E+00 -0.30134518286E+02  0.19928728960E+04  0.19926450488E+04 0.  0.
        4    1    3    3  502    0  0.59675564318E+03 -0.26290261992E+03 -0.76842749477E+03  0.10078281167E+04  0.12699999809E+01 0.  1.
       -4    1    3    3    0  502 -0.59675564318E+03  0.26290261992E+03  0.73829297648E+03  0.98504477932E+03  0.12699999809E+01 0. -1.
</event>
<event>
 5   0  0.2579241E-04  0.2112468E+04  0.7818609E-02  0.8555771E-01
       -2   -1    0    0    0  501  0.00000000000E+00  0.00000000000E+00  0.10461657998E+04  0.10461657998E+04  0.25500000920E-02 0. -1.
        2   -1    0    0  501    0  0.00000000000E+00  0.00000000000E+00 -0.10663987915E+04  0.10663987915E+04  0.25500000920E-02 0.  1.
    10030    2    1    2    0    0  0.00000000000E+00  0.00000000000E+00 -0.20232991671E+02  0.21125645914E+04  0.21124676989E+04 0.  0.
        5    1    3    3  502    0  0.77943028735E+03  0.69616891152E+03 -0.16324154035E+03  0.10577488439E+04  0.46999998093E+01 0. -1.
       -5    1    3    3    0  502 -0.77943028735E+03 -0.69616891152E+03  0.14300854868E+03  0.10548157475E+04  0.46999998093E+01 0.  1.
</event>
<event>
 5   0  0.2467483E-04  0.1952274E+04  0.7818609E-02  0.8629265E-01
       -2   -1    0    0    0  501  0.00000000000E+00  0.00000000000E+00  0.43886994602E+03  0.43886994603E+03  0.25500000920E-02 0. -1.
        2   -1    0    0  501    0  0.00000000000E+00  0.00000000000E+00 -0.21711292917E+04  0.21711292917E+04  0.25500000920E-02 0.  1.
    10030    2    1    2    0    0  0.00000000000E+00  0.00000000000E+00 -0.17322593457E+04  0.26099992377E+04  0.19522739511E+04 0.  0.
        4    1    3    3  502    0  0.69076039169E+03 -0.60075852402E+03 -0.41319586855E+03  0.10043869581E+04  0.12699999809E+01 0. -1.
       -4    1    3    3    0  502 -0.69076039169E+03  0.60075852402E+03 -0.13190634771E+04  0.16056122796E+04  0.12699999809E+01 0.  1.
</event>
<event>
 5   0  0.1122711E-04  0.2126330E+04  0.7818609E-02  0.8549733E-01
       -1   -1    0    0    0  501  0.00000000000E+00  0.00000000000E+00  0.48961432402E+03  0.48961432405E+03  0.50400001928E-02 0.  1.
        1   -1    0    0  501    0  0.00000000000E+00  0.00000000000E+00 -0.23085927137E+04  0.23085927137E+04  0.50400001928E-02 0. -1.
    10030    2    1    2    0    0  0.00000000000E+00  0.00000000000E+00 -0.18189783897E+04  0.27982070377E+04  0.21263302293E+04 0.  0.
        1    1    3    3  502    0 -0.96345236230E+03  0.85282531832E+02 -0.14903216144E+04  0.17766744437E+04  0.50400001928E-02 0. -1.
       -1    1    3    3    0  502  0.96345236230E+03 -0.85282531832E+02 -0.32865677526E+03  0.10215325940E+04  0.50400001928E-02 0.  1.
</event>
<event>
 5   0  0.2579241E-04  0.2072253E+04  0.7818609E-02  0.8573565E-01
        2   -1    0    0  501    0  0.00000000000E+00  0.00000000000E+00  0.14862081549E+04  0.14862081549E+04  0.25500000920E-02 0. -1.
       -2   -1    0    0    0  501  0.00000000000E+00  0.00000000000E+00 -0.72234730562E+03  0.72234730563E+03  0.25500000920E-02 0.  1.
    10030    2    1    2    0    0  0.00000000000E+00  0.00000000000E+00  0.76386084928E+03  0.22085554605E+04  0.20722533207E+04 0.  0.
        5    1    3    3  502    0  0.50104041816E+03  0.90678401547E+03  0.36550175694E+03  0.10985956379E+04  0.46999998093E+01 0.  1.
       -5    1    3    3    0  502 -0.50104041816E+03 -0.90678401547E+03  0.39835909234E+03  0.11099598226E+04  0.46999998093E+01 0. -1.
</event>
<event>
 5   0  0.2430898E-04  0.2156325E+04  0.7818609E-02  0.8536830E-01
       -2   -1    0    0    0  501  0.00000000000E+00  0.00000000000E+00  0.80460203990E+03  0.80460203990E+03  0.25500000920E-02 0.  1.
        2   -1    0    0  501    0  0.00000000000E+00  0.00000000000E+00 -0.14447326042E+04  0.14447326042E+04  0.25500000920E-02 0. -1.
    10030    2    1    2    0    0  0.00000000000E+00  0.00000000000E+00 -0.64013056431E+03  0.22493346441E+04  0.21563253933E+04 0.  0.
        1    1    3    3  502    0  0.18488784336E+03  0.42962416884E+03 -0.13333951706E+04  0.14130474593E+04  0.50400001928E-02 0. -1.
       -1    1    3    3    0  502 -0.18488784336E+03 -0.42962416884E+03  0.69326460634E+03  0.83628718482E+03  0.50400001928E-02 0.  1.
</event>
<event>
 5   0  0.2512839E-04  0.1335264E+04  0.7818609E-02  0.9002059E-01
        2   -1    0    0  501    0  0.00000000000E+00  0.00000000000E+00  0.68204701506E+03  0.68204701507E+03  0.25500000920E-02 0. -1.
       -2   -1    0    0    0  501  0.00000000000E+00  0.00000000000E+00 -0.65352133871E+03  0.65352133871E+03  0.25500000920E-02 0.  1.
    10030    2    1    2    0    0  0.00000000000E+00  0.00000000000E+00  0.28525676354E+02  0.13355683538E+04  0.13352636868E+04 0.  0.
        3    1    3    3  502    0  0.47270596142E+03  0.17601250091E+03 -0.42321658979E+03  0.65844029229E+03  0.10100000352E+00 0.  1.
       -3    1    3    3    0  502 -0.47270596142E+03 -0.17601250091E+03  0.45174226614E+03  0.67712806149E+03  0.10100000352E+00 0. -1.
</event>
<event>
 5   0  0.1122711E-04  0.2121893E+04  0.7818609E-02  0.8551660E-01
        1   -1    0    0  501    0  0.00000000000E+00  0.00000000000E+00  0.16624602146E+04  0.16624602146E+04  0.50400001928E-02 0. -1.
       -1   -1    0    0    0  501  0.00000000000E+00  0.00000000000E+00 -0.67707351498E+03  0.67707351500E+03  0.50400001928E-02 0.  1.
    10030    2    1    2    0    0  0.00000000000E+00  0.00000000000E+00  0.98538669961E+03  0.23395337296E+04  0.21218932876E+04 0.  0.
        1    1    3    3  502    0  0.77778427887E+03 -0.70670244192E+03  0.65334735639E+03  0.12374326220E+04  0.50400001928E-02 0.  1.
       -1    1    3    3    0  502 -0.77778427887E+03  0.70670244192E+03  0.33203934321E+03  0.11021011076E+04  0.50400001928E-02 0. -1.
</event>
<event>
 5   0  0.1156733E-04  0.1428462E+04  0.7818609E-02  0.8933470E-01
       -1   -1    0    0    0  501  0.00000000000E+00  0.00000000000E+00  0.54956529376E+03  0.54956529378E+03  0.50400001928E-02 0.  1.
        1   -1    0    0  501    0  0.00000000000E+00  0.00000000000E+00 -0.92823571722E+03  0.92823571724E+03  0.50400001928E-02 0. -1.
    10030    2    1    2    0    0  0.00000000000E+00  0.00000000000E+00 -0.37867042346E+03  0.14778010110E+04  0.14284622986E+04 0.  0.
        2    1    3    3  502    0  0.21718725571E+03 -0.56732233183E+03 -0.57794392511E+03  0.83847725837E+03  0.25500000920E-02 0. -1.
       -2    1    3    3    0  502 -0.21718725571E+03  0.56732233183E+03  0.19927350165E+03  0.63932375265E+03  0.25500000920E-02 0.  1.
</event>
<event>
 5   0  0.2430898E-04  0.2070768E+04  0.7818609E-02  0.8574231E-01
        2   -1    0    0  501    0  0.00000000000E+00  0.00000000000E+00  0.20528535442E+04  0.20528535442E+04  0.25500000920E-02 0.  1.
       -2   -1    0    0    0  501  0.00000000000E+00  0.00000000000E+00 -0.52220987051E+03  0.52220987051E+03  0.25500000920E-02 0. -1.
    10030    2    1    2    0    0  0.00000000000E+00  0.00000000000E+00  0.15306436737E+04  0.25750634147E+04  0.20707683439E+04 0.  0.
        1    1    3    3  502    0  0.37886918111E+03  0.60833869627E+03 -0.16392290184E+03  0.73517925947E+03  0.50400001928E-02 0. -1.
       -1    1    3    3    0  502 -0.37886918111E+03 -0.60833869627E+03  0.16945665756E+04  0.18398841553E+04  0.50400001928E-02 0.  1.
</event>
<event>
 5   0  0.2512839E-04  0.2078287E+04  0.7818609E-02  0.8570869E-01
       -2   -1    0    0    0  501  0.00000000000E+00  0.00000000000E+00  0.84988981855E+03  0.84988981856E+03  0.25500000920E-02 0. -1.
        2   -1    0    0  501    0  0.00000000000E+00  0.00000000000E+00 -0.12705399741E+04  0.12705399741E+04  0.25500000920E-02 0.  1.
    10030    2    1    2    0    0  0.00000000000E+00  0.00000000000E+00 -0.42065015551E+03  0.21204297926E+04  0.20782867829E+04 0.  0.
        3    1    3    3  502    0  0.29422468141E+02 -0.69559408914E+03 -0.99739657438E+03  0.12163538775E+04  0.10100000352E+00 0.  1.
       -3    1    3    3    0  502 -0.29422468141E+02  0.69559408914E+03  0.57674641887E+03  0.90407591515E+03  0.10100000352E+00 0. -1.
</event>
<event>
 5   0  0.1130848E-04  0.2121222E+04  0.7818609E-02  0.8551952E-01
        1   -1    0    0  501    0  0.00000000000E+00  0.00000000000E+00  0.65948855718E+03  0.65948855720E+03  0.50400001928E-02 0. -1.
       -1   -1    0    0    0  501  0.00000000000E+00  0.00000000000E+00 -0.17057084582E+04  0.17057084582E+04  0.50400001928E-02 0.  1.
    10030    2    1    2    0    0  0.00000000000E+00  0.00000000000E+00 -0.10462199010E+04  0.23651970154E+04  0.21212215444E+04 0.  0.
        5    1    3    3  502    0  0.16375597372E+03  0.99871660259E+03 -0.16941545368E+03  0.10261454854E+04  0.46999998093E+01 0. -1.
       -5    1    3    3    0  502 -0.16375597372E+03 -0.99871660259E+03 -0.87680444733E+03  0.13390515300E+04  0.46999998093E+01 0.  1.
</event>
<event>
 5   0  0.2512839E-04  0.1496168E+04  0.7818609E-02  0.8887005E-01
       -2   -1    0    0    0  501  0.00000000000E+00  0.00000000000E+00  0.30878404437E+03  0.30878404438E+03  0.25500000920E-02 0. -1.
        2   -1    0    0  501    0  0.00000000000E+00  0.00000000000E+00 -0.18123650728E+04  0.18123650728E+04  0.25500000920E-02 0.  1.
    10030    2    1    2    0    0  0.00000000000E+00  0.00000000000E+00 -0.15035810284E+04  0.21211491172E+04  0.14961676605E+04 0.  0.
        3    1    3    3  502    0  0.13944086568E+03  0.64209114485E+03 -0.12588209646E+04  0.14199841635E+04  0.10100000352E+00 0.  1.
       -3    1    3    3    0  502 -0.13944086568E+03 -0.64209114485E+03 -0.24476006382E+03  0.70116495374E+03  0.10100000352E+00 0. -1.
</event>
<event>
 5   0  0.1186038E-04  0.2059369E+04  0.7818609E-02  0.8579356E-01
        1   -1    0    0  501    0  0.00000000000E+00  0.00000000000E+00  0.63959125856E+03  0.63959125858E+03  0.50400001928E-02 0. -1.
       -1   -1    0    0    0  501  0.00000000000E+00  0.00000000000E+00 -0.16576993916E+04  0.16576993916E+04  0.50400001928E-02 0.  1.
    10030    2    1    2    0    0  0.00000000000E+00  0.00000000000E+00 -0.10181081330E+04  0.22972906502E+04  0.20593688744E+04 0.  0.
        4    1    3    3  502    0  0.46810969308E+03 -0.36208620936E+03 -0.14490276752E+04  0.15652207270E+04  0.12699999809E+01 0.  1.
       -4    1    3    3    0  502 -0.46810969308E+03  0.36208620936E+03  0.43091954215E+03  0.73206992321E+03  0.12699999809E+01 0. -1.
</event>
<event>
 5   0  0.1186038E-04  0.2197784E+04  0.7818609E-02  0.8519351E-01
        1   -1    0    0  501    0  0.00000000000E+00  0.00000000000E+00  0.10281698415E+04  0.10281698415E+04  0.50400001928E-02 0.  1.
       -1   -1    0    0    0  501  0.00000000000E+00  0.00000000000E+00 -0.11744790069E+04  0.11744790069E+04  0.50400001928E-02 0. -1.
    10030    2    1    2    0    0  0.00000000000E+00  0.00000000000E+00 -0.14630916537E+03  0.22026488484E+04  0.21977842427E+04 0.  0.
        4    1    3    3  502    0  0.78004847259E+03  0.65364837145E+03 -0.48859648483E+03  0.11289198160E+04  0.12699999809E+01 0.  1.
       -4    1    3    3    0  502 -0.78004847259E+03 -0.65364837145E+03  0.34228731946E+03  0.10737290324E+04  0.12699999809E+01 0. -1.
</event>
<event>
 5   0  0.2512839E-04  0.1323022E+04  0.7818609E-02  0.9011505E-01
       -2   -1    0    0    0  501  0.00000000000E+00  0.00000000000E+00  0.22980005981E+03  0.22980005983E+03  0.25500000920E-02 0.  1.
        2   -1    0    0  501    0  0.00000000000E+00  0.00000000000E+00 -0.19042497986E+04  0.19042497986E+04  0.25500000920E-02 0. -1.
    10030    2    1    2    0    0  0.00000000000E+00  0.00000000000E+00 -0.16744497388E+04  0.21340498585E+04  0.13230218708E+04 0.  0.
        3    1    3    3  502    0 -0.22207712929E+03 -0.15741195074E+02 -0.18420039061E+04  0.18554095065E+04  0.10100000352E+00 0. -1.
       -3    1    3    3    0  502  0.22207712929E+03  0.15741195074E+02  0.16755416726E+03  0.27864035197E+03  0.10100000352E+00 0.  1.
</event>
<event>
 5   0  0.1042395E-04  0.2060272E+04  0.7818609E-02  0.8578949E-01
        1   -1    0    0  501    0  0.00000000000E+00  0.00000000000E+00  0.14881122311E+04  0.14881122311E+04  0.50400001928E-02 0.  1.
       -1   -1    0    0    0  501  0.00000000000E+00  0.00000000000E+00 -0.71310480210E+03  0.71310480212E+03  0.50400001928E-02 0. -1.
    10030    2    1    2    0    0  0.00000000000E+00  0.00000000000E+00  0.77500742897E+03  0.22012170332E+04  0.20602718054E+04 0.  0.
        3    1    3    3  502    0 -0.10433086332E+03 -0.52512802193E+03 -0.55278026635E+03  0.76955207850E+03  0.10100000352E+00 0. -1.
       -3    1    3    3    0  502  0.10433086332E+03  0.52512802193E+03  0.13277876953E+04  0.14316649547E+04  0.10100000352E+00 0.  1.
</event>
<event>
 5   0  0.1122711E-04  0.2125149E+04  0.7818609E-02  0.8550245E-01
       -1   -1    0    0    0  501  0.00000000000E+00  0.00000000000E+00  0.11593978642E+04  0.11593978643E+04  0.50400001928E-02 0.  1.
        1   -1    0    0  501    0  0.00000000000E+00  0.00000000000E+00 -0.97383667949E+03  0.97383667950E+03  0.50400001928E-02 0. -1.
    10030    2    1    2    0    0  0.00000000000E+00  0.00000000000E+00  0.18556118476E+03  0.21332345438E+04  0.21251486220E+04 0.  0.
        1    1    3    3  502    0  0.46084852517E+03 -0.44418102214E+03  0.94417402849E+03  0.11406764395E+04  0.50400001928E-02 0.  1.
       -1    1    3    3    0  502 -0.46084852517E+03  0.44418102214E+03 -0.75861284373E+03  0.99255810423E+03  0.50400001928E-02 0. -1.
</event>
<event>
 5   0  0.1186038E-04  0.2098547E+04  0.7818609E-02  0.8561884E-01
        1   -1    0    0  501    0  0.00000000000E+00  0.00000000000E+00  0.20703434451E+04  0.20703434451E+04  0.50400001928E-02 0. -1.
       -1   -1    0    0    0  501  0.00000000000E+00  0.00000000000E+00 -0.53178359254E+03  0.53178359256E+03  0.50400001928E-02 0.  1.
    10030    2    1    2    0    0  0.00000000000E+00  0.00000000000E+00  0.15385598526E+04  0.26021270377E+04  0.20985468068E+04 0.  0.
        4    1    3    3  502    0 -0.62843470345E+02  0.18711011465E+03  0.20471151844E+04  0.20566092696E+04  0.12699999809E+01 0. -1.
       -4    1    3    3    0  502  0.62843470345E+02 -0.18711011465E+03 -0.50855533186E+03  0.54551776803E+03  0.12699999809E+01 0.  1.
</event>
<event>
 5   0  0.2448804E-04  0.2109352E+04  0.7818609E-02  0.8557135E-01
        2   -1    0    0  501    0  0.00000000000E+00  0.00000000000E+00  0.99314483429E+03  0.99314483429E+03  0.25500000920E-02 0.  1.
       -2   -1    0    0    0  501  0.00000000000E+00  0.00000000000E+00 -0.11200188861E+04  0.11200188861E+04  0.25500000920E-02 0. -1.
    10030    2    1    2    0    0  0.00000000000E+00  0.00000000000E+00 -0.12687405182E+03  0.21131637204E+04  0.21093515317E+04 0.  0.
        2    1    3    3  502    0  0.93273558407E+03 -0.47944950576E+03  0.48449521642E+02  0.10498642077E+04  0.25500000920E-02 0.  1.
       -2    1    3    3    0  502 -0.93273558407E+03  0.47944950576E+03 -0.17532357346E+03  0.10632995127E+04  0.25500000920E-02 0. -1.
</event>
<event>
 5   0  0.2448804E-04  0.2126160E+04  0.7818609E-02  0.8549806E-01
       -2   -1    0    0    0  501  0.00000000000E+00  0.00000000000E+00  0.24341856985E+04  0.24341856985E+04  0.25500000920E-02 0. -1.
        2   -1    0    0  501    0  0.00000000000E+00  0.00000000000E+00 -0.46427825232E+03  0.46427825232E+03  0.25500000920E-02 0.  1.
    10030    2    1    2    0    0  0.00000000000E+00  0.00000000000E+00  0.19699074462E+04  0.28984639509E+04  0.21261603721E+04 0.  0.
        2    1    3    3  502    0 -0.49339758071E+03  0.57144197803E+03 -0.35339435870E+02  0.75580154977E+03  0.25500000920E-02 0.  1.
       -2    1    3    3    0  502  0.49339758071E+03 -0.57144197803E+03  0.20052468821E+04  0.21426624011E+04  0.25500000920E-02 0. -1.
</event>
<event>
 5   0  0.2448804E-04  0.2104912E+04  0.7818609E-02  0.8559083E-01
       -2   -1    0    0    0  501  0.00000000000E+00  0.00000000000E+00  0.88007526275E+03  0.88007526275E+03  0.25500000920E-02 0.  1.
        2   -1    0    0  501    0  0.00000000000E+00  0.00000000000E+00 -0.12586009278E+04  0.12586009278E+04  0.25500000920E-02 0. -1.
    10030    2    1    2    0    0  0.00000000000E+00  0.00000000000E+00 -0.37852566503E+03  0.21386761905E+04  0.21049119147E+04 0.  0.
        2    1    3    3  502    0  0.29681199972E+03  0.97565804767E+03  0.75020181727E+02  0.10225624758E+04  0.25500000920E-02 0.  1.
       -2    1    3    3    0  502 -0.29681199972E+03 -0.97565804767E+03 -0.45354584676E+03  0.11161137148E+04  0.25500000920E-02 0. -1.
</event>
<event>
 5   0  0.1156733E-04  0.2124571E+04  0.7818609E-02  0.8550496E-01
       -1   -1    0    0    0  501  0.00000000000E+00  0.00000000000E+00  0.89056576448E+03  0.89056576449E+03  0.50400001928E-02 0.  1.
        1   -1    0    0  501    0  0.00000000000E+00  0.00000000000E+00 -0.12671168862E+04  0.12671168862E+04  0.50400001928E-02 0. -1.
    10030    2    1    2    0    0  0.00000000000E+00  0.00000000000E+00 -0.37655112172E+03  0.21576826507E+04  0.21245714095E+04 0.  0.
        2    1    3    3  502    0 -0.88146348043E+03  0.42802640838E+03  0.22832034371E+03  0.10061384860E+04  0.25500000920E-02 0.  1.
       -2    1    3    3    0  502  0.88146348043E+03 -0.42802640838E+03 -0.60487146543E+03  0.11515441647E+04  0.25500000920E-02 0. -1.
</event>
<event>
 5   0  0.1186038E-04  0.1946832E+04  0.7818609E-02  0.8631890E-01
        1   -1    0    0  501    0  0.00000000000E+00  0.00000000000E+00  0.36987239527E+03  0.36987239530E+03  0.50400001928E-02 0. -1.
       -1   -1    0    0    0  501  0.00000000000E+00  0.00000000000E+00 -0.25617997401E+04  0.25617997401E+04  0.50400001928E-02 0.  1.
    10030    2    1    2    0    0  0.00000000000E+00  0.00000000000E+00 -0.21919273448E+04  0.29316721354E+04  0.19468323052E+04 0.  0.
        4    1    3    3  502    0  0.89034614547E+03 -0.25226562569E+03 -0.15506838674E+04  0.18058173424E+04  0.12699999809E+01 0.  1.
       -4    1    3    3    0  502 -0.89034614547E+03  0.25226562569E+03 -0.64124347742E+03  0.11258547930E+04  0.12699999809E+01 0. -1.
</event>
<event>
 5   0  0.1042395E-04  0.1750190E+04  0.7818609E-02  0.8733246E-01
       -1   -1    0    0    0  501  0.00000000000E+00  0.00000000000E+00  0.75282792150E+03  0.75282792152E+03  0.50400001928E-02 0. -1.
        1   -1    0    0  501    0  0.00000000000E+00  0.00000000000E+00 -0.10172190888E+04  0.10172190888E+04  0.50400001928E-02 0.  1.
    10030    2    1    2    0    0  0.00000000000E+00  0.00000000000E+00 -0.26439116725E+03  0.17700470103E+04  0.17501896267E+04 0.  0.
        3    1    3    3  502    0 -0.52310312305E+03  0.43662853352E+03  0.42313327761E+03  0.80207426991E+03  0.10100000352E+00 0. -1.
       -3    1    3    3    0  502  0.52310312305E+03 -0.43662853352E+03 -0.68752444486E+03  0.96797274038E+03  0.10100000352E+00 0.  1.
</event>
<event>
 5   0  0.2579241E-04  0.2058711E+04  0.7818609E-02  0.8579653E-01
        2   -1    0    0  501    0  0.00000000000E+00  0.00000000000E+00  0.53628393968E+03  0.53628393969E+03  0.25500000920E-02 0.  1.
       -2   -1    0    0    0  501  0.00000000000E+00  0.00000000000E+00 -0.19757677986E+04  0.19757677986E+04  0.25500000920E-02 0. -1.
    10030    2    1    2    0    0  0.00000000000E+00  0.00000000000E+00 -0.14394838589E+04  0.25120517383E+04  0.20587107995E+04 0.  0.
        5    1    3    3  502    0 -0.32246257332E+02 -0.74311313443E+03  0.14848731872E+03  0.75850347757E+03  0.46999998093E+01 0.  1.
       -5    1    3    3    0  502  0.32246257332E+02  0.74311313443E+03 -0.15879711777E+04  0.17535482607E+04  0.46999998093E+01 0. -1.
</event>
<event>
 5   0  0.1186038E-04  0.1416332E+04  0.7818609E-02  0.8942081E-01
        1   -1    0    0  501    0  0.00000000000E+00  0.00000000000E+00  0.57899509155E+03  0.57899509157E+03  0.50400001928E-02 0.  1.
       -1   -1    0    0    0  501  0.00000000000E+00  0.00000000000E+00 -0.86615398484E+03  0.86615398485E+03  0.50400001928E-02 0. -1.
    10030    2    1    2    0    0  0.00000000000E+00  0.00000000000E+00 -0.28715889329E+03  0.14451490764E+04  0.14163317489E+04 0.  0.
        4    1    3    3  502    0 -0.38227992453E+03 -0.34800443560E+02 -0.75079128260E+03  0.84323079551E+03  0.12699999809E+01 0. -1.
       -4    1    3    3    0  502  0.38227992453E+03  0.34800443560E+02  0.46363238931E+03  0.60191828091E+03  0.12699999809E+01 0.  1.
</event>
<event>
 5   0  0.2579241E-04  0.2220007E+04  0.7818609E-02  0.8510147E-01
        2   -1    0    0  501    0  0.00000000000E+00  0.00000000000E+00  0.15926227331E+04  0.15926227331E+04  0.25500000920E-02 0.  1.
       -2   -1    0    0    0  501  0.00000000000E+00  0.00000000000E+00 -0.77363443003E+03  0.77363443003E+03  0.25500000920E-02 0. -1.
    10030    2    1    2    0    0  0.00000000000E+00  0.00000000000E+00  0.81898830305E+03  0.23662571631E+04  0.22200070093E+04 0.  0.
        5    1    3    3  502    0 -0.30996248743E+03  0.10533898852E+04  0.23637932617E+03  0.11232115872E+04  0.46999998093E+01 0. -1.
       -5    1    3    3    0  502  0.30996248743E+03 -0.10533898852E+04  0.58260897689E+03  0.12430455759E+04  0.46999998093E+01 0.  1.
</event>
<event>
 5   0  0.1186038E-04  0.2140301E+04  0.7818609E-02  0.8543695E-01
       -1   -1    0    0    0  501  0.00000000000E+00  0.00000000000E+00  0.86338918226E+03  0.86338918227E+03  0.50400001928E-02 0.  1.
        1   -1    0    0  501    0  0.00000000000E+00  0.00000000000E+00 -0.13264264888E+04  0.13264264888E+04  0.50400001928E-02 0. -1.
    10030    2    1    2    0    0  0.00000000000E+00  0.00000000000E+00 -0.46303730652E+03  0.21898156711E+04  0.21403011765E+04 0.  0.
        4    1    3    3  502    0 -0.76687884711E+03  0.27816232034E+03  0.47714000038E+03  0.94506170987E+03  0.12699999809E+01 0.  1.
       -4    1    3    3    0  502  0.76687884711E+03 -0.27816232034E+03 -0.94017730690E+03  0.12447539612E+04  0.12699999809E+01 0. -1.
</event>
<event>
 5   0  0.1130848E-04  0.2094878E+04  0.7818609E-02  0.8563503E-01
       -1   -1    0    0    0  501  0.00000000000E+00  0.00000000000E+00  0.12049226222E+04  0.12049226222E+04  0.50400001928E-02 0.  1.
        1   -1    0    0  501    0  0.00000000000E+00  0.00000000000E+00 -0.91053817357E+03  0.91053817359E+03  0.50400001928E-02 0. -1.
    10030    2    1    2    0    0  0.00000000000E+00  0.00000000000E+00  0.29438444865E+03  0.21154607958E+04  0.20948776038E+04 0.  0.
        5    1    3    3  502    0 -0.21876421148E+03 -0.99755964769E+03 -0.87736947981E+02  0.10250379959E+04  0.46999998093E+01 0. -1.
       -5    1    3    3    0  502  0.21876421148E+03  0.99755964769E+03  0.38212139663E+03  0.10904228000E+04  0.46999998093E+01 0.  1.
</event>
<event>
 5   0  0.1042395E-04  0.2105077E+04  0.7818609E-02  0.8559010E-01
        1   -1    0    0  501    0  0.00000000000E+00  0.00000000000E+00  0.25853237387E+04  0.25853237387E+04  0.50400001928E-02 0. -1.
       -1   -1    0    0    0  501  0.00000000000E+00  0.00000000000E+00 -0.42850992716E+03  0.42850992719E+03  0.50400001928E-02 0.  1.
    10030    2    1    2    0    0  0.00000000000E+00  0.00000000000E+00  0.21568138116E+04  0.30138336659E+04  0.21050766134E+04 0.  0.
        3    1    3    3  502    0  0.33564249717E+03 -0.21986831687E+03 -0.31471596729E+03  0.50994520582E+03  0.10100000352E+00 0.  1.
       -3    1    3    3    0  502 -0.33564249717E+03  0.21986831687E+03  0.24715297789E+04  0.25038884601E+04  0.10100000352E+00 0. -1.
</event>
<event>
 5   0  0.1042395E-04  0.1846378E+04  0.7818609E-02  0.8682018E-01
       -1   -1    0    0    0  501  0.00000000000E+00  0.00000000000E+00  0.78774633615E+03  0.78774633616E+03  0.50400001928E-02 0.  1.
        1   -1    0    0  501    0  0.00000000000E+00  0.00000000000E+00 -0.10819190824E+04  0.10819190824E+04  0.50400001928E-02 0. -1.
    10030    2    1    2    0    0  0.00000000000E+00  0.00000000000E+00 -0.29417274621E+03  0.18696654185E+04  0.18463778521E+04 0.  0.
        3    1    3    3  502    0 -0.17105678755E+03 -0.80076179294E+03 -0.57884175089E+03  0.10027650056E+04  0.10100000352E+00 0. -1.
       -3    1    3    3    0  502  0.17105678755E+03  0.80076179294E+03  0.28466900467E+03  0.86690041298E+03  0.10100000352E+00 0.  1.
</event>
<event>
 5   0  0.2467483E-04  0.2102388E+04  0.7818609E-02  0.8560192E-01
        2   -1    0    0  501    0  0.00000000000E+00  0.00000000000E+00  0.16253844046E+04  0.16253844046E+04  0.25500000920E-02 0. -1.
       -2   -1    0    0    0  501  0.00000000000E+00  0.00000000000E+00 -0.67984492392E+03  0.67984492392E+03  0.25500000920E-02 0.  1.
    10030    2    1    2    0    0  0.00000000000E+00  0.00000000000E+00  0.94553948065E+03  0.23052293285E+04  0.21023884863E+04 0.  0.
        4    1    3    3  502    0 -0.40571161444E+03  0.76035986213E+03 -0.18717956024E+03  0.88192223847E+03  0.12699999809E+01 0.  1.
       -4    1    3    3    0  502  0.40571161444E+03 -0.76035986213E+03  0.11327190409E+04  0.14233070900E+04  0.12699999809E+01 0. -1.
</event>
<event>
 5   0  0.2448804E-04  0.2120161E+04  0.7818609E-02  0.8552414E-01
       -2   -1    0    0    0  501  0.00000000000E+00  0.00000000000E+00  0.11736256853E+04  0.11736256854E+04  0.25500000920E-02 0. -1.
        2   -1    0    0  501    0  0.00000000000E+00  0.00000000000E+00 -0.95752038356E+03  0.95752038356E+03  0.25500000920E-02 0.  1.
    10030    2    1    2    0    0  0.00000000000E+00  0.00000000000E+00  0.21610530179E+03  0.21311460689E+04  0.21201608584E+04 0.  0.
        2    1    3    3  502    0 -0.52096012913E+03  0.28862610087E+03  0.98956057452E+03  0.11549608707E+04  0.25500000920E-02 0. -1.
       -2    1    3    3    0  502  0.52096012913E+03 -0.28862610087E+03 -0.77345527273E+03  0.97618519819E+03  0.25500000920E-02 0.  1.
</event>
<event>
 5   0  0.1042395E-04  0.1545186E+04  0.7818609E-02  0.8854948E-01
        1   -1    0    0  501    0  0.00000000000E+00  0.00000000000E+00  0.10154510289E+04  0.10154510289E+04  0.50400001928E-02 0. -1.
       -1   -1    0    0    0  501  0.00000000000E+00  0.00000000000E+00 -0.58781766190E+03  0.58781766192E+03  0.50400001928E-02 0.  1.
    10030    2    1    2    0    0  0.00000000000E+00  0.00000000000E+00  0.42763336700E+03  0.16032686908E+04  0.15451861372E+04 0.  0.
        3    1    3    3  502    0  0.39777858216E+03 -0.61859834762E+03  0.45937338684E+03  0.86713069076E+03  0.10100000352E+00 0. -1.
       -3    1    3    3    0  502 -0.39777858216E+03  0.61859834762E+03 -0.31740019839E+02  0.73613800009E+03  0.10100000352E+00 0.  1.
</event>
<event>
 5   0  0.2512839E-04  0.2108469E+04  0.7818609E-02  0.8557522E-01
       -2   -1    0    0    0  501  0.00000000000E+00  0.00000000000E+00  0.95380312756E+03  0.95380312756E+03  0.25500000920E-02 0. -1.
        2   -1    0    0  501    0  0.00000000000E+00  0.00000000000E+00 -0.11652411291E+04  0.11652411291E+04  0.25500000920E-02 0.  1.
    10030    2    1    2    0    0  0.00000000000E+00  0.00000000000E+00 -0.21143800150E+03  0.21190442566E+04  0.21084692393E+04 0.  0.
        3    1    3    3  502    0 -0.16501272452E+03  0.82098255320E+03  0.53793757775E+03  0.99529814612E+03  0.10100000352E+00 0. -1.
       -3    1    3    3    0  502  0.16501272452E+03 -0.82098255320E+03 -0.74937557925E+03  0.11237461105E+04  0.10100000352E+00 0.  1.
</event>
<event>
 5   0  0.1122711E-04  0.2293343E+04  0.7818609E-02  0.8480550E-01
       -1   -1    0    0    0  501  0.00000000000E+00  0.00000000000E+00  0.74442557676E+03  0.74442557678E+03  0.50400001928E-02 0. -1.
        1   -1    0    0  501    0  0.00000000000E+00  0.00000000000E+00 -0.17662690996E+04  0.17662690996E+04  0.50400001928E-02 0.  1.
    10030    2    1    2    0    0  0.00000000000E+00  0.00000000000E+00 -0.10218435228E+04  0.25106946764E+04  0.22933433177E+04 0.  0.
        1    1    3    3  502    0  0.48359293575E+03  0.10379445951E+04 -0.57719664464E+03  0.12823209725E+04  0.50400001928E-02 0.  1.
       -1    1    3    3    0  502 -0.48359293575E+03 -0.10379445951E+04 -0.44464687820E+03  0.12283737039E+04  0.50400001928E-02 0. -1.
</event>
<event>
 5   0  0.1186038E-04  0.2113010E+04  0.7818609E-02  0.8555534E-01
       -1   -1    0    0    0  501  0.00000000000E+00  0.00000000000E+00  0.55079699551E+03  0.55079699553E+03  0.50400001928E-02 0. -1.
        1   -1    0    0  501    0  0.00000000000E+00  0.00000000000E+00 -0.20265233157E+04  0.20265233157E+04  0.50400001928E-02 0.  1.
    10030    2    1    2    0    0  0.00000000000E+00  0.00000000000E+00 -0.14757263202E+04  0.25773203112E+04  0.21130101312E+04 0.  0.
        4    1    3    3  502    0 -0.55155445877E+03 -0.74180047017E+03 -0.11386088848E+03  0.93136790441E+03  0.12699999809E+01 0. -1.
       -4    1    3    3    0  502  0.55155445877E+03  0.74180047017E+03 -0.13618654317E+04  0.16459524068E+04  0.12699999809E+01 0.  1.
</event>
<event>
 5   0  0.1130848E-04  0.2144726E+04  0.7818609E-02  0.8541793E-01
        1   -1    0    0  501    0  0.00000000000E+00  0.00000000000E+00  0.17209381142E+04  0.17209381142E+04  0.50400001928E-02 0. -1.
       -1   -1    0    0    0  501  0.00000000000E+00  0.00000000000E+00 -0.66821816788E+03  0.66821816790E+03  0.50400001928E-02 0.  1.
    10030    2    1    2    0    0  0.00000000000E+00  0.00000000000E+00  0.10527199463E+04  0.23891562821E+04  0.21447257295E+04 0.  0.
        5    1    3    3  502    0  0.18899092171E+03 -0.91766102215E+03  0.11074636053E+04  0.14506264327E+04  0.46999998093E+01 0. -1.
       -5    1    3    3    0  502 -0.18899092171E+03  0.91766102215E+03 -0.54743659006E+02  0.93852984943E+03  0.46999998093E+01 0.  1.
</event>
<event>
 5   0  0.2512839E-04  0.2074474E+04  0.7818609E-02  0.8572572E-01
       -2   -1    0    0    0  501  0.00000000000E+00  0.00000000000E+00  0.52222001790E+03  0.52222001790E+03  0.25500000920E-02 0. -1.
        2   -1    0    0  501    0  0.00000000000E+00  0.00000000000E+00 -0.20601670185E+04  0.20601670185E+04  0.25500000920E-02 0.  1.
    10030    2    1    2    0    0  0.00000000000E+00  0.00000000000E+00 -0.15379470006E+04  0.25823870364E+04  0.20744738680E+04 0.  0.
        3    1    3    3  502    0  0.14252553232E+00 -0.26492409518E+03  0.47939364986E+03  0.54772536754E+03  0.10100000352E+00 0. -1.
       -3    1    3    3    0  502 -0.14252553232E+00  0.26492409518E+03 -0.20173406504E+04  0.20346616688E+04  0.10100000352E+00 0.  1.
</event>
<event>
 5   0  0.1122711E-04  0.2056815E+04  0.7818609E-02  0.8580509E-01
        1   -1    0    0  501    0  0.00000000000E+00  0.00000000000E+00  0.17187499512E+04  0.17187499513E+04  0.50400001928E-02 0. -1.
       -1   -1    0    0    0  501  0.00000000000E+00  0.00000000000E+00 -0.61534342171E+03  0.61534342173E+03  0.50400001928E-02 0.  1.
    10030    2    1    2    0    0  0.00000000000E+00  0.00000000000E+00  0.11034065295E+04  0.23340933730E+04  0.20568145041E+04 0.  0.
        1    1    3    3  502    0  0.76741611683E+03 -0.49224816304E+03  0.10916458968E+04  0.14222962119E+04  0.50400001928E-02 0. -1.
       -1    1    3    3    0  502 -0.76741611683E+03  0.49224816304E+03  0.11760632708E+02  0.91179716105E+03  0.50400001928E-02 0.  1.
</event>
<event>
 5   0  0.2430898E-04  0.2163276E+04  0.7818609E-02  0.8533871E-01
       -2   -1    0    0    0  501  0.00000000000E+00  0.00000000000E+00  0.96017094758E+03  0.96017094758E+03  0.25500000920E-02 0.  1.
        2   -1    0    0  501    0  0.00000000000E+00  0.00000000000E+00 -0.12184718198E+04  0.12184718198E+04  0.25500000920E-02 0. -1.
    10030    2    1    2    0    0  0.00000000000E+00  0.00000000000E+00 -0.25830087223E+03  0.21786427674E+04  0.21632764427E+04 0.  0.
        1    1    3    3  502    0  0.25778498639E+03  0.43033664838E+02  0.92789367750E+03  0.96399775533E+03  0.50400001928E-02 0.  1.
       -1    1    3    3    0  502 -0.25778498639E+03 -0.43033664838E+02 -0.11861945497E+04  0.12146450121E+04  0.50400001928E-02 0. -1.
</event>
<event>
 5   0  0.1186038E-04  0.2111095E+04  0.7818609E-02  0.8556372E-01
        1   -1    0    0  501    0  0.00000000000E+00  0.00000000000E+00  0.11845833893E+04  0.11845833893E+04  0.50400001928E-02 0.  1.
       -1   -1    0    0    0  501  0.00000000000E+00  0.00000000000E+00 -0.94056698543E+03  0.94056698544E+03  0.50400001928E-02 0. -1.
    10030    2    1    2    0    0  0.00000000000E+00  0.00000000000E+00  0.24401640391E+03  0.21251503748E+04  0.21110945289E+04 0.  0.
        4    1    3    3  502    0  0.13007385408E+02 -0.48249670710E+03 -0.82296772590E+03  0.95407009974E+03  0.12699999809E+01 0. -1.
       -4    1    3    3    0  502 -0.13007385408E+02  0.48249670710E+03  0.10669841298E+04  0.11710802750E+04  0.12699999809E+01 0.  1.
</event>
<event>
 5   0  0.1130848E-04  0.1981917E+04  0.7818609E-02  0.8615122E-01
       -1   -1    0    0    0  501  0.00000000000E+00  0.00000000000E+00  0.69301478038E+03  0.69301478040E+03  0.50400001928E-02 0. -1.
        1   -1    0    0  501    0  0.00000000000E+00  0.00000000000E+00 -0.14169949210E+04  0.14169949210E+04  0.50400001928E-02 0.  1.
    10030    2    1    2    0    0  0.00000000000E+00  0.00000000000E+00 -0.72398014062E+03  0.21100097014E+04  0.19819166723E+04 0.  0.
        5    1    3    3  502    0 -0.73868351800E+03  0.47717903913E+01 -0.10652109857E+04  0.12962918822E+04  0.46999998093E+01 0.  1.
       -5    1    3    3    0  502  0.73868351800E+03 -0.47717903913E+01  0.34123084506E+03  0.81371781925E+03  0.46999998093E+01 0. -1.
</event>
<event>
 5   0  0.1156733E-04  0.2132394E+04  0.7818609E-02  0.8547106E-01
       -1   -1    0    0    0  501  0.00000000000E+00  0.00000000000E+00  0.69952484632E+03  0.69952484634E+03  0.50400001928E-02 0.  1.
        1   -1    0    0  501    0  0.00000000000E+00  0.00000000000E+00 -0.16250686775E+04  0.16250686775E+04  0.50400001928E-02 0. -1.
    10030    2    1    2    0    0  0.00000000000E+00  0.00000000000E+00 -0.92554383117E+03  0.23245935238E+04  0.21323938819E+04 0.  0.
        2    1    3    3  502    0 -0.69624065582E+03 -0.61669609696E+03 -0.10310135337E+04  0.13885438537E+04  0.25500000920E-02 0.  1.
       -2    1    3    3    0  502  0.69624065582E+03  0.61669609696E+03  0.10546970258E+03  0.93604967015E+03  0.25500000920E-02 0. -1.
</event>
<event>
 5   0  0.1186038E-04  0.2086201E+04  0.7818609E-02  0.8567346E-01
       -1   -1    0    0    0  501  0.00000000000E+00  0.00000000000E+00  0.13303951665E+04  0.13303951665E+04  0.50400001928E-02 0. -1.
        1   -1    0    0  501    0  0.00000000000E+00  0.00000000000E+00 -0.81784637664E+03  0.81784637666E+03  0.50400001928E-02 0.  1.
    10030    2    1    2    0    0  0.00000000000E+00  0.00000000000E+00  0.51254878982E+03  0.21482415431E+04  0.20862012045E+04 0.  0.
        4    1    3    3  502    0 -0.54595056068E+03 -0.30502941744E+03 -0.60338902012E+03  0.86901374138E+03  0.12699999809E+01 0.  1.
       -4    1    3    3    0  502  0.54595056068E+03  0.30502941744E+03  0.11159378099E+04  0.12792278017E+04  0.12699999809E+01 0. -1.
</event>
<event>
 5   0  0.1130848E-04  0.2103811E+04  0.7818609E-02  0.8559567E-01
        1   -1    0    0  501    0  0.00000000000E+00  0.00000000000E+00  0.13465243120E+04  0.13465243120E+04  0.50400001928E-02 0. -1.
       -1   -1    0    0    0  501  0.00000000000E+00  0.00000000000E+00 -0.82174902984E+03  0.82174902985E+03  0.50400001928E-02 0.  1.
    10030    2    1    2    0    0  0.00000000000E+00  0.00000000000E+00  0.52477528214E+03  0.21682733418E+04  0.21038108727E+04 0.  0.
        5    1    3    3  502    0 -0.28943234334E+03  0.82051360767E+03 -0.34688523893E+03  0.93667770376E+03  0.46999998093E+01 0.  1.
       -5    1    3    3    0  502  0.28943234334E+03 -0.82051360767E+03  0.87166052107E+03  0.12315956381E+04  0.46999998093E+01 0. -1.
</event>
<event>
 5   0  0.2448804E-04  0.2069178E+04  0.7818609E-02  0.8574944E-01
       -2   -1    0    0    0  501  0.00000000000E+00  0.00000000000E+00  0.95727802748E+03  0.95727802748E+03  0.25500000920E-02 0. -1.
        2   -1    0    0  501    0  0.00000000000E+00  0.00000000000E+00 -0.11181437506E+04  0.11181437506E+04  0.25500000920E-02 0.  1.
    10030    2    1    2    0    0  0.00000000000E+00  0.00000000000E+00 -0.16086572315E+03  0.20754217781E+04  0.20691780436E+04 0.  0.
        2    1    3    3  502    0 -0.10369489957E+03 -0.92460473258E+03  0.37340113372E+03  0.10025342639E+04  0.25500000920E-02 0.  1.
       -2    1    3    3    0  502  0.10369489957E+03  0.92460473258E+03 -0.53426685686E+03  0.10728875142E+04  0.25500000920E-02 0. -1.
</event>
<event>
 5   0  0.1122711E-04  0.2089472E+04  0.7818609E-02  0.8565895E-01
       -1   -1    0    0    0  501  0.00000000000E+00  0.00000000000E+00  0.78831936509E+03  0.78831936511E+03  0.50400001928E-02 0.  1.
        1   -1    0    0  501    0  0.00000000000E+00  0.00000000000E+00 -0.13845574220E+04  0.13845574220E+04  0.50400001928E-02 0. -1.
    10030    2    1    2    0    0  0.00000000000E+00  0.00000000000E+00 -0.59623805686E+03  0.21728767871E+04  0.20894721131E+04 0.  0.
        1    1    3    3  502    0 -0.10480772583E+03  0.65912463859E+03  0.53773298852E+03  0.85708034370E+03  0.50400001928E-02 0.  1.
       -1    1    3    3    0  502  0.10480772583E+03 -0.65912463859E+03 -0.11339710454E+04  0.13157964434E+04  0.50400001928E-02 0. -1.
</event>
<event>
 5   0  0.1122711E-04  0.2093672E+04  0.7818609E-02  0.8564036E-01
        1   -1    0    0  501    0  0.00000000000E+00  0.00000000000E+00  0.15944418578E+04  0.15944418578E+04  0.50400001928E-02 0. -1.
       -1   -1    0    0    0  501  0.00000000000E+00  0.00000000000E+00 -0.68730384603E+03  0.68730384605E+03  0.50400001928E-02 0.  1.
    10030    2    1    2    0    0  0.00000000000E+00  0.00000000000E+00  0.90713801175E+03  0.22817457038E+04  0.20936723919E+04 0.  0.
        1    1    3    3  502    0  0.40073755360E+03 -0.58707002496E+03 -0.38398754812E+03  0.80789122919E+03  0.50400001928E-02 0.  1.
       -1    1    3    3    0  502 -0.40073755360E+03  0.58707002496E+03  0.12911255599E+04  0.14738544746E+04  0.50400001928E-02 0. -1.
</event>
<event>
 5   0  0.1122711E-04  0.2173298E+04  0.7818609E-02  0.8529625E-01
       -1   -1    0    0    0  501  0.00000000000E+00  0.00000000000E+00  0.10403007257E+04  0.10403007257E+04  0.50400001928E-02 0. -1.
        1   -1    0    0  501    0  0.00000000000E+00  0.00000000000E+00 -0.11350617412E+04  0.11350617413E+04  0.50400001928E-02 0.  1.
    10030    2    1    2    0    0  0.00000000000E+00  0.00000000000E+00 -0.94761015550E+02  0.21753624670E+04  0.21732975435E+04 0.  0.
        1    1    3    3  502    0 -0.89606611981E+03  0.49522396597E+03 -0.41190269768E+03  0.11035601932E+04  0.50400001928E-02 0.  1.
       -1    1    3    3    0  502  0.89606611981E+03 -0.49522396597E+03  0.31714168213E+03  0.10718022738E+04  0.50400001928E-02 0. -1.
</event>
<event>
 5   0  0.2467483E-04  0.1998281E+04  0.7818609E-02  0.8607425E-01
       -2   -1    0    0    0  501  0.00000000000E+00  0.00000000000E+00  0.70710707726E+03  0.70710707726E+03  0.25500000920E-02 0. -1.
        2   -1    0    0  501    0  0.00000000000E+00  0.00000000000E+00 -0.14117836151E+04  0.14117836151E+04  0.25500000920E-02 0.  1.
    10030    2    1    2    0    0  0.00000000000E+00  0.00000000000E+00 -0.70467653784E+03  0.21188906924E+04  0.19982814474E+04 0.  0.
        4    1    3    3  502    0 -0.71936116826E+03  0.15530108333E+03  0.36423182773E+03  0.82113662330E+03  0.12699999809E+01 0. -1.
       -4    1    3    3    0  502  0.71936116826E+03 -0.15530108333E+03 -0.10689083656E+04  0.12977540691E+04  0.12699999809E+01 0.  1.
</event>
<event>
 5   0  0.1042395E-04  0.1944824E+04  0.7818609E-02  0.8632861E-01
        1   -1    0    0  501    0  0.00000000000E+00  0.00000000000E+00  0.11578878042E+04  0.11578878043E+04  0.50400001928E-02 0.  1.
       -1   -1    0    0    0  501  0.00000000000E+00  0.00000000000E+00 -0.81664695635E+03  0.81664695636E+03  0.50400001928E-02 0. -1.
    10030    2    1    2    0    0  0.00000000000E+00  0.00000000000E+00  0.34124084790E+03  0.19745347606E+04  0.19448244663E+04 0.  0.
        3    1    3    3  502    0  0.76239510969E+03 -0.42770656542E+03  0.60304522552E+03  0.10619994179E+04  0.10100000352E+00 0.  1.
       -3    1    3    3    0  502 -0.76239510969E+03  0.42770656542E+03 -0.26180437762E+03  0.91253534273E+03  0.10100000352E+00 0. -1.
</event>
<event>
 5   0  0.2467483E-04  0.1995002E+04  0.7818609E-02  0.8608961E-01
       -2   -1    0    0    0  501  0.00000000000E+00  0.00000000000E+00  0.68325458566E+03  0.68325458567E+03  0.25500000920E-02 0.  1.
        2   -1    0    0  501    0  0.00000000000E+00  0.00000000000E+00 -0.14562770020E+04  0.14562770020E+04  0.25500000920E-02 0. -1.
    10030    2    1    2    0    0  0.00000000000E+00  0.00000000000E+00 -0.77302241632E+03  0.21395315876E+04  0.19950016938E+04 0.  0.
        4    1    3    3  502    0  0.29956087580E+03  0.73680139657E+03 -0.10321141788E+04  0.13030250601E+04  0.12699999809E+01 0. -1.
       -4    1    3    3    0  502 -0.29956087580E+03 -0.73680139657E+03  0.25909176249E+03  0.83650652753E+03  0.12699999809E+01 0.  1.
</event>
<event>
 5   0  0.2512839E-04  0.2101234E+04  0.7818609E-02  0.8560700E-01
        2   -1    0    0  501    0  0.00000000000E+00  0.00000000000E+00  0.14336914465E+04  0.14336914465E+04  0.25500000920E-02 0.  1.
       -2   -1    0    0    0  501  0.00000000000E+00  0.00000000000E+00 -0.76989816131E+03  0.76989816132E+03  0.25500000920E-02 0. -1.
    10030    2    1    2    0    0  0.00000000000E+00  0.00000000000E+00  0.66379328522E+03  0.22035896078E+04  0.21012343121E+04 0.  0.
        3    1    3    3  502    0 -0.70933691550E+03 -0.68376271151E+03  0.71450565848E+03  0.12170491574E+04  0.10100000352E+00 0. -1.
       -3    1    3    3    0  502  0.70933691550E+03  0.68376271151E+03 -0.50712373262E+02  0.98654045044E+03  0.10100000352E+00 0.  1.
</event>
<event>
 5   0  0.2430898E-04  0.2070355E+04  0.7818609E-02  0.8574416E-01
        2   -1    0    0  501    0  0.00000000000E+00  0.00000000000E+00  0.11782695092E+04  0.11782695092E+04  0.25500000920E-02 0. -1.
       -2   -1    0    0    0  501  0.00000000000E+00  0.00000000000E+00 -0.90946296136E+03  0.90946296136E+03  0.25500000920E-02 0.  1.
    10030    2    1    2    0    0  0.00000000000E+00  0.00000000000E+00  0.26880654787E+03  0.20877324706E+04  0.20703550199E+04 0.  0.
        1    1    3    3  502    0  0.44504003030E+03 -0.62612417846E+03  0.83412978878E+03  0.11339597083E+04  0.50400001928E-02 0. -1.
       -1    1    3    3    0  502 -0.44504003030E+03  0.62612417846E+03 -0.56532324091E+03  0.95377276233E+03  0.50400001928E-02 0.  1.
</event>
<event>
 5   0  0.2467483E-04  0.2126284E+04  0.7818609E-02  0.8549753E-01
       -2   -1    0    0    0  501  0.00000000000E+00  0.00000000000E+00  0.90360802571E+03  0.90360802572E+03  0.25500000920E-02 0. -1.
        2   -1    0    0  501    0  0.00000000000E+00  0.00000000000E+00 -0.12508417213E+04  0.12508417213E+04  0.25500000920E-02 0.  1.
    10030    2    1    2    0    0  0.00000000000E+00  0.00000000000E+00 -0.34723369558E+03  0.21544497470E+04  0.21262837236E+04 0.  0.
        4    1    3    3  502    0 -0.10335457027E+04 -0.23941006222E+03 -0.10389320043E+03  0.10659874799E+04  0.12699999809E+01 0.  1.
       -4    1    3    3    0  502  0.10335457027E+04  0.23941006222E+03 -0.24334049515E+03  0.10884622671E+04  0.12699999809E+01 0. -1.
</event>
<event>
 5   0  0.1042395E-04  0.2020653E+04  0.7818609E-02  0.8597025E-01
       -1   -1    0    0    0  501  0.00000000000E+00  0.00000000000E+00  0.11122997970E+04  0.11122997970E+04  0.50400001928E-02 0. -1.
        1   -1    0    0  501    0  0.00000000000E+00  0.00000000000E+00 -0.91770208533E+03  0.91770208534E+03  0.50400001928E-02 0.  1.
    10030    2    1    2    0    0  0.00000000000E+00  0.00000000000E+00  0.19459771164E+03  0.20300018823E+04  0.20206532045E+04 0.  0.
        3    1    3    3  502    0 -0.40074597568E+03  0.49280853536E+03 -0.69202201137E+03  0.93933596970E+03  0.10100000352E+00 0.  1.
       -3    1    3    3    0  502  0.40074597568E+03 -0.49280853536E+03  0.88661972300E+03  0.10906659126E+04  0.10100000352E+00 0. -1.
</event>
<event>
 5   0  0.2512839E-04  0.1997402E+04  0.7818609E-02  0.8607836E-01
        2   -1    0    0  501    0  0.00000000000E+00  0.00000000000E+00  0.19601409123E+04  0.19601409123E+04  0.25500000920E-02 0. -1.
       -2   -1    0    0    0  501  0.00000000000E+00  0.00000000000E+00 -0.50884302751E+03  0.50884302751E+03  0.25500000920E-02 0.  1.
    10030    2    1    2    0    0  0.00000000000E+00  0.00000000000E+00  0.14512978848E+04  0.24689839399E+04  0.19974023492E+04 0.  0.
        3    1    3    3  502    0  0.64720314231E+03  0.72899363777E+03  0.45738334520E+03  0.10768022873E+04  0.10100000352E+00 0.  1.
       -3    1    3    3    0  502 -0.64720314231E+03 -0.72899363777E+03  0.99391453964E+03  0.13921816525E+04  0.10100000352E+00 0. -1.
</event>
<event>
 5   0  0.1042395E-04  0.2038322E+04  0.7818609E-02  0.8588911E-01
        1   -1    0    0  501    0  0.00000000000E+00  0.00000000000E+00  0.11203280851E+04  0.11203280851E+04  0.50400001928E-02 0. -1.
       -1   -1    0    0    0  501  0.00000000000E+00  0.00000000000E+00 -0.92712914604E+03  0.92712914606E+03  0.50400001928E-02 0.  1.
    10030    2    1    2    0    0  0.00000000000E+00  0.00000000000E+00  0.19319893904E+03  0.20474572311E+04  0.20383216830E+04 0.  0.
        3    1    3    3  502    0 -0.56315614429E+03 -0.52703196341E+03  0.76575427659E+03  0.10868703490E+04  0.10100000352E+00 0. -1.
       -3    1    3    3    0  502  0.56315614429E+03  0.52703196341E+03 -0.57255533755E+03  0.96058688210E+03  0.10100000352E+00 0.  1.
</event>
<event>
 5   0  0.2467483E-04  0.1725882E+04  0.7818609E-02  0.8746739E-01
       -2   -1    0    0    0  501  0.00000000000E+00  0.00000000000E+00  0.94151724981E+03  0.94151724982E+03  0.25500000920E-02 0.  1.
        2   -1    0    0  501    0  0.00000000000E+00  0.00000000000E+00 -0.79092214855E+03  0.79092214856E+03  0.25500000920E-02 0. -1.
    10030    2    1    2    0    0  0.00000000000E+00  0.00000000000E+00  0.15059510126E+03  0.17324393984E+04  0.17258816253E+04 0.  0.
        4    1    3    3  502    0  0.80438136733E+03 -0.20369813998E+03 -0.16254772696E+03  0.84554461312E+03  0.12699999809E+01 0.  1.
       -4    1    3    3    0  502 -0.80438136733E+03  0.20369813998E+03  0.31314282822E+03  0.88689478525E+03  0.12699999809E+01 0. -1.
</event>
<event>
 5   0  0.2448804E-04  0.1361381E+04  0.7818609E-02  0.8982257E-01
       -2   -1    0    0    0  501  0.00000000000E+00  0.00000000000E+00  0.64665696344E+03  0.64665696345E+03  0.25500000920E-02 0.  1.
        2   -1    0    0  501    0  0.00000000000E+00  0.00000000000E+00 -0.71651543555E+03  0.71651543556E+03  0.25500000920E-02 0. -1.
    10030    2    1    2    0    0  0.00000000000E+00  0.00000000000E+00 -0.69858472107E+02  0.13631723990E+04  0.13613812043E+04 0.  0.
        2    1    3    3  502    0 -0.55318862314E+03 -0.35768873256E+03  0.13670461341E+03  0.67279048262E+03  0.25500000920E-02 0.  1.
       -2    1    3    3    0  502  0.55318862314E+03  0.35768873256E+03 -0.20656308551E+03  0.69038191639E+03  0.25500000920E-02 0. -1.
</event>
<event>
 5   0  0.2430898E-04  0.2108881E+04  0.7818609E-02  0.8557341E-01
        2   -1    0    0  501    0  0.00000000000E+00  0.00000000000E+00  0.12843578565E+04  0.12843578565E+04  0.25500000920E-02 0.  1.
       -2   -1    0    0    0  501  0.00000000000E+00  0.00000000000E+00 -0.86568177897E+03  0.86568177898E+03  0.25500000920E-02 0. -1.
    10030    2    1    2    0    0  0.00000000000E+00  0.00000000000E+00  0.41867607749E+03  0.21500396354E+04  0.21088814040E+04 0.  0.
        1    1    3    3  502    0  0.10265930009E+04  0.17453255303E+03  0.40299869941E+02  0.10421031048E+04  0.50400001928E-02 0. -1.
       -1    1    3    3    0  502 -0.10265930009E+04 -0.17453255303E+03  0.37837620755E+03  0.11079365306E+04  0.50400001928E-02 0.  1.
</event>
<event>
 5   0  0.2512839E-04  0.2120085E+04  0.7818609E-02  0.8552447E-01
       -2   -1    0    0    0  501  0.00000000000E+00  0.00000000000E+00  0.69331123278E+03  0.69331123279E+03  0.25500000920E-02 0.  1.
        2   -1    0    0  501    0  0.00000000000E+00  0.00000000000E+00 -0.16207588347E+04  0.16207588347E+04  0.25500000920E-02 0. -1.
    10030    2    1    2    0    0  0.00000000000E+00  0.00000000000E+00 -0.92744760187E+03  0.23140700674E+04  0.21200851923E+04 0.  0.
        3    1    3    3  502    0 -0.22214112566E+03 -0.73771540796E+03 -0.12584364396E+04  0.14755449791E+04  0.10100000352E+00 0. -1.
       -3    1    3    3    0  502  0.22214112566E+03  0.73771540796E+03  0.33098883768E+03  0.83852508831E+03  0.10100000352E+00 0.  1.
</event>
<event>
 5   0  0.2448804E-04  0.2112325E+04  0.7818609E-02  0.8555833E-01
       -2   -1    0    0    0  501  0.00000000000E+00  0.00000000000E+00  0.71002085727E+03  0.71002085728E+03  0.25500000920E-02 0. -1.
        2   -1    0    0  501    0  0.00000000000E+00  0.00000000000E+00 -0.15710514914E+04  0.15710514914E+04  0.25500000920E-02 0.  1.
    10030    2    1    2    0    0  0.00000000000E+00  0.00000000000E+00 -0.86103063413E+03  0.22810723487E+04  0.21123250950E+04 0.  0.
        2    1    3    3  502    0 -0.63813159901E+03  0.38682299901E+03 -0.12376434979E+04  0.14452008159E+04  0.25500000920E-02 0.  1.
       -2    1    3    3    0  502  0.63813159901E+03 -0.38682299901E+03  0.37661286378E+03  0.83587153283E+03  0.25500000920E-02 0. -1.
</event>
<event>
 5   0  0.1156733E-04  0.2062255E+04  0.7818609E-02  0.8578055E-01
        1   -1    0    0  501    0  0.00000000000E+00  0.00000000000E+00  0.11194191233E+04  0.11194191233E+04  0.50400001928E-02 0. -1.
       -1   -1    0    0    0  501  0.00000000000E+00  0.00000000000E+00 -0.94980013325E+03  0.94980013326E+03  0.50400001928E-02 0.  1.
    10030    2    1    2    0    0  0.00000000000E+00  0.00000000000E+00  0.16961899004E+03  0.20692192566E+04  0.20622554958E+04 0.  0.
        2    1    3    3  502    0 -0.86874973901E+03  0.46497787014E+03 -0.22001548188E+03  0.10096223755E+04  0.25500000920E-02 0.  1.
       -2    1    3    3    0  502  0.86874973901E+03 -0.46497787014E+03  0.38963447192E+03  0.10595968811E+04  0.25500000920E-02 0. -1.
</event>
<event>
 5   0  0.1156733E-04  0.2112148E+04  0.7818609E-02  0.8555911E-01
        1   -1    0    0  501    0  0.00000000000E+00  0.00000000000E+00  0.12001647903E+04  0.12001647903E+04  0.50400001928E-02 0. -1.
       -1   -1    0    0    0  501  0.00000000000E+00  0.00000000000E+00 -0.92928289367E+03  0.92928289369E+03  0.50400001928E-02 0.  1.
    10030    2    1    2    0    0  0.00000000000E+00  0.00000000000E+00  0.27088189664E+03  0.21294476840E+04  0.21121482990E+04 0.  0.
        2    1    3    3  502    0 -0.82877790854E+03 -0.32758367614E+03 -0.43586483254E+03  0.99204941349E+03  0.25500000920E-02 0.  1.
       -2    1    3    3    0  502  0.82877790854E+03  0.32758367614E+03  0.70674672918E+03  0.11373982705E+04  0.25500000920E-02 0. -1.
</event>
<event>
 5   0  0.1186038E-04  0.2091087E+04  0.7818609E-02  0.8565180E-01
        1   -1    0    0  501    0  0.00000000000E+00  0.00000000000E+00  0.88600371707E+03  0.88600371708E+03  0.50400001928E-02 0.  1.
       -1   -1    0    0    0  501  0.00000000000E+00  0.00000000000E+00 -0.12338112455E+04  0.12338112455E+04  0.50400001928E-02 0. -1.
    10030    2    1    2    0    0  0.00000000000E+00  0.00000000000E+00 -0.34780752838E+03  0.21198149625E+04  0.20910871332E+04 0.  0.
        4    1    3    3  502    0 -0.24524573250E+03 -0.33036231404E+03 -0.11482929005E+04  0.12197798679E+04  0.12699999809E+01 0. -1.
       -4    1    3    3    0  502  0.24524573250E+03  0.33036231404E+03  0.80048537209E+03  0.90003509469E+03  0.12699999809E+01 0.  1.
</event>
<event>
 5   0  0.1130848E-04  0.1945975E+04  0.7818609E-02  0.8632304E-01
        1   -1    0    0  501    0  0.00000000000E+00  0.00000000000E+00  0.15609603210E+04  0.15609603210E+04  0.50400001928E-02 0. -1.
       -1   -1    0    0    0  501  0.00000000000E+00  0.00000000000E+00 -0.60648842361E+03  0.60648842363E+03  0.50400001928E-02 0.  1.
    10030    2    1    2    0    0  0.00000000000E+00  0.00000000000E+00  0.95447189740E+03  0.21674487446E+04  0.19459746807E+04 0.  0.
        5    1    3    3  502    0 -0.37607473257E+03  0.41312627033E+03 -0.41002982831E+03  0.69300221487E+03  0.46999998093E+01 0.  1.
       -5    1    3    3    0  502  0.37607473257E+03 -0.41312627033E+03  0.13645017257E+04  0.14744465298E+04  0.46999998093E+01 0. -1.
</event>
<event>
 5   0  0.1130848E-04  0.2139685E+04  0.7818609E-02  0.8543961E-01
       -1   -1    0    0    0  501  0.00000000000E+00  0.00000000000E+00  0.18040504528E+04  0.18040504528E+04  0.50400001928E-02 0.  1.
        1   -1    0    0  501    0  0.00000000000E+00  0.00000000000E+00 -0.63444043039E+03  0.63444043041E+03  0.50400001928E-02 0. -1.
    10030    2    1    2    0    0  0.00000000000E+00  0.00000000000E+00  0.11696100224E+04  0.24384908832E+04  0.21396845989E+04 0.  0.
        5    1    3    3  502    0  0.84197161098E+03 -0.50228936875E+03  0.96841067455E+02  0.98519596325E+03  0.46999998093E+01 0. -1.
       -5    1    3    3    0  502 -0.84197161098E+03  0.50228936875E+03  0.10727689549E+04  0.14532949199E+04  0.46999998093E+01 0.  1.
</event>
<event>
 5   0  0.2512839E-04  0.1882636E+04  0.7818609E-02  0.8663548E-01
       -2   -1    0    0    0  501  0.00000000000E+00  0.00000000000E+00  0.74315214937E+03  0.74315214937E+03  0.25500000920E-02 0. -1.
        2   -1    0    0  501    0  0.00000000000E+00  0.00000000000E+00 -0.11923253635E+04  0.11923253635E+04  0.25500000920E-02 0.  1.
    10030    2    1    2    0    0  0.00000000000E+00  0.00000000000E+00 -0.44917321414E+03  0.19354775129E+04  0.18826355533E+04 0.  0.
        3    1    3    3  502    0  0.32947518103E+03  0.44787695640E+03  0.55629284227E+03  0.78651725954E+03  0.10100000352E+00 0. -1.
       -3    1    3    3    0  502 -0.32947518103E+03 -0.44787695640E+03 -0.10054660564E+04  0.11489602534E+04  0.10100000352E+00 0.  1.
</event>
<event>
 5   0  0.2512839E-04  0.2036197E+04  0.7818609E-02  0.8589882E-01
        2   -1    0    0  501    0  0.00000000000E+00  0.00000000000E+00  0.22959806137E+04  0.22959806137E+04  0.25500000920E-02 0.  1.
       -2   -1    0    0    0  501  0.00000000000E+00  0.00000000000E+00 -0.45145176884E+03  0.45145176885E+03  0.25500000920E-02 0. -1.
    10030    2    1    2    0    0  0.00000000000E+00  0.00000000000E+00  0.18445288449E+04  0.27474323826E+04  0.20361969544E+04 0.  0.
        3    1    3    3  502    0 -0.65495599718E+03 -0.71779194837E+03  0.13322636332E+04  0.16489751478E+04  0.10100000352E+00 0. -1.
       -3    1    3    3    0  502  0.65495599718E+03  0.71779194837E+03  0.51226521167E+03  0.10984572348E+04  0.10100000352E+00 0.  1.
</event>
<event>
 5   0  0.1130848E-04  0.1639093E+04  0.7818609E-02  0.8796885E-01
        1   -1    0    0  501    0  0.00000000000E+00  0.00000000000E+00  0.53123517459E+03  0.53123517461E+03  0.50400001928E-02 0.  1.
       -1   -1    0    0    0  501  0.00000000000E+00  0.00000000000E+00 -0.12643297480E+04  0.12643297480E+04  0.50400001928E-02 0. -1.
    10030    2    1    2    0    0  0.00000000000E+00  0.00000000000E+00 -0.73309457341E+03  0.17955649226E+04  0.16390929619E+04 0.  0.
        5    1    3    3  502    0  0.26869482879E+03 -0.17966826661E+03  0.45844346251E+03  0.56095462861E+03  0.46999998093E+01 0.  1.
       -5    1    3    3    0  502 -0.26869482879E+03  0.17966826661E+03 -0.11915380359E+04  0.12346102940E+04  0.46999998093E+01 0. -1.
</event>
<event>
 5   0  0.2430898E-04  0.2089791E+04  0.7818609E-02  0.8565754E-01
       -2   -1    0    0    0  501  0.00000000000E+00  0.00000000000E+00  0.70886439239E+03  0.70886439239E+03  0.25500000920E-02 0.  1.
        2   -1    0    0  501    0  0.00000000000E+00  0.00000000000E+00 -0.15402187543E+04  0.15402187543E+04  0.25500000920E-02 0. -1.
    10030    2    1    2    0    0  0.00000000000E+00  0.00000000000E+00 -0.83135436191E+03  0.22490831467E+04  0.20897906416E+04 0.  0.
        1    1    3    3  502    0  0.69840431602E+03 -0.51817578559E+03 -0.10390808861E+04  0.13549774246E+04  0.50400001928E-02 0. -1.
       -1    1    3    3    0  502 -0.69840431602E+03  0.51817578559E+03  0.20772652415E+03  0.89410572208E+03  0.50400001928E-02 0.  1.
</event>
<event>
 5   0  0.1156733E-04  0.2147893E+04  0.7818609E-02  0.8540435E-01
        1   -1    0    0  501    0  0.00000000000E+00  0.00000000000E+00  0.18765789388E+04  0.18765789388E+04  0.50400001928E-02 0.  1.
       -1   -1    0    0    0  501  0.00000000000E+00  0.00000000000E+00 -0.61460823790E+03  0.61460823792E+03  0.50400001928E-02 0. -1.
    10030    2    1    2    0    0  0.00000000000E+00  0.00000000000E+00  0.12619707009E+04  0.24911871767E+04  0.21478928045E+04 0.  0.
        2    1    3    3  502    0 -0.25485708244E+03  0.10033252238E+04  0.29937330304E+03  0.10776075407E+04  0.25500000920E-02 0. -1.
       -2    1    3    3    0  502  0.25485708244E+03 -0.10033252238E+04  0.96259739782E+03  0.14135796360E+04  0.25500000920E-02 0.  1.
</event>
<event>
 5   0  0.2512839E-04  0.2131102E+04  0.7818609E-02  0.8547665E-01
        2   -1    0    0  501    0  0.00000000000E+00  0.00000000000E+00  0.10936005476E+04  0.10936005476E+04  0.25500000920E-02 0. -1.
       -2   -1    0    0    0  501  0.00000000000E+00  0.00000000000E+00 -0.10382207646E+04  0.10382207646E+04  0.25500000920E-02 0.  1.
    10030    2    1    2    0    0  0.00000000000E+00  0.00000000000E+00  0.55379783070E+02  0.21318213122E+04  0.21311018715E+04 0.  0.
        3    1    3    3  502    0  0.60715597622E+03  0.67533820274E+03 -0.52988388743E+03  0.10514261800E+04  0.10100000352E+00 0.  1.
       -3    1    3    3    0  502 -0.60715597622E+03 -0.67533820274E+03  0.58526367050E+03  0.10803951322E+04  0.10100000352E+00 0. -1.
</event>
<event>
 5   0  0.2467483E-04  0.1591400E+04  0.7818609E-02  0.8825849E-01
        2   -1    0    0  501    0  0.00000000000E+00  0.00000000000E+00  0.79037474971E+03  0.79037474971E+03  0.25500000920E-02 0. -1.
       -2   -1    0    0    0  501  0.00000000000E+00  0.00000000000E+00 -0.80106145184E+03  0.80106145184E+03  0.25500000920E-02 0.  1.
    10030    2    1    2    0    0  0.00000000000E+00  0.00000000000E+00 -0.10686702130E+02  0.15914362015E+04  0.15914003198E+04 0.  0.
        4    1    3    3  502    0 -0.36833137949E+03 -0.60188631045E+03  0.36236317963E+03  0.79324890335E+03  0.12699999809E+01 0. -1.
       -4    1    3    3    0  502  0.36833137949E+03  0.60188631045E+03 -0.37304988176E+03  0.79818729820E+03  0.12699999809E+01 0.  1.
</event>
<event>
 5   0  0.2579241E-04  0.2109841E+04  0.7818609E-02  0.8556921E-01
       -2   -1    0    0    0  501  0.00000000000E+00  0.00000000000E+00  0.76189342520E+03  0.76189342521E+03  0.25500000920E-02 0. -1.
        2   -1    0    0  501    0  0.00000000000E+00  0.00000000000E+00 -0.14606465303E+04  0.14606465303E+04  0.25500000920E-02 0.  1.
    10030    2    1    2    0    0  0.00000000000E+00  0.00000000000E+00 -0.69875310514E+03  0.22225399556E+04  0.21098407409E+04 0.  0.
        5    1    3    3  502    0 -0.81916466709E+03  0.23404063649E+03 -0.10047241746E+04  0.13173073022E+04  0.46999998093E+01 0.  1.
       -5    1    3    3    0  502  0.81916466709E+03 -0.23404063649E+03  0.30597106949E+03  0.90523265335E+03  0.46999998093E+01 0. -1.
</event>
<event>
 5   0  0.1122711E-04  0.2026106E+04  0.7818609E-02  0.8594511E-01
        1   -1    0    0  501    0  0.00000000000E+00  0.00000000000E+00  0.11916325637E+04  0.11916325638E+04  0.50400001928E-02 0. -1.
       -1   -1    0    0    0  501  0.00000000000E+00  0.00000000000E+00 -0.86123589072E+03  0.86123589073E+03  0.50400001928E-02 0.  1.
    10030    2    1    2    0    0  0.00000000000E+00  0.00000000000E+00  0.33039667303E+03  0.20528684545E+04  0.20261063471E+04 0.  0.
        1    1    3    3  502    0 -0.87289823459E+03  0.34128079691E+03  0.55479362253E+03  0.10891372154E+04  0.50400001928E-02 0.  1.
       -1    1    3    3    0  502  0.87289823459E+03 -0.34128079691E+03 -0.22439694950E+03  0.96373123912E+03  0.50400001928E-02 0. -1.
</event>
<event>
 5   0  0.1042395E-04  0.2056709E+04  0.7818609E-02  0.8580557E-01
       -1   -1    0    0    0  501  0.00000000000E+00  0.00000000000E+00  0.55812724262E+03  0.55812724265E+03  0.50400001928E-02 0.  1.
        1   -1    0    0  501    0  0.00000000000E+00  0.00000000000E+00 -0.18947523699E+04  0.18947523699E+04  0.50400001928E-02 0. -1.
    10030    2    1    2    0    0  0.00000000000E+00  0.00000000000E+00 -0.13366251273E+04  0.24528796126E+04  0.20567089398E+04 0.  0.
        3    1    3    3  502    0 -0.26961244760E+03  0.48637439019E+03 -0.16999574717E+04  0.17886045777E+04  0.10100000352E+00 0. -1.
       -3    1    3    3    0  502  0.26961244760E+03 -0.48637439019E+03  0.36333234442E+03  0.66427503493E+03  0.10100000352E+00 0.  1.
</event>
<event>
 5   0  0.1186038E-04  0.1342689E+04  0.7818609E-02  0.8996381E-01
        1   -1    0    0  501    0  0.00000000000E+00  0.00000000000E+00  0.86762465313E+03  0.86762465314E+03  0.50400001928E-02 0.  1.
       -1   -1    0    0    0  501  0.00000000000E+00  0.00000000000E+00 -0.51946844650E+03  0.51946844653E+03  0.50400001928E-02 0. -1.
    10030    2    1    2    0    0  0.00000000000E+00  0.00000000000E+00  0.34815620663E+03  0.13870930997E+04  0.13426892876E+04 0.  0.
        4    1    3    3  502    0  0.24711402128E+03 -0.48204682990E+03 -0.23560648158E+03  0.59071694811E+03  0.12699999809E+01 0.  1.
       -4    1    3    3    0  502 -0.24711402128E+03  0.48204682990E+03  0.58376268820E+03  0.79637615156E+03  0.12699999809E+01 0. -1.
</event>
<event>
 5   0  0.1130848E-04  0.2083829E+04  0.7818609E-02  0.8568400E-01
        1   -1    0    0  501    0  0.00000000000E+00  0.00000000000E+00  0.10355724612E+04  0.10355724612E+04  0.50400001928E-02 0. -1.
       -1   -1    0    0    0  501  0.00000000000E+00  0.00000000000E+00 -0.10482953274E+04  0.10482953274E+04  0.50400001928E-02 0.  1.
    10030    2    1    2    0    0  0.00000000000E+00  0.00000000000E+00 -0.12722866168E+02  0.20838677886E+04  0.20838289491E+04 0.  0.
        5    1    3    3  502    0  0.72357853817E+03 -0.52303068251E+03  0.53071159610E+03  0.10386548435E+04  0.46999998093E+01 0. -1.
       -5    1    3    3    0  502 -0.72357853817E+03  0.52303068251E+03 -0.54343446227E+03  0.10452129451E+04  0.46999998093E+01 0.  1.
</event>
<event>
 5   0  0.2512839E-04  0.2086104E+04  0.7818609E-02  0.8567389E-01
        2   -1    0    0  501    0  0.00000000000E+00  0.00000000000E+00  0.12308639183E+04  0.12308639183E+04  0.25500000920E-02 0.  1.
       -2   -1    0    0    0  501  0.00000000000E+00  0.00000000000E+00 -0.88389749154E+03  0.88389749154E+03  0.25500000920E-02 0. -1.
    10030    2    1    2    0    0  0.00000000000E+00  0.00000000000E+00  0.34696642673E+03  0.21147614098E+04  0.20861040528E+04 0.  0.
        3    1    3    3  502    0 -0.53464908030E+03 -0.34326291072E+03 -0.66509165548E+03  0.91979670870E+03  0.10100000352E+00 0. -1.
       -3    1    3    3    0  502  0.53464908030E+03  0.34326291072E+03  0.10120580822E+04  0.11949647011E+04  0.10100000352E+00 0.  1.
</event>
<event>
 5   0  0.1156733E-04  0.2013638E+04  0.7818609E-02  0.8600271E-01
        1   -1    0    0  501    0  0.00000000000E+00  0.00000000000E+00  0.10875503614E+04  0.10875503614E+04  0.50400001928E-02 0. -1.
       -1   -1    0    0    0  501  0.00000000000E+00  0.00000000000E+00 -0.93208078245E+03  0.93208078246E+03  0.50400001928E-02 0.  1.
    10030    2    1    2    0    0  0.00000000000E+00  0.00000000000E+00  0.15546957891E+03  0.20196311438E+04  0.20136382910E+04 0.  0.
        2    1    3    3  502    0  0.16831003097E+03 -0.41586255493E+03 -0.82628830969E+03  0.94022460181E+03  0.25500000920E-02 0.  1.
       -2    1    3    3    0  502 -0.16831003097E+03  0.41586255493E+03  0.98175788860E+03  0.10794065420E+04  0.25500000920E-02 0. -1.
</event>
<event>
 5   0  0.1186038E-04  0.1560601E+04  0.7818609E-02  0.8845125E-01
        1   -1    0    0  501    0  0.00000000000E+00  0.00000000000E+00  0.10421584641E+04  0.10421584641E+04  0.50400001928E-02 0.  1.
       -1   -1    0    0    0  501  0.00000000000E+00  0.00000000000E+00 -0.58423835936E+03  0.58423835938E+03  0.50400001928E-02 0. -1.
    10030    2    1    2    0    0  0.00000000000E+00  0.00000000000E+00  0.45792010471E+03  0.16263968235E+04  0.15606011038E+04 0.  0.
        4    1    3    3  502    0 -0.34136289506E+02  0.40278596730E+03 -0.46661124595E+03  0.61735685747E+03  0.12699999809E+01 0. -1.
       -4    1    3    3    0  502  0.34136289506E+02 -0.40278596730E+03  0.92453135066E+03  0.10090399660E+04  0.12699999809E+01 0.  1.
</event>
<event>
 5   0  0.1042395E-04  0.2120548E+04  0.7818609E-02  0.8552246E-01
        1   -1    0    0  501    0  0.00000000000E+00  0.00000000000E+00  0.15384229874E+04  0.15384229874E+04  0.50400001928E-02 0.  1.
       -1   -1    0    0    0  501  0.00000000000E+00  0.00000000000E+00 -0.73073559625E+03  0.73073559627E+03  0.50400001928E-02 0. -1.
    10030    2    1    2    0    0  0.00000000000E+00  0.00000000000E+00  0.80768739116E+03  0.22691585837E+04  0.21205475133E+04 0.  0.
        3    1    3    3  502    0 -0.74098697192E+03  0.57931683411E+03  0.92753979427E+03  0.13209843932E+04  0.10100000352E+00 0.  1.
       -3    1    3    3    0  502  0.74098697192E+03 -0.57931683411E+03 -0.11985240311E+03  0.94817419052E+03  0.10100000352E+00 0. -1.
</event>
<event>
 5   0  0.1186038E-04  0.2091844E+04  0.7818609E-02  0.8564844E-01
        1   -1    0    0  501    0  0.00000000000E+00  0.00000000000E+00  0.23946050019E+04  0.23946050019E+04  0.50400001928E-02 0. -1.
       -1   -1    0    0    0  501  0.00000000000E+00  0.00000000000E+00 -0.45684080190E+03  0.45684080192E+03  0.50400001928E-02 0.  1.
    10030    2    1    2    0    0  0.00000000000E+00  0.00000000000E+00  0.19377642000E+04  0.28514458038E+04  0.20918444200E+04 0.  0.
        4    1    3    3  502    0 -0.67072333172E+03 -0.50224419454E+03  0.11561294891E+03  0.84586463783E+03  0.12699999809E+01 0.  1.
       -4    1    3    3    0  502  0.67072333172E+03  0.50224419454E+03  0.18221512511E+04  0.20055811660E+04  0.12699999809E+01 0. -1.
</event>
<event>
 5   0  0.2448804E-04  0.2074164E+04  0.7818609E-02  0.8572711E-01
        2   -1    0    0  501    0  0.00000000000E+00  0.00000000000E+00  0.62857878382E+03  0.62857878382E+03  0.25500000920E-02 0. -1.
       -2   -1    0    0    0  501  0.00000000000E+00  0.00000000000E+00 -0.17110640583E+04  0.17110640583E+04  0.25500000920E-02 0.  1.
    10030    2    1    2    0    0  0.00000000000E+00  0.00000000000E+00 -0.10824852745E+04  0.23396428422E+04  0.20741635083E+04 0.  0.
        2    1    3    3  502    0  0.98781782943E+03 -0.19177914503E+03 -0.25817412561E+03  0.10388537836E+04  0.25500000920E-02 0. -1.
       -2    1    3    3    0  502 -0.98781782943E+03  0.19177914503E+03 -0.82431114892E+03  0.13007890586E+04  0.25500000920E-02 0.  1.
</event>
<event>
 5   0  0.2579241E-04  0.2125859E+04  0.7818609E-02  0.8549937E-01
        2   -1    0    0  501    0  0.00000000000E+00  0.00000000000E+00  0.24197016628E+04  0.24197016628E+04  0.25500000920E-02 0.  1.
       -2   -1    0    0    0  501  0.00000000000E+00  0.00000000000E+00 -0.46692480062E+03  0.46692480063E+03  0.25500000920E-02 0. -1.
    10030    2    1    2    0    0  0.00000000000E+00  0.00000000000E+00  0.19527768621E+04  0.28866264634E+04  0.21258586185E+04 0.  0.
        5    1    3    3  502    0 -0.83623138485E+03 -0.60244244728E+03  0.62340444236E+03  0.12045227354E+04  0.46999998093E+01 0. -1.
       -5    1    3    3    0  502  0.83623138485E+03  0.60244244728E+03  0.13293724198E+04  0.16821037280E+04  0.46999998093E+01 0.  1.
</event>
<event>
 5   0  0.2512839E-04  0.2043929E+04  0.7818609E-02  0.8586353E-01
        2   -1    0    0  501    0  0.00000000000E+00  0.00000000000E+00  0.25198944093E+04  0.25198944093E+04  0.25500000920E-02 0.  1.
       -2   -1    0    0    0  501  0.00000000000E+00  0.00000000000E+00 -0.41446643635E+03  0.41446643636E+03  0.25500000920E-02 0. -1.
    10030    2    1    2    0    0  0.00000000000E+00  0.00000000000E+00  0.21054279729E+04  0.29343608456E+04  0.20439292119E+04 0.  0.
        3    1    3    3  502    0  0.15279132939E+03  0.22597181529E+03 -0.36123665918E+03  0.45265923804E+03  0.10100000352E+00 0. -1.
       -3    1    3    3    0  502 -0.15279132939E+03 -0.22597181529E+03  0.24666646321E+04  0.24817016076E+04  0.10100000352E+00 0.  1.
</event>
<event>
 5   0  0.2579241E-04  0.1898462E+04  0.7818609E-02  0.8655622E-01
       -2   -1    0    0    0  501  0.00000000000E+00  0.00000000000E+00  0.50496701015E+03  0.50496701016E+03  0.25500000920E-02 0. -1.
        2   -1    0    0  501    0  0.00000000000E+00  0.00000000000E+00 -0.17843527326E+04  0.17843527326E+04  0.25500000920E-02 0.  1.
    10030    2    1    2    0    0  0.00000000000E+00  0.00000000000E+00 -0.12793857224E+04  0.22893197428E+04  0.18984617609E+04 0.  0.
        5    1    3    3  502    0 -0.34223517699E+02  0.23112087876E+03  0.46973708280E+03  0.52465524558E+03  0.46999998093E+01 0. -1.
       -5    1    3    3    0  502  0.34223517699E+02 -0.23112087876E+03 -0.17491228052E+04  0.17646644972E+04  0.46999998093E+01 0.  1.
</event>
<event>
 5   0  0.1186038E-04  0.2126242E+04  0.7818609E-02  0.8549771E-01
       -1   -1    0    0    0  501  0.00000000000E+00  0.00000000000E+00  0.66109387906E+03  0.66109387908E+03  0.50400001928E-02 0.  1.
        1   -1    0    0  501    0  0.00000000000E+00  0.00000000000E+00 -0.17096297029E+04  0.17096297029E+04  0.50400001928E-02 0. -1.
    10030    2    1    2    0    0  0.00000000000E+00  0.00000000000E+00 -0.10485358238E+04  0.23707235820E+04  0.21262415028E+04 0.  0.
        4    1    3    3  502    0 -0.92071742619E+03  0.31437789979E+03 -0.10021134466E+04  0.13967057727E+04  0.12699999809E+01 0. -1.
       -4    1    3    3    0  502  0.92071742619E+03 -0.31437789979E+03 -0.46422377227E+02  0.97401780927E+03  0.12699999809E+01 0.  1.
</event>
<event>
 5   0  0.1042395E-04  0.2018448E+04  0.7818609E-02  0.8598044E-01
       -1   -1    0    0    0  501  0.00000000000E+00  0.00000000000E+00  0.44931021322E+03  0.44931021325E+03  0.50400001928E-02 0.  1.
        1   -1    0    0  501    0  0.00000000000E+00  0.00000000000E+00 -0.22668811889E+04  0.22668811889E+04  0.50400001928E-02 0. -1.
    10030    2    1    2    0    0  0.00000000000E+00  0.00000000000E+00 -0.18175709757E+04  0.27161914021E+04  0.20184477901E+04 0.  0.
        3    1    3    3  502    0  0.27938070754E+03 -0.69266414329E+03  0.45911786637E+01  0.74689911251E+03  0.10100000352E+00 0.  1.
       -3    1    3    3    0  502 -0.27938070754E+03  0.69266414329E+03 -0.18221621543E+04  0.19692922896E+04  0.10100000352E+00 0. -1.
</event>
<event>
 5   0  0.1042395E-04  0.1983677E+04  0.7818609E-02  0.8614291E-01
       -1   -1    0    0    0  501  0.00000000000E+00  0.00000000000E+00  0.80116350421E+03  0.80116350423E+03  0.50400001928E-02 0.  1.
        1   -1    0    0  501    0  0.00000000000E+00  0.00000000000E+00 -0.12278934531E+04  0.12278934531E+04  0.50400001928E-02 0. -1.
    10030    2    1    2    0    0  0.00000000000E+00  0.00000000000E+00 -0.42672994886E+03  0.20290569573E+04  0.19836768101E+04 0.  0.
        3    1    3    3  502    0 -0.19599402631E+03 -0.64345643490E+03 -0.95893871172E+03  0.11713297166E+04  0.10100000352E+00 0. -1.
       -3    1    3    3    0  502  0.19599402631E+03  0.64345643490E+03  0.53220876286E+03  0.85772724070E+03  0.10100000352E+00 0.  1.
</event>
<event>
 5   0  0.1130848E-04  0.2087686E+04  0.7818609E-02  0.8566687E-01
       -1   -1    0    0    0  501  0.00000000000E+00  0.00000000000E+00  0.24141130842E+04  0.24141130842E+04  0.50400001928E-02 0. -1.
        1   -1    0    0  501    0  0.00000000000E+00  0.00000000000E+00 -0.45134924155E+03  0.45134924158E+03  0.50400001928E-02 0.  1.
    10030    2    1    2    0    0  0.00000000000E+00  0.00000000000E+00  0.19627638426E+04  0.28654623258E+04  0.20876859051E+04 0.  0.
        5    1    3    3  502    0  0.27526994927E+03  0.92405727490E+03  0.43247922494E+03  0.10567477288E+04  0.46999998093E+01 0.  1.
       -5    1    3    3    0  502 -0.27526994927E+03 -0.92405727490E+03  0.15302846177E+04  0.18087145970E+04  0.46999998093E+01 0. -1.
</event>
<event>
 5   0  0.2448804E-04  0.2059967E+04  0.7818609E-02  0.8579086E-01
       -2   -1    0    0    0  501  0.00000000000E+00  0.00000000000E+00  0.39290733274E+03  0.39290733275E+03  0.25500000920E-02 0.  1.
        2   -1    0    0  501    0  0.00000000000E+00  0.00000000000E+00 -0.27000400276E+04  0.27000400277E+04  0.25500000920E-02 0. -1.
    10030    2    1    2    0    0  0.00000000000E+00  0.00000000000E+00 -0.23071326949E+04  0.30929473604E+04  0.20599665294E+04 0.  0.
        2    1    3    3  502    0  0.16531528770E+03  0.20658726659E+03  0.34100995833E+03  0.43161931693E+03  0.25500000920E-02 0.  1.
       -2    1    3    3    0  502 -0.16531528770E+03 -0.20658726659E+03 -0.26481426532E+04  0.26613280435E+04  0.25500000920E-02 0. -1.
</event>
<event>
 5   0  0.2512839E-04  0.1704363E+04  0.7818609E-02  0.8758880E-01
        2   -1    0    0  501    0  0.00000000000E+00  0.00000000000E+00  0.50317470030E+03  0.50317470031E+03  0.25500000920E-02 0.  1.
       -2   -1    0    0    0  501  0.00000000000E+00  0.00000000000E+00 -0.14432630887E+04  0.14432630887E+04  0.25500000920E-02 0. -1.
    10030    2    1    2    0    0  0.00000000000E+00  0.00000000000E+00 -0.94008838841E+03  0.19464377890E+04  0.17043631915E+04 0.  0.
        3    1    3    3  502    0 -0.81981271219E+03  0.21355450207E+03 -0.57542756156E+03  0.10241168377E+04  0.10100000352E+00 0. -1.
       -3    1    3    3    0  502  0.81981271219E+03 -0.21355450207E+03 -0.36466082685E+03  0.92232095134E+03  0.10100000352E+00 0.  1.
</event>
<event>
 5   0  0.2512839E-04  0.2339902E+04  0.7818609E-02  0.8462352E-01
        2   -1    0    0  501    0  0.00000000000E+00  0.00000000000E+00  0.21832072583E+04  0.21832072583E+04  0.25500000920E-02 0. -1.
       -2   -1    0    0    0  501  0.00000000000E+00  0.00000000000E+00 -0.62696095991E+03  0.62696095992E+03  0.25500000920E-02 0.  1.
    10030    2    1    2    0    0  0.00000000000E+00  0.00000000000E+00  0.15562462984E+04  0.28101682182E+04  0.23399023213E+04 0.  0.
        3    1    3    3  502    0 -0.83567472361E+03  0.63234260510E+03  0.14028345931E+04  0.17510437801E+04  0.10100000352E+00 0. -1.
       -3    1    3    3    0  502  0.83567472361E+03 -0.63234260510E+03  0.15341170524E+03  0.10591244381E+04  0.10100000352E+00 0.  1.
</event>
<event>
 5   0  0.1156733E-04  0.2111801E+04  0.7818609E-02  0.8556063E-01
       -1   -1    0    0    0  501  0.00000000000E+00  0.00000000000E+00  0.84856538627E+03  0.84856538628E+03  0.50400001928E-02 0. -1.
        1   -1    0    0  501    0  0.00000000000E+00  0.00000000000E+00 -0.13138947891E+04  0.13138947891E+04  0.50400001928E-02 0.  1.
    10030    2    1    2    0    0  0.00000000000E+00  0.00000000000E+00 -0.46532940279E+03  0.21624601754E+04  0.21118007853E+04 0.  0.
        2    1    3    3  502    0 -0.55324868317E+03 -0.23694754328E+03  0.65572880954E+03  0.89006096160E+03  0.25500000920E-02 0. -1.
       -2    1    3    3    0  502  0.55324868317E+03  0.23694754328E+03 -0.11210582123E+04  0.12723992137E+04  0.25500000920E-02 0.  1.
</event>
<event>
 5   0  0.2467483E-04  0.2124168E+04  0.7818609E-02  0.8550671E-01
        2   -1    0    0  501    0  0.00000000000E+00  0.00000000000E+00  0.16601487774E+04  0.16601487774E+04  0.25500000920E-02 0. -1.
       -2   -1    0    0    0  501  0.00000000000E+00  0.00000000000E+00 -0.67947080015E+03  0.67947080015E+03  0.25500000920E-02 0.  1.
    10030    2    1    2    0    0  0.00000000000E+00  0.00000000000E+00  0.98067797721E+03  0.23396195775E+04  0.21241681837E+04 0.  0.
        4    1    3    3  502    0  0.61518162888E+03  0.60771529515E+03 -0.18885469151E+03  0.88511808471E+03  0.12699999809E+01 0.  1.
       -4    1    3    3    0  502 -0.61518162888E+03 -0.60771529515E+03  0.11695326687E+04  0.14545014928E+04  0.12699999809E+01 0. -1.
</event>
<event>
 5   0  0.2512839E-04  0.2106657E+04  0.7818609E-02  0.8558317E-01
        2   -1    0    0  501    0  0.00000000000E+00  0.00000000000E+00  0.77999609951E+03  0.77999609951E+03  0.25500000920E-02 0. -1.
       -2   -1    0    0    0  501  0.00000000000E+00  0.00000000000E+00 -0.14224441214E+04  0.14224441214E+04  0.25500000920E-02 0.  1.
    10030    2    1    2    0    0  0.00000000000E+00  0.00000000000E+00 -0.64244802192E+03  0.22024402209E+04  0.21066569407E+04 0.  0.
        3    1    3    3  502    0 -0.61421227562E+03 -0.49245151063E+03  0.41040542298E+03  0.88780506377E+03  0.10100000352E+00 0. -1.
       -3    1    3    3    0  502  0.61421227562E+03  0.49245151063E+03 -0.10528534449E+04  0.13146351572E+04  0.10100000352E+00 0.  1.
</event>
<event>
 5   0  0.2512839E-04  0.2099331E+04  0.7818609E-02  0.8561538E-01
        2   -1    0    0  501    0  0.00000000000E+00  0.00000000000E+00  0.12817780506E+04  0.12817780506E+04  0.25500000920E-02 0. -1.
       -2   -1    0    0    0  501  0.00000000000E+00  0.00000000000E+00 -0.85958499547E+03  0.85958499548E+03  0.25500000920E-02 0.  1.
    10030    2    1    2    0    0  0.00000000000E+00  0.00000000000E+00  0.42219305516E+03  0.21413630461E+04  0.20993305408E+04 0.  0.
        3    1    3    3  502    0 -0.67416024086E+02 -0.74378625469E+03 -0.54125811185E+03  0.92234660882E+03  0.10100000352E+00 0.  1.
       -3    1    3    3    0  502  0.67416024086E+02  0.74378625469E+03  0.96345116701E+03  0.12190164373E+04  0.10100000352E+00 0. -1.
</event>
<event>
 5   0  0.2512839E-04  0.2112368E+04  0.7818609E-02  0.8555815E-01
        2   -1    0    0  501    0  0.00000000000E+00  0.00000000000E+00  0.12352982307E+04  0.12352982307E+04  0.25500000920E-02 0. -1.
       -2   -1    0    0    0  501  0.00000000000E+00  0.00000000000E+00 -0.90304049880E+03  0.90304049880E+03  0.25500000920E-02 0.  1.
    10030    2    1    2    0    0  0.00000000000E+00  0.00000000000E+00  0.33225773195E+03  0.21383387296E+04  0.21123677052E+04 0.  0.
        3    1    3    3  502    0 -0.11018995916E+03 -0.12085739933E+03  0.12224020365E+04  0.12332944040E+04  0.10100000352E+00 0. -1.
       -3    1    3    3    0  502  0.11018995916E+03  0.12085739933E+03 -0.89014430452E+03  0.90504432551E+03  0.10100000352E+00 0.  1.
</event>
<event>
 5   0  0.2579241E-04  0.2124228E+04  0.7818609E-02  0.8550645E-01
        2   -1    0    0  501    0  0.00000000000E+00  0.00000000000E+00  0.17953701671E+04  0.17953701671E+04  0.25500000920E-02 0. -1.
       -2   -1    0    0    0  501  0.00000000000E+00  0.00000000000E+00 -0.62833059499E+03  0.62833059499E+03  0.25500000920E-02 0.  1.
    10030    2    1    2    0    0  0.00000000000E+00  0.00000000000E+00  0.11670395721E+04  0.24237007621E+04  0.21242278647E+04 0.  0.
        5    1    3    3  502    0  0.62154014522E+03 -0.86021246969E+03  0.63174248087E+03  0.12350701588E+04  0.46999998093E+01 0.  1.
       -5    1    3    3    0  502 -0.62154014522E+03  0.86021246969E+03  0.53529709126E+03  0.11886306033E+04  0.46999998093E+01 0. -1.
</event>
<event>
 5   0  0.1042395E-04  0.2080543E+04  0.7818609E-02  0.8569863E-01
       -1   -1    0    0    0  501  0.00000000000E+00  0.00000000000E+00  0.84897465569E+03  0.84897465571E+03  0.50400001928E-02 0. -1.
        1   -1    0    0  501    0  0.00000000000E+00  0.00000000000E+00 -0.12746723888E+04  0.12746723888E+04  0.50400001928E-02 0.  1.
    10030    2    1    2    0    0  0.00000000000E+00  0.00000000000E+00 -0.42569773309E+03  0.21236470445E+04  0.20805427680E+04 0.  0.
        3    1    3    3  502    0 -0.53107222964E+03  0.37389691893E+03  0.61659217561E+03  0.89555711170E+03  0.10100000352E+00 0. -1.
       -3    1    3    3    0  502  0.53107222964E+03 -0.37389691893E+03 -0.10422899087E+04  0.12280899328E+04  0.10100000352E+00 0.  1.
</event>
<event>
 5   0  0.1156733E-04  0.2075419E+04  0.7818609E-02  0.8572150E-01
       -1   -1    0    0    0  501  0.00000000000E+00  0.00000000000E+00  0.93797870242E+03  0.93797870243E+03  0.50400001928E-02 0.  1.
        1   -1    0    0  501    0  0.00000000000E+00  0.00000000000E+00 -0.11480440864E+04  0.11480440864E+04  0.50400001928E-02 0. -1.
    10030    2    1    2    0    0  0.00000000000E+00  0.00000000000E+00 -0.21006538397E+03  0.20860227888E+04  0.20754188999E+04 0.  0.
        2    1    3    3  502    0  0.57811659856E+03  0.85483383307E+03  0.45252279132E+01  0.10319787601E+04  0.25500000920E-02 0. -1.
       -2    1    3    3    0  502 -0.57811659856E+03 -0.85483383307E+03 -0.21459061189E+03  0.10540440287E+04  0.25500000920E-02 0.  1.
</event>
<event>
 5   0  0.1186038E-04  0.2091798E+04  0.7818609E-02  0.8564865E-01
       -1   -1    0    0    0  501  0.00000000000E+00  0.00000000000E+00  0.17085979958E+04  0.17085979958E+04  0.50400001928E-02 0.  1.
        1   -1    0    0  501    0  0.00000000000E+00  0.00000000000E+00 -0.64023499439E+03  0.64023499441E+03  0.50400001928E-02 0. -1.
    10030    2    1    2    0    0  0.00000000000E+00  0.00000000000E+00  0.10683630014E+04  0.23488329902E+04  0.20917975316E+04 0.  0.
        4    1    3    3  502    0  0.71280315749E+03 -0.12308998543E+03  0.13824286305E+04  0.15602403716E+04  0.12699999809E+01 0.  1.
       -4    1    3    3    0  502 -0.71280315749E+03  0.12308998543E+03 -0.31406562910E+03  0.78859261861E+03  0.12699999809E+01 0. -1.
</event>
<event>
 5   0  0.2512839E-04  0.2085940E+04  0.7818609E-02  0.8567462E-01
        2   -1    0    0  501    0  0.00000000000E+00  0.00000000000E+00  0.12460491535E+04  0.12460491535E+04  0.25500000920E-02 0.  1.
       -2   -1    0    0    0  501  0.00000000000E+00  0.00000000000E+00 -0.87298849702E+03  0.87298849703E+03  0.25500000920E-02 0. -1.
    10030    2    1    2    0    0  0.00000000000E+00  0.00000000000E+00  0.37306065650E+03  0.21190376506E+04  0.20859401504E+04 0.  0.
        3    1    3    3  502    0 -0.46163512712E+03  0.86840884080E+03  0.53923614596E+03  0.11216133633E+04  0.10100000352E+00 0.  1.
       -3    1    3    3    0  502  0.46163512712E+03 -0.86840884080E+03 -0.16617548946E+03  0.99742428728E+03  0.10100000352E+00 0. -1.
</event>
<event>
 5   0  0.2512839E-04  0.2072787E+04  0.7818609E-02  0.8573327E-01
       -2   -1    0    0    0  501  0.00000000000E+00  0.00000000000E+00  0.35277291590E+03  0.35277291591E+03  0.25500000920E-02 0. -1.
        2   -1    0    0  501    0  0.00000000000E+00  0.00000000000E+00 -0.30447674148E+04  0.30447674148E+04  0.25500000920E-02 0.  1.
    10030    2    1    2    0    0  0.00000000000E+00  0.00000000000E+00 -0.26919944989E+04  0.33975403307E+04  0.20727869926E+04 0.  0.
        3    1    3    3  502    0 -0.99365598428E+03  0.29439539618E+03 -0.13615994189E+04  0.17111323304E+04  0.10100000352E+00 0. -1.
       -3    1    3    3    0  502  0.99365598428E+03 -0.29439539618E+03 -0.13303950800E+04  0.16864080003E+04  0.10100000352E+00 0.  1.
</event>
<event>
 5   0  0.2430898E-04  0.2078360E+04  0.7818609E-02  0.8570837E-01
       -2   -1    0    0    0  501  0.00000000000E+00  0.00000000000E+00  0.19303662817E+04  0.19303662817E+04  0.25500000920E-02 0.  1.
        2   -1    0    0  501    0  0.00000000000E+00  0.00000000000E+00 -0.55942470373E+03  0.55942470374E+03  0.25500000920E-02 0. -1.
    10030    2    1    2    0    0  0.00000000000E+00  0.00000000000E+00  0.13709415780E+04  0.24897909854E+04  0.20783595312E+04 0.  0.
        1    1    3    3  502    0 -0.99189238134E+03  0.17404997879E+03  0.37829118008E+03  0.10757546692E+04  0.50400001928E-02 0.  1.
       -1    1    3    3    0  502  0.99189238134E+03 -0.17404997879E+03  0.99265039788E+03  0.14140363163E+04  0.50400001928E-02 0. -1.
</event>
<event>
 5   0  0.1122711E-04  0.2104341E+04  0.7818609E-02  0.8559333E-01
       -1   -1    0    0    0  501  0.00000000000E+00  0.00000000000E+00  0.95184353231E+03  0.95184353232E+03  0.50400001928E-02 0. -1.
        1   -1    0    0  501    0  0.00000000000E+00  0.00000000000E+00 -0.11630723471E+04  0.11630723471E+04  0.50400001928E-02 0.  1.
    10030    2    1    2    0    0  0.00000000000E+00  0.00000000000E+00 -0.21122881480E+03  0.21149158794E+04  0.21043411237E+04 0.  0.
        1    1    3    3  502    0 -0.79375974841E+03  0.78460570953E+02 -0.79524941613E+03  0.11263357551E+04  0.50400001928E-02 0.  1.
       -1    1    3    3    0  502  0.79375974841E+03 -0.78460570953E+02  0.58402060133E+03  0.98858012432E+03  0.50400001928E-02 0. -1.
</event>
<event>
 5   0  0.2448804E-04  0.1205248E+04  0.7818609E-02  0.9108276E-01
        2   -1    0    0  501    0  0.00000000000E+00  0.00000000000E+00  0.51517731824E+03  0.51517731824E+03  0.25500000920E-02 0.  1.
       -2   -1    0    0    0  501  0.00000000000E+00  0.00000000000E+00 -0.70491346426E+03  0.70491346426E+03  0.25500000920E-02 0. -1.
    10030    2    1    2    0    0  0.00000000000E+00  0.00000000000E+00 -0.18973614602E+03  0.12200907825E+04  0.12052475731E+04 0.  0.
        2    1    3    3  502    0  0.19032205656E+03 -0.10813516874E+03 -0.66324488620E+03  0.69843358955E+03  0.25500000920E-02 0. -1.
       -2    1    3    3    0  502 -0.19032205656E+03  0.10813516874E+03  0.47350874018E+03  0.52165719296E+03  0.25500000920E-02 0.  1.
</event>
<event>
 5   0  0.2512839E-04  0.2099270E+04  0.7818609E-02  0.8561565E-01
        2   -1    0    0  501    0  0.00000000000E+00  0.00000000000E+00  0.76786479975E+03  0.76786479976E+03  0.25500000920E-02 0. -1.
       -2   -1    0    0    0  501  0.00000000000E+00  0.00000000000E+00 -0.14348020156E+04  0.14348020156E+04  0.25500000920E-02 0.  1.
    10030    2    1    2    0    0  0.00000000000E+00  0.00000000000E+00 -0.66693721584E+03  0.22026668154E+04  0.20992703136E+04 0.  0.
        3    1    3    3  502    0  0.20092219907E+03  0.28436601830E+03  0.70550444949E+03  0.78674665610E+03  0.10100000352E+00 0. -1.
       -3    1    3    3    0  502 -0.20092219907E+03 -0.28436601830E+03 -0.13724416653E+04  0.14159201592E+04  0.10100000352E+00 0.  1.
</event>
<event>
 5   0  0.1122711E-04  0.2064001E+04  0.7818609E-02  0.8577269E-01
        1   -1    0    0  501    0  0.00000000000E+00  0.00000000000E+00  0.62097507577E+03  0.62097507579E+03  0.50400001928E-02 0.  1.
       -1   -1    0    0    0  501  0.00000000000E+00  0.00000000000E+00 -0.17150856009E+04  0.17150856009E+04  0.50400001928E-02 0. -1.
    10030    2    1    2    0    0  0.00000000000E+00  0.00000000000E+00 -0.10941105251E+04  0.23360606767E+04  0.20640013672E+04 0.  0.
        1    1    3    3  502    0  0.58001277252E+03  0.35370763084E+03 -0.14263071668E+04  0.15798341807E+04  0.50400001928E-02 0. -1.
       -1    1    3    3    0  502 -0.58001277252E+03 -0.35370763084E+03  0.33219664170E+03  0.75622649596E+03  0.50400001928E-02 0.  1.
</event>
<event>
 5   0  0.2467483E-04  0.2270093E+04  0.7818609E-02  0.8489807E-01
        2   -1    0    0  501    0  0.00000000000E+00  0.00000000000E+00  0.14294209942E+04  0.14294209942E+04  0.25500000920E-02 0.  1.
       -2   -1    0    0    0  501  0.00000000000E+00  0.00000000000E+00 -0.90129518728E+03  0.90129518729E+03  0.25500000920E-02 0. -1.
    10030    2    1    2    0    0  0.00000000000E+00  0.00000000000E+00  0.52812580693E+03  0.23307161815E+04  0.22700927406E+04 0.  0.
        4    1    3    3  502    0 -0.66652046669E+03  0.80302106129E+03  0.72234196719E+03  0.12692012795E+04  0.12699999809E+01 0.  1.
       -4    1    3    3    0  502  0.66652046669E+03 -0.80302106129E+03 -0.19421616026E+03  0.10615149020E+04  0.12699999809E+01 0. -1.
</event>
<event>
 5   0  0.1130848E-04  0.1368735E+04  0.7818609E-02  0.8976766E-01
       -1   -1    0    0    0  501  0.00000000000E+00  0.00000000000E+00  0.12211926426E+04  0.12211926426E+04  0.50400001928E-02 0.  1.
        1   -1    0    0  501    0  0.00000000000E+00  0.00000000000E+00 -0.38352588124E+03  0.38352588127E+03  0.50400001928E-02 0. -1.
    10030    2    1    2    0    0  0.00000000000E+00  0.00000000000E+00  0.83766676136E+03  0.16047185239E+04  0.13687351598E+04 0.  0.
        5    1    3    3  502    0  0.36340272371E+03 -0.26554325364E+03  0.10232355224E+04  0.11178585705E+04  0.46999998093E+01 0.  1.
       -5    1    3    3    0  502 -0.36340272371E+03  0.26554325364E+03 -0.18556876109E+03  0.48685995342E+03  0.46999998093E+01 0. -1.
</event>
<event>
 5   0  0.2579241E-04  0.2061457E+04  0.7818609E-02  0.8578415E-01
       -2   -1    0    0    0  501  0.00000000000E+00  0.00000000000E+00  0.98637510061E+03  0.98637510062E+03  0.25500000920E-02 0.  1.
        2   -1    0    0  501    0  0.00000000000E+00  0.00000000000E+00 -0.10770761570E+04  0.10770761570E+04  0.25500000920E-02 0. -1.
    10030    2    1    2    0    0  0.00000000000E+00  0.00000000000E+00 -0.90701056421E+02  0.20634512577E+04  0.20614568662E+04 0.  0.
        5    1    3    3  502    0  0.27322276780E+03 -0.90837164068E+03 -0.44896426197E+03  0.10494668727E+04  0.46999998093E+01 0. -1.
       -5    1    3    3    0  502 -0.27322276780E+03  0.90837164068E+03  0.35826320554E+03  0.10139843849E+04  0.46999998093E+01 0.  1.
</event>
<event>
 5   0  0.2467483E-04  0.2120654E+04  0.7818609E-02  0.8552199E-01
       -2   -1    0    0    0  501  0.00000000000E+00  0.00000000000E+00  0.68012161058E+03  0.68012161058E+03  0.25500000920E-02 0. -1.
        2   -1    0    0  501    0  0.00000000000E+00  0.00000000000E+00 -0.16530769852E+04  0.16530769852E+04  0.25500000920E-02 0.  1.
    10030    2    1    2    0    0  0.00000000000E+00  0.00000000000E+00 -0.97295537463E+03  0.23331985958E+04  0.21206540327E+04 0.  0.
        4    1    3    3  502    0 -0.21942349096E+03 -0.73460796522E+03 -0.12923481241E+04  0.15026512628E+04  0.12699999809E+01 0.  1.
       -4    1    3    3    0  502  0.21942349096E+03  0.73460796522E+03  0.31939274947E+03  0.83054733295E+03  0.12699999809E+01 0. -1.
</event>
<event>
 5   0  0.2512839E-04  0.1311357E+04  0.7818609E-02  0.9020608E-01
       -2   -1    0    0    0  501  0.00000000000E+00  0.00000000000E+00  0.49122464698E+03  0.49122464698E+03  0.25500000920E-02 0.  1.
        2   -1    0    0  501    0  0.00000000000E+00  0.00000000000E+00 -0.87518811479E+03  0.87518811480E+03  0.25500000920E-02 0. -1.
    10030    2    1    2    0    0  0.00000000000E+00  0.00000000000E+00 -0.38396346782E+03  0.13664127618E+04  0.13113565079E+04 0.  0.
        3    1    3    3  502    0 -0.24177141822E+03  0.55478907035E+03 -0.45490396021E+03  0.75708781160E+03  0.10100000352E+00 0. -1.
       -3    1    3    3    0  502  0.24177141822E+03 -0.55478907035E+03  0.70940492394E+02  0.60932495018E+03  0.10100000352E+00 0.  1.
</event>
<event>
 5   0  0.2512839E-04  0.2098659E+04  0.7818609E-02  0.8561834E-01
        2   -1    0    0  501    0  0.00000000000E+00  0.00000000000E+00  0.17966118164E+04  0.17966118164E+04  0.25500000920E-02 0.  1.
       -2   -1    0    0    0  501  0.00000000000E+00  0.00000000000E+00 -0.61287188369E+03  0.61287188370E+03  0.25500000920E-02 0. -1.
    10030    2    1    2    0    0  0.00000000000E+00  0.00000000000E+00  0.11837399327E+04  0.24094837001E+04  0.20986594466E+04 0.  0.
        3    1    3    3  502    0  0.74396659200E+03 -0.63052811519E+03  0.10365901089E+04  0.14232255823E+04  0.10100000352E+00 0.  1.
       -3    1    3    3    0  502 -0.74396659200E+03  0.63052811519E+03  0.14714982379E+03  0.98625811779E+03  0.10100000352E+00 0. -1.
</event>
<event>
 5   0  0.2467483E-04  0.2086545E+04  0.7818609E-02  0.8567194E-01
        2   -1    0    0  501    0  0.00000000000E+00  0.00000000000E+00  0.96233057998E+03  0.96233057998E+03  0.25500000920E-02 0. -1.
       -2   -1    0    0    0  501  0.00000000000E+00  0.00000000000E+00 -0.11310221197E+04  0.11310221197E+04  0.25500000920E-02 0.  1.
    10030    2    1    2    0    0  0.00000000000E+00  0.00000000000E+00 -0.16869153973E+03  0.20933526997E+04  0.20865446772E+04 0.  0.
        4    1    3    3  502    0 -0.45434537983E+02  0.10182617278E+04 -0.30754484055E+03  0.10646627097E+04  0.12699999809E+01 0.  1.
       -4    1    3    3    0  502  0.45434537983E+02 -0.10182617278E+04  0.13885330082E+03  0.10286899900E+04  0.12699999809E+01 0. -1.
</event>
<event>
 5   0  0.2512839E-04  0.2116372E+04  0.7818609E-02  0.8554066E-01
        2   -1    0    0  501    0  0.00000000000E+00  0.00000000000E+00  0.21133362168E+04  0.21133362168E+04  0.25500000920E-02 0.  1.
       -2   -1    0    0    0  501  0.00000000000E+00  0.00000000000E+00 -0.52985293562E+03  0.52985293563E+03  0.25500000920E-02 0. -1.
    10030    2    1    2    0    0  0.00000000000E+00  0.00000000000E+00  0.15834832812E+04  0.26431891524E+04  0.21163717995E+04 0.  0.
        3    1    3    3  502    0  0.25049503100E+03 -0.38261023039E+03 -0.40006181556E+03  0.60760827465E+03  0.10100000352E+00 0. -1.
       -3    1    3    3    0  502 -0.25049503100E+03  0.38261023039E+03  0.19835450967E+04  0.20355808777E+04  0.10100000352E+00 0.  1.
</event>
<event>
 5   0  0.1130848E-04  0.2133161E+04  0.7818609E-02  0.8546775E-01
       -1   -1    0    0    0  501  0.00000000000E+00  0.00000000000E+00  0.76450460763E+03  0.76450460765E+03  0.50400001928E-02 0.  1.
        1   -1    0    0  501    0  0.00000000000E+00  0.00000000000E+00 -0.14880143737E+04  0.14880143737E+04  0.50400001928E-02 0. -1.
    10030    2    1    2    0    0  0.00000000000E+00  0.00000000000E+00 -0.72350976605E+03  0.22525189813E+04  0.21331608893E+04 0.  0.
        5    1    3    3  502    0  0.16972374025E+03 -0.88177003292E+03  0.24598951633E+03  0.93105180903E+03  0.46999998093E+01 0.  1.
       -5    1    3    3    0  502 -0.16972374025E+03  0.88177003292E+03 -0.96949928238E+03  0.13214671723E+04  0.46999998093E+01 0. -1.
</event>
<event>
 5   0  0.2430898E-04  0.2094516E+04  0.7818609E-02  0.8563663E-01
       -2   -1    0    0    0  501  0.00000000000E+00  0.00000000000E+00  0.86589390815E+03  0.86589390815E+03  0.25500000920E-02 0.  1.
        2   -1    0    0  501    0  0.00000000000E+00  0.00000000000E+00 -0.12666095513E+04  0.12666095513E+04  0.25500000920E-02 0. -1.
    10030    2    1    2    0    0  0.00000000000E+00  0.00000000000E+00 -0.40071564311E+03  0.21325034594E+04  0.20945161679E+04 0.  0.
        1    1    3    3  502    0  0.29303533420E+03  0.97622952276E+03  0.44536732190E+02  0.10202339480E+04  0.50400001928E-02 0.  1.
       -1    1    3    3    0  502 -0.29303533420E+03 -0.97622952276E+03 -0.44525237530E+03  0.11122695114E+04  0.50400001928E-02 0. -1.
</event>
<event>
 5   0  0.1042395E-04  0.1936183E+04  0.7818609E-02  0.8637053E-01
        1   -1    0    0  501    0  0.00000000000E+00  0.00000000000E+00  0.14583571150E+04  0.14583571150E+04  0.50400001928E-02 0. -1.
       -1   -1    0    0    0  501  0.00000000000E+00  0.00000000000E+00 -0.64264155055E+03  0.64264155057E+03  0.50400001928E-02 0.  1.
    10030    2    1    2    0    0  0.00000000000E+00  0.00000000000E+00  0.81571556441E+03  0.21009986655E+04  0.19361827162E+04 0.  0.
        3    1    3    3  502    0 -0.76878739788E+03 -0.43361487150E+03 -0.23668347624E+02  0.88295873109E+03  0.10100000352E+00 0.  1.
       -3    1    3    3    0  502  0.76878739788E+03  0.43361487150E+03  0.83938391203E+03  0.12180399344E+04  0.10100000352E+00 0. -1.
</event>
<event>
 5   0  0.2467483E-04  0.2073789E+04  0.7818609E-02  0.8572878E-01
        2   -1    0    0  501    0  0.00000000000E+00  0.00000000000E+00  0.79835600251E+03  0.79835600252E+03  0.25500000920E-02 0. -1.
       -2   -1    0    0    0  501  0.00000000000E+00  0.00000000000E+00 -0.13467048469E+04  0.13467048469E+04  0.25500000920E-02 0.  1.
    10030    2    1    2    0    0  0.00000000000E+00  0.00000000000E+00 -0.54834884434E+03  0.21450608494E+04  0.20737887049E+04 0.  0.
        4    1    3    3  502    0 -0.58435137877E+03  0.85435534112E+03 -0.33758972699E+03  0.10887414842E+04  0.12699999809E+01 0.  1.
       -4    1    3    3    0  502  0.58435137877E+03 -0.85435534112E+03 -0.21075911735E+03  0.10563193652E+04  0.12699999809E+01 0. -1.
</event>
<event>
 5   0  0.2467483E-04  0.2182576E+04  0.7818609E-02  0.8525715E-01
        2   -1    0    0  501    0  0.00000000000E+00  0.00000000000E+00  0.87700478671E+03  0.87700478671E+03  0.25500000920E-02 0.  1.
       -2   -1    0    0    0  501  0.00000000000E+00  0.00000000000E+00 -0.13579283963E+04  0.13579283963E+04  0.25500000920E-02 0. -1.
    10030    2    1    2    0    0  0.00000000000E+00  0.00000000000E+00 -0.48092360956E+03  0.22349331830E+04  0.21825761875E+04 0.  0.
        4    1    3    3  502    0  0.15986561473E+03 -0.10463699939E+04 -0.51227420179E+03  0.11759564829E+04  0.12699999809E+01 0.  1.
       -4    1    3    3    0  502 -0.15986561473E+03  0.10463699939E+04  0.31350592222E+02  0.10589767001E+04  0.12699999809E+01 0. -1.
</event>
<event>
 5   0  0.8698750E-05  0.2065474E+04  0.7818609E-02  0.8576607E-01
        3   -1    0    0  501    0  0.00000000000E+00  0.00000000000E+00  0.16350576395E+04  0.16350576426E+04  0.10100000352E+00 0.  1.
       -3   -1    0    0    0  501  0.00000000000E+00  0.00000000000E+00 -0.65229824687E+03  0.65229825468E+03  0.10100000352E+00 0. -1.
    10030    2    1    2    0    0  0.00000000000E+00  0.00000000000E+00  0.98275939264E+03  0.22873558973E+04  0.20654735479E+04 0.  0.
        3    1    3    3  502    0 -0.26497745498E+03  0.22678589317E+03  0.15678625299E+04  0.16061873539E+04  0.10100000352E+00 0.  1.
       -3    1    3    3    0  502  0.26497745498E+03 -0.22678589317E+03 -0.58510313730E+03  0.68116854336E+03  0.10100000352E+00 0. -1.
</event>
<event>
 5   0  0.2467483E-04  0.2027299E+04  0.7818609E-02  0.8593963E-01
        2   -1    0    0  501    0  0.00000000000E+00  0.00000000000E+00  0.17906586734E+04  0.17906586734E+04  0.25500000920E-02 0. -1.
       -2   -1    0    0    0  501  0.00000000000E+00  0.00000000000E+00 -0.57380273774E+03  0.57380273774E+03  0.25500000920E-02 0.  1.
    10030    2    1    2    0    0  0.00000000000E+00  0.00000000000E+00  0.12168559356E+04  0.23644614111E+04  0.20272985465E+04 0.  0.
        4    1    3    3  502    0  0.32532457668E+02  0.64221508983E+03 -0.30546067394E+03  0.71190337731E+03  0.12699999809E+01 0.  1.
       -4    1    3    3    0  502 -0.32532457668E+02 -0.64221508983E+03  0.15223166096E+04  0.16525580338E+04  0.12699999809E+01 0. -1.
</event>
<event>
 5   0  0.2430898E-04  0.1745045E+04  0.7818609E-02  0.8736082E-01
        2   -1    0    0  501    0  0.00000000000E+00  0.00000000000E+00  0.15029695718E+04  0.15029695718E+04  0.25500000920E-02 0.  1.
       -2   -1    0    0    0  501  0.00000000000E+00  0.00000000000E+00 -0.50652782427E+03  0.50652782428E+03  0.25500000920E-02 0. -1.
    10030    2    1    2    0    0  0.00000000000E+00  0.00000000000E+00  0.99644174756E+03  0.20094973961E+04  0.17450454518E+04 0.  0.
        1    1    3    3  502    0  0.32411573507E+03 -0.34718096229E+03  0.13410619510E+04  0.14226850624E+04  0.50400001928E-02 0.  1.
       -1    1    3    3    0  502 -0.32411573507E+03  0.34718096229E+03 -0.34462020348E+03  0.58681233369E+03  0.50400001928E-02 0. -1.
</event>
<event>
 5   0  0.1186038E-04  0.2050898E+04  0.7818609E-02  0.8583187E-01
        1   -1    0    0  501    0  0.00000000000E+00  0.00000000000E+00  0.16317916229E+04  0.16317916229E+04  0.50400001928E-02 0. -1.
       -1   -1    0    0    0  501  0.00000000000E+00  0.00000000000E+00 -0.64441172728E+03  0.64441172730E+03  0.50400001928E-02 0.  1.
    10030    2    1    2    0    0  0.00000000000E+00  0.00000000000E+00  0.98737989560E+03  0.22762033502E+04  0.20508980065E+04 0.  0.
        4    1    3    3  502    0  0.12341336824E+03  0.86371125200E+03  0.10916917946E+04  0.13975051247E+04  0.12699999809E+01 0. -1.
       -4    1    3    3    0  502 -0.12341336824E+03 -0.86371125200E+03 -0.10431189899E+03  0.87869822548E+03  0.12699999809E+01 0.  1.
</event>
<event>
 5   0  0.8698750E-05  0.2104491E+04  0.7818609E-02  0.8559267E-01
        3   -1    0    0  501    0  0.00000000000E+00  0.00000000000E+00  0.79827441524E+03  0.79827442163E+03  0.10100000352E+00 0. -1.
       -3   -1    0    0    0  501  0.00000000000E+00  0.00000000000E+00 -0.13870179658E+04  0.13870179695E+04  0.10100000352E+00 0.  1.
    10030    2    1    2    0    0  0.00000000000E+00  0.00000000000E+00 -0.58874355056E+03  0.21852923911E+04  0.21044913557E+04 0.  0.
        5    1    3    3  502    0  0.74848119730E+03  0.38668558103E+03  0.36026911830E+03  0.91627821588E+03  0.46999998093E+01 0. -1.
       -5    1    3    3    0  502 -0.74848119730E+03 -0.38668558103E+03 -0.94901266886E+03  0.12690141752E+04  0.46999998093E+01 0.  1.
</event>
<event>
 5   0  0.1130848E-04  0.2118435E+04  0.7818609E-02  0.8553166E-01
        1   -1    0    0  501    0  0.00000000000E+00  0.00000000000E+00  0.12161369012E+04  0.12161369012E+04  0.50400001928E-02 0.  1.
       -1   -1    0    0    0  501  0.00000000000E+00  0.00000000000E+00 -0.92254556116E+03  0.92254556117E+03  0.50400001928E-02 0. -1.
    10030    2    1    2    0    0  0.00000000000E+00  0.00000000000E+00  0.29359134001E+03  0.21386824623E+04  0.21184349883E+04 0.  0.
        5    1    3    3  502    0  0.28807352830E+03 -0.13786436172E+03  0.11663623677E+04  0.12093040159E+04  0.46999998093E+01 0.  1.
       -5    1    3    3    0  502 -0.28807352830E+03  0.13786436172E+03 -0.87277102772E+03  0.92937844648E+03  0.46999998093E+01 0. -1.
</event>
<event>
 5   0  0.2467483E-04  0.2226735E+04  0.7818609E-02  0.8507382E-01
       -2   -1    0    0    0  501  0.00000000000E+00  0.00000000000E+00  0.10269134600E+04  0.10269134600E+04  0.25500000920E-02 0.  1.
        2   -1    0    0  501    0  0.00000000000E+00  0.00000000000E+00 -0.12070995320E+04  0.12070995320E+04  0.25500000920E-02 0. -1.
    10030    2    1    2    0    0  0.00000000000E+00  0.00000000000E+00 -0.18018607203E+03  0.22340129920E+04  0.22267346110E+04 0.  0.
        4    1    3    3  502    0  0.51023592146E+03  0.83872991600E+03  0.43676780745E+03  0.10745121210E+04  0.12699999809E+01 0.  1.
       -4    1    3    3    0  502 -0.51023592146E+03 -0.83872991600E+03 -0.61695387948E+03  0.11595008710E+04  0.12699999809E+01 0. -1.
</event>
<event>
 5   0  0.2430898E-04  0.2154846E+04  0.7818609E-02  0.8537461E-01
        2   -1    0    0  501    0  0.00000000000E+00  0.00000000000E+00  0.87399706820E+03  0.87399706820E+03  0.25500000920E-02 0. -1.
       -2   -1    0    0    0  501  0.00000000000E+00  0.00000000000E+00 -0.13281971632E+04  0.13281971632E+04  0.25500000920E-02 0.  1.
    10030    2    1    2    0    0  0.00000000000E+00  0.00000000000E+00 -0.45420009495E+03  0.22021942314E+04  0.21548460981E+04 0.  0.
        1    1    3    3  502    0  0.48502289792E+03  0.21989835914E+03  0.73008975430E+03  0.90367779059E+03  0.50400001928E-02 0. -1.
       -1    1    3    3    0  502 -0.48502289792E+03 -0.21989835914E+03 -0.11842898493E+04  0.12985164408E+04  0.50400001928E-02 0.  1.
</event>
<event>
 5   0  0.2448804E-04  0.2188045E+04  0.7818609E-02  0.8523420E-01
        2   -1    0    0  501    0  0.00000000000E+00  0.00000000000E+00  0.20477506717E+04  0.20477506717E+04  0.25500000920E-02 0.  1.
       -2   -1    0    0    0  501  0.00000000000E+00  0.00000000000E+00 -0.58448801957E+03  0.58448801958E+03  0.25500000920E-02 0. -1.
    10030    2    1    2    0    0  0.00000000000E+00  0.00000000000E+00  0.14632626521E+04  0.26322386913E+04  0.21880454609E+04 0.  0.
        2    1    3    3  502    0 -0.91294293345E+03 -0.51084602666E+03  0.34656076156E+03  0.11020584486E+04  0.25500000920E-02 0. -1.
       -2    1    3    3    0  502  0.91294293345E+03  0.51084602666E+03  0.11167018906E+04  0.15301802427E+04  0.25500000920E-02 0.  1.
</event>
<event>
 5   0  0.2579241E-04  0.2107897E+04  0.7818609E-02  0.8557773E-01
        2   -1    0    0  501    0  0.00000000000E+00  0.00000000000E+00  0.71583001346E+03  0.71583001347E+03  0.25500000920E-02 0. -1.
       -2   -1    0    0    0  501  0.00000000000E+00  0.00000000000E+00 -0.15517753436E+04  0.15517753436E+04  0.25500000920E-02 0.  1.
    10030    2    1    2    0    0  0.00000000000E+00  0.00000000000E+00 -0.83594533010E+03  0.22676053570E+04  0.21078969283E+04 0.  0.
        5    1    3    3  502    0 -0.16682497992E+03 -0.92032842671E+03 -0.94052327542E+03  0.13264392593E+04  0.46999998093E+01 0.  1.
       -5    1    3    3    0  502  0.16682497992E+03  0.92032842671E+03  0.10457794531E+03  0.94116609776E+03  0.46999998093E+01 0. -1.
</event>
<event>
 5   0  0.2448804E-04  0.2160493E+04  0.7818609E-02  0.8535054E-01
       -2   -1    0    0    0  501  0.00000000000E+00  0.00000000000E+00  0.83245856867E+03  0.83245856867E+03  0.25500000920E-02 0. -1.
        2   -1    0    0  501    0  0.00000000000E+00  0.00000000000E+00 -0.14017901729E+04  0.14017901729E+04  0.25500000920E-02 0.  1.
    10030    2    1    2    0    0  0.00000000000E+00  0.00000000000E+00 -0.56933160421E+03  0.22342487416E+04  0.21604927594E+04 0.  0.
        2    1    3    3  502    0  0.37733743738E+00  0.79298508190E+03  0.47393435817E+03  0.92381776253E+03  0.25500000920E-02 0. -1.
       -2    1    3    3    0  502 -0.37733743738E+00 -0.79298508190E+03 -0.10432659624E+04  0.13104309790E+04  0.25500000920E-02 0.  1.
</event>
<event>
 5   0  0.1042395E-04  0.2081411E+04  0.7818609E-02  0.8569477E-01
       -1   -1    0    0    0  501  0.00000000000E+00  0.00000000000E+00  0.17394523871E+04  0.17394523871E+04  0.50400001928E-02 0. -1.
        1   -1    0    0  501    0  0.00000000000E+00  0.00000000000E+00 -0.62264859434E+03  0.62264859436E+03  0.50400001928E-02 0.  1.
    10030    2    1    2    0    0  0.00000000000E+00  0.00000000000E+00  0.11168037928E+04  0.23621009815E+04  0.20814106599E+04 0.  0.
        3    1    3    3  502    0 -0.33184343999E+03 -0.38724205237E+03 -0.47112632118E+03  0.69428848219E+03  0.10100000352E+00 0.  1.
       -3    1    3    3    0  502  0.33184343999E+03  0.38724205237E+03  0.15879301139E+04  0.16678124993E+04  0.10100000352E+00 0. -1.
</event>
<event>
 5   0  0.2430898E-04  0.2135576E+04  0.7818609E-02  0.8545732E-01
        2   -1    0    0  501    0  0.00000000000E+00  0.00000000000E+00  0.22426482893E+04  0.22426482893E+04  0.25500000920E-02 0.  1.
       -2   -1    0    0    0  501  0.00000000000E+00  0.00000000000E+00 -0.50840410222E+03  0.50840410223E+03  0.25500000920E-02 0. -1.
    10030    2    1    2    0    0  0.00000000000E+00  0.00000000000E+00  0.17342441871E+04  0.27510523916E+04  0.21355763533E+04 0.  0.
        1    1    3    3  502    0  0.29399997349E+03  0.61539555916E+03  0.19255062657E+04  0.20427241757E+04  0.50400001928E-02 0.  1.
       -1    1    3    3    0  502 -0.29399997349E+03 -0.61539555916E+03 -0.19126207860E+03  0.70832821586E+03  0.50400001928E-02 0. -1.
</event>
<event>
 5   0  0.1186038E-04  0.2021232E+04  0.7818609E-02  0.8596758E-01
       -1   -1    0    0    0  501  0.00000000000E+00  0.00000000000E+00  0.78853862164E+03  0.78853862166E+03  0.50400001928E-02 0. -1.
        1   -1    0    0  501    0  0.00000000000E+00  0.00000000000E+00 -0.12952368306E+04  0.12952368306E+04  0.50400001928E-02 0.  1.
    10030    2    1    2    0    0  0.00000000000E+00  0.00000000000E+00 -0.50669820891E+03  0.20837754522E+04  0.20212315702E+04 0.  0.
        4    1    3    3  502    0  0.99529903305E+03 -0.14547058912E+03 -0.35415405039E+03  0.10663998133E+04  0.12699999809E+01 0. -1.
       -4    1    3    3    0  502 -0.99529903305E+03  0.14547058912E+03 -0.15254415852E+03  0.10173756389E+04  0.12699999809E+01 0.  1.
</event>
<event>
 5   0  0.1186038E-04  0.2076489E+04  0.7818609E-02  0.8571671E-01
        1   -1    0    0  501    0  0.00000000000E+00  0.00000000000E+00  0.23782616148E+04  0.23782616148E+04  0.50400001928E-02 0.  1.
       -1   -1    0    0    0  501  0.00000000000E+00  0.00000000000E+00 -0.45325195573E+03  0.45325195576E+03  0.50400001928E-02 0. -1.
    10030    2    1    2    0    0  0.00000000000E+00  0.00000000000E+00  0.19250096590E+04  0.28315135705E+04  0.20764890832E+04 0.  0.
        4    1    3    3  502    0  0.36666808244E+03  0.83699947992E+03  0.16346071320E+04  0.18726867600E+04  0.12699999809E+01 0.  1.
       -4    1    3    3    0  502 -0.36666808244E+03 -0.83699947992E+03  0.29040252704E+03  0.95882681058E+03  0.12699999809E+01 0. -1.
</event>
<event>
 5   0  0.2512839E-04  0.2052281E+04  0.7818609E-02  0.8582560E-01
       -2   -1    0    0    0  501  0.00000000000E+00  0.00000000000E+00  0.19843640962E+04  0.19843640962E+04  0.25500000920E-02 0.  1.
        2   -1    0    0  501    0  0.00000000000E+00  0.00000000000E+00 -0.53063066462E+03  0.53063066463E+03  0.25500000920E-02 0. -1.
    10030    2    1    2    0    0  0.00000000000E+00  0.00000000000E+00  0.14537334315E+04  0.25149947608E+04  0.20522811106E+04 0.  0.
        3    1    3    3  502    0 -0.90579842714E+03  0.22867364620E+03  0.12470783282E+04  0.15581934392E+04  0.10100000352E+00 0.  1.
       -3    1    3    3    0  502  0.90579842714E+03 -0.22867364620E+03  0.20665510335E+03  0.95680132160E+03  0.10100000352E+00 0. -1.
</event>
<event>
 5   0  0.2579241E-04  0.2037175E+04  0.7818609E-02  0.8589435E-01
       -2   -1    0    0    0  501  0.00000000000E+00  0.00000000000E+00  0.59268485357E+03  0.59268485357E+03  0.25500000920E-02 0.  1.
        2   -1    0    0  501    0  0.00000000000E+00  0.00000000000E+00 -0.17505430072E+04  0.17505430072E+04  0.25500000920E-02 0. -1.
    10030    2    1    2    0    0  0.00000000000E+00  0.00000000000E+00 -0.11578581537E+04  0.23432278608E+04  0.20371748338E+04 0.  0.
        5    1    3    3  502    0  0.50491086147E+03 -0.84747814480E+03 -0.28715921942E+03  0.10274418189E+04  0.46999998093E+01 0.  1.
       -5    1    3    3    0  502 -0.50491086147E+03  0.84747814480E+03 -0.87069893423E+03  0.13157860419E+04  0.46999998093E+01 0. -1.
</event>
<event>
 5   0  0.8698750E-05  0.1889942E+04  0.7818609E-02  0.8659879E-01
        3   -1    0    0  501    0  0.00000000000E+00  0.00000000000E+00  0.35306755685E+03  0.35306757130E+03  0.10100000352E+00 0. -1.
       -3   -1    0    0    0  501  0.00000000000E+00  0.00000000000E+00 -0.25291757034E+04  0.25291757055E+04  0.10100000352E+00 0.  1.
    10030    2    1    2    0    0  0.00000000000E+00  0.00000000000E+00 -0.21761081466E+04  0.28822432768E+04  0.18899417030E+04 0.  0.
        3    1    3    3  502    0 -0.37905362413E+03  0.83466087718E+03 -0.14379160338E+04  0.17052691753E+04  0.10100000352E+00 0.  1.
       -3    1    3    3    0  502  0.37905362413E+03 -0.83466087718E+03 -0.73819211278E+03  0.11769741014E+04  0.10100000352E+00 0. -1.
</event>
<event>
 5   0  0.2579241E-04  0.2052900E+04  0.7818609E-02  0.8582280E-01
       -2   -1    0    0    0  501  0.00000000000E+00  0.00000000000E+00  0.91024608696E+03  0.91024608696E+03  0.25500000920E-02 0. -1.
        2   -1    0    0  501    0  0.00000000000E+00  0.00000000000E+00 -0.11574889346E+04  0.11574889346E+04  0.25500000920E-02 0.  1.
    10030    2    1    2    0    0  0.00000000000E+00  0.00000000000E+00 -0.24724284765E+03  0.20677350216E+04  0.20529001665E+04 0.  0.
        5    1    3    3  502    0 -0.11014517010E+02  0.28832815045E+03 -0.11157895488E+04  0.11525028630E+04  0.46999998093E+01 0.  1.
       -5    1    3    3    0  502  0.11014517010E+02 -0.28832815045E+03  0.86854670119E+03  0.91523215857E+03  0.46999998093E+01 0. -1.
</event>
<event>
 5   0  0.2430898E-04  0.2037173E+04  0.7818609E-02  0.8589436E-01
       -2   -1    0    0    0  501  0.00000000000E+00  0.00000000000E+00  0.81646583619E+03  0.81646583619E+03  0.25500000920E-02 0.  1.
        2   -1    0    0  501    0  0.00000000000E+00  0.00000000000E+00 -0.12707433440E+04  0.12707433441E+04  0.25500000920E-02 0. -1.
    10030    2    1    2    0    0  0.00000000000E+00  0.00000000000E+00 -0.45427750786E+03  0.20872091802E+04  0.20371730677E+04 0.  0.
        1    1    3    3  502    0 -0.31541099111E+03 -0.61215904779E+03  0.54182572958E+03  0.87624078562E+03  0.50400001928E-02 0.  1.
       -1    1    3    3    0  502  0.31541099111E+03  0.61215904779E+03 -0.99610323745E+03  0.12109683946E+04  0.50400001928E-02 0. -1.
</event>
<event>
 5   0  0.1122711E-04  0.1652126E+04  0.7818609E-02  0.8789150E-01
        1   -1    0    0  501    0  0.00000000000E+00  0.00000000000E+00  0.19144419330E+04  0.19144419331E+04  0.50400001928E-02 0. -1.
       -1   -1    0    0    0  501  0.00000000000E+00  0.00000000000E+00 -0.35643797654E+03  0.35643797658E+03  0.50400001928E-02 0.  1.
    10030    2    1    2    0    0  0.00000000000E+00  0.00000000000E+00  0.15580039565E+04  0.22708799096E+04  0.16521256718E+04 0.  0.
        1    1    3    3  502    0  0.76660383156E+03  0.21157034458E+03  0.47184559494E+03  0.92470628350E+03  0.50400001928E-02 0. -1.
       -1    1    3    3    0  502 -0.76660383156E+03 -0.21157034458E+03  0.10861583616E+04  0.13461736261E+04  0.50400001928E-02 0.  1.
</event>
<event>
 5   0  0.1130848E-04  0.2092168E+04  0.7818609E-02  0.8564701E-01
        1   -1    0    0  501    0  0.00000000000E+00  0.00000000000E+00  0.14640024628E+04  0.14640024628E+04  0.50400001928E-02 0. -1.
       -1   -1    0    0    0  501  0.00000000000E+00  0.00000000000E+00 -0.74746546904E+03  0.74746546906E+03  0.50400001928E-02 0.  1.
    10030    2    1    2    0    0  0.00000000000E+00  0.00000000000E+00  0.71653699379E+03  0.22114679319E+04  0.20921675722E+04 0.  0.
        5    1    3    3  502    0  0.93857848589E+03  0.36207223948E+03  0.55134610102E+02  0.10075156555E+04  0.46999998093E+01 0.  1.
       -5    1    3    3    0  502 -0.93857848589E+03 -0.36207223948E+03  0.66140238369E+03  0.12039522764E+04  0.46999998093E+01 0. -1.
</event>
<event>
 5   0  0.2579241E-04  0.2043691E+04  0.7818609E-02  0.8586462E-01
       -2   -1    0    0    0  501  0.00000000000E+00  0.00000000000E+00  0.99337263742E+03  0.99337263742E+03  0.25500000920E-02 0. -1.
        2   -1    0    0  501    0  0.00000000000E+00  0.00000000000E+00 -0.10511341180E+04  0.10511341180E+04  0.25500000920E-02 0.  1.
    10030    2    1    2    0    0  0.00000000000E+00  0.00000000000E+00 -0.57761480613E+02  0.20445067555E+04  0.20436906528E+04 0.  0.
        5    1    3    3  502    0 -0.80081933475E+03 -0.30885011887E+03 -0.58358009189E+03  0.10379247644E+04  0.46999998093E+01 0.  1.
       -5    1    3    3    0  502  0.80081933475E+03  0.30885011887E+03  0.52581861127E+03  0.10065819911E+04  0.46999998093E+01 0. -1.
</event>
<event>
 5   0  0.2448804E-04  0.2047263E+04  0.7818609E-02  0.8584837E-01
       -2   -1    0    0    0  501  0.00000000000E+00  0.00000000000E+00  0.14017611306E+04  0.14017611306E+04  0.25500000920E-02 0. -1.
        2   -1    0    0  501    0  0.00000000000E+00  0.00000000000E+00 -0.74750369374E+03  0.74750369375E+03  0.25500000920E-02 0.  1.
    10030    2    1    2    0    0  0.00000000000E+00  0.00000000000E+00  0.65425743684E+03  0.21492648243E+04  0.20472631710E+04 0.  0.
        2    1    3    3  502    0 -0.11439935031E+03 -0.22667709321E+03 -0.71391924586E+03  0.75772713133E+03  0.25500000920E-02 0.  1.
       -2    1    3    3    0  502  0.11439935031E+03  0.22667709321E+03  0.13681766827E+04  0.13915376930E+04  0.25500000920E-02 0. -1.
</event>
<event>
 5   0  0.2512839E-04  0.2057230E+04  0.7818609E-02  0.8580321E-01
       -2   -1    0    0    0  501  0.00000000000E+00  0.00000000000E+00  0.51411334879E+03  0.51411334879E+03  0.25500000920E-02 0. -1.
        2   -1    0    0  501    0  0.00000000000E+00  0.00000000000E+00 -0.20580074080E+04  0.20580074080E+04  0.25500000920E-02 0.  1.
    10030    2    1    2    0    0  0.00000000000E+00  0.00000000000E+00 -0.15438940592E+04  0.25721207568E+04  0.20572302548E+04 0.  0.
        3    1    3    3  502    0 -0.23996405472E+03  0.41182776008E+03 -0.19116022380E+04  0.19701289242E+04  0.10100000352E+00 0.  1.
       -3    1    3    3    0  502  0.23996405472E+03 -0.41182776008E+03  0.36770817879E+03  0.60199183257E+03  0.10100000352E+00 0. -1.
</event>
<event>
 5   0  0.1122711E-04  0.2101241E+04  0.7818609E-02  0.8560697E-01
       -1   -1    0    0    0  501  0.00000000000E+00  0.00000000000E+00  0.97346815009E+03  0.97346815010E+03  0.50400001928E-02 0. -1.
        1   -1    0    0  501    0  0.00000000000E+00  0.00000000000E+00 -0.11338871313E+04  0.11338871313E+04  0.50400001928E-02 0.  1.
    10030    2    1    2    0    0  0.00000000000E+00  0.00000000000E+00 -0.16041898120E+03  0.21073552814E+04  0.21012405937E+04 0.  0.
        1    1    3    3  502    0 -0.52885260377E+03  0.33159196444E+03  0.76733239024E+03  0.98915989837E+03  0.50400001928E-02 0. -1.
       -1    1    3    3    0  502  0.52885260377E+03 -0.33159196444E+03 -0.92775137144E+03  0.11181953830E+04  0.50400001928E-02 0.  1.
</event>
<event>
 5   0  0.2512839E-04  0.2026435E+04  0.7818609E-02  0.8594360E-01
       -2   -1    0    0    0  501  0.00000000000E+00  0.00000000000E+00  0.80964426359E+03  0.80964426360E+03  0.25500000920E-02 0.  1.
        2   -1    0    0  501    0  0.00000000000E+00  0.00000000000E+00 -0.12679761635E+04  0.12679761635E+04  0.25500000920E-02 0. -1.
    10030    2    1    2    0    0  0.00000000000E+00  0.00000000000E+00 -0.45833189992E+03  0.20776204271E+04  0.20264349258E+04 0.  0.
        3    1    3    3  502    0 -0.51683471633E+03 -0.10684908747E+03  0.65759395302E+03  0.84318720860E+03  0.10100000352E+00 0.  1.
       -3    1    3    3    0  502  0.51683471633E+03  0.10684908747E+03 -0.11159258529E+04  0.12344332185E+04  0.10100000352E+00 0. -1.
</event>
<event>
 5   0  0.2579241E-04  0.2057491E+04  0.7818609E-02  0.8580203E-01
       -2   -1    0    0    0  501  0.00000000000E+00  0.00000000000E+00  0.16022485233E+04  0.16022485233E+04  0.25500000920E-02 0.  1.
        2   -1    0    0  501    0  0.00000000000E+00  0.00000000000E+00 -0.66052036041E+03  0.66052036042E+03  0.25500000920E-02 0. -1.
    10030    2    1    2    0    0  0.00000000000E+00  0.00000000000E+00  0.94172816288E+03  0.22627688837E+04  0.20574914552E+04 0.  0.
        5    1    3    3  502    0  0.46894514906E+02 -0.70573957372E+03  0.12924069816E+04  0.14732974369E+04  0.46999998093E+01 0.  1.
       -5    1    3    3    0  502 -0.46894514906E+02  0.70573957372E+03 -0.35067881873E+03  0.78947144682E+03  0.46999998093E+01 0. -1.
</event>
<event>
 5   0  0.1122711E-04  0.2088329E+04  0.7818609E-02  0.8566402E-01
       -1   -1    0    0    0  501  0.00000000000E+00  0.00000000000E+00  0.68210883302E+03  0.68210883304E+03  0.50400001928E-02 0.  1.
        1   -1    0    0  501    0  0.00000000000E+00  0.00000000000E+00 -0.15983958479E+04  0.15983958480E+04  0.50400001928E-02 0. -1.
    10030    2    1    2    0    0  0.00000000000E+00  0.00000000000E+00 -0.91628701493E+03  0.22805046810E+04  0.20883294056E+04 0.  0.
        1    1    3    3  502    0 -0.83557311617E+03  0.31634715356E+03 -0.10482626862E+04  0.13773571117E+04  0.50400001928E-02 0. -1.
       -1    1    3    3    0  502  0.83557311617E+03 -0.31634715356E+03  0.13197567123E+03  0.90314756926E+03  0.50400001928E-02 0.  1.
</event>
<event>
 5   0  0.1156733E-04  0.2098819E+04  0.7818609E-02  0.8561764E-01
       -1   -1    0    0    0  501  0.00000000000E+00  0.00000000000E+00  0.11510675253E+04  0.11510675254E+04  0.50400001928E-02 0. -1.
        1   -1    0    0  501    0  0.00000000000E+00  0.00000000000E+00 -0.95672924226E+03  0.95672924227E+03  0.50400001928E-02 0.  1.
    10030    2    1    2    0    0  0.00000000000E+00  0.00000000000E+00  0.19433828309E+03  0.21077967676E+04  0.20988186785E+04 0.  0.
        2    1    3    3  502    0 -0.80182455672E+03  0.17821020149E+03 -0.55875448940E+03  0.99342240518E+03  0.25500000920E-02 0. -1.
       -2    1    3    3    0  502  0.80182455672E+03 -0.17821020149E+03  0.75309277249E+03  0.11143743624E+04  0.25500000920E-02 0.  1.
</event>
<event>
 5   0  0.2467483E-04  0.2330670E+04  0.7818609E-02  0.8465926E-01
       -2   -1    0    0    0  501  0.00000000000E+00  0.00000000000E+00  0.10464533966E+04  0.10464533966E+04  0.25500000920E-02 0. -1.
        2   -1    0    0  501    0  0.00000000000E+00  0.00000000000E+00 -0.12977218403E+04  0.12977218403E+04  0.25500000920E-02 0.  1.
    10030    2    1    2    0    0  0.00000000000E+00  0.00000000000E+00 -0.25126844365E+03  0.23441752369E+04  0.23306697987E+04 0.  0.
        4    1    3    3  502    0 -0.21311563776E+03  0.37298758957E+03  0.96390920102E+03  0.10553011787E+04  0.12699999809E+01 0. -1.
       -4    1    3    3    0  502  0.21311563776E+03 -0.37298758957E+03 -0.12151776447E+04  0.12888740583E+04  0.12699999809E+01 0.  1.
</event>
<event>
 5   0  0.2467483E-04  0.2135819E+04  0.7818609E-02  0.8545627E-01
        2   -1    0    0  501    0  0.00000000000E+00  0.00000000000E+00  0.16075202548E+04  0.16075202548E+04  0.25500000920E-02 0. -1.
       -2   -1    0    0    0  501  0.00000000000E+00  0.00000000000E+00 -0.70943450961E+03  0.70943450962E+03  0.25500000920E-02 0.  1.
    10030    2    1    2    0    0  0.00000000000E+00  0.00000000000E+00  0.89808574517E+03  0.23169547644E+04  0.21358186661E+04 0.  0.
        4    1    3    3  502    0  0.16782611197E+01 -0.15316523851E+03 -0.69745490401E+03  0.71407798095E+03  0.12699999809E+01 0.  1.
       -4    1    3    3    0  502 -0.16782611197E+01  0.15316523851E+03  0.15955406492E+04  0.16028767835E+04  0.12699999809E+01 0. -1.
</event>
<event>
 5   0  0.2448804E-04  0.2087973E+04  0.7818609E-02  0.8566560E-01
        2   -1    0    0  501    0  0.00000000000E+00  0.00000000000E+00  0.15070766221E+04  0.15070766222E+04  0.25500000920E-02 0.  1.
       -2   -1    0    0    0  501  0.00000000000E+00  0.00000000000E+00 -0.72319364327E+03  0.72319364327E+03  0.25500000920E-02 0. -1.
    10030    2    1    2    0    0  0.00000000000E+00  0.00000000000E+00  0.78388297888E+03  0.22302702654E+04  0.20879734031E+04 0.  0.
        2    1    3    3  502    0  0.52934832073E+03  0.73061255129E+03  0.95300424781E+03  0.13123343481E+04  0.25500000920E-02 0.  1.
       -2    1    3    3    0  502 -0.52934832073E+03 -0.73061255129E+03 -0.16912126892E+03  0.91793591736E+03  0.25500000920E-02 0. -1.
</event>
<event>
 5   0  0.2430898E-04  0.2115664E+04  0.7818609E-02  0.8554374E-01
       -2   -1    0    0    0  501  0.00000000000E+00  0.00000000000E+00  0.66440321272E+03  0.66440321273E+03  0.25500000920E-02 0.  1.
        2   -1    0    0  501    0  0.00000000000E+00  0.00000000000E+00 -0.16842317135E+04  0.16842317135E+04  0.25500000920E-02 0. -1.
    10030    2    1    2    0    0  0.00000000000E+00  0.00000000000E+00 -0.10198285008E+04  0.23486349263E+04  0.21156643982E+04 0.  0.
        1    1    3    3  502    0 -0.70135982106E+03 -0.74247015125E+03 -0.81563295766E+03  0.13070671925E+04  0.50400001928E-02 0. -1.
       -1    1    3    3    0  502  0.70135982106E+03  0.74247015125E+03 -0.20419554315E+03  0.10415677337E+04  0.50400001928E-02 0.  1.
</event>
<event>
 5   0  0.2467483E-04  0.2146133E+04  0.7818609E-02  0.8541189E-01
        2   -1    0    0  501    0  0.00000000000E+00  0.00000000000E+00  0.16666217270E+04  0.16666217270E+04  0.25500000920E-02 0.  1.
       -2   -1    0    0    0  501  0.00000000000E+00  0.00000000000E+00 -0.69090185087E+03  0.69090185088E+03  0.25500000920E-02 0. -1.
    10030    2    1    2    0    0  0.00000000000E+00  0.00000000000E+00  0.97571987617E+03  0.23575235779E+04  0.21461333005E+04 0.  0.
        4    1    3    3  502    0  0.32405431709E+03 -0.33591922743E+01 -0.63586020260E+03  0.71368220851E+03  0.12699999809E+01 0. -1.
       -4    1    3    3    0  502 -0.32405431709E+03  0.33591922743E+01  0.16115800788E+04  0.16438413694E+04  0.12699999809E+01 0.  1.
</event>
<event>
 5   0  0.2512839E-04  0.2287108E+04  0.7818609E-02  0.8483021E-01
       -2   -1    0    0    0  501  0.00000000000E+00  0.00000000000E+00  0.10226385311E+04  0.10226385311E+04  0.25500000920E-02 0. -1.
        2   -1    0    0  501    0  0.00000000000E+00  0.00000000000E+00 -0.12787667594E+04  0.12787667594E+04  0.25500000920E-02 0.  1.
    10030    2    1    2    0    0  0.00000000000E+00  0.00000000000E+00 -0.25612822830E+03  0.23014052905E+04  0.22871083581E+04 0.  0.
        3    1    3    3  502    0 -0.47725290571E+03 -0.46547715177E+03 -0.10629990961E+04  0.12547535230E+04  0.10100000352E+00 0.  1.
       -3    1    3    3    0  502  0.47725290571E+03  0.46547715177E+03  0.80687086785E+03  0.10466517675E+04  0.10100000352E+00 0. -1.
</event>
<event>
 5   0  0.1042395E-04  0.2099982E+04  0.7818609E-02  0.8561251E-01
        1   -1    0    0  501    0  0.00000000000E+00  0.00000000000E+00  0.10010720754E+04  0.10010720754E+04  0.50400001928E-02 0. -1.
       -1   -1    0    0    0  501  0.00000000000E+00  0.00000000000E+00 -0.11013005711E+04  0.11013005711E+04  0.50400001928E-02 0.  1.
    10030    2    1    2    0    0  0.00000000000E+00  0.00000000000E+00 -0.10022849573E+03  0.21023726465E+04  0.20999821412E+04 0.  0.
        3    1    3    3  502    0 -0.15269104360E+03  0.68947632647E+03 -0.82803744601E+03  0.10882730272E+04  0.10100000352E+00 0.  1.
       -3    1    3    3    0  502  0.15269104360E+03 -0.68947632647E+03  0.72780895028E+03  0.10140996193E+04  0.10100000352E+00 0. -1.
</event>
<event>
 5   0  0.1042395E-04  0.2014758E+04  0.7818609E-02  0.8599752E-01
       -1   -1    0    0    0  501  0.00000000000E+00  0.00000000000E+00  0.76587388419E+03  0.76587388420E+03  0.50400001928E-02 0.  1.
        1   -1    0    0  501    0  0.00000000000E+00  0.00000000000E+00 -0.13250380954E+04  0.13250380954E+04  0.50400001928E-02 0. -1.
    10030    2    1    2    0    0  0.00000000000E+00  0.00000000000E+00 -0.55916421122E+03  0.20909119796E+04  0.20147576260E+04 0.  0.
        3    1    3    3  502    0 -0.82826312368E+03 -0.12421808878E+03  0.30136446960E+03  0.89009577539E+03  0.10100000352E+00 0.  1.
       -3    1    3    3    0  502  0.82826312368E+03  0.12421808878E+03 -0.86052868082E+03  0.12008162042E+04  0.10100000352E+00 0. -1.
</event>
<event>
 5   0  0.1186038E-04  0.1495763E+04  0.7818609E-02  0.8887275E-01
        1   -1    0    0  501    0  0.00000000000E+00  0.00000000000E+00  0.14075388208E+04  0.14075388208E+04  0.50400001928E-02 0. -1.
       -1   -1    0    0    0  501  0.00000000000E+00  0.00000000000E+00 -0.39737935060E+03  0.39737935063E+03  0.50400001928E-02 0.  1.
    10030    2    1    2    0    0  0.00000000000E+00  0.00000000000E+00  0.10101594702E+04  0.18049181715E+04  0.14957631665E+04 0.  0.
        4    1    3    3  502    0 -0.14918372166E+03 -0.37953040431E+03  0.12615735829E+04  0.13258463819E+04  0.12699999809E+01 0. -1.
       -4    1    3    3    0  502  0.14918372166E+03  0.37953040431E+03 -0.25141411263E+03  0.47907178954E+03  0.12699999809E+01 0.  1.
</event>
<event>
 5   0  0.1122711E-04  0.2122162E+04  0.7818609E-02  0.8551543E-01
       -1   -1    0    0    0  501  0.00000000000E+00  0.00000000000E+00  0.15247360546E+04  0.15247360546E+04  0.50400001928E-02 0. -1.
        1   -1    0    0  501    0  0.00000000000E+00  0.00000000000E+00 -0.73841838677E+03  0.73841838678E+03  0.50400001928E-02 0.  1.
    10030    2    1    2    0    0  0.00000000000E+00  0.00000000000E+00  0.78631766786E+03  0.22631544414E+04  0.21221622348E+04 0.  0.
        1    1    3    3  502    0  0.20598686810E+02 -0.10204435492E+04  0.83774538863E+02  0.10240837448E+04  0.50400001928E-02 0.  1.
       -1    1    3    3    0  502 -0.20598686810E+02  0.10204435492E+04  0.70254312900E+03  0.12390706966E+04  0.50400001928E-02 0. -1.
</event>
<event>
 5   0  0.2430898E-04  0.2059013E+04  0.7818609E-02  0.8579516E-01
        2   -1    0    0  501    0  0.00000000000E+00  0.00000000000E+00  0.18235566438E+04  0.18235566438E+04  0.25500000920E-02 0. -1.
       -2   -1    0    0    0  501  0.00000000000E+00  0.00000000000E+00 -0.58121800571E+03  0.58121800572E+03  0.25500000920E-02 0.  1.
    10030    2    1    2    0    0  0.00000000000E+00  0.00000000000E+00  0.12423386381E+04  0.24047746495E+04  0.20590133130E+04 0.  0.
        1    1    3    3  502    0 -0.19287582877E+03 -0.70725712912E+03 -0.22303195384E+03  0.76626169451E+03  0.50400001928E-02 0. -1.
       -1    1    3    3    0  502  0.19287582877E+03  0.70725712912E+03  0.14653705919E+04  0.16385129550E+04  0.50400001928E-02 0.  1.
</event>
<event>
 5   0  0.2467483E-04  0.2010702E+04  0.7818609E-02  0.8601634E-01
       -2   -1    0    0    0  501  0.00000000000E+00  0.00000000000E+00  0.42727325505E+03  0.42727325505E+03  0.25500000920E-02 0. -1.
        2   -1    0    0  501    0  0.00000000000E+00  0.00000000000E+00 -0.23655358234E+04  0.23655358234E+04  0.25500000920E-02 0.  1.
    10030    2    1    2    0    0  0.00000000000E+00  0.00000000000E+00 -0.19382625683E+04  0.27928090784E+04  0.20107015604E+04 0.  0.
        4    1    3    3  502    0 -0.74252190040E+03 -0.62857995764E+03 -0.13212763243E+04  0.16407998884E+04  0.12699999809E+01 0.  1.
       -4    1    3    3    0  502  0.74252190040E+03  0.62857995764E+03 -0.61698624409E+03  0.11520091901E+04  0.12699999809E+01 0. -1.
</event>
<event>
 5   0  0.2448804E-04  0.2117933E+04  0.7818609E-02  0.8553384E-01
       -2   -1    0    0    0  501  0.00000000000E+00  0.00000000000E+00  0.87647475672E+03  0.87647475672E+03  0.25500000920E-02 0.  1.
        2   -1    0    0  501    0  0.00000000000E+00  0.00000000000E+00 -0.12794555626E+04  0.12794555627E+04  0.25500000920E-02 0. -1.
    10030    2    1    2    0    0  0.00000000000E+00  0.00000000000E+00 -0.40298080593E+03  0.21559303194E+04  0.21179334296E+04 0.  0.
        2    1    3    3  502    0  0.59073101639E+03  0.53330079933E+03 -0.91262051389E+03  0.12108877234E+04  0.25500000920E-02 0. -1.
       -2    1    3    3    0  502 -0.59073101639E+03 -0.53330079933E+03  0.50963970796E+03  0.94504259598E+03  0.25500000920E-02 0.  1.
</event>
<event>
 5   0  0.1130848E-04  0.2254954E+04  0.7818609E-02  0.8495897E-01
       -1   -1    0    0    0  501  0.00000000000E+00  0.00000000000E+00  0.99643374006E+03  0.99643374007E+03  0.50400001928E-02 0.  1.
        1   -1    0    0  501    0  0.00000000000E+00  0.00000000000E+00 -0.12757536513E+04  0.12757536513E+04  0.50400001928E-02 0. -1.
    10030    2    1    2    0    0  0.00000000000E+00  0.00000000000E+00 -0.27931991124E+03  0.22721873914E+04  0.22549536422E+04 0.  0.
        5    1    3    3  502    0  0.71236635935E+03 -0.15997371624E+03 -0.10053677542E+04  0.12425151231E+04  0.46999998093E+01 0. -1.
       -5    1    3    3    0  502 -0.71236635935E+03  0.15997371624E+03  0.72604784298E+03  0.10296722683E+04  0.46999998093E+01 0.  1.
</event>
<event>
 5   0  0.1042395E-04  0.2094814E+04  0.7818609E-02  0.8563531E-01
       -1   -1    0    0    0  501  0.00000000000E+00  0.00000000000E+00  0.61711965807E+03  0.61711965809E+03  0.50400001928E-02 0.  1.
        1   -1    0    0  501    0  0.00000000000E+00  0.00000000000E+00 -0.17777124253E+04  0.17777124253E+04  0.50400001928E-02 0. -1.
    10030    2    1    2    0    0  0.00000000000E+00  0.00000000000E+00 -0.11605927672E+04  0.23948320834E+04  0.20948138668E+04 0.  0.
        3    1    3    3  502    0 -0.85911292410E+03 -0.50265933348E+03 -0.95306282639E+03  0.13780675539E+04  0.10100000352E+00 0. -1.
       -3    1    3    3    0  502  0.85911292410E+03  0.50265933348E+03 -0.20752994083E+03  0.10167645295E+04  0.10100000352E+00 0.  1.
</event>
<event>
 5   0  0.2430898E-04  0.2114548E+04  0.7818609E-02  0.8554862E-01
        2   -1    0    0  501    0  0.00000000000E+00  0.00000000000E+00  0.17063971484E+04  0.17063971484E+04  0.25500000920E-02 0. -1.
       -2   -1    0    0    0  501  0.00000000000E+00  0.00000000000E+00 -0.65508068112E+03  0.65508068113E+03  0.25500000920E-02 0.  1.
    10030    2    1    2    0    0  0.00000000000E+00  0.00000000000E+00  0.10513164673E+04  0.23614778296E+04  0.21145475225E+04 0.  0.
        1    1    3    3  502    0 -0.74367460793E+03  0.56643402215E+03 -0.25907897434E+02  0.93518481761E+03  0.50400001928E-02 0.  1.
       -1    1    3    3    0  502  0.74367460793E+03 -0.56643402215E+03  0.10772243648E+04  0.14262930120E+04  0.50400001928E-02 0. -1.
</event>
<event>
 5   0  0.1186038E-04  0.2149449E+04  0.7818609E-02  0.8539768E-01
       -1   -1    0    0    0  501  0.00000000000E+00  0.00000000000E+00  0.83215169639E+03  0.83215169640E+03  0.50400001928E-02 0. -1.
        1   -1    0    0  501    0  0.00000000000E+00  0.00000000000E+00 -0.13880068051E+04  0.13880068051E+04  0.50400001928E-02 0.  1.
    10030    2    1    2    0    0  0.00000000000E+00  0.00000000000E+00 -0.55585510870E+03  0.22201585015E+04  0.21494485037E+04 0.  0.
        4    1    3    3  502    0 -0.85348854384E+03  0.12948866351E+03 -0.93915949863E+03  0.12756301130E+04  0.12699999809E+01 0.  1.
       -4    1    3    3    0  502  0.85348854384E+03 -0.12948866351E+03  0.38330438993E+03  0.94452838850E+03  0.12699999809E+01 0. -1.
</event>
<event>
 5   0  0.1042395E-04  0.2131626E+04  0.7818609E-02  0.8547438E-01
        1   -1    0    0  501    0  0.00000000000E+00  0.00000000000E+00  0.87427764046E+03  0.87427764048E+03  0.50400001928E-02 0.  1.
       -1   -1    0    0    0  501  0.00000000000E+00  0.00000000000E+00 -0.12993095534E+04  0.12993095534E+04  0.50400001928E-02 0. -1.
    10030    2    1    2    0    0  0.00000000000E+00  0.00000000000E+00 -0.42503191292E+03  0.21735871939E+04  0.21316259434E+04 0.  0.
        3    1    3    3  502    0  0.10014282584E+04  0.25502225223E+03 -0.47853922029E+03  0.11388128474E+04  0.10100000352E+00 0. -1.
       -3    1    3    3    0  502 -0.10014282584E+04 -0.25502225223E+03  0.53507307367E+02  0.10347743464E+04  0.10100000352E+00 0.  1.
</event>
<event>
 5   0  0.1122711E-04  0.2066037E+04  0.7818609E-02  0.8576354E-01
       -1   -1    0    0    0  501  0.00000000000E+00  0.00000000000E+00  0.96312061965E+03  0.96312061966E+03  0.50400001928E-02 0.  1.
        1   -1    0    0  501    0  0.00000000000E+00  0.00000000000E+00 -0.11079895207E+04  0.11079895207E+04  0.50400001928E-02 0. -1.
    10030    2    1    2    0    0  0.00000000000E+00  0.00000000000E+00 -0.14486890109E+03  0.20711101404E+04  0.20660373218E+04 0.  0.
        1    1    3    3  502    0 -0.64326149719E+03 -0.78159616822E+03 -0.27897341072E+03  0.10500019466E+04  0.50400001928E-02 0. -1.
       -1    1    3    3    0  502  0.64326149719E+03  0.78159616822E+03  0.13410450963E+03  0.10211081938E+04  0.50400001928E-02 0.  1.
</event>
<event>
 5   0  0.1130848E-04  0.1973901E+04  0.7818609E-02  0.8618921E-01
       -1   -1    0    0    0  501  0.00000000000E+00  0.00000000000E+00  0.16219362313E+04  0.16219362313E+04  0.50400001928E-02 0. -1.
        1   -1    0    0  501    0  0.00000000000E+00  0.00000000000E+00 -0.60056053716E+03  0.60056053718E+03  0.50400001928E-02 0.  1.
    10030    2    1    2    0    0  0.00000000000E+00  0.00000000000E+00  0.10213756941E+04  0.22224967685E+04  0.19739005997E+04 0.  0.
        5    1    3    3  502    0 -0.53074707196E+03  0.12843565827E+03  0.14363327928E+04  0.15366398909E+04  0.46999998093E+01 0. -1.
       -5    1    3    3    0  502  0.53074707196E+03 -0.12843565827E+03 -0.41495709869E+03  0.68585687753E+03  0.46999998093E+01 0.  1.
</event>
<event>
 5   0  0.1042395E-04  0.2089386E+04  0.7818609E-02  0.8565933E-01
        1   -1    0    0  501    0  0.00000000000E+00  0.00000000000E+00  0.96220735738E+03  0.96220735739E+03  0.50400001928E-02 0. -1.
       -1   -1    0    0    0  501  0.00000000000E+00  0.00000000000E+00 -0.11342497900E+04  0.11342497900E+04  0.50400001928E-02 0.  1.
    10030    2    1    2    0    0  0.00000000000E+00  0.00000000000E+00 -0.17204243259E+03  0.20964571474E+04  0.20893860276E+04 0.  0.
        3    1    3    3  502    0 -0.37965652799E+03 -0.65227231955E+03  0.63877045158E+03  0.98874969437E+03  0.10100000352E+00 0. -1.
       -3    1    3    3    0  502  0.37965652799E+03  0.65227231955E+03 -0.81081288417E+03  0.11077074530E+04  0.10100000352E+00 0.  1.
</event>
<event>
 5   0  0.2467483E-04  0.2063724E+04  0.7818609E-02  0.8577394E-01
       -2   -1    0    0    0  501  0.00000000000E+00  0.00000000000E+00  0.95836775468E+03  0.95836775469E+03  0.25500000920E-02 0.  1.
        2   -1    0    0  501    0  0.00000000000E+00  0.00000000000E+00 -0.11109923787E+04  0.11109923787E+04  0.25500000920E-02 0. -1.
    10030    2    1    2    0    0  0.00000000000E+00  0.00000000000E+00 -0.15262462405E+03  0.20693601334E+04  0.20637240818E+04 0.  0.
        4    1    3    3  502    0  0.40096598567E+03  0.94633191528E+03  0.15697987362E+02  0.10278938930E+04  0.12699999809E+01 0.  1.
       -4    1    3    3    0  502 -0.40096598567E+03 -0.94633191528E+03 -0.16832261141E+03  0.10414662404E+04  0.12699999809E+01 0. -1.
</event>
<event>
 5   0  0.2430898E-04  0.2065668E+04  0.7818609E-02  0.8576519E-01
        2   -1    0    0  501    0  0.00000000000E+00  0.00000000000E+00  0.11069775393E+04  0.11069775393E+04  0.25500000920E-02 0.  1.
       -2   -1    0    0    0  501  0.00000000000E+00  0.00000000000E+00 -0.96365671659E+03  0.96365671659E+03  0.25500000920E-02 0. -1.
    10030    2    1    2    0    0  0.00000000000E+00  0.00000000000E+00  0.14332082267E+03  0.20706342559E+04  0.20656682607E+04 0.  0.
        1    1    3    3  502    0  0.81254903963E+03  0.15188531917E+03 -0.54905457817E+03  0.99235377856E+03  0.50400001928E-02 0. -1.
       -1    1    3    3    0  502 -0.81254903963E+03 -0.15188531917E+03  0.69237540084E+03  0.10782804773E+04  0.50400001928E-02 0.  1.
</event>
<event>
 5   0  0.1186038E-04  0.2080735E+04  0.7818609E-02  0.8569778E-01
       -1   -1    0    0    0  501  0.00000000000E+00  0.00000000000E+00  0.11030378778E+04  0.11030378778E+04  0.50400001928E-02 0.  1.
        1   -1    0    0  501    0  0.00000000000E+00  0.00000000000E+00 -0.98125784573E+03  0.98125784574E+03  0.50400001928E-02 0. -1.
    10030    2    1    2    0    0  0.00000000000E+00  0.00000000000E+00  0.12178003208E+03  0.20842957236E+04  0.20807350353E+04 0.  0.
        4    1    3    3  502    0 -0.52603615246E+03  0.42159493641E+03 -0.73287159954E+03  0.99577041451E+03  0.12699999809E+01 0. -1.
       -4    1    3    3    0  502  0.52603615246E+03 -0.42159493641E+03  0.85465163162E+03  0.10885253090E+04  0.12699999809E+01 0.  1.
</event>
<event>
 5   0  0.2579241E-04  0.2094546E+04  0.7818609E-02  0.8563650E-01
        2   -1    0    0  501    0  0.00000000000E+00  0.00000000000E+00  0.24748227334E+04  0.24748227334E+04  0.25500000920E-02 0.  1.
       -2   -1    0    0    0  501  0.00000000000E+00  0.00000000000E+00 -0.44317540825E+03  0.44317540826E+03  0.25500000920E-02 0. -1.
    10030    2    1    2    0    0  0.00000000000E+00  0.00000000000E+00  0.20316473252E+04  0.29179981417E+04  0.20945458460E+04 0.  0.
        5    1    3    3  502    0 -0.97302964179E+03 -0.20102765837E+03  0.14769506307E+04  0.17800573189E+04  0.46999998093E+01 0. -1.
       -5    1    3    3    0  502  0.97302964179E+03  0.20102765837E+03  0.55469669452E+03  0.11379408228E+04  0.46999998093E+01 0.  1.
</event>
<event>
 5   0  0.1186038E-04  0.2040873E+04  0.7818609E-02  0.8587746E-01
       -1   -1    0    0    0  501  0.00000000000E+00  0.00000000000E+00  0.16876122249E+04  0.16876122249E+04  0.50400001928E-02 0. -1.
        1   -1    0    0  501    0  0.00000000000E+00  0.00000000000E+00 -0.61702028968E+03  0.61702028970E+03  0.50400001928E-02 0.  1.
    10030    2    1    2    0    0  0.00000000000E+00  0.00000000000E+00  0.10705919352E+04  0.23046325146E+04  0.20408733267E+04 0.  0.
        4    1    3    3  502    0  0.19444078840E+02  0.59765885749E+03  0.14690301311E+04  0.15860722938E+04  0.12699999809E+01 0. -1.
       -4    1    3    3    0  502 -0.19444078840E+02 -0.59765885749E+03 -0.39843819586E+03  0.71856022083E+03  0.12699999809E+01 0.  1.
</event>
<event>
 5   0  0.1122711E-04  0.2040019E+04  0.7818609E-02  0.8588136E-01
       -1   -1    0    0    0  501  0.00000000000E+00  0.00000000000E+00  0.74846159676E+03  0.74846159678E+03  0.50400001928E-02 0.  1.
        1   -1    0    0  501    0  0.00000000000E+00  0.00000000000E+00 -0.13900768606E+04  0.13900768606E+04  0.50400001928E-02 0. -1.
    10030    2    1    2    0    0  0.00000000000E+00  0.00000000000E+00 -0.64161526384E+03  0.21385384574E+04  0.20400187712E+04 0.  0.
        1    1    3    3  502    0 -0.96402248091E+03 -0.20205380917E+02  0.27931665741E+02  0.96463867800E+03  0.50400001928E-02 0.  1.
       -1    1    3    3    0  502  0.96402248091E+03  0.20205380917E+02 -0.66954692958E+03  0.11738997794E+04  0.50400001928E-02 0. -1.
</event>
<event>
 5   0  0.1122711E-04  0.2098223E+04  0.7818609E-02  0.8562027E-01
       -1   -1    0    0    0  501  0.00000000000E+00  0.00000000000E+00  0.11912211041E+04  0.11912211041E+04  0.50400001928E-02 0.  1.
        1   -1    0    0  501    0  0.00000000000E+00  0.00000000000E+00 -0.92395494261E+03  0.92395494262E+03  0.50400001928E-02 0. -1.
    10030    2    1    2    0    0  0.00000000000E+00  0.00000000000E+00  0.26726616147E+03  0.21151760467E+04  0.20982227021E+04 0.  0.
        1    1    3    3  502    0  0.57029586183E+03  0.83691006430E+03  0.40966810099E+03  0.10924668319E+04  0.50400001928E-02 0. -1.
       -1    1    3    3    0  502 -0.57029586183E+03 -0.83691006430E+03 -0.14240193952E+03  0.10227092148E+04  0.50400001928E-02 0.  1.
</event>
<event>
 5   0  0.1042395E-04  0.2091956E+04  0.7818609E-02  0.8564795E-01
        1   -1    0    0  501    0  0.00000000000E+00  0.00000000000E+00  0.11056492474E+04  0.11056492474E+04  0.50400001928E-02 0.  1.
       -1   -1    0    0    0  501  0.00000000000E+00  0.00000000000E+00 -0.98952754877E+03  0.98952754879E+03  0.50400001928E-02 0. -1.
    10030    2    1    2    0    0  0.00000000000E+00  0.00000000000E+00  0.11612169864E+03  0.20951767962E+04  0.20919563950E+04 0.  0.
        3    1    3    3  502    0  0.17813009563E+03  0.23150654319E+03 -0.94784815494E+03  0.99183756005E+03  0.10100000352E+00 0. -1.
       -3    1    3    3    0  502 -0.17813009563E+03 -0.23150654319E+03  0.10639698536E+04  0.11033392362E+04  0.10100000352E+00 0.  1.
</event>
<event>
 5   0  0.2579241E-04  0.2161753E+04  0.7818609E-02  0.8534518E-01
        2   -1    0    0  501    0  0.00000000000E+00  0.00000000000E+00  0.19855209096E+04  0.19855209096E+04  0.25500000920E-02 0.  1.
       -2   -1    0    0    0  501  0.00000000000E+00  0.00000000000E+00 -0.58840668530E+03  0.58840668530E+03  0.25500000920E-02 0. -1.
    10030    2    1    2    0    0  0.00000000000E+00  0.00000000000E+00  0.13971142243E+04  0.25739275949E+04  0.21617527861E+04 0.  0.
        5    1    3    3  502    0 -0.10507705993E+04 -0.89849209395E+02  0.41659281262E+03  0.11339150736E+04  0.46999998093E+01 0. -1.
       -5    1    3    3    0  502  0.10507705993E+04  0.89849209395E+02  0.98052141171E+03  0.14400125213E+04  0.46999998093E+01 0.  1.
</event>
<event>
 5   0  0.2430898E-04  0.2083353E+04  0.7818609E-02  0.8568612E-01
        2   -1    0    0  501    0  0.00000000000E+00  0.00000000000E+00  0.22019172003E+04  0.22019172003E+04  0.25500000920E-02 0.  1.
       -2   -1    0    0    0  501  0.00000000000E+00  0.00000000000E+00 -0.49279305722E+03  0.49279305723E+03  0.25500000920E-02 0. -1.
    10030    2    1    2    0    0  0.00000000000E+00  0.00000000000E+00  0.17091241431E+04  0.26947102576E+04  0.20833525951E+04 0.  0.
        1    1    3    3  502    0 -0.13046996024E+03 -0.54571302145E+03  0.19897537783E+04  0.20673522222E+04  0.50400001928E-02 0.  1.
       -1    1    3    3    0  502  0.13046996024E+03  0.54571302145E+03 -0.28062963523E+03  0.62735803533E+03  0.50400001928E-02 0. -1.
</event>
<event>
 5   0  0.1186038E-04  0.2068130E+04  0.7818609E-02  0.8575414E-01
        1   -1    0    0  501    0  0.00000000000E+00  0.00000000000E+00  0.20571425657E+04  0.20571425657E+04  0.50400001928E-02 0.  1.
       -1   -1    0    0    0  501  0.00000000000E+00  0.00000000000E+00 -0.51979396860E+03  0.51979396862E+03  0.50400001928E-02 0. -1.
    10030    2    1    2    0    0  0.00000000000E+00  0.00000000000E+00  0.15373485971E+04  0.25769365344E+04  0.20681298782E+04 0.  0.
        4    1    3    3  502    0 -0.71317196799E+03  0.58886007437E+03  0.19237269963E+03  0.94465830414E+03  0.12699999809E+01 0.  1.
       -4    1    3    3    0  502  0.71317196799E+03 -0.58886007437E+03  0.13449758975E+04  0.16322782302E+04  0.12699999809E+01 0. -1.
</event>
<event>
 5   0  0.1042395E-04  0.2107869E+04  0.7818609E-02  0.8557785E-01
       -1   -1    0    0    0  501  0.00000000000E+00  0.00000000000E+00  0.77021761538E+03  0.77021761540E+03  0.50400001928E-02 0.  1.
        1   -1    0    0  501    0  0.00000000000E+00  0.00000000000E+00 -0.14421610804E+04  0.14421610804E+04  0.50400001928E-02 0. -1.
    10030    2    1    2    0    0  0.00000000000E+00  0.00000000000E+00 -0.67194346498E+03  0.22123786958E+04  0.21078689412E+04 0.  0.
        3    1    3    3  502    0 -0.61657860717E+03  0.32286128501E+03 -0.11666466260E+04  0.13584818543E+04  0.10100000352E+00 0. -1.
       -3    1    3    3    0  502  0.61657860717E+03 -0.32286128501E+03  0.49470316105E+03  0.85389684150E+03  0.10100000352E+00 0.  1.
</event>
<event>
 5   0  0.2579241E-04  0.2085146E+04  0.7818609E-02  0.8567815E-01
       -2   -1    0    0    0  501  0.00000000000E+00  0.00000000000E+00  0.57973915114E+03  0.57973915114E+03  0.25500000920E-02 0.  1.
        2   -1    0    0  501    0  0.00000000000E+00  0.00000000000E+00 -0.18749089724E+04  0.18749089724E+04  0.25500000920E-02 0. -1.
    10030    2    1    2    0    0  0.00000000000E+00  0.00000000000E+00 -0.12951698213E+04  0.24546481236E+04  0.20851456890E+04 0.  0.
        5    1    3    3  502    0  0.80476200765E+03  0.51167237574E+03 -0.11435308336E+04  0.14890048242E+04  0.46999998093E+01 0. -1.
       -5    1    3    3    0  502 -0.80476200765E+03 -0.51167237574E+03 -0.15163898770E+03  0.96564329939E+03  0.46999998093E+01 0.  1.
</event>
<event>
 5   0  0.1042395E-04  0.1730359E+04  0.7818609E-02  0.8744236E-01
       -1   -1    0    0    0  501  0.00000000000E+00  0.00000000000E+00  0.84286356073E+03  0.84286356075E+03  0.50400001928E-02 0. -1.
        1   -1    0    0  501    0  0.00000000000E+00  0.00000000000E+00 -0.88808658459E+03  0.88808658460E+03  0.50400001928E-02 0.  1.
    10030    2    1    2    0    0  0.00000000000E+00  0.00000000000E+00 -0.45223023860E+02  0.17309501453E+04  0.17303592933E+04 0.  0.
        3    1    3    3  502    0  0.28080639543E+03  0.46038241130E+03  0.65417816275E+03  0.84779317947E+03  0.10100000352E+00 0. -1.
       -3    1    3    3    0  502 -0.28080639543E+03 -0.46038241130E+03 -0.69940118661E+03  0.88315696588E+03  0.10100000352E+00 0.  1.
</event>
<event>
 5   0  0.1042395E-04  0.1307029E+04  0.7818609E-02  0.9024010E-01
        1   -1    0    0  501    0  0.00000000000E+00  0.00000000000E+00  0.53524793889E+03  0.53524793891E+03  0.50400001928E-02 0.  1.
       -1   -1    0    0    0  501  0.00000000000E+00  0.00000000000E+00 -0.79791238082E+03  0.79791238084E+03  0.50400001928E-02 0. -1.
    10030    2    1    2    0    0  0.00000000000E+00  0.00000000000E+00 -0.26266444193E+03  0.13331603198E+04  0.13070286260E+04 0.  0.
        3    1    3    3  502    0 -0.12674441202E+03 -0.52196322400E+03 -0.51102624228E+03  0.74138895574E+03  0.10100000352E+00 0. -1.
       -3    1    3    3    0  502  0.12674441202E+03  0.52196322400E+03  0.24836180035E+03  0.59177136401E+03  0.10100000352E+00 0.  1.
</event>
<event>
 5   0  0.2467483E-04  0.2068340E+04  0.7818609E-02  0.8575320E-01
        2   -1    0    0  501    0  0.00000000000E+00  0.00000000000E+00  0.19948921260E+04  0.19948921260E+04  0.25500000920E-02 0. -1.
       -2   -1    0    0    0  501  0.00000000000E+00  0.00000000000E+00 -0.53612291467E+03  0.53612291467E+03  0.25500000920E-02 0.  1.
    10030    2    1    2    0    0  0.00000000000E+00  0.00000000000E+00  0.14587692114E+04  0.25310150407E+04  0.20683397990E+04 0.  0.
        4    1    3    3  502    0  0.47215551868E+03  0.27721633027E+03  0.18029807101E+04  0.18842825641E+04  0.12699999809E+01 0. -1.
       -4    1    3    3    0  502 -0.47215551868E+03 -0.27721633027E+03 -0.34421149868E+03  0.64673247662E+03  0.12699999809E+01 0.  1.
</event>
<event>
 5   0  0.2448804E-04  0.2058950E+04  0.7818609E-02  0.8579545E-01
        2   -1    0    0  501    0  0.00000000000E+00  0.00000000000E+00  0.66691328699E+03  0.66691328699E+03  0.25500000920E-02 0.  1.
       -2   -1    0    0    0  501  0.00000000000E+00  0.00000000000E+00 -0.15891409865E+04  0.15891409865E+04  0.25500000920E-02 0. -1.
    10030    2    1    2    0    0  0.00000000000E+00  0.00000000000E+00 -0.92222769946E+03  0.22560542734E+04  0.20589504499E+04 0.  0.
        2    1    3    3  502    0  0.64226380143E+03  0.64436074744E+03 -0.98901898076E+03  0.13438236892E+04  0.25500000920E-02 0. -1.
       -2    1    3    3    0  502 -0.64226380143E+03 -0.64436074744E+03  0.66791281295E+02  0.91223058420E+03  0.25500000920E-02 0.  1.
</event>
<event>
 5   0  0.1156733E-04  0.2052155E+04  0.7818609E-02  0.8582617E-01
        1   -1    0    0  501    0  0.00000000000E+00  0.00000000000E+00  0.15073145050E+04  0.15073145050E+04  0.50400001928E-02 0. -1.
       -1   -1    0    0    0  501  0.00000000000E+00  0.00000000000E+00 -0.69848403326E+03  0.69848403328E+03  0.50400001928E-02 0.  1.
    10030    2    1    2    0    0  0.00000000000E+00  0.00000000000E+00  0.80883047175E+03  0.22057985383E+04  0.20521550769E+04 0.  0.
        2    1    3    3  502    0 -0.15292679980E+03  0.48176298919E+03 -0.55538525064E+03  0.75095603099E+03  0.25500000920E-02 0.  1.
       -2    1    3    3    0  502  0.15292679980E+03 -0.48176298919E+03  0.13642157224E+04  0.14548425073E+04  0.25500000920E-02 0. -1.
</event>
<event>
 5   0  0.2448804E-04  0.2076145E+04  0.7818609E-02  0.8571825E-01
       -2   -1    0    0    0  501  0.00000000000E+00  0.00000000000E+00  0.73601344927E+03  0.73601344927E+03  0.25500000920E-02 0. -1.
        2   -1    0    0  501    0  0.00000000000E+00  0.00000000000E+00 -0.14640968253E+04  0.14640968253E+04  0.25500000920E-02 0.  1.
    10030    2    1    2    0    0  0.00000000000E+00  0.00000000000E+00 -0.72808337606E+03  0.22001102746E+04  0.20761454231E+04 0.  0.
        2    1    3    3  502    0 -0.38238112375E+03  0.15304106793E+03  0.64572159201E+03  0.76589376983E+03  0.25500000920E-02 0. -1.
       -2    1    3    3    0  502  0.38238112375E+03 -0.15304106793E+03 -0.13738049681E+04  0.14342165048E+04  0.25500000920E-02 0.  1.
</event>
<event>
 5   0  0.1156733E-04  0.2036781E+04  0.7818609E-02  0.8589615E-01
        1   -1    0    0  501    0  0.00000000000E+00  0.00000000000E+00  0.15236638552E+04  0.15236638552E+04  0.50400001928E-02 0. -1.
       -1   -1    0    0    0  501  0.00000000000E+00  0.00000000000E+00 -0.68067454457E+03  0.68067454459E+03  0.50400001928E-02 0.  1.
    10030    2    1    2    0    0  0.00000000000E+00  0.00000000000E+00  0.84298931066E+03  0.22043383998E+04  0.20367809904E+04 0.  0.
        2    1    3    3  502    0  0.20919799045E+03 -0.98152010974E+03  0.60886632876E+03  0.11738244040E+04  0.25500000920E-02 0. -1.
       -2    1    3    3    0  502 -0.20919799045E+03  0.98152010974E+03  0.23412298191E+03  0.10305139959E+04  0.25500000920E-02 0.  1.
</event>
<event>
 5   0  0.8698750E-05  0.2093098E+04  0.7818609E-02  0.8564290E-01
        3   -1    0    0  501    0  0.00000000000E+00  0.00000000000E+00  0.57333311764E+03  0.57333312654E+03  0.10100000352E+00 0.  1.
       -3   -1    0    0    0  501  0.00000000000E+00  0.00000000000E+00 -0.19103460365E+04  0.19103460392E+04  0.10100000352E+00 0. -1.
    10030    2    1    2    0    0  0.00000000000E+00  0.00000000000E+00 -0.13370129188E+04  0.24836791657E+04  0.20930978603E+04 0.  0.
        3    1    3    3  502    0 -0.10413404850E+04 -0.98268536866E+02 -0.70991779576E+03  0.12641321126E+04  0.10100000352E+00 0. -1.
       -3    1    3    3    0  502  0.10413404850E+04  0.98268536866E+02 -0.62709512308E+03  0.12195470531E+04  0.10100000352E+00 0.  1.
</event>
<event>
 5   0  0.1122711E-04  0.2118714E+04  0.7818609E-02  0.8553044E-01
        1   -1    0    0  501    0  0.00000000000E+00  0.00000000000E+00  0.10872718358E+04  0.10872718358E+04  0.50400001928E-02 0. -1.
       -1   -1    0    0    0  501  0.00000000000E+00  0.00000000000E+00 -0.10321584568E+04  0.10321584568E+04  0.50400001928E-02 0.  1.
    10030    2    1    2    0    0  0.00000000000E+00  0.00000000000E+00  0.55113379076E+02  0.21194302926E+04  0.21187135910E+04 0.  0.
        1    1    3    3  502    0  0.63794869010E+03 -0.40278600551E+03  0.77146255024E+03  0.10790595738E+04  0.50400001928E-02 0. -1.
       -1    1    3    3    0  502 -0.63794869010E+03  0.40278600551E+03 -0.71634917117E+03  0.10403707188E+04  0.50400001928E-02 0.  1.
</event>
<event>
 5   0  0.2448804E-04  0.2152413E+04  0.7818609E-02  0.8538500E-01
       -2   -1    0    0    0  501  0.00000000000E+00  0.00000000000E+00  0.40636769246E+03  0.40636769247E+03  0.25500000920E-02 0. -1.
        2   -1    0    0  501    0  0.00000000000E+00  0.00000000000E+00 -0.28501780367E+04  0.28501780367E+04  0.25500000920E-02 0.  1.
    10030    2    1    2    0    0  0.00000000000E+00  0.00000000000E+00 -0.24438103442E+04  0.32565457292E+04  0.21524128525E+04 0.  0.
        2    1    3    3  502    0  0.49699395014E+03  0.19725948492E+03  0.19117248469E+03  0.56785668066E+03  0.25500000920E-02 0. -1.
       -2    1    3    3    0  502 -0.49699395014E+03 -0.19725948492E+03 -0.26349828289E+04  0.26886890485E+04  0.25500000920E-02 0.  1.
</event>
<event>
 5   0  0.2467483E-04  0.2060709E+04  0.7818609E-02  0.8578751E-01
       -2   -1    0    0    0  501  0.00000000000E+00  0.00000000000E+00  0.96769952323E+03  0.96769952323E+03  0.25500000920E-02 0.  1.
        2   -1    0    0  501    0  0.00000000000E+00  0.00000000000E+00 -0.10970665200E+04  0.10970665200E+04  0.25500000920E-02 0. -1.
    10030    2    1    2    0    0  0.00000000000E+00  0.00000000000E+00 -0.12936699681E+03  0.20647660433E+04  0.20607093423E+04 0.  0.
        4    1    3    3  502    0 -0.25746937648E+03 -0.98593882155E+03  0.88139857076E+02  0.10228079424E+04  0.12699999809E+01 0.  1.
       -4    1    3    3    0  502  0.25746937648E+03  0.98593882155E+03 -0.21750685389E+03  0.10419581009E+04  0.12699999809E+01 0. -1.
</event>
<event>
 5   0  0.2430898E-04  0.2108791E+04  0.7818609E-02  0.8557381E-01
       -2   -1    0    0    0  501  0.00000000000E+00  0.00000000000E+00  0.61227604422E+03  0.61227604423E+03  0.25500000920E-02 0. -1.
        2   -1    0    0  501    0  0.00000000000E+00  0.00000000000E+00 -0.18157657306E+04  0.18157657306E+04  0.25500000920E-02 0.  1.
    10030    2    1    2    0    0  0.00000000000E+00  0.00000000000E+00 -0.12034896864E+04  0.24280417748E+04  0.21087909889E+04 0.  0.
        1    1    3    3  502    0  0.19510314711E+03 -0.30312142432E+03 -0.17426106887E+04  0.17795055067E+04  0.50400001928E-02 0.  1.
       -1    1    3    3    0  502 -0.19510314711E+03  0.30312142432E+03  0.53912100234E+03  0.64853626813E+03  0.50400001928E-02 0. -1.
</event>
<event>
 5   0  0.2430898E-04  0.2074944E+04  0.7818609E-02  0.8572362E-01
       -2   -1    0    0    0  501  0.00000000000E+00  0.00000000000E+00  0.73386057217E+03  0.73386057217E+03  0.25500000920E-02 0.  1.
        2   -1    0    0  501    0  0.00000000000E+00  0.00000000000E+00 -0.14666928050E+04  0.14666928050E+04  0.25500000920E-02 0. -1.
    10030    2    1    2    0    0  0.00000000000E+00  0.00000000000E+00 -0.73283223282E+03  0.22005533772E+04  0.20749438750E+04 0.  0.
        1    1    3    3  502    0  0.58990098015E+03  0.73313676799E+03 -0.82975682497E+03  0.12545792424E+04  0.50400001928E-02 0. -1.
       -1    1    3    3    0  502 -0.58990098015E+03 -0.73313676799E+03  0.96924592152E+02  0.94597413471E+03  0.50400001928E-02 0.  1.
</event>
<event>
 5   0  0.1156733E-04  0.2025843E+04  0.7818609E-02  0.8594633E-01
       -1   -1    0    0    0  501  0.00000000000E+00  0.00000000000E+00  0.65877320495E+03  0.65877320497E+03  0.50400001928E-02 0.  1.
        1   -1    0    0  501    0  0.00000000000E+00  0.00000000000E+00 -0.15574548072E+04  0.15574548072E+04  0.50400001928E-02 0. -1.
    10030    2    1    2    0    0  0.00000000000E+00  0.00000000000E+00 -0.89868160225E+03  0.22162280122E+04  0.20258425358E+04 0.  0.
        2    1    3    3  502    0  0.33644540469E+03  0.52277124569E+03 -0.13241981595E+04  0.14628691162E+04  0.25500000920E-02 0. -1.
       -2    1    3    3    0  502 -0.33644540469E+03 -0.52277124569E+03  0.42551655721E+03  0.75335889596E+03  0.25500000920E-02 0.  1.
</event>
<event>
 5   0  0.1156733E-04  0.2274784E+04  0.7818609E-02  0.8487930E-01
       -1   -1    0    0    0  501  0.00000000000E+00  0.00000000000E+00  0.18160956634E+04  0.18160956635E+04  0.50400001928E-02 0.  1.
        1   -1    0    0  501    0  0.00000000000E+00  0.00000000000E+00 -0.71233090976E+03  0.71233090978E+03  0.50400001928E-02 0. -1.
    10030    2    1    2    0    0  0.00000000000E+00  0.00000000000E+00  0.11037647537E+04  0.25284265732E+04  0.22747844524E+04 0.  0.
        2    1    3    3  502    0 -0.80258687091E+02  0.28127147539E+03  0.17735768555E+04  0.17975344119E+04  0.25500000920E-02 0.  1.
       -2    1    3    3    0  502  0.80258687091E+02 -0.28127147539E+03 -0.66981210180E+03  0.73089216130E+03  0.25500000920E-02 0. -1.
</event>
<event>
 5   0  0.2430898E-04  0.1196525E+04  0.7818609E-02  0.9115903E-01
        2   -1    0    0  501    0  0.00000000000E+00  0.00000000000E+00  0.59631462923E+03  0.59631462924E+03  0.25500000920E-02 0. -1.
       -2   -1    0    0    0  501  0.00000000000E+00  0.00000000000E+00 -0.60021706253E+03  0.60021706253E+03  0.25500000920E-02 0.  1.
    10030    2    1    2    0    0  0.00000000000E+00  0.00000000000E+00 -0.39024332963E+01  0.11965316918E+04  0.11965253280E+04 0.  0.
        1    1    3    3  502    0  0.51222578129E+03 -0.20484100029E+03 -0.23343274644E+03  0.59902081229E+03  0.50400001928E-02 0.  1.
       -1    1    3    3    0  502 -0.51222578129E+03  0.20484100029E+03  0.22953031314E+03  0.59751087948E+03  0.50400001928E-02 0. -1.
</event>
<event>
 5   0  0.2579241E-04  0.2077688E+04  0.7818609E-02  0.8571136E-01
        2   -1    0    0  501    0  0.00000000000E+00  0.00000000000E+00  0.96631998844E+03  0.96631998844E+03  0.25500000920E-02 0. -1.
       -2   -1    0    0    0  501  0.00000000000E+00  0.00000000000E+00 -0.11168107543E+04  0.11168107543E+04  0.25500000920E-02 0.  1.
    10030    2    1    2    0    0  0.00000000000E+00  0.00000000000E+00 -0.15049076584E+03  0.20831307427E+04  0.20776877101E+04 0.  0.
        5    1    3    3  502    0 -0.72468347053E+02  0.98942430457E+03  0.23372153646E+03  0.10192448000E+04  0.46999998093E+01 0. -1.
       -5    1    3    3    0  502  0.72468347053E+02 -0.98942430457E+03 -0.38421230230E+03  0.10638859427E+04  0.46999998093E+01 0.  1.
</event>
<event>
 5   0  0.2467483E-04  0.1918414E+04  0.7818609E-02  0.8645744E-01
       -2   -1    0    0    0  501  0.00000000000E+00  0.00000000000E+00  0.12725007139E+04  0.12725007139E+04  0.25500000920E-02 0. -1.
        2   -1    0    0  501    0  0.00000000000E+00  0.00000000000E+00 -0.72304715747E+03  0.72304715747E+03  0.25500000920E-02 0.  1.
    10030    2    1    2    0    0  0.00000000000E+00  0.00000000000E+00  0.54945355647E+03  0.19955478714E+04  0.19184139533E+04 0.  0.
        4    1    3    3  502    0 -0.84145396144E+03  0.46046732567E+03  0.27345961761E+03  0.99742503608E+03  0.12699999809E+01 0. -1.
       -4    1    3    3    0  502  0.84145396144E+03 -0.46046732567E+03  0.27599393886E+03  0.99812283534E+03  0.12699999809E+01 0.  1.
</event>
<event>
 5   0  0.1122711E-04  0.1137355E+04  0.7818609E-02  0.9169529E-01
       -1   -1    0    0    0  501  0.00000000000E+00  0.00000000000E+00  0.38791379035E+03  0.38791379038E+03  0.50400001928E-02 0. -1.
        1   -1    0    0  501    0  0.00000000000E+00  0.00000000000E+00 -0.83367502642E+03  0.83367502644E+03  0.50400001928E-02 0.  1.
    10030    2    1    2    0    0  0.00000000000E+00  0.00000000000E+00 -0.44576123607E+03  0.12215888168E+04  0.11373548953E+04 0.  0.
        1    1    3    3  502    0  0.68534393290E+02 -0.74949062125E+02 -0.82385576397E+03  0.83009194962E+03  0.50400001928E-02 0.  1.
       -1    1    3    3    0  502 -0.68534393290E+02  0.74949062125E+02  0.37809452790E+03  0.39149686720E+03  0.50400001928E-02 0. -1.
</event>
<event>
 5   0  0.2512839E-04  0.2084930E+04  0.7818609E-02  0.8567911E-01
        2   -1    0    0  501    0  0.00000000000E+00  0.00000000000E+00  0.13732264904E+04  0.13732264904E+04  0.25500000920E-02 0.  1.
       -2   -1    0    0    0  501  0.00000000000E+00  0.00000000000E+00 -0.79137187140E+03  0.79137187140E+03  0.25500000920E-02 0. -1.
    10030    2    1    2    0    0  0.00000000000E+00  0.00000000000E+00  0.58185461899E+03  0.21645983618E+04  0.20849295600E+04 0.  0.
        3    1    3    3  502    0  0.50748634860E+03 -0.26159744118E+03 -0.61461547011E+03  0.83888485596E+03  0.10100000352E+00 0. -1.
       -3    1    3    3    0  502 -0.50748634860E+03  0.26159744118E+03  0.11964700891E+04  0.13257135058E+04  0.10100000352E+00 0.  1.
</event>
<event>
 5   0  0.2430898E-04  0.2095693E+04  0.7818609E-02  0.8563143E-01
        2   -1    0    0  501    0  0.00000000000E+00  0.00000000000E+00  0.22146101824E+04  0.22146101824E+04  0.25500000920E-02 0. -1.
       -2   -1    0    0    0  501  0.00000000000E+00  0.00000000000E+00 -0.49579025595E+03  0.49579025596E+03  0.25500000920E-02 0.  1.
    10030    2    1    2    0    0  0.00000000000E+00  0.00000000000E+00  0.17188199264E+04  0.27104004383E+04  0.20956928679E+04 0.  0.
        1    1    3    3  502    0 -0.43070028651E+03 -0.73033767231E+03  0.16557065724E+04  0.18601774394E+04  0.50400001928E-02 0. -1.
       -1    1    3    3    0  502  0.43070028651E+03  0.73033767231E+03  0.63113354074E+02  0.85022299891E+03  0.50400001928E-02 0.  1.
</event>
<event>
 5   0  0.1186038E-04  0.1037917E+04  0.7818609E-02  0.9267909E-01
        1   -1    0    0  501    0  0.00000000000E+00  0.00000000000E+00  0.13291284666E+04  0.13291284666E+04  0.50400001928E-02 0. -1.
       -1   -1    0    0    0  501  0.00000000000E+00  0.00000000000E+00 -0.20262734306E+03  0.20262734312E+03  0.50400001928E-02 0.  1.
    10030    2    1    2    0    0  0.00000000000E+00  0.00000000000E+00  0.11265011236E+04  0.15317558098E+04  0.10379167015E+04 0.  0.
        4    1    3    3  502    0 -0.39377361776E+03  0.33719580573E+03  0.52840535563E+03  0.74025165060E+03  0.12699999809E+01 0.  1.
       -4    1    3    3    0  502  0.39377361776E+03 -0.33719580573E+03  0.59809576794E+03  0.79150415916E+03  0.12699999809E+01 0. -1.
</event>
<event>
 5   0  0.2512839E-04  0.2062927E+04  0.7818609E-02  0.8577753E-01
        2   -1    0    0  501    0  0.00000000000E+00  0.00000000000E+00  0.12764210093E+04  0.12764210093E+04  0.25500000920E-02 0. -1.
       -2   -1    0    0    0  501  0.00000000000E+00  0.00000000000E+00 -0.83351549492E+03  0.83351549492E+03  0.25500000920E-02 0.  1.
    10030    2    1    2    0    0  0.00000000000E+00  0.00000000000E+00  0.44290551437E+03  0.21099365042E+04  0.20629267455E+04 0.  0.
        3    1    3    3  502    0 -0.26020058838E+02 -0.23989778161E+03  0.12471456885E+04  0.12702757054E+04  0.10100000352E+00 0. -1.
       -3    1    3    3    0  502  0.26020058838E+02  0.23989778161E+03 -0.80424017418E+03  0.83966079880E+03  0.10100000352E+00 0.  1.
</event>
<event>
 5   0  0.2430898E-04  0.2036453E+04  0.7818609E-02  0.8589765E-01
        2   -1    0    0  501    0  0.00000000000E+00  0.00000000000E+00  0.31230495251E+04  0.31230495251E+04  0.25500000920E-02 0.  1.
       -2   -1    0    0    0  501  0.00000000000E+00  0.00000000000E+00 -0.33197852300E+03  0.33197852301E+03  0.25500000920E-02 0. -1.
    10030    2    1    2    0    0  0.00000000000E+00  0.00000000000E+00  0.27910710021E+04  0.34550280481E+04  0.20364531604E+04 0.  0.
        1    1    3    3  502    0 -0.65170015076E+03  0.51166485736E+03  0.23996412729E+04  0.25386595383E+04  0.50400001928E-02 0.  1.
       -1    1    3    3    0  502  0.65170015076E+03 -0.51166485736E+03  0.39142972913E+03  0.91636850974E+03  0.50400001928E-02 0. -1.
</event>
<event>
 5   0  0.1156733E-04  0.2009724E+04  0.7818609E-02  0.8602088E-01
       -1   -1    0    0    0  501  0.00000000000E+00  0.00000000000E+00  0.11691277576E+04  0.11691277576E+04  0.50400001928E-02 0. -1.
        1   -1    0    0  501    0  0.00000000000E+00  0.00000000000E+00 -0.86367627877E+03  0.86367627879E+03  0.50400001928E-02 0.  1.
    10030    2    1    2    0    0  0.00000000000E+00  0.00000000000E+00  0.30545147879E+03  0.20328040364E+04  0.20097242707E+04 0.  0.
        2    1    3    3  502    0  0.56605815385E+03  0.77180636535E+03 -0.15679666201E+03  0.96989282520E+03  0.25500000920E-02 0.  1.
       -2    1    3    3    0  502 -0.56605815385E+03 -0.77180636535E+03  0.46224814080E+03  0.10629112112E+04  0.25500000920E-02 0. -1.
</event>
<event>
 5   0  0.2579241E-04  0.2058598E+04  0.7818609E-02  0.8579704E-01
        2   -1    0    0  501    0  0.00000000000E+00  0.00000000000E+00  0.15458497830E+04  0.15458497830E+04  0.25500000920E-02 0.  1.
       -2   -1    0    0    0  501  0.00000000000E+00  0.00000000000E+00 -0.68535505352E+03  0.68535505353E+03  0.25500000920E-02 0. -1.
    10030    2    1    2    0    0  0.00000000000E+00  0.00000000000E+00  0.86049472943E+03  0.22312048365E+04  0.20585975427E+04 0.  0.
        5    1    3    3  502    0 -0.25191848395E+03 -0.97671075325E+03  0.20810617251E+03  0.10299306225E+04  0.46999998093E+01 0.  1.
       -5    1    3    3    0  502  0.25191848395E+03  0.97671075325E+03  0.65238855692E+03  0.12012742140E+04  0.46999998093E+01 0. -1.
</event>
<event>
 5   0  0.1122711E-04  0.1991939E+04  0.7818609E-02  0.8610399E-01
       -1   -1    0    0    0  501  0.00000000000E+00  0.00000000000E+00  0.10422302803E+04  0.10422302803E+04  0.50400001928E-02 0. -1.
        1   -1    0    0  501    0  0.00000000000E+00  0.00000000000E+00 -0.95176241666E+03  0.95176241667E+03  0.50400001928E-02 0.  1.
    10030    2    1    2    0    0  0.00000000000E+00  0.00000000000E+00  0.90467863614E+02  0.19939926970E+04  0.19919393668E+04 0.  0.
        1    1    3    3  502    0 -0.38671233223E+03  0.43494224558E+03  0.85429626141E+03  0.10337036747E+04  0.50400001928E-02 0. -1.
       -1    1    3    3    0  502  0.38671233223E+03 -0.43494224558E+03 -0.76382839780E+03  0.96028902222E+03  0.50400001928E-02 0.  1.
</event>
<event>
 5   0  0.2430898E-04  0.2078831E+04  0.7818609E-02  0.8570626E-01
        2   -1    0    0  501    0  0.00000000000E+00  0.00000000000E+00  0.18735996551E+04  0.18735996551E+04  0.25500000920E-02 0.  1.
       -2   -1    0    0    0  501  0.00000000000E+00  0.00000000000E+00 -0.57663555106E+03  0.57663555106E+03  0.25500000920E-02 0. -1.
    10030    2    1    2    0    0  0.00000000000E+00  0.00000000000E+00  0.12969641040E+04  0.24502352062E+04  0.20788306036E+04 0.  0.
        1    1    3    3  502    0  0.84473585086E+03  0.16348820803E+02  0.13620713235E+04  0.16028363085E+04  0.50400001928E-02 0.  1.
       -1    1    3    3    0  502 -0.84473585086E+03 -0.16348820803E+02 -0.65107219432E+02  0.84739889764E+03  0.50400001928E-02 0. -1.
</event>
<event>
 5   0  0.2448804E-04  0.2146428E+04  0.7818609E-02  0.8541063E-01
        2   -1    0    0  501    0  0.00000000000E+00  0.00000000000E+00  0.10178849495E+04  0.10178849495E+04  0.25500000920E-02 0.  1.
       -2   -1    0    0    0  501  0.00000000000E+00  0.00000000000E+00 -0.11315503436E+04  0.11315503436E+04  0.25500000920E-02 0. -1.
    10030    2    1    2    0    0  0.00000000000E+00  0.00000000000E+00 -0.11366539410E+03  0.21494352930E+04  0.21464277898E+04 0.  0.
        2    1    3    3  502    0  0.47287004593E+03  0.63516060414E+03  0.66858067058E+03  0.10363566888E+04  0.25500000920E-02 0.  1.
       -2    1    3    3    0  502 -0.47287004593E+03 -0.63516060414E+03 -0.78224606468E+03  0.11130786042E+04  0.25500000920E-02 0. -1.
</event>
<event>
 5   0  0.1130848E-04  0.2125386E+04  0.7818609E-02  0.8550142E-01
        1   -1    0    0  501    0  0.00000000000E+00  0.00000000000E+00  0.10845049497E+04  0.10845049497E+04  0.50400001928E-02 0.  1.
       -1   -1    0    0    0  501  0.00000000000E+00  0.00000000000E+00 -0.10413200671E+04  0.10413200672E+04  0.50400001928E-02 0. -1.
    10030    2    1    2    0    0  0.00000000000E+00  0.00000000000E+00  0.43184882507E+02  0.21258250168E+04  0.21253863338E+04 0.  0.
        5    1    3    3  502    0 -0.21529682910E+03 -0.50883867645E+01  0.10624397585E+04  0.10840567083E+04  0.46999998093E+01 0.  1.
       -5    1    3    3    0  502  0.21529682910E+03  0.50883867645E+01 -0.10192548760E+04  0.10417683085E+04  0.46999998093E+01 0. -1.
</event>
<event>
 5   0  0.1042395E-04  0.2121424E+04  0.7818609E-02  0.8551864E-01
       -1   -1    0    0    0  501  0.00000000000E+00  0.00000000000E+00  0.10656550029E+04  0.10656550029E+04  0.50400001928E-02 0. -1.
        1   -1    0    0  501    0  0.00000000000E+00  0.00000000000E+00 -0.10557919407E+04  0.10557919407E+04  0.50400001928E-02 0.  1.
    10030    2    1    2    0    0  0.00000000000E+00  0.00000000000E+00  0.98630621628E+01  0.21214469436E+04  0.21214240157E+04 0.  0.
        3    1    3    3  502    0  0.60060755706E+03 -0.42231122748E+03 -0.76060515026E+03  0.10571643275E+04  0.10100000352E+00 0.  1.
       -3    1    3    3    0  502 -0.60060755706E+03  0.42231122748E+03  0.77046821242E+03  0.10642826161E+04  0.10100000352E+00 0. -1.
</event>
<event>
 5   0  0.2512839E-04  0.2222011E+04  0.7818609E-02  0.8509322E-01
       -2   -1    0    0    0  501  0.00000000000E+00  0.00000000000E+00  0.70768145588E+03  0.70768145589E+03  0.25500000920E-02 0.  1.
        2   -1    0    0  501    0  0.00000000000E+00  0.00000000000E+00 -0.17441927481E+04  0.17441927481E+04  0.25500000920E-02 0. -1.
    10030    2    1    2    0    0  0.00000000000E+00  0.00000000000E+00 -0.10365112922E+04  0.24518742040E+04  0.22220106781E+04 0.  0.
        3    1    3    3  502    0  0.61844766680E+03  0.14549299740E+03  0.48744975451E+03  0.80078274347E+03  0.10100000352E+00 0.  1.
       -3    1    3    3    0  502 -0.61844766680E+03 -0.14549299740E+03 -0.15239610468E+04  0.16510914605E+04  0.10100000352E+00 0. -1.
</event>
<event>
 5   0  0.2579241E-04  0.1939270E+04  0.7818609E-02  0.8635553E-01
        2   -1    0    0  501    0  0.00000000000E+00  0.00000000000E+00  0.15948761011E+04  0.15948761011E+04  0.25500000920E-02 0.  1.
       -2   -1    0    0    0  501  0.00000000000E+00  0.00000000000E+00 -0.58950768095E+03  0.58950768095E+03  0.25500000920E-02 0. -1.
    10030    2    1    2    0    0  0.00000000000E+00  0.00000000000E+00  0.10053684202E+04  0.21843837821E+04  0.19392696685E+04 0.  0.
        5    1    3    3  502    0  0.21260511932E+03  0.83280740771E+03 -0.28156247281E+01  0.85953425345E+03  0.46999998093E+01 0. -1.
       -5    1    3    3    0  502 -0.21260511932E+03 -0.83280740771E+03  0.10081840449E+04  0.13248495286E+04  0.46999998093E+01 0.  1.
</event>
<event>
 5   0  0.1130848E-04  0.2132463E+04  0.7818609E-02  0.8547077E-01
        1   -1    0    0  501    0  0.00000000000E+00  0.00000000000E+00  0.14098291559E+04  0.14098291559E+04  0.50400001928E-02 0.  1.
       -1   -1    0    0    0  501  0.00000000000E+00  0.00000000000E+00 -0.80637387757E+03  0.80637387758E+03  0.50400001928E-02 0. -1.
    10030    2    1    2    0    0  0.00000000000E+00  0.00000000000E+00  0.60345527830E+03  0.22162030335E+04  0.21324628045E+04 0.  0.
        5    1    3    3  502    0  0.68933596665E+03 -0.71932459398E+03  0.69639739736E+03  0.12155670987E+04  0.46999998093E+01 0.  1.
       -5    1    3    3    0  502 -0.68933596665E+03  0.71932459398E+03 -0.92942119053E+02  0.10006359348E+04  0.46999998093E+01 0. -1.
</event>
<event>
 5   0  0.2430898E-04  0.2090076E+04  0.7818609E-02  0.8565628E-01
        2   -1    0    0  501    0  0.00000000000E+00  0.00000000000E+00  0.12433454573E+04  0.12433454573E+04  0.25500000920E-02 0. -1.
       -2   -1    0    0    0  501  0.00000000000E+00  0.00000000000E+00 -0.87835965606E+03  0.87835965606E+03  0.25500000920E-02 0.  1.
    10030    2    1    2    0    0  0.00000000000E+00  0.00000000000E+00  0.36498580124E+03  0.21217051134E+04  0.20900760639E+04 0.  0.
        1    1    3    3  502    0  0.14828933919E+03  0.94360132432E+03 -0.24786996457E+03  0.98681949045E+03  0.50400001928E-02 0.  1.
       -1    1    3    3    0  502 -0.14828933919E+03 -0.94360132432E+03  0.61285576580E+03  0.11348856229E+04  0.50400001928E-02 0. -1.
</event>
<event>
 5   0  0.1122711E-04  0.1740776E+04  0.7818609E-02  0.8738444E-01
       -1   -1    0    0    0  501  0.00000000000E+00  0.00000000000E+00  0.33591779637E+03  0.33591779641E+03  0.50400001928E-02 0. -1.
        1   -1    0    0  501    0  0.00000000000E+00  0.00000000000E+00 -0.22552413186E+04  0.22552413186E+04  0.50400001928E-02 0.  1.
    10030    2    1    2    0    0  0.00000000000E+00  0.00000000000E+00 -0.19193235223E+04  0.25911591150E+04  0.17407764866E+04 0.  0.
        1    1    3    3  502    0 -0.84353819780E+03  0.62821896161E+02 -0.12649779112E+04  0.15217333530E+04  0.50400001928E-02 0.  1.
       -1    1    3    3    0  502  0.84353819780E+03 -0.62821896161E+02 -0.65434561103E+03  0.10694257620E+04  0.50400001928E-02 0. -1.
</event>
<event>
 5   0  0.2512839E-04  0.2090358E+04  0.7818609E-02  0.8565503E-01
       -2   -1    0    0    0  501  0.00000000000E+00  0.00000000000E+00  0.75900942200E+03  0.75900942201E+03  0.25500000920E-02 0.  1.
        2   -1    0    0  501    0  0.00000000000E+00  0.00000000000E+00 -0.14392430818E+04  0.14392430818E+04  0.25500000920E-02 0. -1.
    10030    2    1    2    0    0  0.00000000000E+00  0.00000000000E+00 -0.68023365982E+03  0.21982525038E+04  0.20903579212E+04 0.  0.
        3    1    3    3  502    0  0.10432399411E+04 -0.50246317198E+02 -0.29905286646E+03  0.10864192994E+04  0.10100000352E+00 0. -1.
       -3    1    3    3    0  502 -0.10432399411E+04  0.50246317198E+02 -0.38118079336E+03  0.11118332044E+04  0.10100000352E+00 0.  1.
</event>
<event>
 5   0  0.2467483E-04  0.2145237E+04  0.7818609E-02  0.8541574E-01
       -2   -1    0    0    0  501  0.00000000000E+00  0.00000000000E+00  0.59333329054E+03  0.59333329055E+03  0.25500000920E-02 0. -1.
        2   -1    0    0  501    0  0.00000000000E+00  0.00000000000E+00 -0.19390635830E+04  0.19390635830E+04  0.25500000920E-02 0.  1.
    10030    2    1    2    0    0  0.00000000000E+00  0.00000000000E+00 -0.13457302925E+04  0.25323968736E+04  0.21452374939E+04 0.  0.
        4    1    3    3  502    0  0.74895828764E+03  0.29380779340E+02  0.23288042082E+03  0.78488002276E+03  0.12699999809E+01 0. -1.
       -4    1    3    3    0  502 -0.74895828764E+03 -0.29380779340E+02 -0.15786107133E+04  0.17475168508E+04  0.12699999809E+01 0.  1.
</event>
<event>
 5   0  0.2448804E-04  0.1288954E+04  0.7818609E-02  0.9038371E-01
       -2   -1    0    0    0  501  0.00000000000E+00  0.00000000000E+00  0.26121985782E+03  0.26121985783E+03  0.25500000920E-02 0. -1.
        2   -1    0    0  501    0  0.00000000000E+00  0.00000000000E+00 -0.15900411781E+04  0.15900411781E+04  0.25500000920E-02 0.  1.
    10030    2    1    2    0    0  0.00000000000E+00  0.00000000000E+00 -0.13288213203E+04  0.18512610360E+04  0.12889535763E+04 0.  0.
        2    1    3    3  502    0 -0.49233138274E+03 -0.60530087779E+00 -0.12617249969E+04  0.13543782797E+04  0.25500000920E-02 0.  1.
       -2    1    3    3    0  502  0.49233138274E+03  0.60530087779E+00 -0.67096323416E+02  0.49688275623E+03  0.25500000920E-02 0. -1.
</event>
<event>
 5   0  0.2448804E-04  0.2042186E+04  0.7818609E-02  0.8587147E-01
       -2   -1    0    0    0  501  0.00000000000E+00  0.00000000000E+00  0.55361278737E+03  0.55361278738E+03  0.25500000920E-02 0.  1.
        2   -1    0    0  501    0  0.00000000000E+00  0.00000000000E+00 -0.18833215883E+04  0.18833215883E+04  0.25500000920E-02 0. -1.
    10030    2    1    2    0    0  0.00000000000E+00  0.00000000000E+00 -0.13297088009E+04  0.24369343757E+04  0.20421859994E+04 0.  0.
        2    1    3    3  502    0 -0.12996768549E+03 -0.72756929883E+03  0.17587580849E+03  0.75972428150E+03  0.25500000920E-02 0.  1.
       -2    1    3    3    0  502  0.12996768549E+03  0.72756929883E+03 -0.15055846094E+04  0.16772100942E+04  0.25500000920E-02 0. -1.
</event>
<event>
 5   0  0.2430898E-04  0.2122584E+04  0.7818609E-02  0.8551360E-01
        2   -1    0    0  501    0  0.00000000000E+00  0.00000000000E+00  0.11948476955E+04  0.11948476955E+04  0.25500000920E-02 0.  1.
       -2   -1    0    0    0  501  0.00000000000E+00  0.00000000000E+00 -0.94266476714E+03  0.94266476715E+03  0.25500000920E-02 0. -1.
    10030    2    1    2    0    0  0.00000000000E+00  0.00000000000E+00  0.25218292834E+03  0.21375124626E+04  0.21225841087E+04 0.  0.
        1    1    3    3  502    0 -0.88366941022E+03 -0.14987411733E+02 -0.46561617870E+03  0.99894678285E+03  0.50400001928E-02 0. -1.
       -1    1    3    3    0  502  0.88366941022E+03  0.14987411733E+02  0.71779910704E+03  0.11385656798E+04  0.50400001928E-02 0.  1.
</event>
<event>
 5   0  0.1130848E-04  0.2264827E+04  0.7818609E-02  0.8491920E-01
       -1   -1    0    0    0  501  0.00000000000E+00  0.00000000000E+00  0.56893850702E+03  0.56893850704E+03  0.50400001928E-02 0. -1.
        1   -1    0    0  501    0  0.00000000000E+00  0.00000000000E+00 -0.22539519421E+04  0.22539519421E+04  0.50400001928E-02 0.  1.
    10030    2    1    2    0    0  0.00000000000E+00  0.00000000000E+00 -0.16850134351E+04  0.28228904492E+04  0.22648267509E+04 0.  0.
        5    1    3    3  502    0 -0.57771384449E+03  0.61375702382E+03  0.10006444290E+03  0.84881443975E+03  0.46999998093E+01 0. -1.
       -5    1    3    3    0  502  0.57771384449E+03 -0.61375702382E+03 -0.17850778780E+04  0.19740760094E+04  0.46999998093E+01 0.  1.
</event>
<event>
 5   0  0.1122711E-04  0.2115479E+04  0.7818609E-02  0.8554455E-01
        1   -1    0    0  501    0  0.00000000000E+00  0.00000000000E+00  0.23986066146E+04  0.23986066146E+04  0.50400001928E-02 0.  1.
       -1   -1    0    0    0  501  0.00000000000E+00  0.00000000000E+00 -0.46644297097E+03  0.46644297100E+03  0.50400001928E-02 0. -1.
    10030    2    1    2    0    0  0.00000000000E+00  0.00000000000E+00  0.19321636437E+04  0.28650495856E+04  0.21154793268E+04 0.  0.
        1    1    3    3  502    0  0.49198403600E+03  0.11059058438E+03  0.22253393426E+04  0.22817567265E+04  0.50400001928E-02 0.  1.
       -1    1    3    3    0  502 -0.49198403600E+03 -0.11059058438E+03 -0.29317569896E+03  0.58329285914E+03  0.50400001928E-02 0. -1.
</event>
<event>
 5   0  0.2430898E-04  0.2145230E+04  0.7818609E-02  0.8541577E-01
       -2   -1    0    0    0  501  0.00000000000E+00  0.00000000000E+00  0.83495869715E+03  0.83495869715E+03  0.25500000920E-02 0.  1.
        2   -1    0    0  501    0  0.00000000000E+00  0.00000000000E+00 -0.13779163528E+04  0.13779163528E+04  0.25500000920E-02 0. -1.
    10030    2    1    2    0    0  0.00000000000E+00  0.00000000000E+00 -0.54295765562E+03  0.22128750499E+04  0.21452302839E+04 0.  0.
        1    1    3    3  502    0  0.23357453575E+03  0.98769911430E+03 -0.62940227853E+03  0.11942586958E+04  0.50400001928E-02 0. -1.
       -1    1    3    3    0  502 -0.23357453575E+03 -0.98769911430E+03  0.86444622905E+02  0.10186163542E+04  0.50400001928E-02 0.  1.
</event>
<event>
 5   0  0.1156733E-04  0.2033188E+04  0.7818609E-02  0.8591259E-01
       -1   -1    0    0    0  501  0.00000000000E+00  0.00000000000E+00  0.83891278802E+03  0.83891278804E+03  0.50400001928E-02 0.  1.
        1   -1    0    0  501    0  0.00000000000E+00  0.00000000000E+00 -0.12319081171E+04  0.12319081171E+04  0.50400001928E-02 0. -1.
    10030    2    1    2    0    0  0.00000000000E+00  0.00000000000E+00 -0.39299532907E+03  0.20708209051E+04  0.20331881105E+04 0.  0.
        2    1    3    3  502    0  0.46066774018E+03  0.74527326519E+03 -0.72161447255E+03  0.11350658367E+04  0.25500000920E-02 0. -1.
       -2    1    3    3    0  502 -0.46066774018E+03 -0.74527326519E+03  0.32861914348E+03  0.93575506844E+03  0.25500000920E-02 0.  1.
</event>
<event>
 5   0  0.1042395E-04  0.1994482E+04  0.7818609E-02  0.8609205E-01
        1   -1    0    0  501    0  0.00000000000E+00  0.00000000000E+00  0.10931857078E+04  0.10931857078E+04  0.50400001928E-02 0. -1.
       -1   -1    0    0    0  501  0.00000000000E+00  0.00000000000E+00 -0.90971658554E+03  0.90971658555E+03  0.50400001928E-02 0.  1.
    10030    2    1    2    0    0  0.00000000000E+00  0.00000000000E+00  0.18346912223E+03  0.20029022933E+04  0.19944815561E+04 0.  0.
        3    1    3    3  502    0 -0.15717853744E+03 -0.88001797962E+03  0.53558754052E+03  0.10421088047E+04  0.10100000352E+00 0. -1.
       -3    1    3    3    0  502  0.15717853744E+03  0.88001797962E+03 -0.35211841829E+03  0.96079348862E+03  0.10100000352E+00 0.  1.
</event>
<event>
 5   0  0.1186038E-04  0.1988297E+04  0.7818609E-02  0.8612112E-01
        1   -1    0    0  501    0  0.00000000000E+00  0.00000000000E+00  0.17153041535E+04  0.17153041535E+04  0.50400001928E-02 0.  1.
       -1   -1    0    0    0  501  0.00000000000E+00  0.00000000000E+00 -0.57618440223E+03  0.57618440225E+03  0.50400001928E-02 0. -1.
    10030    2    1    2    0    0  0.00000000000E+00  0.00000000000E+00  0.11391197513E+04  0.22914885558E+04  0.19882972598E+04 0.  0.
        4    1    3    3  502    0 -0.70995152678E+03  0.31221245159E+02 -0.23166705121E+03  0.74744710318E+03  0.12699999809E+01 0. -1.
       -4    1    3    3    0  502  0.70995152678E+03 -0.31221245159E+02  0.13707868025E+04  0.15440414526E+04  0.12699999809E+01 0.  1.
</event>
<event>
 5   0  0.2430898E-04  0.2084474E+04  0.7818609E-02  0.8568114E-01
        2   -1    0    0  501    0  0.00000000000E+00  0.00000000000E+00  0.12407567947E+04  0.12407567947E+04  0.25500000920E-02 0. -1.
       -2   -1    0    0    0  501  0.00000000000E+00  0.00000000000E+00 -0.87547989419E+03  0.87547989420E+03  0.25500000920E-02 0.  1.
    10030    2    1    2    0    0  0.00000000000E+00  0.00000000000E+00  0.36527690052E+03  0.21162366889E+04  0.20844736768E+04 0.  0.
        1    1    3    3  502    0 -0.60978285672E+03 -0.76008575472E+03  0.55799119536E+03  0.11229067909E+04  0.50400001928E-02 0. -1.
       -1    1    3    3    0  502  0.60978285672E+03  0.76008575472E+03 -0.19271429484E+03  0.99332989804E+03  0.50400001928E-02 0.  1.
</event>
<event>
 5   0  0.1156733E-04  0.1946677E+04  0.7818609E-02  0.8631965E-01
       -1   -1    0    0    0  501  0.00000000000E+00  0.00000000000E+00  0.54735580760E+03  0.54735580762E+03  0.50400001928E-02 0. -1.
        1   -1    0    0  501    0  0.00000000000E+00  0.00000000000E+00 -0.17308446835E+04  0.17308446835E+04  0.50400001928E-02 0.  1.
    10030    2    1    2    0    0  0.00000000000E+00  0.00000000000E+00 -0.11834888759E+04  0.22782004912E+04  0.19466770555E+04 0.  0.
        2    1    3    3  502    0 -0.45178044164E+03  0.54965652873E+03  0.18556887555E+03  0.73529835754E+03  0.25500000920E-02 0. -1.
       -2    1    3    3    0  502  0.45178044164E+03 -0.54965652873E+03 -0.13690577515E+04  0.15429021336E+04  0.25500000920E-02 0.  1.
</event>
<event>
 5   0  0.1130848E-04  0.2090838E+04  0.7818609E-02  0.8565290E-01
       -1   -1    0    0    0  501  0.00000000000E+00  0.00000000000E+00  0.89896779533E+03  0.89896779534E+03  0.50400001928E-02 0. -1.
        1   -1    0    0  501    0  0.00000000000E+00  0.00000000000E+00 -0.12157285428E+04  0.12157285428E+04  0.50400001928E-02 0.  1.
    10030    2    1    2    0    0  0.00000000000E+00  0.00000000000E+00 -0.31676074747E+03  0.21146963381E+04  0.20908379257E+04 0.  0.
        5    1    3    3  502    0  0.80559798479E+03 -0.36291177333E+03  0.40673108289E+03  0.97270002164E+03  0.46999998093E+01 0. -1.
       -5    1    3    3    0  502 -0.80559798479E+03  0.36291177333E+03 -0.72349183035E+03  0.11419963165E+04  0.46999998093E+01 0.  1.
</event>
<event>
 5   0  0.1130848E-04  0.2108185E+04  0.7818609E-02  0.8557646E-01
        1   -1    0    0  501    0  0.00000000000E+00  0.00000000000E+00  0.12456142290E+04  0.12456142290E+04  0.50400001928E-02 0. -1.
       -1   -1    0    0    0  501  0.00000000000E+00  0.00000000000E+00 -0.89201895059E+03  0.89201895060E+03  0.50400001928E-02 0.  1.
    10030    2    1    2    0    0  0.00000000000E+00  0.00000000000E+00  0.35359527845E+03  0.21376331797E+04  0.21081854733E+04 0.  0.
        5    1    3    3  502    0  0.61835425811E+03  0.62129296150E+03 -0.41680477427E+03  0.97062621147E+03  0.46999998093E+01 0.  1.
       -5    1    3    3    0  502 -0.61835425811E+03 -0.62129296150E+03  0.77040005273E+03  0.11670069682E+04  0.46999998093E+01 0. -1.
</event>
<event>
 5   0  0.2430898E-04  0.2033895E+04  0.7818609E-02  0.8590936E-01
       -2   -1    0    0    0  501  0.00000000000E+00  0.00000000000E+00  0.67037024373E+03  0.67037024373E+03  0.25500000920E-02 0.  1.
        2   -1    0    0  501    0  0.00000000000E+00  0.00000000000E+00 -0.15427025620E+04  0.15427025620E+04  0.25500000920E-02 0. -1.
    10030    2    1    2    0    0  0.00000000000E+00  0.00000000000E+00 -0.87233231830E+03  0.22130728058E+04  0.20338946802E+04 0.  0.
        1    1    3    3  502    0  0.47570685743E+03 -0.56887806994E+03 -0.11933611196E+04  0.14050017916E+04  0.50400001928E-02 0. -1.
       -1    1    3    3    0  502 -0.47570685743E+03  0.56887806994E+03  0.32102880127E+03  0.80807101417E+03  0.50400001928E-02 0.  1.
</event>
<event>
 5   0  0.1130848E-04  0.2123203E+04  0.7818609E-02  0.8551091E-01
        1   -1    0    0  501    0  0.00000000000E+00  0.00000000000E+00  0.96011680593E+03  0.96011680594E+03  0.50400001928E-02 0. -1.
       -1   -1    0    0    0  501  0.00000000000E+00  0.00000000000E+00 -0.11738126604E+04  0.11738126604E+04  0.50400001928E-02 0.  1.
    10030    2    1    2    0    0  0.00000000000E+00  0.00000000000E+00 -0.21369585451E+03  0.21339294664E+04  0.21232025455E+04 0.  0.
        5    1    3    3  502    0 -0.62260505171E+03  0.31082978345E+03 -0.91259835372E+03  0.11476541508E+04  0.46999998093E+01 0.  1.
       -5    1    3    3    0  502  0.62260505171E+03 -0.31082978345E+03  0.69890249921E+03  0.98627531557E+03  0.46999998093E+01 0. -1.
</event>
<event>
 5   0  0.2448804E-04  0.1716861E+04  0.7818609E-02  0.8751806E-01
        2   -1    0    0  501    0  0.00000000000E+00  0.00000000000E+00  0.15217255907E+04  0.15217255907E+04  0.25500000920E-02 0. -1.
       -2   -1    0    0    0  501  0.00000000000E+00  0.00000000000E+00 -0.48425479251E+03  0.48425479252E+03  0.25500000920E-02 0.  1.
    10030    2    1    2    0    0  0.00000000000E+00  0.00000000000E+00  0.10374707982E+04  0.20059803832E+04  0.17168609847E+04 0.  0.
        2    1    3    3  502    0  0.65089444376E+03 -0.38788549909E+03  0.47326649767E+02  0.75918281666E+03  0.25500000920E-02 0.  1.
       -2    1    3    3    0  502 -0.65089444376E+03  0.38788549909E+03  0.99014414843E+03  0.12467975666E+04  0.25500000920E-02 0. -1.
</event>
<event>
 5   0  0.1156733E-04  0.2412621E+04  0.7818609E-02  0.8434793E-01
       -1   -1    0    0    0  501  0.00000000000E+00  0.00000000000E+00  0.12301667846E+04  0.12301667846E+04  0.50400001928E-02 0. -1.
        1   -1    0    0  501    0  0.00000000000E+00  0.00000000000E+00 -0.11829172075E+04  0.11829172075E+04  0.50400001928E-02 0.  1.
    10030    2    1    2    0    0  0.00000000000E+00  0.00000000000E+00  0.47249577073E+02  0.24130839921E+04  0.24126213608E+04 0.  0.
        2    1    3    3  502    0  0.11462528242E+04  0.12625508907E+03  0.37774009516E+03  0.12134757781E+04  0.25500000920E-02 0. -1.
       -2    1    3    3    0  502 -0.11462528242E+04 -0.12625508907E+03 -0.33049051809E+03  0.11996082140E+04  0.25500000920E-02 0.  1.
</event>
<event>
 5   0  0.2579241E-04  0.2038216E+04  0.7818609E-02  0.8588959E-01
       -2   -1    0    0    0  501  0.00000000000E+00  0.00000000000E+00  0.51139681506E+03  0.51139681506E+03  0.25500000920E-02 0.  1.
        2   -1    0    0  501    0  0.00000000000E+00  0.00000000000E+00 -0.20308711344E+04  0.20308711344E+04  0.25500000920E-02 0. -1.
    10030    2    1    2    0    0  0.00000000000E+00  0.00000000000E+00 -0.15194743193E+04  0.25422679495E+04  0.20382159159E+04 0.  0.
        5    1    3    3  502    0 -0.28299021628E+03  0.85737657990E+03 -0.13492511690E+04  0.16234774003E+04  0.46999998093E+01 0. -1.
       -5    1    3    3    0  502  0.28299021628E+03 -0.85737657990E+03 -0.17022315031E+03  0.91879054913E+03  0.46999998093E+01 0.  1.
</event>
<event>
 5   0  0.2467483E-04  0.2215872E+04  0.7818609E-02  0.8511851E-01
        2   -1    0    0  501    0  0.00000000000E+00  0.00000000000E+00  0.23349210097E+04  0.23349210097E+04  0.25500000920E-02 0.  1.
       -2   -1    0    0    0  501  0.00000000000E+00  0.00000000000E+00 -0.52572337904E+03  0.52572337904E+03  0.25500000920E-02 0. -1.
    10030    2    1    2    0    0  0.00000000000E+00  0.00000000000E+00  0.18091976306E+04  0.28606443887E+04  0.22158723456E+04 0.  0.
        4    1    3    3  502    0 -0.10867323856E+04 -0.75432423080E+02  0.64369450243E+03  0.12653148042E+04  0.12699999809E+01 0. -1.
       -4    1    3    3    0  502  0.10867323856E+04  0.75432423080E+02  0.11655031282E+04  0.15953295845E+04  0.12699999809E+01 0.  1.
</event>
<event>
 5   0  0.2467483E-04  0.2177634E+04  0.7818609E-02  0.8527795E-01
       -2   -1    0    0    0  501  0.00000000000E+00  0.00000000000E+00  0.11726784624E+04  0.11726784624E+04  0.25500000920E-02 0. -1.
        2   -1    0    0  501    0  0.00000000000E+00  0.00000000000E+00 -0.10109525870E+04  0.10109525871E+04  0.25500000920E-02 0.  1.
    10030    2    1    2    0    0  0.00000000000E+00  0.00000000000E+00  0.16172587531E+03  0.21836310494E+04  0.21776338768E+04 0.  0.
        4    1    3    3  502    0 -0.98320504993E+03 -0.41812355702E+03  0.29120533598E+03  0.11073940761E+04  0.12699999809E+01 0.  1.
       -4    1    3    3    0  502  0.98320504993E+03  0.41812355702E+03 -0.12947946067E+03  0.10762369733E+04  0.12699999809E+01 0. -1.
</event>
<event>
 5   0  0.1130848E-04  0.2416291E+04  0.7818609E-02  0.8433430E-01
        1   -1    0    0  501    0  0.00000000000E+00  0.00000000000E+00  0.10484790322E+04  0.10484790322E+04  0.50400001928E-02 0. -1.
       -1   -1    0    0    0  501  0.00000000000E+00  0.00000000000E+00 -0.13921264374E+04  0.13921264374E+04  0.50400001928E-02 0.  1.
    10030    2    1    2    0    0  0.00000000000E+00  0.00000000000E+00 -0.34364740518E+03  0.24406054696E+04  0.24162908598E+04 0.  0.
        5    1    3    3  502    0  0.25522864167E+03 -0.62736746210E+03 -0.11823215760E+04  0.13625850399E+04  0.46999998093E+01 0.  1.
       -5    1    3    3    0  502 -0.25522864167E+03  0.62736746210E+03  0.83867417078E+03  0.10780204297E+04  0.46999998093E+01 0. -1.
</event>
<event>
 5   0  0.8698750E-05  0.2118702E+04  0.7818609E-02  0.8553050E-01
       -3   -1    0    0    0  501  0.00000000000E+00  0.00000000000E+00  0.71910974887E+03  0.71910975596E+03  0.10100000352E+00 0.  1.
        3   -1    0    0  501    0  0.00000000000E+00  0.00000000000E+00 -0.15605741615E+04  0.15605741647E+04  0.10100000352E+00 0. -1.
    10030    2    1    2    0    0  0.00000000000E+00  0.00000000000E+00 -0.84146441260E+03  0.22796839207E+04  0.21187015884E+04 0.  0.
        2    1    3    3  502    0  0.69171850372E+03  0.46223643148E+03 -0.11263719787E+04  0.14003038389E+04  0.25500000920E-02 0. -1.
       -2    1    3    3    0  502 -0.69171850372E+03 -0.46223643148E+03  0.28490756608E+03  0.87938008176E+03  0.25500000920E-02 0.  1.
</event>
<event>
 5   0  0.1130848E-04  0.2153143E+04  0.7818609E-02  0.8538188E-01
       -1   -1    0    0    0  501  0.00000000000E+00  0.00000000000E+00  0.57959284002E+03  0.57959284004E+03  0.50400001928E-02 0.  1.
        1   -1    0    0  501    0  0.00000000000E+00  0.00000000000E+00 -0.19996901740E+04  0.19996901740E+04  0.50400001928E-02 0. -1.
    10030    2    1    2    0    0  0.00000000000E+00  0.00000000000E+00 -0.14200973340E+04  0.25792830141E+04  0.21531429188E+04 0.  0.
        5    1    3    3  502    0 -0.81704695847E+03 -0.33877948123E+02 -0.15488209137E+04  0.17514513297E+04  0.46999998093E+01 0. -1.
       -5    1    3    3    0  502  0.81704695847E+03  0.33877948123E+02  0.12872357965E+03  0.82783168438E+03  0.46999998093E+01 0.  1.
</event>
<event>
 5   0  0.2467483E-04  0.2094935E+04  0.7818609E-02  0.8563478E-01
       -2   -1    0    0    0  501  0.00000000000E+00  0.00000000000E+00  0.55316868643E+03  0.55316868644E+03  0.25500000920E-02 0.  1.
        2   -1    0    0  501    0  0.00000000000E+00  0.00000000000E+00 -0.19834594271E+04  0.19834594271E+04  0.25500000920E-02 0. -1.
    10030    2    1    2    0    0  0.00000000000E+00  0.00000000000E+00 -0.14302907407E+04  0.25366281136E+04  0.20949345058E+04 0.  0.
        4    1    3    3  502    0  0.63891415276E+03 -0.33026951057E+03  0.20691998206E+03  0.74840279001E+03  0.12699999809E+01 0.  1.
       -4    1    3    3    0  502 -0.63891415276E+03  0.33026951057E+03 -0.16372107228E+04  0.17882253236E+04  0.12699999809E+01 0. -1.
</event>
<event>
 5   0  0.2579241E-04  0.2030323E+04  0.7818609E-02  0.8592574E-01
       -2   -1    0    0    0  501  0.00000000000E+00  0.00000000000E+00  0.55648437361E+03  0.55648437362E+03  0.25500000920E-02 0.  1.
        2   -1    0    0  501    0  0.00000000000E+00  0.00000000000E+00 -0.18518988600E+04  0.18518988600E+04  0.25500000920E-02 0. -1.
    10030    2    1    2    0    0  0.00000000000E+00  0.00000000000E+00 -0.12954144864E+04  0.24083832336E+04  0.20303229074E+04 0.  0.
        5    1    3    3  502    0 -0.94947402477E+00  0.75040436692E+03 -0.14586973438E+04  0.16404047203E+04  0.46999998093E+01 0. -1.
       -5    1    3    3    0  502  0.94947402477E+00 -0.75040436692E+03  0.16328285746E+03  0.76797851333E+03  0.46999998093E+01 0.  1.
</event>
<event>
 5   0  0.1042395E-04  0.2173228E+04  0.7818609E-02  0.8529654E-01
       -1   -1    0    0    0  501  0.00000000000E+00  0.00000000000E+00  0.81929723191E+03  0.81929723193E+03  0.50400001928E-02 0.  1.
        1   -1    0    0  501    0  0.00000000000E+00  0.00000000000E+00 -0.14411501245E+04  0.14411501246E+04  0.50400001928E-02 0. -1.
    10030    2    1    2    0    0  0.00000000000E+00  0.00000000000E+00 -0.62185289264E+03  0.22604473565E+04  0.21732282971E+04 0.  0.
        3    1    3    3  502    0 -0.64147596229E+02 -0.83248462550E+03 -0.10342378900E+04  0.13292078803E+04  0.10100000352E+00 0. -1.
       -3    1    3    3    0  502  0.64147596229E+02  0.83248462550E+03  0.41238499733E+03  0.93123947619E+03  0.10100000352E+00 0.  1.
</event>
<event>
 5   0  0.2467483E-04  0.2037615E+04  0.7818609E-02  0.8589233E-01
       -2   -1    0    0    0  501  0.00000000000E+00  0.00000000000E+00  0.62453475059E+03  0.62453475060E+03  0.25500000920E-02 0.  1.
        2   -1    0    0  501    0  0.00000000000E+00  0.00000000000E+00 -0.16619877760E+04  0.16619877760E+04  0.25500000920E-02 0. -1.
    10030    2    1    2    0    0  0.00000000000E+00  0.00000000000E+00 -0.10374530254E+04  0.22865225266E+04  0.20376153917E+04 0.  0.
        4    1    3    3  502    0  0.97269357413E+02 -0.90703883176E+03 -0.96747291438E+01  0.91229161100E+03  0.12699999809E+01 0.  1.
       -4    1    3    3    0  502 -0.97269357413E+02  0.90703883176E+03 -0.10277782962E+04  0.13742309156E+04  0.12699999809E+01 0. -1.
</event>
<event>
 5   0  0.2430898E-04  0.2194007E+04  0.7818609E-02  0.8520927E-01
       -2   -1    0    0    0  501  0.00000000000E+00  0.00000000000E+00  0.90955502123E+03  0.90955502123E+03  0.25500000920E-02 0. -1.
        2   -1    0    0  501    0  0.00000000000E+00  0.00000000000E+00 -0.13230826606E+04  0.13230826606E+04  0.25500000920E-02 0.  1.
    10030    2    1    2    0    0  0.00000000000E+00  0.00000000000E+00 -0.41352763941E+03  0.22326376819E+04  0.21940068163E+04 0.  0.
        1    1    3    3  502    0 -0.51872319375E+03  0.95881255606E+03 -0.82044794141E+02  0.10932184675E+04  0.50400001928E-02 0.  1.
       -1    1    3    3    0  502  0.51872319375E+03 -0.95881255606E+03 -0.33148284527E+03  0.11394192144E+04  0.50400001928E-02 0. -1.
</event>
<event>
 5   0  0.1042395E-04  0.2070563E+04  0.7818609E-02  0.8574323E-01
        1   -1    0    0  501    0  0.00000000000E+00  0.00000000000E+00  0.85627809020E+03  0.85627809022E+03  0.50400001928E-02 0.  1.
       -1   -1    0    0    0  501  0.00000000000E+00  0.00000000000E+00 -0.12517054620E+04  0.12517054620E+04  0.50400001928E-02 0. -1.
    10030    2    1    2    0    0  0.00000000000E+00  0.00000000000E+00 -0.39542737179E+03  0.21079835522E+04  0.20705631722E+04 0.  0.
        3    1    3    3  502    0 -0.79273892705E+03  0.34524793135E+03 -0.77736884565E+03  0.11627267404E+04  0.10100000352E+00 0.  1.
       -3    1    3    3    0  502  0.79273892705E+03 -0.34524793135E+03  0.38194147386E+03  0.94525681178E+03  0.10100000352E+00 0. -1.
</event>
<event>
 5   0  0.2512839E-04  0.2106314E+04  0.7818609E-02  0.8558467E-01
       -2   -1    0    0    0  501  0.00000000000E+00  0.00000000000E+00  0.10990729992E+04  0.10990729992E+04  0.25500000920E-02 0.  1.
        2   -1    0    0  501    0  0.00000000000E+00  0.00000000000E+00 -0.10091593647E+04  0.10091593647E+04  0.25500000920E-02 0. -1.
    10030    2    1    2    0    0  0.00000000000E+00  0.00000000000E+00  0.89913634527E+02  0.21082323639E+04  0.21063141358E+04 0.  0.
        3    1    3    3  502    0  0.37327568426E+03  0.96415770509E+03 -0.15573759144E+03  0.10455568011E+04  0.10100000352E+00 0.  1.
       -3    1    3    3    0  502 -0.37327568426E+03 -0.96415770509E+03  0.24565122597E+03  0.10626755628E+04  0.10100000352E+00 0. -1.
</event>
<event>
 5   0  0.1042395E-04  0.2117653E+04  0.7818609E-02  0.8553507E-01
        1   -1    0    0  501    0  0.00000000000E+00  0.00000000000E+00  0.21892953429E+04  0.21892953429E+04  0.50400001928E-02 0. -1.
       -1   -1    0    0    0  501  0.00000000000E+00  0.00000000000E+00 -0.51208873304E+03  0.51208873307E+03  0.50400001928E-02 0.  1.
    10030    2    1    2    0    0  0.00000000000E+00  0.00000000000E+00  0.16772066098E+04  0.27013840759E+04  0.21176529257E+04 0.  0.
        3    1    3    3  502    0 -0.96189143383E+03 -0.36479035407E+03  0.51891019258E+03  0.11522043790E+04  0.10100000352E+00 0.  1.
       -3    1    3    3    0  502  0.96189143383E+03  0.36479035407E+03  0.11582964172E+04  0.15491796969E+04  0.10100000352E+00 0. -1.
</event>
<event>
 5   0  0.1130848E-04  0.2083722E+04  0.7818609E-02  0.8568448E-01
        1   -1    0    0  501    0  0.00000000000E+00  0.00000000000E+00  0.61573239124E+03  0.61573239126E+03  0.50400001928E-02 0.  1.
       -1   -1    0    0    0  501  0.00000000000E+00  0.00000000000E+00 -0.17628989572E+04  0.17628989572E+04  0.50400001928E-02 0. -1.
    10030    2    1    2    0    0  0.00000000000E+00  0.00000000000E+00 -0.11471665660E+04  0.23786313485E+04  0.20837216613E+04 0.  0.
        5    1    3    3  502    0 -0.64746211236E+03  0.56889195755E+03 -0.12417507539E+04  0.15115595493E+04  0.46999998093E+01 0. -1.
       -5    1    3    3    0  502  0.64746211236E+03 -0.56889195755E+03  0.94584187927E+02  0.86707179917E+03  0.46999998093E+01 0.  1.
</event>
<event>
 5   0  0.1122711E-04  0.2044235E+04  0.7818609E-02  0.8586214E-01
        1   -1    0    0  501    0  0.00000000000E+00  0.00000000000E+00  0.12639445141E+04  0.12639445141E+04  0.50400001928E-02 0.  1.
       -1   -1    0    0    0  501  0.00000000000E+00  0.00000000000E+00 -0.82655864208E+03  0.82655864210E+03  0.50400001928E-02 0. -1.
    10030    2    1    2    0    0  0.00000000000E+00  0.00000000000E+00  0.43738587206E+03  0.20905031562E+04  0.20442350758E+04 0.  0.
        1    1    3    3  502    0  0.96546396981E+03  0.22014666585E+03  0.47768185619E+03  0.10994385782E+04  0.50400001928E-02 0.  1.
       -1    1    3    3    0  502 -0.96546396981E+03 -0.22014666585E+03 -0.40295984127E+02  0.99106457804E+03  0.50400001928E-02 0. -1.
</event>
<event>
 5   0  0.1122711E-04  0.2057473E+04  0.7818609E-02  0.8580212E-01
       -1   -1    0    0    0  501  0.00000000000E+00  0.00000000000E+00  0.84301370055E+03  0.84301370056E+03  0.50400001928E-02 0. -1.
        1   -1    0    0  501    0  0.00000000000E+00  0.00000000000E+00 -0.12553759653E+04  0.12553759653E+04  0.50400001928E-02 0.  1.
    10030    2    1    2    0    0  0.00000000000E+00  0.00000000000E+00 -0.41236226474E+03  0.20983896659E+04  0.20574733418E+04 0.  0.
        1    1    3    3  502    0  0.76075139068E+03  0.19643253030E+03  0.47108100848E+03  0.91610356072E+03  0.50400001928E-02 0. -1.
       -1    1    3    3    0  502 -0.76075139068E+03 -0.19643253030E+03 -0.88344327322E+03  0.11822861051E+04  0.50400001928E-02 0.  1.
</event>
<event>
 5   0  0.2512839E-04  0.2104876E+04  0.7818609E-02  0.8559099E-01
       -2   -1    0    0    0  501  0.00000000000E+00  0.00000000000E+00  0.11940508310E+04  0.11940508310E+04  0.25500000920E-02 0.  1.
        2   -1    0    0  501    0  0.00000000000E+00  0.00000000000E+00 -0.92761982824E+03  0.92761982824E+03  0.25500000920E-02 0. -1.
    10030    2    1    2    0    0  0.00000000000E+00  0.00000000000E+00  0.26643100272E+03  0.21216706592E+04  0.21048755086E+04 0.  0.
        3    1    3    3  502    0  0.41699265304E+03 -0.73415130209E+03  0.76653147390E+03  0.11403646424E+04  0.10100000352E+00 0.  1.
       -3    1    3    3    0  502 -0.41699265304E+03  0.73415130209E+03 -0.50010047118E+03  0.98130601676E+03  0.10100000352E+00 0. -1.
</event>
<event>
 5   0  0.1122711E-04  0.2199178E+04  0.7818609E-02  0.8518770E-01
       -1   -1    0    0    0  501  0.00000000000E+00  0.00000000000E+00  0.86003097936E+03  0.86003097938E+03  0.50400001928E-02 0.  1.
        1   -1    0    0  501    0  0.00000000000E+00  0.00000000000E+00 -0.14058753706E+04  0.14058753706E+04  0.50400001928E-02 0. -1.
    10030    2    1    2    0    0  0.00000000000E+00  0.00000000000E+00 -0.54584439120E+03  0.22659063500E+04  0.21991783664E+04 0.  0.
        1    1    3    3  502    0 -0.45110702327E+02 -0.15185368925E+03  0.84821224214E+03  0.86287804825E+03  0.50400001928E-02 0.  1.
       -1    1    3    3    0  502  0.45110702327E+02  0.15185368925E+03 -0.13940566333E+04  0.14030283017E+04  0.50400001928E-02 0. -1.
</event>
<event>
 5   0  0.1156733E-04  0.1983333E+04  0.7818609E-02  0.8614453E-01
       -1   -1    0    0    0  501  0.00000000000E+00  0.00000000000E+00  0.85838870929E+03  0.85838870931E+03  0.50400001928E-02 0.  1.
        1   -1    0    0  501    0  0.00000000000E+00  0.00000000000E+00 -0.11456374499E+04  0.11456374499E+04  0.50400001928E-02 0. -1.
    10030    2    1    2    0    0  0.00000000000E+00  0.00000000000E+00 -0.28724874056E+03  0.20040261592E+04  0.19833328031E+04 0.  0.
        2    1    3    3  502    0 -0.42428633251E+03 -0.81154934396E+03  0.24083337258E+03  0.94690651227E+03  0.25500000920E-02 0.  1.
       -2    1    3    3    0  502  0.42428633251E+03  0.81154934396E+03 -0.52808211314E+03  0.10571196469E+04  0.25500000920E-02 0. -1.
</event>
<event>
 5   0  0.1130848E-04  0.1899775E+04  0.7818609E-02  0.8654968E-01
        1   -1    0    0  501    0  0.00000000000E+00  0.00000000000E+00  0.14597927281E+04  0.14597927281E+04  0.50400001928E-02 0. -1.
       -1   -1    0    0    0  501  0.00000000000E+00  0.00000000000E+00 -0.61809208854E+03  0.61809208857E+03  0.50400001928E-02 0.  1.
    10030    2    1    2    0    0  0.00000000000E+00  0.00000000000E+00  0.84170063951E+03  0.20778848166E+04  0.18997750774E+04 0.  0.
        5    1    3    3  502    0  0.53649608900E+03 -0.62958870718E+03  0.93159230936E+03  0.12458315755E+04  0.46999998093E+01 0. -1.
       -5    1    3    3    0  502 -0.53649608900E+03  0.62958870718E+03 -0.89891669853E+02  0.83205324110E+03  0.46999998093E+01 0.  1.
</event>
<event>
 5   0  0.2430898E-04  0.2119363E+04  0.7818609E-02  0.8552761E-01
       -2   -1    0    0    0  501  0.00000000000E+00  0.00000000000E+00  0.12149878594E+04  0.12149878594E+04  0.25500000920E-02 0.  1.
        2   -1    0    0  501    0  0.00000000000E+00  0.00000000000E+00 -0.92422724376E+03  0.92422724377E+03  0.25500000920E-02 0. -1.
    10030    2    1    2    0    0  0.00000000000E+00  0.00000000000E+00  0.29076061561E+03  0.21392151031E+04  0.21193629991E+04 0.  0.
        1    1    3    3  502    0  0.72208780197E+03  0.20119025422E+03 -0.61065955199E+03  0.96684714438E+03  0.50400001928E-02 0. -1.
       -1    1    3    3    0  502 -0.72208780197E+03 -0.20119025422E+03  0.90142016760E+03  0.11723679588E+04  0.50400001928E-02 0.  1.
</event>
<event>
 5   0  0.2512839E-04  0.2128535E+04  0.7818609E-02  0.8548777E-01
       -2   -1    0    0    0  501  0.00000000000E+00  0.00000000000E+00  0.10711940897E+04  0.10711940897E+04  0.25500000920E-02 0.  1.
        2   -1    0    0  501    0  0.00000000000E+00  0.00000000000E+00 -0.10573855294E+04  0.10573855294E+04  0.25500000920E-02 0. -1.
    10030    2    1    2    0    0  0.00000000000E+00  0.00000000000E+00  0.13808560312E+02  0.21285796191E+04  0.21285348290E+04 0.  0.
        3    1    3    3  502    0 -0.10328853598E+04  0.24055781528E+02 -0.24851110232E+03  0.10626328742E+04  0.10100000352E+00 0.  1.
       -3    1    3    3    0  502  0.10328853598E+04 -0.24055781528E+02  0.26231966264E+03  0.10659467448E+04  0.10100000352E+00 0. -1.
</event>
<event>
 5   0  0.1122711E-04  0.1970486E+04  0.7818609E-02  0.8620545E-01
        1   -1    0    0  501    0  0.00000000000E+00  0.00000000000E+00  0.20058066110E+04  0.20058066110E+04  0.50400001928E-02 0. -1.
       -1   -1    0    0    0  501  0.00000000000E+00  0.00000000000E+00 -0.48394669339E+03  0.48394669341E+03  0.50400001928E-02 0.  1.
    10030    2    1    2    0    0  0.00000000000E+00  0.00000000000E+00  0.15218599176E+04  0.24897533044E+04  0.19704857036E+04 0.  0.
        1    1    3    3  502    0  0.64406790848E+03 -0.28889911646E+03 -0.10752225953E+03  0.71403585802E+03  0.50400001928E-02 0.  1.
       -1    1    3    3    0  502 -0.64406790848E+03  0.28889911646E+03  0.16293821771E+04  0.17757174464E+04  0.50400001928E-02 0. -1.
</event>
<event>
 5   0  0.1156733E-04  0.2036650E+04  0.7818609E-02  0.8589675E-01
        1   -1    0    0  501    0  0.00000000000E+00  0.00000000000E+00  0.19447269753E+04  0.19447269753E+04  0.50400001928E-02 0. -1.
       -1   -1    0    0    0  501  0.00000000000E+00  0.00000000000E+00 -0.53322966924E+03  0.53322966927E+03  0.50400001928E-02 0.  1.
    10030    2    1    2    0    0  0.00000000000E+00  0.00000000000E+00  0.14114973060E+04  0.24779566446E+04  0.20366503105E+04 0.  0.
        2    1    3    3  502    0  0.89881431147E+03 -0.27901715904E+03  0.23254148555E+03  0.96942936001E+03  0.25500000920E-02 0.  1.
       -2    1    3    3    0  502 -0.89881431147E+03  0.27901715904E+03  0.11789558205E+04  0.15085272845E+04  0.25500000920E-02 0. -1.
</event>
<event>
 5   0  0.1186038E-04  0.1961684E+04  0.7818609E-02  0.8624747E-01
        1   -1    0    0  501    0  0.00000000000E+00  0.00000000000E+00  0.88217063833E+03  0.88217063835E+03  0.50400001928E-02 0.  1.
       -1   -1    0    0    0  501  0.00000000000E+00  0.00000000000E+00 -0.10905499027E+04  0.10905499027E+04  0.50400001928E-02 0. -1.
    10030    2    1    2    0    0  0.00000000000E+00  0.00000000000E+00 -0.20837926436E+03  0.19727205411E+04  0.19616840763E+04 0.  0.
        4    1    3    3  502    0  0.51740263190E+03 -0.39235812660E+03 -0.84344385098E+03  0.10644479911E+04  0.12699999809E+01 0. -1.
       -4    1    3    3    0  502 -0.51740263190E+03  0.39235812660E+03  0.63506458662E+03  0.90827255000E+03  0.12699999809E+01 0.  1.
</event>
<event>
 5   0  0.1042395E-04  0.2069184E+04  0.7818609E-02  0.8574941E-01
        1   -1    0    0  501    0  0.00000000000E+00  0.00000000000E+00  0.17201961144E+04  0.17201961144E+04  0.50400001928E-02 0. -1.
       -1   -1    0    0    0  501  0.00000000000E+00  0.00000000000E+00 -0.62224358685E+03  0.62224358687E+03  0.50400001928E-02 0.  1.
    10030    2    1    2    0    0  0.00000000000E+00  0.00000000000E+00  0.10979525275E+04  0.23424397013E+04  0.20691843807E+04 0.  0.
        3    1    3    3  502    0 -0.43259768623E+03 -0.86176618933E+03  0.97345970836E+03  0.13701844902E+04  0.10100000352E+00 0. -1.
       -3    1    3    3    0  502  0.43259768623E+03  0.86176618933E+03  0.12449281919E+03  0.97225521106E+03  0.10100000352E+00 0.  1.
</event>
<event>
 5   0  0.8698750E-05  0.2142345E+04  0.7818609E-02  0.8542816E-01
       -3   -1    0    0    0  501  0.00000000000E+00  0.00000000000E+00  0.92500024737E+03  0.92500025289E+03  0.10100000352E+00 0.  1.
        3   -1    0    0  501    0  0.00000000000E+00  0.00000000000E+00 -0.12404436201E+04  0.12404436242E+04  0.10100000352E+00 0. -1.
    10030    2    1    2    0    0  0.00000000000E+00  0.00000000000E+00 -0.31544337270E+03  0.21654438771E+04  0.21423451317E+04 0.  0.
        3    1    3    3  502    0 -0.89293892515E+03 -0.29264828058E+03 -0.67749141412E+03  0.11584375540E+04  0.10100000352E+00 0.  1.
       -3    1    3    3    0  502  0.89293892515E+03  0.29264828058E+03  0.36204804141E+03  0.10070063230E+04  0.10100000352E+00 0. -1.
</event>
<event>
 5   0  0.1122711E-04  0.2496713E+04  0.7818609E-02  0.8404157E-01
        1   -1    0    0  501    0  0.00000000000E+00  0.00000000000E+00  0.15751752640E+04  0.15751752641E+04  0.50400001928E-02 0. -1.
       -1   -1    0    0    0  501  0.00000000000E+00  0.00000000000E+00 -0.98934671148E+03  0.98934671149E+03  0.50400001928E-02 0.  1.
    10030    2    1    2    0    0  0.00000000000E+00  0.00000000000E+00  0.58582855257E+03  0.25645219755E+04  0.24967134137E+04 0.  0.
        1    1    3    3  502    0 -0.66023210278E+03  0.10591773209E+04  0.26710332296E+03  0.12763648428E+04  0.50400001928E-02 0. -1.
       -1    1    3    3    0  502  0.66023210278E+03 -0.10591773209E+04  0.31872522961E+03  0.12881571328E+04  0.50400001928E-02 0.  1.
</event>
<event>
 5   0  0.2467483E-04  0.1979387E+04  0.7818609E-02  0.8616319E-01
       -2   -1    0    0    0  501  0.00000000000E+00  0.00000000000E+00  0.50574428632E+03  0.50574428632E+03  0.25500000920E-02 0. -1.
        2   -1    0    0  501    0  0.00000000000E+00  0.00000000000E+00 -0.19367357988E+04  0.19367357988E+04  0.25500000920E-02 0.  1.
    10030    2    1    2    0    0  0.00000000000E+00  0.00000000000E+00 -0.14309915125E+04  0.24424800851E+04  0.19793868387E+04 0.  0.
        4    1    3    3  502    0  0.54538659532E+02  0.88609673507E+03 -0.17571911134E+03  0.90499762888E+03  0.12699999809E+01 0. -1.
       -4    1    3    3    0  502 -0.54538659532E+02 -0.88609673507E+03 -0.12552724011E+04  0.15374824562E+04  0.12699999809E+01 0.  1.
</event>
<event>
 5   0  0.2467483E-04  0.1329761E+04  0.7818609E-02  0.9006292E-01
       -2   -1    0    0    0  501  0.00000000000E+00  0.00000000000E+00  0.71635566381E+03  0.71635566381E+03  0.25500000920E-02 0. -1.
        2   -1    0    0  501    0  0.00000000000E+00  0.00000000000E+00 -0.61710393105E+03  0.61710393106E+03  0.25500000920E-02 0.  1.
    10030    2    1    2    0    0  0.00000000000E+00  0.00000000000E+00  0.99251732755E+02  0.13334595949E+04  0.13297607246E+04 0.  0.
        4    1    3    3  502    0 -0.12060057547E+03  0.33569892767E+03 -0.51302846280E+03  0.62485045042E+03  0.12699999809E+01 0.  1.
       -4    1    3    3    0  502  0.12060057547E+03 -0.33569892767E+03  0.61228019556E+03  0.70860914446E+03  0.12699999809E+01 0. -1.
</event>
<event>
 5   0  0.1122711E-04  0.2130143E+04  0.7818609E-02  0.8548080E-01
        1   -1    0    0  501    0  0.00000000000E+00  0.00000000000E+00  0.18210755053E+04  0.18210755053E+04  0.50400001928E-02 0. -1.
       -1   -1    0    0    0  501  0.00000000000E+00  0.00000000000E+00 -0.62291613059E+03  0.62291613061E+03  0.50400001928E-02 0.  1.
    10030    2    1    2    0    0  0.00000000000E+00  0.00000000000E+00  0.11981593747E+04  0.24439916359E+04  0.21301430067E+04 0.  0.
        1    1    3    3  502    0  0.42009418009E+03  0.92257187826E+03  0.22419832713E+03  0.10382113853E+04  0.50400001928E-02 0.  1.
       -1    1    3    3    0  502 -0.42009418009E+03 -0.92257187826E+03  0.97396104754E+03  0.14057802506E+04  0.50400001928E-02 0. -1.
</event>
<event>
 5   0  0.1186038E-04  0.2143045E+04  0.7818609E-02  0.8542515E-01
       -1   -1    0    0    0  501  0.00000000000E+00  0.00000000000E+00  0.11557175681E+04  0.11557175681E+04  0.50400001928E-02 0.  1.
        1   -1    0    0  501    0  0.00000000000E+00  0.00000000000E+00 -0.99346074225E+03  0.99346074226E+03  0.50400001928E-02 0. -1.
    10030    2    1    2    0    0  0.00000000000E+00  0.00000000000E+00  0.16225682581E+03  0.21491783103E+04  0.21430445941E+04 0.  0.
        4    1    3    3  502    0  0.10526344129E+04 -0.17479507392E+03  0.17921374088E+03  0.10819943174E+04  0.12699999809E+01 0. -1.
       -4    1    3    3    0  502 -0.10526344129E+04  0.17479507392E+03 -0.16956915066E+02  0.10671839930E+04  0.12699999809E+01 0.  1.
</event>
<event>
 5   0  0.2467483E-04  0.2092500E+04  0.7818609E-02  0.8564555E-01
        2   -1    0    0  501    0  0.00000000000E+00  0.00000000000E+00  0.10171399718E+04  0.10171399718E+04  0.25500000920E-02 0. -1.
       -2   -1    0    0    0  501  0.00000000000E+00  0.00000000000E+00 -0.10761928153E+04  0.10761928153E+04  0.25500000920E-02 0.  1.
    10030    2    1    2    0    0  0.00000000000E+00  0.00000000000E+00 -0.59052843421E+02  0.20933327871E+04  0.20924996820E+04 0.  0.
        4    1    3    3  502    0  0.36759746312E+03  0.90742195432E+03 -0.39858334074E+03  0.10570774761E+04  0.12699999809E+01 0.  1.
       -4    1    3    3    0  502 -0.36759746312E+03 -0.90742195432E+03  0.33953049732E+03  0.10362553110E+04  0.12699999809E+01 0. -1.
</event>
<event>
 5   0  0.2467483E-04  0.2079866E+04  0.7818609E-02  0.8570165E-01
       -2   -1    0    0    0  501  0.00000000000E+00  0.00000000000E+00  0.16116491156E+04  0.16116491156E+04  0.25500000920E-02 0.  1.
        2   -1    0    0  501    0  0.00000000000E+00  0.00000000000E+00 -0.67102739205E+03  0.67102739206E+03  0.25500000920E-02 0. -1.
    10030    2    1    2    0    0  0.00000000000E+00  0.00000000000E+00  0.94062172351E+03  0.22826765076E+04  0.20798660562E+04 0.  0.
        4    1    3    3  502    0 -0.77790620433E+03 -0.48839292404E+03  0.10055019599E+04  0.13618742656E+04  0.12699999809E+01 0.  1.
       -4    1    3    3    0  502  0.77790620433E+03  0.48839292404E+03 -0.64880236378E+02  0.92080224205E+03  0.12699999809E+01 0. -1.
</event>
<event>
 5   0  0.2579241E-04  0.2077243E+04  0.7818609E-02  0.8571335E-01
       -2   -1    0    0    0  501  0.00000000000E+00  0.00000000000E+00  0.84699429459E+03  0.84699429459E+03  0.25500000920E-02 0. -1.
        2   -1    0    0  501    0  0.00000000000E+00  0.00000000000E+00 -0.12736037600E+04  0.12736037600E+04  0.25500000920E-02 0.  1.
    10030    2    1    2    0    0  0.00000000000E+00  0.00000000000E+00 -0.42660946544E+03  0.21205980546E+04  0.20772434795E+04 0.  0.
        5    1    3    3  502    0  0.44478129930E+03 -0.93316417657E+03 -0.11077325650E+03  0.10396723469E+04  0.46999998093E+01 0.  1.
       -5    1    3    3    0  502 -0.44478129930E+03  0.93316417657E+03 -0.31583620894E+03  0.10809257077E+04  0.46999998093E+01 0. -1.
</event>
<event>
 5   0  0.2430898E-04  0.2167956E+04  0.7818609E-02  0.8531885E-01
       -2   -1    0    0    0  501  0.00000000000E+00  0.00000000000E+00  0.42593772303E+03  0.42593772304E+03  0.25500000920E-02 0. -1.
        2   -1    0    0  501    0  0.00000000000E+00  0.00000000000E+00 -0.27586388183E+04  0.27586388183E+04  0.25500000920E-02 0.  1.
    10030    2    1    2    0    0  0.00000000000E+00  0.00000000000E+00 -0.23327010953E+04  0.31845765413E+04  0.21679560300E+04 0.  0.
        1    1    3    3  502    0 -0.25772294637E+03 -0.36881874609E+03  0.28228591773E+03  0.53116261534E+03  0.50400001928E-02 0. -1.
       -1    1    3    3    0  502  0.25772294637E+03  0.36881874609E+03 -0.26149870130E+04  0.26534139260E+04  0.50400001928E-02 0.  1.
</event>
<event>
 5   0  0.1130848E-04  0.2102026E+04  0.7818609E-02  0.8560351E-01
        1   -1    0    0  501    0  0.00000000000E+00  0.00000000000E+00  0.39030742600E+03  0.39030742603E+03  0.50400001928E-02 0.  1.
       -1   -1    0    0    0  501  0.00000000000E+00  0.00000000000E+00 -0.28301505849E+04  0.28301505849E+04  0.50400001928E-02 0. -1.
    10030    2    1    2    0    0  0.00000000000E+00  0.00000000000E+00 -0.24398431589E+04  0.32204580109E+04  0.21020264413E+04 0.  0.
        5    1    3    3  502    0  0.45160616781E+03 -0.18815479301E+03  0.20519982268E+03  0.53054633555E+03  0.46999998093E+01 0.  1.
       -5    1    3    3    0  502 -0.45160616781E+03  0.18815479301E+03 -0.26450429816E+04  0.26899116754E+04  0.46999998093E+01 0. -1.
</event>
<event>
 5   0  0.2579241E-04  0.2096193E+04  0.7818609E-02  0.8562922E-01
        2   -1    0    0  501    0  0.00000000000E+00  0.00000000000E+00  0.12240187188E+04  0.12240187188E+04  0.25500000920E-02 0. -1.
       -2   -1    0    0    0  501  0.00000000000E+00  0.00000000000E+00 -0.89745865378E+03  0.89745865378E+03  0.25500000920E-02 0.  1.
    10030    2    1    2    0    0  0.00000000000E+00  0.00000000000E+00  0.32656006501E+03  0.21214773726E+04  0.20961929220E+04 0.  0.
        5    1    3    3  502    0 -0.50359442574E+03  0.69436011637E+03 -0.44626437058E+03  0.96691121376E+03  0.46999998093E+01 0.  1.
       -5    1    3    3    0  502  0.50359442574E+03 -0.69436011637E+03  0.77282443560E+03  0.11545661588E+04  0.46999998093E+01 0. -1.
</event>
<event>
 5   0  0.1156733E-04  0.2058539E+04  0.7818609E-02  0.8579731E-01
       -1   -1    0    0    0  501  0.00000000000E+00  0.00000000000E+00  0.92320637146E+03  0.92320637147E+03  0.50400001928E-02 0. -1.
        1   -1    0    0  501    0  0.00000000000E+00  0.00000000000E+00 -0.11475175327E+04  0.11475175328E+04  0.50400001928E-02 0.  1.
    10030    2    1    2    0    0  0.00000000000E+00  0.00000000000E+00 -0.22431116129E+03  0.20707239042E+04  0.20585387998E+04 0.  0.
        2    1    3    3  502    0  0.84493498950E+03  0.37539685137E+03 -0.56711316851E+03  0.10846452316E+04  0.25500000920E-02 0.  1.
       -2    1    3    3    0  502 -0.84493498950E+03 -0.37539685137E+03  0.34280200722E+03  0.98607867265E+03  0.25500000920E-02 0. -1.
</event>
<event>
 5   0  0.2579241E-04  0.2040461E+04  0.7818609E-02  0.8587934E-01
       -2   -1    0    0    0  501  0.00000000000E+00  0.00000000000E+00  0.96679338088E+03  0.96679338088E+03  0.25500000920E-02 0.  1.
        2   -1    0    0  501    0  0.00000000000E+00  0.00000000000E+00 -0.10766208416E+04  0.10766208416E+04  0.25500000920E-02 0. -1.
    10030    2    1    2    0    0  0.00000000000E+00  0.00000000000E+00 -0.10982746072E+03  0.20434142225E+04  0.20404606376E+04 0.  0.
        5    1    3    3  502    0 -0.54914845986E+02 -0.75924020716E+03 -0.73515131363E+03  0.10582678661E+04  0.46999998093E+01 0. -1.
       -5    1    3    3    0  502  0.54914845986E+02  0.75924020716E+03  0.62532385291E+03  0.98514635638E+03  0.46999998093E+01 0.  1.
</event>
<event>
 5   0  0.1042395E-04  0.2097319E+04  0.7818609E-02  0.8562425E-01
       -1   -1    0    0    0  501  0.00000000000E+00  0.00000000000E+00  0.62321601046E+03  0.62321601048E+03  0.50400001928E-02 0. -1.
        1   -1    0    0  501    0  0.00000000000E+00  0.00000000000E+00 -0.17645356045E+04  0.17645356045E+04  0.50400001928E-02 0.  1.
    10030    2    1    2    0    0  0.00000000000E+00  0.00000000000E+00 -0.11413195941E+04  0.23877516150E+04  0.20973190886E+04 0.  0.
        3    1    3    3  502    0  0.73841956004E+02 -0.65195881136E+03  0.36065688205E+03  0.74871645030E+03  0.10100000352E+00 0. -1.
       -3    1    3    3    0  502 -0.73841956004E+02  0.65195881136E+03 -0.15019764761E+04  0.16390351647E+04  0.10100000352E+00 0.  1.
</event>
<event>
 5   0  0.1186038E-04  0.1546120E+04  0.7818609E-02  0.8854350E-01
        1   -1    0    0  501    0  0.00000000000E+00  0.00000000000E+00  0.24070684379E+04  0.24070684379E+04  0.50400001928E-02 0. -1.
       -1   -1    0    0    0  501  0.00000000000E+00  0.00000000000E+00 -0.24827790366E+03  0.24827790371E+03  0.50400001928E-02 0.  1.
    10030    2    1    2    0    0  0.00000000000E+00  0.00000000000E+00  0.21587905343E+04  0.26553463416E+04  0.15461201839E+04 0.  0.
        4    1    3    3  502    0 -0.37359558892E+03  0.65021617467E+03  0.14019127688E+04  0.15898791658E+04  0.12699999809E+01 0. -1.
       -4    1    3    3    0  502  0.37359558892E+03 -0.65021617467E+03  0.75687776549E+03  0.10654671758E+04  0.12699999809E+01 0.  1.
</event>
<event>
 5   0  0.1042395E-04  0.2113392E+04  0.7818609E-02  0.8555367E-01
        1   -1    0    0  501    0  0.00000000000E+00  0.00000000000E+00  0.28332628858E+04  0.28332628858E+04  0.50400001928E-02 0.  1.
       -1   -1    0    0    0  501  0.00000000000E+00  0.00000000000E+00 -0.39410623908E+03  0.39410623911E+03  0.50400001928E-02 0. -1.
    10030    2    1    2    0    0  0.00000000000E+00  0.00000000000E+00  0.24391566467E+04  0.32273691249E+04  0.21133921362E+04 0.  0.
        3    1    3    3  502    0  0.41434547568E+03 -0.77394430446E+03  0.32139381469E+03  0.93486146244E+03  0.10100000352E+00 0. -1.
       -3    1    3    3    0  502 -0.41434547568E+03  0.77394430446E+03  0.21177628320E+04  0.22925076625E+04  0.10100000352E+00 0.  1.
</event>
<event>
 5   0  0.1042395E-04  0.1831265E+04  0.7818609E-02  0.8689848E-01
        1   -1    0    0  501    0  0.00000000000E+00  0.00000000000E+00  0.65537878843E+03  0.65537878845E+03  0.50400001928E-02 0.  1.
       -1   -1    0    0    0  501  0.00000000000E+00  0.00000000000E+00 -0.12792339223E+04  0.12792339224E+04  0.50400001928E-02 0. -1.
    10030    2    1    2    0    0  0.00000000000E+00  0.00000000000E+00 -0.62385513391E+03  0.19346127108E+04  0.18312648942E+04 0.  0.
        3    1    3    3  502    0 -0.28263983180E+03  0.16545708106E+03 -0.12152392538E+04  0.12585975426E+04  0.10100000352E+00 0. -1.
       -3    1    3    3    0  502  0.28263983180E+03 -0.16545708106E+03  0.59138411985E+03  0.67601516818E+03  0.10100000352E+00 0.  1.
</event>
<event>
 5   0  0.2448804E-04  0.2042612E+04  0.7818609E-02  0.8586953E-01
       -2   -1    0    0    0  501  0.00000000000E+00  0.00000000000E+00  0.83695649413E+03  0.83695649413E+03  0.25500000920E-02 0.  1.
        2   -1    0    0  501    0  0.00000000000E+00  0.00000000000E+00 -0.12462612200E+04  0.12462612200E+04  0.25500000920E-02 0. -1.
    10030    2    1    2    0    0  0.00000000000E+00  0.00000000000E+00 -0.40930472589E+03  0.20832177141E+04  0.20426124659E+04 0.  0.
        2    1    3    3  502    0  0.22449206081E+03 -0.17725133485E+03  0.79527221251E+03  0.84514650391E+03  0.25500000920E-02 0.  1.
       -2    1    3    3    0  502 -0.22449206081E+03  0.17725133485E+03 -0.12045769384E+04  0.12380712102E+04  0.25500000920E-02 0. -1.
</event>
<event>
 5   0  0.1130848E-04  0.1574990E+04  0.7818609E-02  0.8836062E-01
        1   -1    0    0  501    0  0.00000000000E+00  0.00000000000E+00  0.87650787239E+03  0.87650787240E+03  0.50400001928E-02 0.  1.
       -1   -1    0    0    0  501  0.00000000000E+00  0.00000000000E+00 -0.70752147103E+03  0.70752147104E+03  0.50400001928E-02 0. -1.
    10030    2    1    2    0    0  0.00000000000E+00  0.00000000000E+00  0.16898640136E+03  0.15840293434E+04  0.15749897006E+04 0.  0.
        5    1    3    3  502    0  0.18313154414E+03  0.51563625071E+03 -0.48506813311E+03  0.73125309521E+03  0.46999998093E+01 0.  1.
       -5    1    3    3    0  502 -0.18313154414E+03 -0.51563625071E+03  0.65405453447E+03  0.85277624824E+03  0.46999998093E+01 0. -1.
</event>
<event>
 5   0  0.1156733E-04  0.2075371E+04  0.7818609E-02  0.8572171E-01
        1   -1    0    0  501    0  0.00000000000E+00  0.00000000000E+00  0.95515354212E+03  0.95515354213E+03  0.50400001928E-02 0.  1.
       -1   -1    0    0    0  501  0.00000000000E+00  0.00000000000E+00 -0.11273487893E+04  0.11273487893E+04  0.50400001928E-02 0. -1.
    10030    2    1    2    0    0  0.00000000000E+00  0.00000000000E+00 -0.17219524716E+03  0.20825023314E+04  0.20753709927E+04 0.  0.
        2    1    3    3  502    0  0.67457792650E+03  0.68655780019E+03 -0.47521122799E+03  0.10734256859E+04  0.25500000920E-02 0. -1.
       -2    1    3    3    0  502 -0.67457792650E+03 -0.68655780019E+03  0.30301598083E+03  0.10090766455E+04  0.25500000920E-02 0.  1.
</event>
<event>
 5   0  0.1042395E-04  0.2109607E+04  0.7818609E-02  0.8557023E-01
        1   -1    0    0  501    0  0.00000000000E+00  0.00000000000E+00  0.12402002275E+04  0.12402002275E+04  0.50400001928E-02 0. -1.
       -1   -1    0    0    0  501  0.00000000000E+00  0.00000000000E+00 -0.89712159637E+03  0.89712159639E+03  0.50400001928E-02 0.  1.
    10030    2    1    2    0    0  0.00000000000E+00  0.00000000000E+00  0.34307863114E+03  0.21373218239E+04  0.21096069852E+04 0.  0.
        3    1    3    3  502    0  0.30986086567E+03  0.99430279596E+03  0.34094423231E+03  0.10958534509E+04  0.10100000352E+00 0. -1.
       -3    1    3    3    0  502 -0.30986086567E+03 -0.99430279596E+03  0.21343988341E+01  0.10414683730E+04  0.10100000352E+00 0.  1.
</event>
<event>
 5   0  0.2430898E-04  0.2029394E+04  0.7818609E-02  0.8593000E-01
        2   -1    0    0  501    0  0.00000000000E+00  0.00000000000E+00  0.12783681617E+04  0.12783681617E+04  0.25500000920E-02 0.  1.
       -2   -1    0    0    0  501  0.00000000000E+00  0.00000000000E+00 -0.80540982765E+03  0.80540982766E+03  0.25500000920E-02 0. -1.
    10030    2    1    2    0    0  0.00000000000E+00  0.00000000000E+00  0.47295833403E+03  0.20837779893E+04  0.20293942749E+04 0.  0.
        1    1    3    3  502    0 -0.97748945221E+03  0.16200463131E+03  0.11802363808E+02  0.99089375090E+03  0.50400001928E-02 0. -1.
       -1    1    3    3    0  502  0.97748945221E+03 -0.16200463131E+03  0.46115597022E+03  0.10928842384E+04  0.50400001928E-02 0.  1.
</event>
<event>
 5   0  0.2448804E-04  0.2069115E+04  0.7818609E-02  0.8574972E-01
       -2   -1    0    0    0  501  0.00000000000E+00  0.00000000000E+00  0.83241281549E+03  0.83241281549E+03  0.25500000920E-02 0.  1.
        2   -1    0    0  501    0  0.00000000000E+00  0.00000000000E+00 -0.12857908883E+04  0.12857908883E+04  0.25500000920E-02 0. -1.
    10030    2    1    2    0    0  0.00000000000E+00  0.00000000000E+00 -0.45337807277E+03  0.21182037038E+04  0.20691146062E+04 0.  0.
        2    1    3    3  502    0 -0.42161244500E+03 -0.34835293965E+03  0.67232660358E+03  0.86667749840E+03  0.25500000920E-02 0.  1.
       -2    1    3    3    0  502  0.42161244500E+03  0.34835293965E+03 -0.11257046763E+04  0.12515262054E+04  0.25500000920E-02 0. -1.
</event>
<event>
 5   0  0.1042395E-04  0.2620697E+04  0.7818609E-02  0.8361205E-01
        1   -1    0    0  501    0  0.00000000000E+00  0.00000000000E+00  0.95345628029E+03  0.95345628030E+03  0.50400001928E-02 0.  1.
       -1   -1    0    0    0  501  0.00000000000E+00  0.00000000000E+00 -0.18008302336E+04  0.18008302336E+04  0.50400001928E-02 0. -1.
    10030    2    1    2    0    0  0.00000000000E+00  0.00000000000E+00 -0.84737395334E+03  0.27542865139E+04  0.26206967745E+04 0.  0.
        3    1    3    3  502    0  0.28260241860E+03 -0.40100286185E+03  0.85329961857E+03  0.98427012119E+03  0.10100000352E+00 0.  1.
       -3    1    3    3    0  502 -0.28260241860E+03  0.40100286185E+03 -0.17006735719E+04  0.17700163928E+04  0.10100000352E+00 0. -1.
</event>
<event>
 5   0  0.2430898E-04  0.1995260E+04  0.7818609E-02  0.8608840E-01
        2   -1    0    0  501    0  0.00000000000E+00  0.00000000000E+00  0.71427938414E+03  0.71427938414E+03  0.25500000920E-02 0.  1.
       -2   -1    0    0    0  501  0.00000000000E+00  0.00000000000E+00 -0.13933845138E+04  0.13933845138E+04  0.25500000920E-02 0. -1.
    10030    2    1    2    0    0  0.00000000000E+00  0.00000000000E+00 -0.67910512969E+03  0.21076638980E+04  0.19952602160E+04 0.  0.
        1    1    3    3  502    0 -0.72895661732E+03 -0.22182516105E+03 -0.10197879791E+04  0.12730089058E+04  0.50400001928E-02 0. -1.
       -1    1    3    3    0  502  0.72895661732E+03  0.22182516105E+03  0.34068284939E+03  0.83465499214E+03  0.50400001928E-02 0.  1.
</event>
<event>
 5   0  0.1122711E-04  0.2083760E+04  0.7818609E-02  0.8568431E-01
        1   -1    0    0  501    0  0.00000000000E+00  0.00000000000E+00  0.19104777418E+04  0.19104777418E+04  0.50400001928E-02 0. -1.
       -1   -1    0    0    0  501  0.00000000000E+00  0.00000000000E+00 -0.56818961011E+03  0.56818961013E+03  0.50400001928E-02 0.  1.
    10030    2    1    2    0    0  0.00000000000E+00  0.00000000000E+00  0.13422881317E+04  0.24786673519E+04  0.20837596822E+04 0.  0.
        1    1    3    3  502    0  0.59250342542E+03 -0.29560529482E+02 -0.34766828163E+03  0.68760989530E+03  0.50400001928E-02 0.  1.
       -1    1    3    3    0  502 -0.59250342542E+03  0.29560529482E+02  0.16899564133E+04  0.17910574566E+04  0.50400001928E-02 0. -1.
</event>
<event>
 5   0  0.1042395E-04  0.1344168E+04  0.7818609E-02  0.8995255E-01
        1   -1    0    0  501    0  0.00000000000E+00  0.00000000000E+00  0.67090095109E+03  0.67090095111E+03  0.50400001928E-02 0.  1.
       -1   -1    0    0    0  501  0.00000000000E+00  0.00000000000E+00 -0.67326870954E+03  0.67326870955E+03  0.50400001928E-02 0. -1.
    10030    2    1    2    0    0  0.00000000000E+00  0.00000000000E+00 -0.23677584424E+01  0.13441696607E+04  0.13441675753E+04 0.  0.
        3    1    3    3  502    0 -0.51394065283E+03  0.39363721341E+03  0.17940254929E+03  0.67176672686E+03  0.10100000352E+00 0. -1.
       -3    1    3    3    0  502  0.51394065283E+03 -0.39363721341E+03 -0.18177030774E+03  0.67240293381E+03  0.10100000352E+00 0.  1.
</event>
<event>
 5   0  0.2467483E-04  0.2072886E+04  0.7818609E-02  0.8573282E-01
       -2   -1    0    0    0  501  0.00000000000E+00  0.00000000000E+00  0.11748953859E+04  0.11748953859E+04  0.25500000920E-02 0. -1.
        2   -1    0    0  501    0  0.00000000000E+00  0.00000000000E+00 -0.91430581567E+03  0.91430581568E+03  0.25500000920E-02 0.  1.
    10030    2    1    2    0    0  0.00000000000E+00  0.00000000000E+00  0.26058957018E+03  0.20892012015E+04  0.20728856062E+04 0.  0.
        4    1    3    3  502    0  0.85184840107E+03  0.59037879690E+03  0.12587288739E+03  0.10440490501E+04  0.12699999809E+01 0. -1.
       -4    1    3    3    0  502 -0.85184840107E+03 -0.59037879690E+03  0.13471668279E+03  0.10451521515E+04  0.12699999809E+01 0.  1.
</event>
<event>
 5   0  0.8698750E-05  0.2012851E+04  0.7818609E-02  0.8600636E-01
        4   -1    0    0  501    0  0.00000000000E+00  0.00000000000E+00  0.14473358388E+04  0.14473363960E+04  0.12699999809E+01 0. -1.
       -4   -1    0    0    0  501  0.00000000000E+00  0.00000000000E+00 -0.69983128604E+03  0.69983243839E+03  0.12699999809E+01 0.  1.
    10030    2    1    2    0    0  0.00000000000E+00  0.00000000000E+00  0.74750455276E+03  0.21471688344E+04  0.20128514468E+04 0.  0.
        5    1    3    3  502    0 -0.25540639380E+03 -0.66063675504E+03 -0.38893894179E+03  0.80806493461E+03  0.46999998093E+01 0.  1.
       -5    1    3    3    0  502  0.25540639380E+03  0.66063675504E+03  0.11364434946E+04  0.13391038998E+04  0.46999998093E+01 0. -1.
</event>
<event>
 5   0  0.2430898E-04  0.2009128E+04  0.7818609E-02  0.8602365E-01
       -2   -1    0    0    0  501  0.00000000000E+00  0.00000000000E+00  0.58442956687E+03  0.58442956688E+03  0.25500000920E-02 0. -1.
        2   -1    0    0  501    0  0.00000000000E+00  0.00000000000E+00 -0.17267244787E+04  0.17267244787E+04  0.25500000920E-02 0.  1.
    10030    2    1    2    0    0  0.00000000000E+00  0.00000000000E+00 -0.11422949118E+04  0.23111540456E+04  0.20091280091E+04 0.  0.
        1    1    3    3  502    0  0.90169942363E+03 -0.12017737911E+03 -0.10614140199E+04  0.13978927622E+04  0.50400001928E-02 0.  1.
       -1    1    3    3    0  502 -0.90169942363E+03  0.12017737911E+03 -0.80880891969E+02  0.91326128339E+03  0.50400001928E-02 0. -1.
</event>
<event>
 5   0  0.2579241E-04  0.1602774E+04  0.7818609E-02  0.8818845E-01
        2   -1    0    0  501    0  0.00000000000E+00  0.00000000000E+00  0.67715281970E+03  0.67715281971E+03  0.25500000920E-02 0.  1.
       -2   -1    0    0    0  501  0.00000000000E+00  0.00000000000E+00 -0.94841428732E+03  0.94841428733E+03  0.25500000920E-02 0. -1.
    10030    2    1    2    0    0  0.00000000000E+00  0.00000000000E+00 -0.27126146762E+03  0.16255671070E+04  0.16027743558E+04 0.  0.
        5    1    3    3  502    0 -0.16790985240E+03 -0.74137742203E+03 -0.39294140889E+03  0.85572147411E+03  0.46999998093E+01 0. -1.
       -5    1    3    3    0  502  0.16790985240E+03  0.74137742203E+03  0.12167994126E+03  0.76984563293E+03  0.46999998093E+01 0.  1.
</event>
<event>
 5   0  0.2467483E-04  0.1993657E+04  0.7818609E-02  0.8609592E-01
        2   -1    0    0  501    0  0.00000000000E+00  0.00000000000E+00  0.20359004339E+04  0.20359004339E+04  0.25500000920E-02 0.  1.
       -2   -1    0    0    0  501  0.00000000000E+00  0.00000000000E+00 -0.48807243538E+03  0.48807243538E+03  0.25500000920E-02 0. -1.
    10030    2    1    2    0    0  0.00000000000E+00  0.00000000000E+00  0.15478279986E+04  0.25239728693E+04  0.19936568240E+04 0.  0.
        4    1    3    3  502    0  0.27631850121E+03  0.81155647451E+03  0.14178217207E+04  0.16568632623E+04  0.12699999809E+01 0.  1.
       -4    1    3    3    0  502 -0.27631850121E+03 -0.81155647451E+03  0.13000627791E+03  0.86710960705E+03  0.12699999809E+01 0. -1.
</event>
<event>
 5   0  0.1042395E-04  0.2235865E+04  0.7818609E-02  0.8503647E-01
       -1   -1    0    0    0  501  0.00000000000E+00  0.00000000000E+00  0.82769533208E+03  0.82769533209E+03  0.50400001928E-02 0. -1.
        1   -1    0    0  501    0  0.00000000000E+00  0.00000000000E+00 -0.15099430420E+04  0.15099430420E+04  0.50400001928E-02 0.  1.
    10030    2    1    2    0    0  0.00000000000E+00  0.00000000000E+00 -0.68224770995E+03  0.23376383741E+04  0.22358647612E+04 0.  0.
        3    1    3    3  502    0  0.14506718507E+03  0.71648705884E+03  0.54317396808E+03  0.91073385985E+03  0.10100000352E+00 0. -1.
       -3    1    3    3    0  502 -0.14506718507E+03 -0.71648705884E+03 -0.12254216780E+04  0.14269045143E+04  0.10100000352E+00 0.  1.
</event>
<event>
 5   0  0.1042395E-04  0.1869875E+04  0.7818609E-02  0.8669999E-01
       -1   -1    0    0    0  501  0.00000000000E+00  0.00000000000E+00  0.61290010879E+03  0.61290010881E+03  0.50400001928E-02 0. -1.
        1   -1    0    0  501    0  0.00000000000E+00  0.00000000000E+00 -0.14261833937E+04  0.14261833937E+04  0.50400001928E-02 0.  1.
    10030    2    1    2    0    0  0.00000000000E+00  0.00000000000E+00 -0.81328328490E+03  0.20390835025E+04  0.18698748163E+04 0.  0.
        3    1    3    3  502    0 -0.34150750514E+03  0.87031167689E+03 -0.41337766976E+03  0.10222283987E+04  0.10100000352E+00 0. -1.
       -3    1    3    3    0  502  0.34150750514E+03 -0.87031167689E+03 -0.39990561514E+03  0.10168551038E+04  0.10100000352E+00 0.  1.
</event>
<event>
 5   0  0.2512839E-04  0.1807947E+04  0.7818609E-02  0.8702085E-01
       -2   -1    0    0    0  501  0.00000000000E+00  0.00000000000E+00  0.68007100196E+03  0.68007100197E+03  0.25500000920E-02 0. -1.
        2   -1    0    0  501    0  0.00000000000E+00  0.00000000000E+00 -0.12015917680E+04  0.12015917680E+04  0.25500000920E-02 0.  1.
    10030    2    1    2    0    0  0.00000000000E+00  0.00000000000E+00 -0.52152076602E+03  0.18816627700E+04  0.18079465895E+04 0.  0.
        3    1    3    3  502    0 -0.39945605718E+03 -0.47210190344E+03  0.42545774139E+03  0.75063949321E+03  0.10100000352E+00 0. -1.
       -3    1    3    3    0  502  0.39945605718E+03  0.47210190344E+03 -0.94697850741E+03  0.11310232767E+04  0.10100000352E+00 0.  1.
</event>
<event>
 5   0  0.2467483E-04  0.1968490E+04  0.7818609E-02  0.8621496E-01
       -2   -1    0    0    0  501  0.00000000000E+00  0.00000000000E+00  0.39390002238E+03  0.39390002239E+03  0.25500000920E-02 0.  1.
        2   -1    0    0  501    0  0.00000000000E+00  0.00000000000E+00 -0.24593495604E+04  0.24593495604E+04  0.25500000920E-02 0. -1.
    10030    2    1    2    0    0  0.00000000000E+00  0.00000000000E+00 -0.20654495380E+04  0.28532495828E+04  0.19684896209E+04 0.  0.
        4    1    3    3  502    0 -0.98269217604E+03  0.12465264481E+02 -0.95471010204E+03  0.13701504616E+04  0.12699999809E+01 0.  1.
       -4    1    3    3    0  502  0.98269217604E+03 -0.12465264481E+02 -0.11107394360E+04  0.14830991212E+04  0.12699999809E+01 0. -1.
</event>
<event>
 5   0  0.1186038E-04  0.2094267E+04  0.7818609E-02  0.8563773E-01
        1   -1    0    0  501    0  0.00000000000E+00  0.00000000000E+00  0.97930668172E+03  0.97930668173E+03  0.50400001928E-02 0. -1.
       -1   -1    0    0    0  501  0.00000000000E+00  0.00000000000E+00 -0.11196581285E+04  0.11196581285E+04  0.50400001928E-02 0.  1.
    10030    2    1    2    0    0  0.00000000000E+00  0.00000000000E+00 -0.14035144677E+03  0.20989648102E+04  0.20942671143E+04 0.  0.
        4    1    3    3  502    0 -0.72495834878E+03 -0.75463475528E+03 -0.32026549925E+02  0.10469314849E+04  0.12699999809E+01 0.  1.
       -4    1    3    3    0  502  0.72495834878E+03  0.75463475528E+03 -0.10832489685E+03  0.10520333253E+04  0.12699999809E+01 0. -1.
</event>
<event>
 5   0  0.1122711E-04  0.2105727E+04  0.7818609E-02  0.8558725E-01
        1   -1    0    0  501    0  0.00000000000E+00  0.00000000000E+00  0.13183615900E+04  0.13183615900E+04  0.50400001928E-02 0. -1.
       -1   -1    0    0    0  501  0.00000000000E+00  0.00000000000E+00 -0.84083260954E+03  0.84083260956E+03  0.50400001928E-02 0.  1.
    10030    2    1    2    0    0  0.00000000000E+00  0.00000000000E+00  0.47752898045E+03  0.21591941996E+04  0.21057268731E+04 0.  0.
        1    1    3    3  502    0  0.23792424855E+03 -0.21992235206E+02  0.12901931435E+04  0.13121318356E+04  0.50400001928E-02 0. -1.
       -1    1    3    3    0  502 -0.23792424855E+03  0.21992235206E+02 -0.81266416306E+03  0.84706236394E+03  0.50400001928E-02 0.  1.
</event>
<event>
 5   0  0.1156733E-04  0.2114277E+04  0.7818609E-02  0.8554980E-01
       -1   -1    0    0    0  501  0.00000000000E+00  0.00000000000E+00  0.77056293860E+03  0.77056293861E+03  0.50400001928E-02 0. -1.
        1   -1    0    0  501    0  0.00000000000E+00  0.00000000000E+00 -0.14502923857E+04  0.14502923857E+04  0.50400001928E-02 0.  1.
    10030    2    1    2    0    0  0.00000000000E+00  0.00000000000E+00 -0.67972944707E+03  0.22208553243E+04  0.21142767676E+04 0.  0.
        2    1    3    3  502    0  0.79716291998E+03  0.28599613997E+03  0.32470394135E+03  0.90702544761E+03  0.25500000920E-02 0. -1.
       -2    1    3    3    0  502 -0.79716291998E+03 -0.28599613997E+03 -0.10044333884E+04  0.13138298767E+04  0.25500000920E-02 0.  1.
</event>
<event>
 5   0  0.2467483E-04  0.2096507E+04  0.7818609E-02  0.8562783E-01
       -2   -1    0    0    0  501  0.00000000000E+00  0.00000000000E+00  0.39640864923E+03  0.39640864924E+03  0.25500000920E-02 0. -1.
        2   -1    0    0  501    0  0.00000000000E+00  0.00000000000E+00 -0.27719771531E+04  0.27719771531E+04  0.25500000920E-02 0.  1.
    10030    2    1    2    0    0  0.00000000000E+00  0.00000000000E+00 -0.23755685038E+04  0.31683858023E+04  0.20965073040E+04 0.  0.
        4    1    3    3  502    0  0.34119896799E+03 -0.63628522204E+03 -0.23363071644E+04  0.24453237820E+04  0.12699999809E+01 0.  1.
       -4    1    3    3    0  502 -0.34119896799E+03  0.63628522204E+03 -0.39261339446E+02  0.72306202031E+03  0.12699999809E+01 0. -1.
</event>
<event>
 5   0  0.2467483E-04  0.2143373E+04  0.7818609E-02  0.8542374E-01
        2   -1    0    0  501    0  0.00000000000E+00  0.00000000000E+00  0.86224111338E+03  0.86224111338E+03  0.25500000920E-02 0.  1.
       -2   -1    0    0    0  501  0.00000000000E+00  0.00000000000E+00 -0.13320084906E+04  0.13320084906E+04  0.25500000920E-02 0. -1.
    10030    2    1    2    0    0  0.00000000000E+00  0.00000000000E+00 -0.46976737720E+03  0.21942496040E+04  0.21433734942E+04 0.  0.
        4    1    3    3  502    0 -0.17839076976E+03  0.46548073661E+03  0.73632624605E+03  0.88919825485E+03  0.12699999809E+01 0.  1.
       -4    1    3    3    0  502  0.17839076976E+03 -0.46548073661E+03 -0.12060936233E+04  0.13050513491E+04  0.12699999809E+01 0. -1.
</event>
<event>
 5   0  0.2579241E-04  0.2033601E+04  0.7818609E-02  0.8591070E-01
       -2   -1    0    0    0  501  0.00000000000E+00  0.00000000000E+00  0.12603565058E+04  0.12603565058E+04  0.25500000920E-02 0.  1.
        2   -1    0    0  501    0  0.00000000000E+00  0.00000000000E+00 -0.82030992426E+03  0.82030992426E+03  0.25500000920E-02 0. -1.
    10030    2    1    2    0    0  0.00000000000E+00  0.00000000000E+00  0.44004658155E+03  0.20806664301E+04  0.20336006981E+04 0.  0.
        5    1    3    3  502    0  0.43584752504E+03  0.84296636901E+03 -0.15353708588E+03  0.96132777506E+03  0.46999998093E+01 0. -1.
       -5    1    3    3    0  502 -0.43584752504E+03 -0.84296636901E+03  0.59358366743E+03  0.11193386550E+04  0.46999998093E+01 0.  1.
</event>
<event>
 5   0  0.1042395E-04  0.2167739E+04  0.7818609E-02  0.8531977E-01
        1   -1    0    0  501    0  0.00000000000E+00  0.00000000000E+00  0.12543215246E+04  0.12543215246E+04  0.50400001928E-02 0. -1.
       -1   -1    0    0    0  501  0.00000000000E+00  0.00000000000E+00 -0.93658019919E+03  0.93658019920E+03  0.50400001928E-02 0.  1.
    10030    2    1    2    0    0  0.00000000000E+00  0.00000000000E+00  0.31774132543E+03  0.21909017238E+04  0.21677386405E+04 0.  0.
        3    1    3    3  502    0  0.10331616072E+04  0.32231915110E+03  0.21832226017E+03  0.11040729873E+04  0.10100000352E+00 0. -1.
       -3    1    3    3    0  502 -0.10331616072E+04 -0.32231915110E+03  0.99419065262E+02  0.10868287365E+04  0.10100000352E+00 0.  1.
</event>
<event>
 5   0  0.1156733E-04  0.2107112E+04  0.7818609E-02  0.8558117E-01
       -1   -1    0    0    0  501  0.00000000000E+00  0.00000000000E+00  0.73757456053E+03  0.73757456055E+03  0.50400001928E-02 0.  1.
        1   -1    0    0  501    0  0.00000000000E+00  0.00000000000E+00 -0.15049059770E+04  0.15049059770E+04  0.50400001928E-02 0. -1.
    10030    2    1    2    0    0  0.00000000000E+00  0.00000000000E+00 -0.76733141644E+03  0.22424805375E+04  0.21071121134E+04 0.  0.
        2    1    3    3  502    0  0.29935024209E+03 -0.94153994068E+03 -0.77305720331E+03  0.12544821509E+04  0.25500000920E-02 0. -1.
       -2    1    3    3    0  502 -0.29935024209E+03  0.94153994068E+03  0.57257868693E+01  0.98799838663E+03  0.25500000920E-02 0.  1.
</event>
<event>
 5   0  0.2430898E-04  0.2089452E+04  0.7818609E-02  0.8565904E-01
        2   -1    0    0  501    0  0.00000000000E+00  0.00000000000E+00  0.14435209798E+04  0.14435209798E+04  0.25500000920E-02 0. -1.
       -2   -1    0    0    0  501  0.00000000000E+00  0.00000000000E+00 -0.75610460082E+03  0.75610460082E+03  0.25500000920E-02 0.  1.
    10030    2    1    2    0    0  0.00000000000E+00  0.00000000000E+00  0.68741637895E+03  0.21996255806E+04  0.20894524203E+04 0.  0.
        1    1    3    3  502    0  0.71815736120E+03 -0.69754542872E+03  0.65800220136E+03  0.11980344392E+04  0.50400001928E-02 0.  1.
       -1    1    3    3    0  502 -0.71815736120E+03  0.69754542872E+03  0.29414177589E+02  0.10015911414E+04  0.50400001928E-02 0. -1.
</event>
<event>
 5   0  0.1186038E-04  0.2093730E+04  0.7818609E-02  0.8564011E-01
        1   -1    0    0  501    0  0.00000000000E+00  0.00000000000E+00  0.97278917680E+03  0.97278917681E+03  0.50400001928E-02 0. -1.
       -1   -1    0    0    0  501  0.00000000000E+00  0.00000000000E+00 -0.11265812183E+04  0.11265812184E+04  0.50400001928E-02 0.  1.
    10030    2    1    2    0    0  0.00000000000E+00  0.00000000000E+00 -0.15379204154E+03  0.20993703952E+04  0.20937297018E+04 0.  0.
        4    1    3    3  502    0 -0.52225069974E+03 -0.77824255919E+02 -0.98327934137E+03  0.11160834576E+04  0.12699999809E+01 0.  1.
       -4    1    3    3    0  502  0.52225069974E+03  0.77824255919E+02  0.82948729982E+03  0.98328693760E+03  0.12699999809E+01 0. -1.
</event>
<event>
 5   0  0.2467483E-04  0.2141594E+04  0.7818609E-02  0.8543139E-01
       -2   -1    0    0    0  501  0.00000000000E+00  0.00000000000E+00  0.71217855350E+03  0.71217855350E+03  0.25500000920E-02 0.  1.
        2   -1    0    0  501    0  0.00000000000E+00  0.00000000000E+00 -0.16099987508E+04  0.16099987508E+04  0.25500000920E-02 0. -1.
    10030    2    1    2    0    0  0.00000000000E+00  0.00000000000E+00 -0.89782019732E+03  0.23221773043E+04  0.21415943421E+04 0.  0.
        4    1    3    3  502    0 -0.43846177233E+03 -0.92123551107E+03 -0.96411499914E+02  0.10248026068E+04  0.12699999809E+01 0.  1.
       -4    1    3    3    0  502  0.43846177233E+03  0.92123551107E+03 -0.80140869741E+03  0.12973746975E+04  0.12699999809E+01 0. -1.
</event>
<event>
 5   0  0.8698750E-05  0.2142746E+04  0.7818609E-02  0.8542644E-01
        3   -1    0    0  501    0  0.00000000000E+00  0.00000000000E+00  0.15366535163E+04  0.15366535196E+04  0.10100000352E+00 0.  1.
       -3   -1    0    0    0  501  0.00000000000E+00  0.00000000000E+00 -0.74697387586E+03  0.74697388269E+03  0.10100000352E+00 0. -1.
    10030    2    1    2    0    0  0.00000000000E+00  0.00000000000E+00  0.78967964040E+03  0.22836274023E+04  0.21427459434E+04 0.  0.
        5    1    3    3  502    0 -0.75880150110E+03 -0.65723462391E+03 -0.40417799411E+01  0.10038802194E+04  0.46999998093E+01 0. -1.
       -5    1    3    3    0  502  0.75880150110E+03  0.65723462391E+03  0.79372142034E+03  0.12797471829E+04  0.46999998093E+01 0.  1.
</event>
<event>
 5   0  0.2448804E-04  0.1453286E+04  0.7818609E-02  0.8916125E-01
        2   -1    0    0  501    0  0.00000000000E+00  0.00000000000E+00  0.15583074675E+04  0.15583074675E+04  0.25500000920E-02 0. -1.
       -2   -1    0    0    0  501  0.00000000000E+00  0.00000000000E+00 -0.33883569673E+03  0.33883569674E+03  0.25500000920E-02 0.  1.
    10030    2    1    2    0    0  0.00000000000E+00  0.00000000000E+00  0.12194717708E+04  0.18971431643E+04  0.14532862024E+04 0.  0.
        2    1    3    3  502    0  0.50102902272E+03 -0.44436707436E+02  0.12943086863E+04  0.13886107007E+04  0.25500000920E-02 0. -1.
       -2    1    3    3    0  502 -0.50102902272E+03  0.44436707436E+02 -0.74836915527E+02  0.50853246358E+03  0.25500000920E-02 0.  1.
</event>
<event>
 5   0  0.1122711E-04  0.2150060E+04  0.7818609E-02  0.8539506E-01
        1   -1    0    0  501    0  0.00000000000E+00  0.00000000000E+00  0.11034070615E+04  0.11034070615E+04  0.50400001928E-02 0.  1.
       -1   -1    0    0    0  501  0.00000000000E+00  0.00000000000E+00 -0.10473831674E+04  0.10473831675E+04  0.50400001928E-02 0. -1.
    10030    2    1    2    0    0  0.00000000000E+00  0.00000000000E+00  0.56023894044E+02  0.21507902289E+04  0.21500604485E+04 0.  0.
        1    1    3    3  502    0  0.38466726516E+03  0.36201509088E+03  0.96463426942E+03  0.10997923007E+04  0.50400001928E-02 0.  1.
       -1    1    3    3    0  502 -0.38466726516E+03 -0.36201509088E+03 -0.90861037538E+03  0.10509979282E+04  0.50400001928E-02 0. -1.
</event>
<event>
 5   0  0.2467483E-04  0.1826918E+04  0.7818609E-02  0.8692114E-01
       -2   -1    0    0    0  501  0.00000000000E+00  0.00000000000E+00  0.11094448348E+04  0.11094448348E+04  0.25500000920E-02 0. -1.
        2   -1    0    0  501    0  0.00000000000E+00  0.00000000000E+00 -0.75209461552E+03  0.75209461553E+03  0.25500000920E-02 0.  1.
    10030    2    1    2    0    0  0.00000000000E+00  0.00000000000E+00  0.35735021923E+03  0.18615394503E+04  0.18269181552E+04 0.  0.
        4    1    3    3  502    0 -0.77051452452E+03 -0.46220442326E+03  0.34635461565E+03  0.96295830338E+03  0.12699999809E+01 0.  1.
       -4    1    3    3    0  502  0.77051452452E+03  0.46220442326E+03  0.10995603586E+02  0.89858114691E+03  0.12699999809E+01 0. -1.
</event>
<event>
 5   0  0.1042395E-04  0.2011544E+04  0.7818609E-02  0.8601242E-01
       -1   -1    0    0    0  501  0.00000000000E+00  0.00000000000E+00  0.84807983141E+03  0.84807983142E+03  0.50400001928E-02 0. -1.
        1   -1    0    0  501    0  0.00000000000E+00  0.00000000000E+00 -0.11927853566E+04  0.11927853567E+04  0.50400001928E-02 0.  1.
    10030    2    1    2    0    0  0.00000000000E+00  0.00000000000E+00 -0.34470552524E+03  0.20408651881E+04  0.20115438889E+04 0.  0.
        3    1    3    3  502    0  0.75208378290E+03 -0.66178301799E+03 -0.81660661797E+02  0.10051145473E+04  0.10100000352E+00 0.  1.
       -3    1    3    3    0  502 -0.75208378290E+03  0.66178301799E+03 -0.26304486344E+03  0.10357506407E+04  0.10100000352E+00 0. -1.
</event>
<event>
 5   0  0.2579241E-04  0.2074855E+04  0.7818609E-02  0.8572401E-01
        2   -1    0    0  501    0  0.00000000000E+00  0.00000000000E+00  0.23444595268E+04  0.23444595268E+04  0.25500000920E-02 0. -1.
       -2   -1    0    0    0  501  0.00000000000E+00  0.00000000000E+00 -0.45906369621E+03  0.45906369622E+03  0.25500000920E-02 0.  1.
    10030    2    1    2    0    0  0.00000000000E+00  0.00000000000E+00  0.18853958306E+04  0.28035232230E+04  0.20748554224E+04 0.  0.
        5    1    3    3  502    0  0.62732633810E+03  0.12787575556E+03 -0.16027650507E+03  0.66000090259E+03  0.46999998093E+01 0.  1.
       -5    1    3    3    0  502 -0.62732633810E+03 -0.12787575556E+03  0.20456723356E+04  0.21435223204E+04  0.46999998093E+01 0. -1.
</event>
<event>
 5   0  0.2579241E-04  0.2144925E+04  0.7818609E-02  0.8541708E-01
       -2   -1    0    0    0  501  0.00000000000E+00  0.00000000000E+00  0.66643621445E+03  0.66643621446E+03  0.25500000920E-02 0. -1.
        2   -1    0    0  501    0  0.00000000000E+00  0.00000000000E+00 -0.17258605867E+04  0.17258605867E+04  0.25500000920E-02 0.  1.
    10030    2    1    2    0    0  0.00000000000E+00  0.00000000000E+00 -0.10594243723E+04  0.23922968012E+04  0.21449251699E+04 0.  0.
        5    1    3    3  502    0  0.36921010544E+03 -0.93716179549E+03 -0.11905670731E+03  0.10142903541E+04  0.46999998093E+01 0. -1.
       -5    1    3    3    0  502 -0.36921010544E+03  0.93716179549E+03 -0.94036766497E+03  0.13780064471E+04  0.46999998093E+01 0.  1.
</event>
<event>
 5   0  0.2430898E-04  0.2061591E+04  0.7818609E-02  0.8578354E-01
       -2   -1    0    0    0  501  0.00000000000E+00  0.00000000000E+00  0.76594949875E+03  0.76594949876E+03  0.25500000920E-02 0. -1.
        2   -1    0    0  501    0  0.00000000000E+00  0.00000000000E+00 -0.13872182585E+04  0.13872182585E+04  0.25500000920E-02 0.  1.
    10030    2    1    2    0    0  0.00000000000E+00  0.00000000000E+00 -0.62126875973E+03  0.21531677572E+04  0.20615907739E+04 0.  0.
        1    1    3    3  502    0 -0.36716936136E+03 -0.70696768622E+03  0.37258150780E+03  0.87945075431E+03  0.50400001928E-02 0. -1.
       -1    1    3    3    0  502  0.36716936136E+03  0.70696768622E+03 -0.99385026752E+03  0.12737170029E+04  0.50400001928E-02 0.  1.
</event>
<event>
 5   0  0.1186038E-04  0.2374393E+04  0.7818609E-02  0.8449153E-01
        1   -1    0    0  501    0  0.00000000000E+00  0.00000000000E+00  0.73024519506E+03  0.73024519507E+03  0.50400001928E-02 0.  1.
       -1   -1    0    0    0  501  0.00000000000E+00  0.00000000000E+00 -0.19300857204E+04  0.19300857204E+04  0.50400001928E-02 0. -1.
    10030    2    1    2    0    0  0.00000000000E+00  0.00000000000E+00 -0.11998405254E+04  0.26603309155E+04  0.23743932475E+04 0.  0.
        4    1    3    3  502    0  0.10290468416E+04  0.28631193788E+03 -0.19325414336E+02  0.10683103540E+04  0.12699999809E+01 0.  1.
       -4    1    3    3    0  502 -0.10290468416E+04 -0.28631193788E+03 -0.11805151110E+04  0.15920205615E+04  0.12699999809E+01 0. -1.
</event>
<event>
 5   0  0.1042395E-04  0.2216781E+04  0.7818609E-02  0.8511476E-01
       -1   -1    0    0    0  501  0.00000000000E+00  0.00000000000E+00  0.68752833849E+03  0.68752833850E+03  0.50400001928E-02 0. -1.
        1   -1    0    0  501    0  0.00000000000E+00  0.00000000000E+00 -0.17868784244E+04  0.17868784244E+04  0.50400001928E-02 0.  1.
    10030    2    1    2    0    0  0.00000000000E+00  0.00000000000E+00 -0.10993500859E+04  0.24744067629E+04  0.22167810485E+04 0.  0.
        3    1    3    3  502    0 -0.39242131575E+03  0.57657466311E+03  0.41188973762E+03  0.80999135634E+03  0.10100000352E+00 0. -1.
       -3    1    3    3    0  502  0.39242131575E+03 -0.57657466311E+03 -0.15112398235E+04  0.16644154065E+04  0.10100000352E+00 0.  1.
</event>
<event>
 5   0  0.1042395E-04  0.2076731E+04  0.7818609E-02  0.8571563E-01
       -1   -1    0    0    0  501  0.00000000000E+00  0.00000000000E+00  0.88186733649E+03  0.88186733650E+03  0.50400001928E-02 0.  1.
        1   -1    0    0  501    0  0.00000000000E+00  0.00000000000E+00 -0.12226365003E+04  0.12226365003E+04  0.50400001928E-02 0. -1.
    10030    2    1    2    0    0  0.00000000000E+00  0.00000000000E+00 -0.34076916384E+03  0.21045038368E+04  0.20767312720E+04 0.  0.
        3    1    3    3  502    0  0.18095015887E+03 -0.74414180405E+03  0.54021566230E+03  0.93718885851E+03  0.10100000352E+00 0.  1.
       -3    1    3    3    0  502 -0.18095015887E+03  0.74414180405E+03 -0.88098482614E+03  0.11673149783E+04  0.10100000352E+00 0. -1.
</event>
<event>
 5   0  0.2467483E-04  0.2029606E+04  0.7818609E-02  0.8592903E-01
       -2   -1    0    0    0  501  0.00000000000E+00  0.00000000000E+00  0.85880437183E+03  0.85880437183E+03  0.25500000920E-02 0. -1.
        2   -1    0    0  501    0  0.00000000000E+00  0.00000000000E+00 -0.11991381940E+04  0.11991381940E+04  0.25500000920E-02 0.  1.
    10030    2    1    2    0    0  0.00000000000E+00  0.00000000000E+00 -0.34033382217E+03  0.20579425658E+04  0.20296059947E+04 0.  0.
        4    1    3    3  502    0 -0.88561118248E+03  0.55144380576E+02 -0.66945981330E+03  0.11115422276E+04  0.12699999809E+01 0.  1.
       -4    1    3    3    0  502  0.88561118248E+03 -0.55144380576E+02  0.32912599113E+03  0.94640033822E+03  0.12699999809E+01 0. -1.
</event>
<event>
 5   0  0.1130848E-04  0.2237500E+04  0.7818609E-02  0.8502980E-01
        1   -1    0    0  501    0  0.00000000000E+00  0.00000000000E+00  0.10904025849E+04  0.10904025849E+04  0.50400001928E-02 0. -1.
       -1   -1    0    0    0  501  0.00000000000E+00  0.00000000000E+00 -0.11478339439E+04  0.11478339439E+04  0.50400001928E-02 0.  1.
    10030    2    1    2    0    0  0.00000000000E+00  0.00000000000E+00 -0.57431359054E+02  0.22382365288E+04  0.22374995861E+04 0.  0.
        5    1    3    3  502    0  0.37382424427E+03  0.56482321921E+03 -0.91940726479E+03  0.11419726981E+04  0.46999998093E+01 0.  1.
       -5    1    3    3    0  502 -0.37382424427E+03 -0.56482321921E+03  0.86197590573E+03  0.10962638308E+04  0.46999998093E+01 0. -1.
</event>
<event>
 5   0  0.1122711E-04  0.2095090E+04  0.7818609E-02  0.8563409E-01
       -1   -1    0    0    0  501  0.00000000000E+00  0.00000000000E+00  0.19020465720E+04  0.19020465720E+04  0.50400001928E-02 0. -1.
        1   -1    0    0  501    0  0.00000000000E+00  0.00000000000E+00 -0.57693159008E+03  0.57693159010E+03  0.50400001928E-02 0.  1.
    10030    2    1    2    0    0  0.00000000000E+00  0.00000000000E+00  0.13251149819E+04  0.24789781621E+04  0.20950902159E+04 0.  0.
        1    1    3    3  502    0  0.16627945073E+03  0.59805672951E+03  0.16609909635E+04  0.17731925130E+04  0.50400001928E-02 0. -1.
       -1    1    3    3    0  502 -0.16627945073E+03 -0.59805672951E+03 -0.33587598156E+03  0.70578564909E+03  0.50400001928E-02 0.  1.
</event>
<event>
 5   0  0.1156733E-04  0.2081272E+04  0.7818609E-02  0.8569538E-01
       -1   -1    0    0    0  501  0.00000000000E+00  0.00000000000E+00  0.66103829154E+03  0.66103829156E+03  0.50400001928E-02 0. -1.
        1   -1    0    0  501    0  0.00000000000E+00  0.00000000000E+00 -0.16382152306E+04  0.16382152306E+04  0.50400001928E-02 0.  1.
    10030    2    1    2    0    0  0.00000000000E+00  0.00000000000E+00 -0.97717693902E+03  0.22992535221E+04  0.20812717239E+04 0.  0.
        2    1    3    3  502    0 -0.97347341817E+03  0.34698682507E+03 -0.35386223376E+03  0.10923684512E+04  0.25500000920E-02 0.  1.
       -2    1    3    3    0  502  0.97347341817E+03 -0.34698682507E+03 -0.62331470525E+03  0.12068850709E+04  0.25500000920E-02 0. -1.
</event>
<event>
 5   0  0.2512839E-04  0.2026021E+04  0.7818609E-02  0.8594551E-01
        2   -1    0    0  501    0  0.00000000000E+00  0.00000000000E+00  0.92764515294E+03  0.92764515294E+03  0.25500000920E-02 0.  1.
       -2   -1    0    0    0  501  0.00000000000E+00  0.00000000000E+00 -0.11062311001E+04  0.11062311001E+04  0.25500000920E-02 0. -1.
    10030    2    1    2    0    0  0.00000000000E+00  0.00000000000E+00 -0.17858594717E+03  0.20338762531E+04  0.20260206495E+04 0.  0.
        3    1    3    3  502    0 -0.72246159982E+03 -0.36669374067E+03  0.52115596110E+03  0.96333722479E+03  0.10100000352E+00 0.  1.
       -3    1    3    3    0  502  0.72246159982E+03  0.36669374067E+03 -0.69974190827E+03  0.10705390283E+04  0.10100000352E+00 0. -1.
</event>
<event>
 5   0  0.2467483E-04  0.2138520E+04  0.7818609E-02  0.8544462E-01
       -2   -1    0    0    0  501  0.00000000000E+00  0.00000000000E+00  0.47917667923E+03  0.47917667923E+03  0.25500000920E-02 0.  1.
        2   -1    0    0  501    0  0.00000000000E+00  0.00000000000E+00 -0.23860028638E+04  0.23860028638E+04  0.25500000920E-02 0. -1.
    10030    2    1    2    0    0  0.00000000000E+00  0.00000000000E+00 -0.19068261846E+04  0.28651795430E+04  0.21385199825E+04 0.  0.
        4    1    3    3  502    0 -0.77545199113E+03  0.63951454619E+03 -0.14420449411E+04  0.17577826573E+04  0.12699999809E+01 0. -1.
       -4    1    3    3    0  502  0.77545199113E+03 -0.63951454619E+03 -0.46478124350E+03  0.11073968857E+04  0.12699999809E+01 0.  1.
</event>
<event>
 5   0  0.2430898E-04  0.2109662E+04  0.7818609E-02  0.8556999E-01
       -2   -1    0    0    0  501  0.00000000000E+00  0.00000000000E+00  0.47355917503E+03  0.47355917504E+03  0.25500000920E-02 0.  1.
        2   -1    0    0  501    0  0.00000000000E+00  0.00000000000E+00 -0.23495873275E+04  0.23495873275E+04  0.25500000920E-02 0. -1.
    10030    2    1    2    0    0  0.00000000000E+00  0.00000000000E+00 -0.18760281524E+04  0.28231465025E+04  0.21096621876E+04 0.  0.
        1    1    3    3  502    0  0.68069445891E+03  0.39092070255E+03  0.49218358871E+01  0.78497653887E+03  0.50400001928E-02 0.  1.
       -1    1    3    3    0  502 -0.68069445891E+03 -0.39092070255E+03 -0.18809499883E+04  0.20381699636E+04  0.50400001928E-02 0. -1.
</event>
<event>
 5   0  0.2512839E-04  0.2152712E+04  0.7818609E-02  0.8538372E-01
       -2   -1    0    0    0  501  0.00000000000E+00  0.00000000000E+00  0.11351895625E+04  0.11351895625E+04  0.25500000920E-02 0.  1.
        2   -1    0    0  501    0  0.00000000000E+00  0.00000000000E+00 -0.10205713662E+04  0.10205713662E+04  0.25500000920E-02 0. -1.
    10030    2    1    2    0    0  0.00000000000E+00  0.00000000000E+00  0.11461819631E+03  0.21557609287E+04  0.21527117436E+04 0.  0.
        3    1    3    3  502    0  0.64767462829E+03 -0.60758980348E+03  0.66635980732E+03  0.11102626700E+04  0.10100000352E+00 0.  1.
       -3    1    3    3    0  502 -0.64767462829E+03  0.60758980348E+03 -0.55174161101E+03  0.10454982587E+04  0.10100000352E+00 0. -1.
</event>
<event>
 5   0  0.1130848E-04  0.2055862E+04  0.7818609E-02  0.8580940E-01
       -1   -1    0    0    0  501  0.00000000000E+00  0.00000000000E+00  0.12589022371E+04  0.12589022371E+04  0.50400001928E-02 0.  1.
        1   -1    0    0  501    0  0.00000000000E+00  0.00000000000E+00 -0.83933624948E+03  0.83933624949E+03  0.50400001928E-02 0. -1.
    10030    2    1    2    0    0  0.00000000000E+00  0.00000000000E+00  0.41956598759E+03  0.20982384866E+04  0.20558621375E+04 0.  0.
        5    1    3    3  502    0 -0.91309391978E+03 -0.41701468353E+03 -0.16089492588E+02  0.10039535419E+04  0.46999998093E+01 0. -1.
       -5    1    3    3    0  502  0.91309391978E+03  0.41701468353E+03  0.43565548018E+03  0.10942849446E+04  0.46999998093E+01 0.  1.
</event>
<event>
 5   0  0.1186038E-04  0.2045714E+04  0.7818609E-02  0.8585541E-01
        1   -1    0    0  501    0  0.00000000000E+00  0.00000000000E+00  0.24335543370E+04  0.24335543370E+04  0.50400001928E-02 0. -1.
       -1   -1    0    0    0  501  0.00000000000E+00  0.00000000000E+00 -0.42992134225E+03  0.42992134228E+03  0.50400001928E-02 0.  1.
    10030    2    1    2    0    0  0.00000000000E+00  0.00000000000E+00  0.20036329947E+04  0.28634756793E+04  0.20457144933E+04 0.  0.
        4    1    3    3  502    0  0.34792826177E+03 -0.74096795969E+03  0.18602916034E+04  0.20324305782E+04  0.12699999809E+01 0. -1.
       -4    1    3    3    0  502 -0.34792826177E+03  0.74096795969E+03  0.14334139132E+03  0.83104510106E+03  0.12699999809E+01 0.  1.
</event>
<event>
 5   0  0.1130848E-04  0.1981203E+04  0.7818609E-02  0.8615460E-01
       -1   -1    0    0    0  501  0.00000000000E+00  0.00000000000E+00  0.10830418153E+04  0.10830418154E+04  0.50400001928E-02 0. -1.
        1   -1    0    0  501    0  0.00000000000E+00  0.00000000000E+00 -0.90605088896E+03  0.90605088897E+03  0.50400001928E-02 0.  1.
    10030    2    1    2    0    0  0.00000000000E+00  0.00000000000E+00  0.17699092639E+03  0.19890927043E+04  0.19812026646E+04 0.  0.
        5    1    3    3  502    0 -0.70032439860E+03  0.49358751218E+03  0.58765350045E+03  0.10389618001E+04  0.46999998093E+01 0.  1.
       -5    1    3    3    0  502  0.70032439860E+03 -0.49358751218E+03 -0.41066257406E+03  0.95013090424E+03  0.46999998093E+01 0. -1.
</event>
<event>
 5   0  0.1042395E-04  0.1280325E+04  0.7818609E-02  0.9045315E-01
       -1   -1    0    0    0  501  0.00000000000E+00  0.00000000000E+00  0.38819646328E+03  0.38819646331E+03  0.50400001928E-02 0. -1.
        1   -1    0    0  501    0  0.00000000000E+00  0.00000000000E+00 -0.10556722216E+04  0.10556722216E+04  0.50400001928E-02 0.  1.
    10030    2    1    2    0    0  0.00000000000E+00  0.00000000000E+00 -0.66747575829E+03  0.14438686849E+04  0.12803253068E+04 0.  0.
        3    1    3    3  502    0 -0.15496448289E+03  0.47831846613E+03  0.11311548426E+03  0.51536168753E+03  0.10100000352E+00 0. -1.
       -3    1    3    3    0  502  0.15496448289E+03 -0.47831846613E+03 -0.78059124255E+03  0.92850699736E+03  0.10100000352E+00 0.  1.
</event>
<event>
 5   0  0.2467483E-04  0.1922231E+04  0.7818609E-02  0.8643869E-01
       -2   -1    0    0    0  501  0.00000000000E+00  0.00000000000E+00  0.49348832938E+03  0.49348832939E+03  0.25500000920E-02 0.  1.
        2   -1    0    0  501    0  0.00000000000E+00  0.00000000000E+00 -0.18718644015E+04  0.18718644015E+04  0.25500000920E-02 0. -1.
    10030    2    1    2    0    0  0.00000000000E+00  0.00000000000E+00 -0.13783760722E+04  0.23653527309E+04  0.19222312414E+04 0.  0.
        4    1    3    3  502    0 -0.18502815359E+03 -0.67148108404E+03 -0.15041440716E+04  0.16575805455E+04  0.12699999809E+01 0.  1.
       -4    1    3    3    0  502  0.18502815359E+03  0.67148108404E+03  0.12576799945E+03  0.70777218540E+03  0.12699999809E+01 0. -1.
</event>
<event>
 5   0  0.2430898E-04  0.2081331E+04  0.7818609E-02  0.8569512E-01
       -2   -1    0    0    0  501  0.00000000000E+00  0.00000000000E+00  0.57382277069E+03  0.57382277069E+03  0.25500000920E-02 0. -1.
        2   -1    0    0  501    0  0.00000000000E+00  0.00000000000E+00 -0.18873151982E+04  0.18873151982E+04  0.25500000920E-02 0.  1.
    10030    2    1    2    0    0  0.00000000000E+00  0.00000000000E+00 -0.13134924275E+04  0.24611379689E+04  0.20813307629E+04 0.  0.
        1    1    3    3  502    0 -0.96838534705E+03 -0.78735601702E+02 -0.10976315230E+04  0.14658664454E+04  0.50400001928E-02 0.  1.
       -1    1    3    3    0  502  0.96838534705E+03  0.78735601702E+02 -0.21586090446E+03  0.99527152348E+03  0.50400001928E-02 0. -1.
</event>
<event>
 5   0  0.2448804E-04  0.2117138E+04  0.7818609E-02  0.8553731E-01
       -2   -1    0    0    0  501  0.00000000000E+00  0.00000000000E+00  0.86595854039E+03  0.86595854039E+03  0.25500000920E-02 0.  1.
        2   -1    0    0  501    0  0.00000000000E+00  0.00000000000E+00 -0.12940208759E+04  0.12940208759E+04  0.25500000920E-02 0. -1.
    10030    2    1    2    0    0  0.00000000000E+00  0.00000000000E+00 -0.42806233547E+03  0.21599794163E+04  0.21171380955E+04 0.  0.
        2    1    3    3  502    0 -0.24331665442E+03  0.41661338017E+03  0.74726604790E+03  0.88948088749E+03  0.25500000920E-02 0.  1.
       -2    1    3    3    0  502  0.24331665442E+03 -0.41661338017E+03 -0.11753283834E+04  0.12704985288E+04  0.25500000920E-02 0. -1.
</event>
<event>
 5   0  0.1042395E-04  0.2076598E+04  0.7818609E-02  0.8571623E-01
       -1   -1    0    0    0  501  0.00000000000E+00  0.00000000000E+00  0.62102807653E+03  0.62102807655E+03  0.50400001928E-02 0.  1.
        1   -1    0    0  501    0  0.00000000000E+00  0.00000000000E+00 -0.17359359023E+04  0.17359359024E+04  0.50400001928E-02 0. -1.
    10030    2    1    2    0    0  0.00000000000E+00  0.00000000000E+00 -0.11149078258E+04  0.23569639789E+04  0.20765981166E+04 0.  0.
        3    1    3    3  502    0  0.36523913317E+03  0.57175245050E+03  0.33464280317E+03  0.75649607069E+03  0.10100000352E+00 0.  1.
       -3    1    3    3    0  502 -0.36523913317E+03 -0.57175245050E+03 -0.14495506290E+04  0.16004679082E+04  0.10100000352E+00 0. -1.
</event>
<event>
 5   0  0.2512839E-04  0.2036509E+04  0.7818609E-02  0.8589739E-01
        2   -1    0    0  501    0  0.00000000000E+00  0.00000000000E+00  0.20433796393E+04  0.20433796393E+04  0.25500000920E-02 0. -1.
       -2   -1    0    0    0  501  0.00000000000E+00  0.00000000000E+00 -0.50741522470E+03  0.50741522471E+03  0.25500000920E-02 0.  1.
    10030    2    1    2    0    0  0.00000000000E+00  0.00000000000E+00  0.15359644146E+04  0.25507948640E+04  0.20365087172E+04 0.  0.
        3    1    3    3  502    0 -0.48585783927E+03  0.68253286771E+03  0.14928657047E+04  0.17118869641E+04  0.10100000352E+00 0. -1.
       -3    1    3    3    0  502  0.48585783927E+03 -0.68253286771E+03  0.43098709893E+02  0.83890789988E+03  0.10100000352E+00 0.  1.
</event>
<event>
 5   0  0.2579241E-04  0.1978019E+04  0.7818609E-02  0.8616967E-01
       -2   -1    0    0    0  501  0.00000000000E+00  0.00000000000E+00  0.50934641827E+03  0.50934641828E+03  0.25500000920E-02 0. -1.
        2   -1    0    0  501    0  0.00000000000E+00  0.00000000000E+00 -0.19203828719E+04  0.19203828719E+04  0.25500000920E-02 0.  1.
    10030    2    1    2    0    0  0.00000000000E+00  0.00000000000E+00 -0.14110364536E+04  0.24297292902E+04  0.19780193503E+04 0.  0.
        5    1    3    3  502    0 -0.52945461980E+03 -0.49291214297E+03 -0.15339439247E+04  0.16959630389E+04  0.46999998093E+01 0.  1.
       -5    1    3    3    0  502  0.52945461980E+03  0.49291214297E+03  0.12290747107E+03  0.73376625131E+03  0.46999998093E+01 0. -1.
</event>
<event>
 5   0  0.2430898E-04  0.2137694E+04  0.7818609E-02  0.8544818E-01
        2   -1    0    0  501    0  0.00000000000E+00  0.00000000000E+00  0.12344826325E+04  0.12344826325E+04  0.25500000920E-02 0. -1.
       -2   -1    0    0    0  501  0.00000000000E+00  0.00000000000E+00 -0.92543530387E+03  0.92543530387E+03  0.25500000920E-02 0.  1.
    10030    2    1    2    0    0  0.00000000000E+00  0.00000000000E+00  0.30904732863E+03  0.21599179364E+04  0.21376939071E+04 0.  0.
        1    1    3    3  502    0  0.73662119617E+03  0.15434213786E+03 -0.61231420049E+03  0.97023758034E+03  0.50400001928E-02 0.  1.
       -1    1    3    3    0  502 -0.73662119617E+03 -0.15434213786E+03  0.92136152912E+03  0.11896803560E+04  0.50400001928E-02 0. -1.
</event>
<event>
 5   0  0.1042395E-04  0.1904629E+04  0.7818609E-02  0.8652555E-01
        1   -1    0    0  501    0  0.00000000000E+00  0.00000000000E+00  0.87590751766E+03  0.87590751767E+03  0.50400001928E-02 0. -1.
       -1   -1    0    0    0  501  0.00000000000E+00  0.00000000000E+00 -0.10353870439E+04  0.10353870439E+04  0.50400001928E-02 0.  1.
    10030    2    1    2    0    0  0.00000000000E+00  0.00000000000E+00 -0.15947952621E+03  0.19112945616E+04  0.19046294080E+04 0.  0.
        3    1    3    3  502    0 -0.78337484575E+03  0.14288557120E+03 -0.60388055149E+03  0.99938189201E+03  0.10100000352E+00 0.  1.
       -3    1    3    3    0  502  0.78337484575E+03 -0.14288557120E+03  0.44440102528E+03  0.91191266955E+03  0.10100000352E+00 0. -1.
</event>
<event>
 5   0  0.1186038E-04  0.1397513E+04  0.7818609E-02  0.8955621E-01
        1   -1    0    0  501    0  0.00000000000E+00  0.00000000000E+00  0.10184070613E+04  0.10184070613E+04  0.50400001928E-02 0. -1.
       -1   -1    0    0    0  501  0.00000000000E+00  0.00000000000E+00 -0.47943579699E+03  0.47943579702E+03  0.50400001928E-02 0.  1.
    10030    2    1    2    0    0  0.00000000000E+00  0.00000000000E+00  0.53897126432E+03  0.14978428583E+04  0.13975132216E+04 0.  0.
        4    1    3    3  502    0 -0.45407414319E+03  0.44364724124E+02 -0.29776213977E+03  0.54480772851E+03  0.12699999809E+01 0.  1.
       -4    1    3    3    0  502  0.45407414319E+03 -0.44364724124E+02  0.83673340409E+03  0.95303512983E+03  0.12699999809E+01 0. -1.
</event>
<event>
 5   0  0.1042395E-04  0.2087070E+04  0.7818609E-02  0.8566960E-01
        1   -1    0    0  501    0  0.00000000000E+00  0.00000000000E+00  0.19187158580E+04  0.19187158580E+04  0.50400001928E-02 0.  1.
       -1   -1    0    0    0  501  0.00000000000E+00  0.00000000000E+00 -0.56754927337E+03  0.56754927339E+03  0.50400001928E-02 0. -1.
    10030    2    1    2    0    0  0.00000000000E+00  0.00000000000E+00  0.13511665846E+04  0.24862651314E+04  0.20870704742E+04 0.  0.
        3    1    3    3  502    0  0.28752503561E+03  0.63486025692E+02 -0.51703518502E+03  0.59500127253E+03  0.10100000352E+00 0. -1.
       -3    1    3    3    0  502 -0.28752503561E+03 -0.63486025692E+02  0.18682017696E+04  0.18912638588E+04  0.10100000352E+00 0.  1.
</event>
<event>
 5   0  0.2467483E-04  0.2010477E+04  0.7818609E-02  0.8601738E-01
       -2   -1    0    0    0  501  0.00000000000E+00  0.00000000000E+00  0.13739858961E+04  0.13739858961E+04  0.25500000920E-02 0.  1.
        2   -1    0    0  501    0  0.00000000000E+00  0.00000000000E+00 -0.73545485484E+03  0.73545485485E+03  0.25500000920E-02 0. -1.
    10030    2    1    2    0    0  0.00000000000E+00  0.00000000000E+00  0.63853104121E+03  0.21094407509E+04  0.20104771551E+04 0.  0.
        4    1    3    3  502    0  0.84376304044E+03 -0.10186634929E+02  0.89247524212E+03  0.12282318619E+04  0.12699999809E+01 0.  1.
       -4    1    3    3    0  502 -0.84376304044E+03  0.10186634929E+02 -0.25394420091E+03  0.88120888898E+03  0.12699999809E+01 0. -1.
</event>
<event>
 5   0  0.2579241E-04  0.2087402E+04  0.7818609E-02  0.8566813E-01
        2   -1    0    0  501    0  0.00000000000E+00  0.00000000000E+00  0.82743154199E+03  0.82743154200E+03  0.25500000920E-02 0. -1.
       -2   -1    0    0    0  501  0.00000000000E+00  0.00000000000E+00 -0.13164979270E+04  0.13164979271E+04  0.25500000920E-02 0.  1.
    10030    2    1    2    0    0  0.00000000000E+00  0.00000000000E+00 -0.48906638506E+03  0.21439294690E+04  0.20874021269E+04 0.  0.
        5    1    3    3  502    0  0.31331002756E+03 -0.76207066512E+02  0.77497995190E+03  0.83939663223E+03  0.46999998093E+01 0. -1.
       -5    1    3    3    0  502 -0.31331002756E+03  0.76207066512E+02 -0.12640463370E+04  0.13045328368E+04  0.46999998093E+01 0.  1.
</event>
<event>
 5   0  0.2448804E-04  0.2222548E+04  0.7818609E-02  0.8509101E-01
       -2   -1    0    0    0  501  0.00000000000E+00  0.00000000000E+00  0.85580768492E+03  0.85580768493E+03  0.25500000920E-02 0. -1.
        2   -1    0    0  501    0  0.00000000000E+00  0.00000000000E+00 -0.14429997496E+04  0.14429997496E+04  0.25500000920E-02 0.  1.
    10030    2    1    2    0    0  0.00000000000E+00  0.00000000000E+00 -0.58719206466E+03  0.22988074345E+04  0.22225483347E+04 0.  0.
        2    1    3    3  502    0  0.72464435073E+03 -0.30508147031E+02  0.57724890608E+03  0.92696088464E+03  0.25500000920E-02 0. -1.
       -2    1    3    3    0  502 -0.72464435073E+03  0.30508147031E+02 -0.11644409707E+04  0.13718465499E+04  0.25500000920E-02 0.  1.
</event>
<event>
 5   0  0.2512839E-04  0.2152322E+04  0.7818609E-02  0.8538539E-01
        2   -1    0    0  501    0  0.00000000000E+00  0.00000000000E+00  0.97523956999E+03  0.97523957000E+03  0.25500000920E-02 0. -1.
       -2   -1    0    0    0  501  0.00000000000E+00  0.00000000000E+00 -0.11875264768E+04  0.11875264768E+04  0.25500000920E-02 0.  1.
    10030    2    1    2    0    0  0.00000000000E+00  0.00000000000E+00 -0.21228690681E+03  0.21627660468E+04  0.21523222905E+04 0.  0.
        3    1    3    3  502    0  0.10144532923E+04 -0.35841723526E+03 -0.12958912682E+03  0.10836843400E+04  0.10100000352E+00 0.  1.
       -3    1    3    3    0  502 -0.10144532923E+04  0.35841723526E+03 -0.82697779997E+02  0.10790817068E+04  0.10100000352E+00 0. -1.
</event>
<event>
 5   0  0.2448804E-04  0.2052169E+04  0.7818609E-02  0.8582611E-01
        2   -1    0    0  501    0  0.00000000000E+00  0.00000000000E+00  0.17932675629E+04  0.17932675629E+04  0.25500000920E-02 0. -1.
       -2   -1    0    0    0  501  0.00000000000E+00  0.00000000000E+00 -0.58711249629E+03  0.58711249630E+03  0.25500000920E-02 0.  1.
    10030    2    1    2    0    0  0.00000000000E+00  0.00000000000E+00  0.12061550666E+04  0.23803800592E+04  0.20521693842E+04 0.  0.
        2    1    3    3  502    0  0.57726481124E+03 -0.42462759248E+03  0.14549036338E+04  0.16218162160E+04  0.25500000920E-02 0. -1.
       -2    1    3    3    0  502 -0.57726481124E+03  0.42462759248E+03 -0.24874856722E+03  0.75856384325E+03  0.25500000920E-02 0.  1.
</event>
<event>
 5   0  0.2512839E-04  0.2123139E+04  0.7818609E-02  0.8551118E-01
        2   -1    0    0  501    0  0.00000000000E+00  0.00000000000E+00  0.15905320159E+04  0.15905320159E+04  0.25500000920E-02 0.  1.
       -2   -1    0    0    0  501  0.00000000000E+00  0.00000000000E+00 -0.70852395080E+03  0.70852395081E+03  0.25500000920E-02 0. -1.
    10030    2    1    2    0    0  0.00000000000E+00  0.00000000000E+00  0.88200806512E+03  0.22990559667E+04  0.21231392115E+04 0.  0.
        3    1    3    3  502    0 -0.52740534849E+03  0.65801708267E+03 -0.25723897641E+03  0.88165457174E+03  0.10100000352E+00 0.  1.
       -3    1    3    3    0  502  0.52740534849E+03 -0.65801708267E+03  0.11392470415E+04  0.14174013950E+04  0.10100000352E+00 0. -1.
</event>
<event>
 5   0  0.2512839E-04  0.2085105E+04  0.7818609E-02  0.8567833E-01
        2   -1    0    0  501    0  0.00000000000E+00  0.00000000000E+00  0.98338613680E+03  0.98338613681E+03  0.25500000920E-02 0.  1.
       -2   -1    0    0    0  501  0.00000000000E+00  0.00000000000E+00 -0.11052782012E+04  0.11052782012E+04  0.25500000920E-02 0. -1.
    10030    2    1    2    0    0  0.00000000000E+00  0.00000000000E+00 -0.12189206441E+03  0.20886643380E+04  0.20851045637E+04 0.  0.
        3    1    3    3  502    0  0.35836372799E+03 -0.67673380798E+03 -0.76962968754E+03  0.10856901374E+04  0.10100000352E+00 0. -1.
       -3    1    3    3    0  502 -0.35836372799E+03  0.67673380798E+03  0.64773762313E+03  0.10029742006E+04  0.10100000352E+00 0.  1.
</event>
<event>
 5   0  0.2467483E-04  0.2079785E+04  0.7818609E-02  0.8570201E-01
        2   -1    0    0  501    0  0.00000000000E+00  0.00000000000E+00  0.19338039143E+04  0.19338039143E+04  0.25500000920E-02 0.  1.
       -2   -1    0    0    0  501  0.00000000000E+00  0.00000000000E+00 -0.55919659182E+03  0.55919659183E+03  0.25500000920E-02 0. -1.
    10030    2    1    2    0    0  0.00000000000E+00  0.00000000000E+00  0.13746073225E+04  0.24930005061E+04  0.20797851410E+04 0.  0.
        4    1    3    3  502    0 -0.57206204207E+02  0.96046136138E+03  0.11601625248E+04  0.15072283414E+04  0.12699999809E+01 0.  1.
       -4    1    3    3    0  502  0.57206204207E+02 -0.96046136138E+03  0.21444479771E+03  0.98577216468E+03  0.12699999809E+01 0. -1.
</event>
<event>
 5   0  0.1130848E-04  0.1969923E+04  0.7818609E-02  0.8620813E-01
       -1   -1    0    0    0  501  0.00000000000E+00  0.00000000000E+00  0.47320943204E+03  0.47320943207E+03  0.50400001928E-02 0. -1.
        1   -1    0    0  501    0  0.00000000000E+00  0.00000000000E+00 -0.20501466989E+04  0.20501466989E+04  0.50400001928E-02 0.  1.
    10030    2    1    2    0    0  0.00000000000E+00  0.00000000000E+00 -0.15769372669E+04  0.25233561310E+04  0.19699225924E+04 0.  0.
        5    1    3    3  502    0 -0.29092138343E+03 -0.92199514077E+03 -0.10295321212E+04  0.14123274300E+04  0.46999998093E+01 0.  1.
       -5    1    3    3    0  502  0.29092138343E+03  0.92199514077E+03 -0.54740514569E+03  0.11110287010E+04  0.46999998093E+01 0. -1.
</event>
<event>
 5   0  0.1156733E-04  0.1664965E+04  0.7818609E-02  0.8781602E-01
       -1   -1    0    0    0  501  0.00000000000E+00  0.00000000000E+00  0.78555735714E+03  0.78555735715E+03  0.50400001928E-02 0.  1.
        1   -1    0    0  501    0  0.00000000000E+00  0.00000000000E+00 -0.88221036837E+03  0.88221036838E+03  0.50400001928E-02 0. -1.
    10030    2    1    2    0    0  0.00000000000E+00  0.00000000000E+00 -0.96653011229E+02  0.16677677255E+04  0.16649646788E+04 0.  0.
        2    1    3    3  502    0  0.37500849247E+03  0.17974213933E+03 -0.77071206728E+03  0.87574864929E+03  0.25500000920E-02 0. -1.
       -2    1    3    3    0  502 -0.37500849247E+03 -0.17974213933E+03  0.67405905605E+03  0.79201907624E+03  0.25500000920E-02 0.  1.
</event>
<event>
 5   0  0.1156733E-04  0.2132196E+04  0.7818609E-02  0.8547192E-01
       -1   -1    0    0    0  501  0.00000000000E+00  0.00000000000E+00  0.16973975461E+04  0.16973975461E+04  0.50400001928E-02 0.  1.
        1   -1    0    0  501    0  0.00000000000E+00  0.00000000000E+00 -0.66959272568E+03  0.66959272570E+03  0.50400001928E-02 0. -1.
    10030    2    1    2    0    0  0.00000000000E+00  0.00000000000E+00  0.10278048204E+04  0.23669902718E+04  0.21321960974E+04 0.  0.
        2    1    3    3  502    0 -0.85690813624E+03 -0.61104211398E+03  0.70262591479E+03  0.12654434777E+04  0.25500000920E-02 0.  1.
       -2    1    3    3    0  502  0.85690813624E+03  0.61104211398E+03  0.32517890562E+03  0.11015467941E+04  0.25500000920E-02 0. -1.
</event>
<event>
 5   0  0.1042395E-04  0.2088027E+04  0.7818609E-02  0.8566536E-01
        1   -1    0    0  501    0  0.00000000000E+00  0.00000000000E+00  0.91412225022E+03  0.91412225023E+03  0.50400001928E-02 0.  1.
       -1   -1    0    0    0  501  0.00000000000E+00  0.00000000000E+00 -0.11923620305E+04  0.11923620305E+04  0.50400001928E-02 0. -1.
    10030    2    1    2    0    0  0.00000000000E+00  0.00000000000E+00 -0.27823978027E+03  0.21064842807E+04  0.20880274542E+04 0.  0.
        3    1    3    3  502    0 -0.45418438297E+03 -0.14973089555E+03  0.79712535488E+03  0.92957605198E+03  0.10100000352E+00 0.  1.
       -3    1    3    3    0  502  0.45418438297E+03  0.14973089555E+03 -0.10753651352E+04  0.11769082288E+04  0.10100000352E+00 0. -1.
</event>
<event>
 5   0  0.2430898E-04  0.2104598E+04  0.7818609E-02  0.8559221E-01
       -2   -1    0    0    0  501  0.00000000000E+00  0.00000000000E+00  0.74307331830E+03  0.74307331830E+03  0.25500000920E-02 0. -1.
        2   -1    0    0  501    0  0.00000000000E+00  0.00000000000E+00 -0.14902072766E+04  0.14902072766E+04  0.25500000920E-02 0.  1.
    10030    2    1    2    0    0  0.00000000000E+00  0.00000000000E+00 -0.74713395831E+03  0.22332805949E+04  0.21045980766E+04 0.  0.
        1    1    3    3  502    0  0.23061769071E+03  0.10258341674E+04 -0.32838409535E+03  0.11015245673E+04  0.50400001928E-02 0. -1.
       -1    1    3    3    0  502 -0.23061769071E+03 -0.10258341674E+04 -0.41874986295E+03  0.11317560276E+04  0.50400001928E-02 0.  1.
</event>
<event>
 5   0  0.1042395E-04  0.2116794E+04  0.7818609E-02  0.8553881E-01
       -1   -1    0    0    0  501  0.00000000000E+00  0.00000000000E+00  0.97406919592E+03  0.97406919593E+03  0.50400001928E-02 0.  1.
        1   -1    0    0  501    0  0.00000000000E+00  0.00000000000E+00 -0.11500255000E+04  0.11500255000E+04  0.50400001928E-02 0. -1.
    10030    2    1    2    0    0  0.00000000000E+00  0.00000000000E+00 -0.17595630408E+03  0.21240946959E+04  0.21167941932E+04 0.  0.
        3    1    3    3  502    0 -0.41372001997E+03 -0.55590025766E+03 -0.89074667114E+03  0.11285472935E+04  0.10100000352E+00 0. -1.
       -3    1    3    3    0  502  0.41372001997E+03  0.55590025766E+03  0.71479036706E+03  0.99554740240E+03  0.10100000352E+00 0.  1.
</event>
<event>
 5   0  0.2512839E-04  0.2303620E+04  0.7818609E-02  0.8476495E-01
        2   -1    0    0  501    0  0.00000000000E+00  0.00000000000E+00  0.13588241593E+04  0.13588241593E+04  0.25500000920E-02 0. -1.
       -2   -1    0    0    0  501  0.00000000000E+00  0.00000000000E+00 -0.97633415786E+03  0.97633415786E+03  0.25500000920E-02 0.  1.
    10030    2    1    2    0    0  0.00000000000E+00  0.00000000000E+00  0.38249000142E+03  0.23351583171E+04  0.23036201434E+04 0.  0.
        3    1    3    3  502    0  0.15878125097E+03 -0.52868043917E+03  0.12160015399E+04  0.13354303605E+04  0.10100000352E+00 0. -1.
       -3    1    3    3    0  502 -0.15878125097E+03  0.52868043917E+03 -0.83351153847E+03  0.99972795669E+03  0.10100000352E+00 0.  1.
</event>
<event>
 5   0  0.1122711E-04  0.2106305E+04  0.7818609E-02  0.8558471E-01
       -1   -1    0    0    0  501  0.00000000000E+00  0.00000000000E+00  0.11746176637E+04  0.11746176638E+04  0.50400001928E-02 0. -1.
        1   -1    0    0  501    0  0.00000000000E+00  0.00000000000E+00 -0.94424765839E+03  0.94424765840E+03  0.50400001928E-02 0.  1.
    10030    2    1    2    0    0  0.00000000000E+00  0.00000000000E+00  0.23037000536E+03  0.21188653222E+04  0.21063048008E+04 0.  0.
        1    1    3    3  502    0 -0.58583528028E+03 -0.55471787178E+03 -0.56576751074E+03  0.98539726462E+03  0.50400001928E-02 0.  1.
       -1    1    3    3    0  502  0.58583528028E+03  0.55471787178E+03  0.79613751610E+03  0.11334680575E+04  0.50400001928E-02 0. -1.
</event>
<event>
 5   0  0.2467483E-04  0.2071634E+04  0.7818609E-02  0.8573843E-01
        2   -1    0    0  501    0  0.00000000000E+00  0.00000000000E+00  0.67647423205E+03  0.67647423205E+03  0.25500000920E-02 0. -1.
       -2   -1    0    0    0  501  0.00000000000E+00  0.00000000000E+00 -0.15860430196E+04  0.15860430196E+04  0.25500000920E-02 0.  1.
    10030    2    1    2    0    0  0.00000000000E+00  0.00000000000E+00 -0.90956878756E+03  0.22625172517E+04  0.20716343632E+04 0.  0.
        4    1    3    3  502    0 -0.61768102826E+03  0.49464234209E+03 -0.11847357597E+04  0.14247109645E+04  0.12699999809E+01 0.  1.
       -4    1    3    3    0  502  0.61768102826E+03 -0.49464234209E+03  0.27516697215E+03  0.83780628711E+03  0.12699999809E+01 0. -1.
</event>
<event>
 5   0  0.2467483E-04  0.2163189E+04  0.7818609E-02  0.8533908E-01
       -2   -1    0    0    0  501  0.00000000000E+00  0.00000000000E+00  0.81158948715E+03  0.81158948715E+03  0.25500000920E-02 0.  1.
        2   -1    0    0  501    0  0.00000000000E+00  0.00000000000E+00 -0.14414269611E+04  0.14414269611E+04  0.25500000920E-02 0. -1.
    10030    2    1    2    0    0  0.00000000000E+00  0.00000000000E+00 -0.62983747392E+03  0.22530164482E+04  0.21631892826E+04 0.  0.
        4    1    3    3  502    0 -0.49406139232E+03  0.89238065709E+03 -0.68958633659E+03  0.12312476701E+04  0.12699999809E+01 0. -1.
       -4    1    3    3    0  502  0.49406139232E+03 -0.89238065709E+03  0.59748862670E+02  0.10217687782E+04  0.12699999809E+01 0.  1.
</event>
<event>
 5   0  0.1130848E-04  0.1811127E+04  0.7818609E-02  0.8700404E-01
        1   -1    0    0  501    0  0.00000000000E+00  0.00000000000E+00  0.11544542438E+04  0.11544542438E+04  0.50400001928E-02 0. -1.
       -1   -1    0    0    0  501  0.00000000000E+00  0.00000000000E+00 -0.71033166064E+03  0.71033166066E+03  0.50400001928E-02 0.  1.
    10030    2    1    2    0    0  0.00000000000E+00  0.00000000000E+00  0.44412258313E+03  0.18647859045E+04  0.18111271630E+04 0.  0.
        5    1    3    3  502    0  0.50399133920E+03 -0.21291112608E+03 -0.52090228323E+03  0.75544668658E+03  0.46999998093E+01 0.  1.
       -5    1    3    3    0  502 -0.50399133920E+03  0.21291112608E+03  0.96502486637E+03  0.11093392179E+04  0.46999998093E+01 0. -1.
</event>
<event>
 5   0  0.1042395E-04  0.2085680E+04  0.7818609E-02  0.8567578E-01
        1   -1    0    0  501    0  0.00000000000E+00  0.00000000000E+00  0.14430792934E+04  0.14430792934E+04  0.50400001928E-02 0.  1.
       -1   -1    0    0    0  501  0.00000000000E+00  0.00000000000E+00 -0.75360706762E+03  0.75360706764E+03  0.50400001928E-02 0. -1.
    10030    2    1    2    0    0  0.00000000000E+00  0.00000000000E+00  0.68947222581E+03  0.21966863611E+04  0.20856795101E+04 0.  0.
        3    1    3    3  502    0 -0.90698500165E+03  0.24877027923E+03  0.81927874661E+03  0.12472875049E+04  0.10100000352E+00 0.  1.
       -3    1    3    3    0  502  0.90698500165E+03 -0.24877027923E+03 -0.12980652080E+03  0.94939885617E+03  0.10100000352E+00 0. -1.
</event>
<event>
 5   0  0.1156733E-04  0.2062487E+04  0.7818609E-02  0.8577951E-01
       -1   -1    0    0    0  501  0.00000000000E+00  0.00000000000E+00  0.44692870253E+03  0.44692870255E+03  0.50400001928E-02 0.  1.
        1   -1    0    0  501    0  0.00000000000E+00  0.00000000000E+00 -0.23794918963E+04  0.23794918963E+04  0.50400001928E-02 0. -1.
    10030    2    1    2    0    0  0.00000000000E+00  0.00000000000E+00 -0.19325631937E+04  0.28264205988E+04  0.20624870675E+04 0.  0.
        2    1    3    3  502    0 -0.10006289619E+03 -0.23562630568E+03 -0.23352574499E+04  0.23492466231E+04  0.25500000920E-02 0. -1.
       -2    1    3    3    0  502  0.10006289619E+03  0.23562630568E+03  0.40269425615E+03  0.47717397568E+03  0.25500000920E-02 0.  1.
</event>
<event>
 5   0  0.2467483E-04  0.2073702E+04  0.7818609E-02  0.8572917E-01
       -2   -1    0    0    0  501  0.00000000000E+00  0.00000000000E+00  0.39261980793E+03  0.39261980794E+03  0.25500000920E-02 0.  1.
        2   -1    0    0  501    0  0.00000000000E+00  0.00000000000E+00 -0.27381709599E+04  0.27381709599E+04  0.25500000920E-02 0. -1.
    10030    2    1    2    0    0  0.00000000000E+00  0.00000000000E+00 -0.23455511520E+04  0.31307907678E+04  0.20737021545E+04 0.  0.
        4    1    3    3  502    0  0.62873041860E+03  0.42055193511E+02 -0.24159116177E+04  0.24967380992E+04  0.12699999809E+01 0. -1.
       -4    1    3    3    0  502 -0.62873041860E+03 -0.42055193511E+02  0.70360465732E+02  0.63405266864E+03  0.12699999809E+01 0.  1.
</event>
<event>
 5   0  0.1042395E-04  0.2000596E+04  0.7818609E-02  0.8606342E-01
       -1   -1    0    0    0  501  0.00000000000E+00  0.00000000000E+00  0.97961645785E+03  0.97961645786E+03  0.50400001928E-02 0.  1.
        1   -1    0    0  501    0  0.00000000000E+00  0.00000000000E+00 -0.10214157307E+04  0.10214157307E+04  0.50400001928E-02 0. -1.
    10030    2    1    2    0    0  0.00000000000E+00  0.00000000000E+00 -0.41799272851E+02  0.20010321886E+04  0.20005955715E+04 0.  0.
        3    1    3    3  502    0 -0.69179992285E+03  0.66331123856E+03 -0.30736521026E+03  0.10065000324E+04  0.10100000352E+00 0. -1.
       -3    1    3    3    0  502  0.69179992285E+03 -0.66331123856E+03  0.26556593741E+03  0.99453215622E+03  0.10100000352E+00 0.  1.
</event>
<event>
 5   0  0.2448804E-04  0.2070213E+04  0.7818609E-02  0.8574479E-01
       -2   -1    0    0    0  501  0.00000000000E+00  0.00000000000E+00  0.80011783306E+03  0.80011783306E+03  0.25500000920E-02 0.  1.
        2   -1    0    0  501    0  0.00000000000E+00  0.00000000000E+00 -0.13391100972E+04  0.13391100972E+04  0.25500000920E-02 0. -1.
    10030    2    1    2    0    0  0.00000000000E+00  0.00000000000E+00 -0.53899226413E+03  0.21392279303E+04  0.20702133892E+04 0.  0.
        2    1    3    3  502    0 -0.36629685811E+03 -0.82625723368E+03  0.25187479216E+03  0.93825120059E+03  0.25500000920E-02 0.  1.
       -2    1    3    3    0  502  0.36629685811E+03  0.82625723368E+03 -0.79086705629E+03  0.12009767297E+04  0.25500000920E-02 0. -1.
</event>
<event>
 5   0  0.2467483E-04  0.2077008E+04  0.7818609E-02  0.8571440E-01
       -2   -1    0    0    0  501  0.00000000000E+00  0.00000000000E+00  0.56903605429E+03  0.56903605430E+03  0.25500000920E-02 0. -1.
        2   -1    0    0  501    0  0.00000000000E+00  0.00000000000E+00 -0.18952941466E+04  0.18952941466E+04  0.25500000920E-02 0.  1.
    10030    2    1    2    0    0  0.00000000000E+00  0.00000000000E+00 -0.13262580923E+04  0.24643302009E+04  0.20770081395E+04 0.  0.
        4    1    3    3  502    0  0.24930207106E+01 -0.70882814982E+03 -0.15636402199E+04  0.17168039816E+04  0.12699999809E+01 0.  1.
       -4    1    3    3    0  502 -0.24930207106E+01  0.70882814982E+03  0.23738212758E+03  0.74752621929E+03  0.12699999809E+01 0. -1.
</event>
<event>
 5   0  0.1130848E-04  0.2053156E+04  0.7818609E-02  0.8582164E-01
       -1   -1    0    0    0  501  0.00000000000E+00  0.00000000000E+00  0.84843364009E+03  0.84843364010E+03  0.50400001928E-02 0.  1.
        1   -1    0    0  501    0  0.00000000000E+00  0.00000000000E+00 -0.12421275701E+04  0.12421275701E+04  0.50400001928E-02 0. -1.
    10030    2    1    2    0    0  0.00000000000E+00  0.00000000000E+00 -0.39369393004E+03  0.20905612102E+04  0.20531564147E+04 0.  0.
        5    1    3    3  502    0 -0.26168671403E+02  0.98531963626E+02 -0.12369494352E+04  0.12411524251E+04  0.46999998093E+01 0. -1.
       -5    1    3    3    0  502  0.26168671403E+02 -0.98531963626E+02  0.84325550516E+03  0.84940878509E+03  0.46999998093E+01 0.  1.
</event>
<event>
 5   0  0.1156733E-04  0.2114540E+04  0.7818609E-02  0.8554865E-01
       -1   -1    0    0    0  501  0.00000000000E+00  0.00000000000E+00  0.94123208688E+03  0.94123208690E+03  0.50400001928E-02 0. -1.
        1   -1    0    0  501    0  0.00000000000E+00  0.00000000000E+00 -0.11876134691E+04  0.11876134691E+04  0.50400001928E-02 0.  1.
    10030    2    1    2    0    0  0.00000000000E+00  0.00000000000E+00 -0.24638138219E+03  0.21288455560E+04  0.21145400483E+04 0.  0.
        2    1    3    3  502    0  0.42994120916E+03 -0.67446472379E+01 -0.10956055784E+04  0.11769649600E+04  0.25500000920E-02 0.  1.
       -2    1    3    3    0  502 -0.42994120916E+03  0.67446472379E+01  0.84922419621E+03  0.95188059600E+03  0.25500000920E-02 0. -1.
</event>
<event>
 5   0  0.2448804E-04  0.2170439E+04  0.7818609E-02  0.8530834E-01
        2   -1    0    0  501    0  0.00000000000E+00  0.00000000000E+00  0.14449781725E+04  0.14449781726E+04  0.25500000920E-02 0. -1.
       -2   -1    0    0    0  501  0.00000000000E+00  0.00000000000E+00 -0.81503036991E+03  0.81503036992E+03  0.25500000920E-02 0.  1.
    10030    2    1    2    0    0  0.00000000000E+00  0.00000000000E+00  0.62994780264E+03  0.22600085425E+04  0.21704387524E+04 0.  0.
        2    1    3    3  502    0  0.32602625629E+03  0.54235378890E+03  0.12329804948E+04  0.13858865945E+04  0.25500000920E-02 0. -1.
       -2    1    3    3    0  502 -0.32602625629E+03 -0.54235378890E+03 -0.60303269218E+03  0.87412194800E+03  0.25500000920E-02 0.  1.
</event>
<event>
 5   0  0.2512839E-04  0.2145259E+04  0.7818609E-02  0.8541564E-01
        2   -1    0    0  501    0  0.00000000000E+00  0.00000000000E+00  0.16262478086E+04  0.16262478086E+04  0.25500000920E-02 0.  1.
       -2   -1    0    0    0  501  0.00000000000E+00  0.00000000000E+00 -0.70747769744E+03  0.70747769745E+03  0.25500000920E-02 0. -1.
    10030    2    1    2    0    0  0.00000000000E+00  0.00000000000E+00  0.91877011117E+03  0.23337255061E+04  0.21452590101E+04 0.  0.
        3    1    3    3  502    0 -0.63617462779E+03 -0.54571427706E+03 -0.26875474770E+03  0.88019961023E+03  0.10100000352E+00 0. -1.
       -3    1    3    3    0  502  0.63617462779E+03  0.54571427706E+03  0.11875248589E+04  0.14535258958E+04  0.10100000352E+00 0.  1.
</event>
<event>
 5   0  0.2579241E-04  0.2096592E+04  0.7818609E-02  0.8562746E-01
        2   -1    0    0  501    0  0.00000000000E+00  0.00000000000E+00  0.18913636658E+04  0.18913636658E+04  0.25500000920E-02 0. -1.
       -2   -1    0    0    0  501  0.00000000000E+00  0.00000000000E+00 -0.58102255674E+03  0.58102255674E+03  0.25500000920E-02 0.  1.
    10030    2    1    2    0    0  0.00000000000E+00  0.00000000000E+00  0.13103411090E+04  0.24723862225E+04  0.20965924285E+04 0.  0.
        5    1    3    3  502    0  0.23036072406E+03  0.55540560706E+03  0.16677812368E+04  0.17728671116E+04  0.46999998093E+01 0. -1.
       -5    1    3    3    0  502 -0.23036072406E+03 -0.55540560706E+03 -0.35744012780E+03  0.69951911089E+03  0.46999998093E+01 0.  1.
</event>
<event>
 5   0  0.1156733E-04  0.2062896E+04  0.7818609E-02  0.8577766E-01
       -1   -1    0    0    0  501  0.00000000000E+00  0.00000000000E+00  0.11279456288E+04  0.11279456288E+04  0.50400001928E-02 0.  1.
        1   -1    0    0  501    0  0.00000000000E+00  0.00000000000E+00 -0.94320600817E+03  0.94320600819E+03  0.50400001928E-02 0. -1.
    10030    2    1    2    0    0  0.00000000000E+00  0.00000000000E+00  0.18473962064E+03  0.20711516370E+04  0.20628961137E+04 0.  0.
        2    1    3    3  502    0  0.56524419842E+02  0.10046209477E+04 -0.13531257813E+03  0.10152673306E+04  0.25500000920E-02 0.  1.
       -2    1    3    3    0  502 -0.56524419842E+02 -0.10046209477E+04  0.32005219877E+03  0.10558843065E+04  0.25500000920E-02 0. -1.
</event>
<event>
 5   0  0.2448804E-04  0.1944415E+04  0.7818609E-02  0.8633059E-01
       -2   -1    0    0    0  501  0.00000000000E+00  0.00000000000E+00  0.76972828835E+03  0.76972828835E+03  0.25500000920E-02 0.  1.
        2   -1    0    0  501    0  0.00000000000E+00  0.00000000000E+00 -0.12279489479E+04  0.12279489479E+04  0.25500000920E-02 0. -1.
    10030    2    1    2    0    0  0.00000000000E+00  0.00000000000E+00 -0.45822065956E+03  0.19976772363E+04  0.19444146079E+04 0.  0.
        2    1    3    3  502    0 -0.22087667266E+03  0.94613977535E+03 -0.26499653556E+03  0.10070700784E+04  0.25500000920E-02 0. -1.
       -2    1    3    3    0  502  0.22087667266E+03 -0.94613977535E+03 -0.19322412399E+03  0.99060715782E+03  0.25500000920E-02 0.  1.
</event>
<event>
 5   0  0.1156733E-04  0.2093912E+04  0.7818609E-02  0.8563930E-01
        1   -1    0    0  501    0  0.00000000000E+00  0.00000000000E+00  0.15067590128E+04  0.15067590128E+04  0.50400001928E-02 0. -1.
       -1   -1    0    0    0  501  0.00000000000E+00  0.00000000000E+00 -0.72746649329E+03  0.72746649331E+03  0.50400001928E-02 0.  1.
    10030    2    1    2    0    0  0.00000000000E+00  0.00000000000E+00  0.77929251954E+03  0.22342255062E+04  0.20939118370E+04 0.  0.
        2    1    3    3  502    0  0.61900897198E+03  0.15221569783E+03 -0.49653452460E+03  0.80801501235E+03  0.25500000920E-02 0.  1.
       -2    1    3    3    0  502 -0.61900897198E+03 -0.15221569783E+03  0.12758270441E+04  0.14262104938E+04  0.25500000920E-02 0. -1.
</event>
<event>
 5   0  0.2579241E-04  0.2110645E+04  0.7818609E-02  0.8556569E-01
        2   -1    0    0  501    0  0.00000000000E+00  0.00000000000E+00  0.95683830783E+03  0.95683830783E+03  0.25500000920E-02 0. -1.
       -2   -1    0    0    0  501  0.00000000000E+00  0.00000000000E+00 -0.11639428551E+04  0.11639428551E+04  0.25500000920E-02 0.  1.
    10030    2    1    2    0    0  0.00000000000E+00  0.00000000000E+00 -0.20710454726E+03  0.21207811629E+04  0.21106445574E+04 0.  0.
        5    1    3    3  502    0 -0.48511889987E+03  0.22688069305E+03 -0.10172421266E+04  0.11496168188E+04  0.46999998093E+01 0.  1.
       -5    1    3    3    0  502  0.48511889987E+03 -0.22688069305E+03  0.81013757933E+03  0.97116434415E+03  0.46999998093E+01 0. -1.
</event>
<event>
 5   0  0.1122711E-04  0.1999851E+04  0.7818609E-02  0.8606690E-01
        1   -1    0    0  501    0  0.00000000000E+00  0.00000000000E+00  0.81396948296E+03  0.81396948297E+03  0.50400001928E-02 0. -1.
       -1   -1    0    0    0  501  0.00000000000E+00  0.00000000000E+00 -0.12283642352E+04  0.12283642352E+04  0.50400001928E-02 0.  1.
    10030    2    1    2    0    0  0.00000000000E+00  0.00000000000E+00 -0.41439475222E+03  0.20423337182E+04  0.19998509959E+04 0.  0.
        1    1    3    3  502    0 -0.93496478447E+03  0.11071846031E+03  0.13675578544E+03  0.95137787999E+03  0.50400001928E-02 0. -1.
       -1    1    3    3    0  502  0.93496478447E+03 -0.11071846031E+03 -0.55115053767E+03  0.10909558382E+04  0.50400001928E-02 0.  1.
</event>
<event>
 5   0  0.1186038E-04  0.2041978E+04  0.7818609E-02  0.8587242E-01
       -1   -1    0    0    0  501  0.00000000000E+00  0.00000000000E+00  0.21059096210E+04  0.21059096210E+04  0.50400001928E-02 0.  1.
        1   -1    0    0  501    0  0.00000000000E+00  0.00000000000E+00 -0.49499686803E+03  0.49499686806E+03  0.50400001928E-02 0. -1.
    10030    2    1    2    0    0  0.00000000000E+00  0.00000000000E+00  0.16109127530E+04  0.26009064891E+04  0.20419781260E+04 0.  0.
        4    1    3    3  502    0 -0.43876652465E+03  0.85546178141E+03  0.36775985017E+03  0.10293589476E+04  0.12699999809E+01 0. -1.
       -4    1    3    3    0  502  0.43876652465E+03 -0.85546178141E+03  0.12431529028E+04  0.15715475415E+04  0.12699999809E+01 0.  1.
</event>
<event>
 5   0  0.1122711E-04  0.1328454E+04  0.7818609E-02  0.9007301E-01
       -1   -1    0    0    0  501  0.00000000000E+00  0.00000000000E+00  0.78650752775E+03  0.78650752776E+03  0.50400001928E-02 0.  1.
        1   -1    0    0  501    0  0.00000000000E+00  0.00000000000E+00 -0.56095735528E+03  0.56095735531E+03  0.50400001928E-02 0. -1.
    10030    2    1    2    0    0  0.00000000000E+00  0.00000000000E+00  0.22555017247E+03  0.13474648831E+04  0.13284535110E+04 0.  0.
        1    1    3    3  502    0  0.52701103069E+03 -0.34440161126E+03  0.32756984747E+03  0.70968662190E+03  0.50400001928E-02 0.  1.
       -1    1    3    3    0  502 -0.52701103069E+03  0.34440161126E+03 -0.10201967500E+03  0.63777826117E+03  0.50400001928E-02 0. -1.
</event>
<event>
 5   0  0.2579241E-04  0.2082375E+04  0.7818609E-02  0.8569047E-01
       -2   -1    0    0    0  501  0.00000000000E+00  0.00000000000E+00  0.45651383704E+03  0.45651383704E+03  0.25500000920E-02 0. -1.
        2   -1    0    0  501    0  0.00000000000E+00  0.00000000000E+00 -0.23746740310E+04  0.23746740310E+04  0.25500000920E-02 0.  1.
    10030    2    1    2    0    0  0.00000000000E+00  0.00000000000E+00 -0.19181601939E+04  0.28311878680E+04  0.20823751378E+04 0.  0.
        5    1    3    3  502    0  0.36852610591E+03  0.67876217440E+03 -0.19083853525E+04  0.20587584423E+04  0.46999998093E+01 0.  1.
       -5    1    3    3    0  502 -0.36852610591E+03 -0.67876217440E+03 -0.97748414058E+01  0.77242942568E+03  0.46999998093E+01 0. -1.
</event>
<event>
 5   0  0.1130848E-04  0.2208063E+04  0.7818609E-02  0.8515080E-01
        1   -1    0    0  501    0  0.00000000000E+00  0.00000000000E+00  0.17358955105E+04  0.17358955105E+04  0.50400001928E-02 0. -1.
       -1   -1    0    0    0  501  0.00000000000E+00  0.00000000000E+00 -0.70216536244E+03  0.70216536246E+03  0.50400001928E-02 0.  1.
    10030    2    1    2    0    0  0.00000000000E+00  0.00000000000E+00  0.10337301481E+04  0.24380608730E+04  0.22080631335E+04 0.  0.
        5    1    3    3  502    0 -0.21251381732E+02 -0.19550158555E+02  0.17354674246E+04  0.17357140035E+04  0.46999998093E+01 0. -1.
       -5    1    3    3    0  502  0.21251381732E+02  0.19550158555E+02 -0.70173727651E+03  0.70234686955E+03  0.46999998093E+01 0.  1.
</event>
<event>
 5   0  0.1042395E-04  0.2114592E+04  0.7818609E-02  0.8554843E-01
        1   -1    0    0  501    0  0.00000000000E+00  0.00000000000E+00  0.10843220398E+04  0.10843220398E+04  0.50400001928E-02 0.  1.
       -1   -1    0    0    0  501  0.00000000000E+00  0.00000000000E+00 -0.10309433893E+04  0.10309433894E+04  0.50400001928E-02 0. -1.
    10030    2    1    2    0    0  0.00000000000E+00  0.00000000000E+00  0.53378650476E+02  0.21152654292E+04  0.21145918177E+04 0.  0.
        3    1    3    3  502    0  0.82211855900E+03 -0.65774499356E+03  0.12350459258E+03  0.10600758445E+04  0.10100000352E+00 0. -1.
       -3    1    3    3    0  502 -0.82211855900E+03  0.65774499356E+03 -0.70125942105E+02  0.10551895847E+04  0.10100000352E+00 0.  1.
</event>
<event>
 5   0  0.2430898E-04  0.2098355E+04  0.7818609E-02  0.8561968E-01
       -2   -1    0    0    0  501  0.00000000000E+00  0.00000000000E+00  0.66635110521E+03  0.66635110522E+03  0.25500000920E-02 0.  1.
        2   -1    0    0  501    0  0.00000000000E+00  0.00000000000E+00 -0.16519424821E+04  0.16519424821E+04  0.25500000920E-02 0. -1.
    10030    2    1    2    0    0  0.00000000000E+00  0.00000000000E+00 -0.98559137691E+03  0.23182935873E+04  0.20983552594E+04 0.  0.
        1    1    3    3  502    0 -0.85318544631E+03 -0.38226220642E+03 -0.10188590629E+04  0.13827955707E+04  0.50400001928E-02 0. -1.
       -1    1    3    3    0  502  0.85318544631E+03  0.38226220642E+03  0.33267685951E+02  0.93549801668E+03  0.50400001928E-02 0.  1.
</event>
<event>
 5   0  0.1042395E-04  0.2143946E+04  0.7818609E-02  0.8542128E-01
       -1   -1    0    0    0  501  0.00000000000E+00  0.00000000000E+00  0.92484613396E+03  0.92484613397E+03  0.50400001928E-02 0. -1.
        1   -1    0    0  501    0  0.00000000000E+00  0.00000000000E+00 -0.12425046107E+04  0.12425046107E+04  0.50400001928E-02 0.  1.
    10030    2    1    2    0    0  0.00000000000E+00  0.00000000000E+00 -0.31765847674E+03  0.21673507447E+04  0.21439455083E+04 0.  0.
        3    1    3    3  502    0 -0.63705158962E+03 -0.80846882137E+03  0.14388764949E+03  0.10393075718E+04  0.10100000352E+00 0. -1.
       -3    1    3    3    0  502  0.63705158962E+03  0.80846882137E+03 -0.46154612624E+03  0.11280431729E+04  0.10100000352E+00 0.  1.
</event>
<event>
 5   0  0.2512839E-04  0.2055484E+04  0.7818609E-02  0.8581110E-01
       -2   -1    0    0    0  501  0.00000000000E+00  0.00000000000E+00  0.66878298643E+03  0.66878298644E+03  0.25500000920E-02 0. -1.
        2   -1    0    0  501    0  0.00000000000E+00  0.00000000000E+00 -0.15793671476E+04  0.15793671476E+04  0.25500000920E-02 0.  1.
    10030    2    1    2    0    0  0.00000000000E+00  0.00000000000E+00 -0.91058416121E+03  0.22481501341E+04  0.20554842521E+04 0.  0.
        3    1    3    3  502    0 -0.12693282579E+03  0.52855778849E+03 -0.14092680683E+04  0.15104707136E+04  0.10100000352E+00 0.  1.
       -3    1    3    3    0  502  0.12693282579E+03 -0.52855778849E+03  0.49868390709E+03  0.73767942050E+03  0.10100000352E+00 0. -1.
</event>
<event>
 5   0  0.1122711E-04  0.1114290E+04  0.7818609E-02  0.9191375E-01
        1   -1    0    0  501    0  0.00000000000E+00  0.00000000000E+00  0.14852964457E+04  0.14852964458E+04  0.50400001928E-02 0.  1.
       -1   -1    0    0    0  501  0.00000000000E+00  0.00000000000E+00 -0.20898876948E+03  0.20898876955E+03  0.50400001928E-02 0. -1.
    10030    2    1    2    0    0  0.00000000000E+00  0.00000000000E+00  0.12763076763E+04  0.16942852153E+04  0.11142895074E+04 0.  0.
        1    1    3    3  502    0  0.49909586121E+03 -0.24046084938E+03  0.54829999579E+03  0.77945556908E+03  0.50400001928E-02 0.  1.
       -1    1    3    3    0  502 -0.49909586121E+03  0.24046084938E+03  0.72800768047E+03  0.91482964622E+03  0.50400001928E-02 0. -1.
</event>
<event>
 5   0  0.1122711E-04  0.2080644E+04  0.7818609E-02  0.8569818E-01
        1   -1    0    0  501    0  0.00000000000E+00  0.00000000000E+00  0.12435273750E+04  0.12435273751E+04  0.50400001928E-02 0.  1.
       -1   -1    0    0    0  501  0.00000000000E+00  0.00000000000E+00 -0.87032274256E+03  0.87032274257E+03  0.50400001928E-02 0. -1.
    10030    2    1    2    0    0  0.00000000000E+00  0.00000000000E+00  0.37320463249E+03  0.21138501176E+04  0.20806442805E+04 0.  0.
        1    1    3    3  502    0  0.17677760947E+02  0.87093371158E+03 -0.39118490008E+03  0.95491552468E+03  0.50400001928E-02 0. -1.
       -1    1    3    3    0  502 -0.17677760947E+02 -0.87093371158E+03  0.76438953257E+03  0.11589345929E+04  0.50400001928E-02 0.  1.
</event>
<event>
 5   0  0.2430898E-04  0.2123934E+04  0.7818609E-02  0.8550773E-01
       -2   -1    0    0    0  501  0.00000000000E+00  0.00000000000E+00  0.15186777712E+04  0.15186777712E+04  0.25500000920E-02 0.  1.
        2   -1    0    0  501    0  0.00000000000E+00  0.00000000000E+00 -0.74260280521E+03  0.74260280521E+03  0.25500000920E-02 0. -1.
    10030    2    1    2    0    0  0.00000000000E+00  0.00000000000E+00  0.77607496599E+03  0.22612805764E+04  0.21239344369E+04 0.  0.
        1    1    3    3  502    0 -0.72914549303E+02 -0.61119647883E+03  0.13093867739E+04  0.14468487796E+04  0.50400001928E-02 0.  1.
       -1    1    3    3    0  502  0.72914549303E+02  0.61119647883E+03 -0.53331180791E+03  0.81443179685E+03  0.50400001928E-02 0. -1.
</event>
<event>
 5   0  0.1042395E-04  0.2120507E+04  0.7818609E-02  0.8552263E-01
       -1   -1    0    0    0  501  0.00000000000E+00  0.00000000000E+00  0.13455365738E+04  0.13455365738E+04  0.50400001928E-02 0.  1.
        1   -1    0    0  501    0  0.00000000000E+00  0.00000000000E+00 -0.83545644386E+03  0.83545644388E+03  0.50400001928E-02 0. -1.
    10030    2    1    2    0    0  0.00000000000E+00  0.00000000000E+00  0.51008012991E+03  0.21809930177E+04  0.21205067329E+04 0.  0.
        3    1    3    3  502    0 -0.43619967391E+03  0.20963160915E+03  0.12253053638E+04  0.13174174782E+04  0.10100000352E+00 0.  1.
       -3    1    3    3    0  502  0.43619967391E+03 -0.20963160915E+03 -0.71522523386E+03  0.86357553950E+03  0.10100000352E+00 0. -1.
</event>
<event>
 5   0  0.1122711E-04  0.2213981E+04  0.7818609E-02  0.8512631E-01
        1   -1    0    0  501    0  0.00000000000E+00  0.00000000000E+00  0.92248584839E+03  0.92248584841E+03  0.50400001928E-02 0. -1.
       -1   -1    0    0    0  501  0.00000000000E+00  0.00000000000E+00 -0.13283977460E+04  0.13283977460E+04  0.50400001928E-02 0.  1.
    10030    2    1    2    0    0  0.00000000000E+00  0.00000000000E+00 -0.40591189763E+03  0.22508835944E+04  0.22139811397E+04 0.  0.
        1    1    3    3  502    0  0.49437170130E+03  0.98530538840E+03 -0.30562448088E+03  0.11439564724E+04  0.50400001928E-02 0. -1.
       -1    1    3    3    0  502 -0.49437170130E+03 -0.98530538840E+03 -0.10028741675E+03  0.11069271220E+04  0.50400001928E-02 0.  1.
</event>
<event>
 5   0  0.2512839E-04  0.2113072E+04  0.7818609E-02  0.8555507E-01
       -2   -1    0    0    0  501  0.00000000000E+00  0.00000000000E+00  0.78832624638E+03  0.78832624638E+03  0.25500000920E-02 0.  1.
        2   -1    0    0  501    0  0.00000000000E+00  0.00000000000E+00 -0.14159981966E+04  0.14159981966E+04  0.25500000920E-02 0. -1.
    10030    2    1    2    0    0  0.00000000000E+00  0.00000000000E+00 -0.62767195023E+03  0.22043244430E+04  0.21130722119E+04 0.  0.
        3    1    3    3  502    0  0.20509547892E+03  0.40649797159E+03 -0.13084039384E+04  0.13853611921E+04  0.10100000352E+00 0. -1.
       -3    1    3    3    0  502 -0.20509547892E+03 -0.40649797159E+03  0.68073198817E+03  0.81896325088E+03  0.10100000352E+00 0.  1.
</event>
<event>
 5   0  0.2579241E-04  0.1695412E+04  0.7818609E-02  0.8763986E-01
        2   -1    0    0  501    0  0.00000000000E+00  0.00000000000E+00  0.12756800744E+04  0.12756800744E+04  0.25500000920E-02 0. -1.
       -2   -1    0    0    0  501  0.00000000000E+00  0.00000000000E+00 -0.56331133539E+03  0.56331133540E+03  0.25500000920E-02 0.  1.
    10030    2    1    2    0    0  0.00000000000E+00  0.00000000000E+00  0.71236873905E+03  0.18389914098E+04  0.16954115091E+04 0.  0.
        5    1    3    3  502    0 -0.76072664912E+03 -0.36142647593E+03  0.25186911228E+03  0.87908718106E+03  0.46999998093E+01 0. -1.
       -5    1    3    3    0  502  0.76072664912E+03  0.36142647593E+03  0.46049962677E+03  0.95990422878E+03  0.46999998093E+01 0.  1.
</event>
<event>
 5   0  0.2448804E-04  0.2092761E+04  0.7818609E-02  0.8564439E-01
       -2   -1    0    0    0  501  0.00000000000E+00  0.00000000000E+00  0.46132387161E+03  0.46132387161E+03  0.25500000920E-02 0. -1.
        2   -1    0    0  501    0  0.00000000000E+00  0.00000000000E+00 -0.23734120723E+04  0.23734120723E+04  0.25500000920E-02 0.  1.
    10030    2    1    2    0    0  0.00000000000E+00  0.00000000000E+00 -0.19120882007E+04  0.28347359439E+04  0.20927605177E+04 0.  0.
        2    1    3    3  502    0  0.61954446160E+03  0.25886621793E+03 -0.20431147940E+04  0.21506197061E+04  0.25500000920E-02 0.  1.
       -2    1    3    3    0  502 -0.61954446160E+03 -0.25886621793E+03  0.13102659333E+03  0.68411623782E+03  0.25500000920E-02 0. -1.
</event>
<event>
 5   0  0.2448804E-04  0.2090199E+04  0.7818609E-02  0.8565573E-01
       -2   -1    0    0    0  501  0.00000000000E+00  0.00000000000E+00  0.14322306658E+04  0.14322306658E+04  0.25500000920E-02 0.  1.
        2   -1    0    0  501    0  0.00000000000E+00  0.00000000000E+00 -0.76260952310E+03  0.76260952311E+03  0.25500000920E-02 0. -1.
    10030    2    1    2    0    0  0.00000000000E+00  0.00000000000E+00  0.66962114270E+03  0.21948401889E+04  0.20901987896E+04 0.  0.
        2    1    3    3  502    0  0.42136125411E+03  0.94400581451E+03  0.49592068023E+03  0.11465729830E+04  0.25500000920E-02 0. -1.
       -2    1    3    3    0  502 -0.42136125411E+03 -0.94400581451E+03  0.17370046246E+03  0.10482672059E+04  0.25500000920E-02 0.  1.
</event>
<event>
 5   0  0.2512839E-04  0.1720454E+04  0.7818609E-02  0.8749784E-01
        2   -1    0    0  501    0  0.00000000000E+00  0.00000000000E+00  0.82936039006E+03  0.82936039006E+03  0.25500000920E-02 0. -1.
       -2   -1    0    0    0  501  0.00000000000E+00  0.00000000000E+00 -0.89224238395E+03  0.89224238396E+03  0.25500000920E-02 0.  1.
    10030    2    1    2    0    0  0.00000000000E+00  0.00000000000E+00 -0.62881993897E+02  0.17216027740E+04  0.17204540001E+04 0.  0.
        3    1    3    3  502    0 -0.48101667705E+03 -0.26283253596E+03  0.63197414999E+03  0.83656997437E+03  0.10100000352E+00 0. -1.
       -3    1    3    3    0  502  0.48101667705E+03  0.26283253596E+03 -0.69485614389E+03  0.88503279965E+03  0.10100000352E+00 0.  1.
</event>
<event>
 5   0  0.1156733E-04  0.2030486E+04  0.7818609E-02  0.8592499E-01
       -1   -1    0    0    0  501  0.00000000000E+00  0.00000000000E+00  0.12513867679E+04  0.12513867679E+04  0.50400001928E-02 0. -1.
        1   -1    0    0  501    0  0.00000000000E+00  0.00000000000E+00 -0.82366065472E+03  0.82366065474E+03  0.50400001928E-02 0.  1.
    10030    2    1    2    0    0  0.00000000000E+00  0.00000000000E+00  0.42772611319E+03  0.20750474227E+04  0.20304857001E+04 0.  0.
        2    1    3    3  502    0  0.23052497518E+03 -0.30489610735E+03 -0.74731789038E+03  0.83939706322E+03  0.25500000920E-02 0.  1.
       -2    1    3    3    0  502 -0.23052497518E+03  0.30489610735E+03  0.11750440036E+04  0.12356503594E+04  0.25500000920E-02 0. -1.
</event>
<event>
 5   0  0.2430898E-04  0.2103685E+04  0.7818609E-02  0.8559622E-01
        2   -1    0    0  501    0  0.00000000000E+00  0.00000000000E+00  0.11699229839E+04  0.11699229839E+04  0.25500000920E-02 0. -1.
       -2   -1    0    0    0  501  0.00000000000E+00  0.00000000000E+00 -0.94567965869E+03  0.94567965869E+03  0.25500000920E-02 0.  1.
    10030    2    1    2    0    0  0.00000000000E+00  0.00000000000E+00  0.22424332519E+03  0.21156026426E+04  0.21036847369E+04 0.  0.
        1    1    3    3  502    0 -0.32860497351E+03 -0.93440322336E+03 -0.24383519178E+03  0.10200716706E+04  0.50400001928E-02 0.  1.
       -1    1    3    3    0  502  0.32860497351E+03  0.93440322336E+03  0.46807851698E+03  0.10955309720E+04  0.50400001928E-02 0. -1.
</event>
<event>
 5   0  0.1042395E-04  0.2124230E+04  0.7818609E-02  0.8550644E-01
       -1   -1    0    0    0  501  0.00000000000E+00  0.00000000000E+00  0.12062829046E+04  0.12062829046E+04  0.50400001928E-02 0. -1.
        1   -1    0    0  501    0  0.00000000000E+00  0.00000000000E+00 -0.93517716778E+03  0.93517716779E+03  0.50400001928E-02 0.  1.
    10030    2    1    2    0    0  0.00000000000E+00  0.00000000000E+00  0.27110573680E+03  0.21414600724E+04  0.21242299596E+04 0.  0.
        3    1    3    3  502    0  0.11441071574E+03 -0.84662450199E+03 -0.50061672692E+03  0.99019188883E+03  0.10100000352E+00 0.  1.
       -3    1    3    3    0  502 -0.11441071574E+03  0.84662450199E+03  0.77172246371E+03  0.11512681835E+04  0.10100000352E+00 0. -1.
</event>
<event>
 5   0  0.1042395E-04  0.1715237E+04  0.7818609E-02  0.8752722E-01
        1   -1    0    0  501    0  0.00000000000E+00  0.00000000000E+00  0.13396387438E+04  0.13396387438E+04  0.50400001928E-02 0.  1.
       -1   -1    0    0    0  501  0.00000000000E+00  0.00000000000E+00 -0.54903560588E+03  0.54903560591E+03  0.50400001928E-02 0. -1.
    10030    2    1    2    0    0  0.00000000000E+00  0.00000000000E+00  0.79060313794E+03  0.18886743497E+04  0.17152368576E+04 0.  0.
        3    1    3    3  502    0 -0.34029836737E+03 -0.22224928025E+03  0.12268529683E+04  0.12924263761E+04  0.10100000352E+00 0.  1.
       -3    1    3    3    0  502  0.34029836737E+03  0.22224928025E+03 -0.43624983039E+03  0.59624797369E+03  0.10100000352E+00 0. -1.
</event>
<event>
 5   0  0.1186038E-04  0.2104247E+04  0.7818609E-02  0.8559375E-01
       -1   -1    0    0    0  501  0.00000000000E+00  0.00000000000E+00  0.94576017199E+03  0.94576017200E+03  0.50400001928E-02 0.  1.
        1   -1    0    0  501    0  0.00000000000E+00  0.00000000000E+00 -0.11704483753E+04  0.11704483753E+04  0.50400001928E-02 0. -1.
    10030    2    1    2    0    0  0.00000000000E+00  0.00000000000E+00 -0.22468820329E+03  0.21162085473E+04  0.21042466174E+04 0.  0.
        4    1    3    3  502    0 -0.61378424536E+03  0.83131918208E+03  0.86616728782E+02  0.10369796300E+04  0.12699999809E+01 0.  1.
       -4    1    3    3    0  502  0.61378424536E+03 -0.83131918208E+03 -0.31130493208E+03  0.10792289173E+04  0.12699999809E+01 0. -1.
</event>
<event>
 5   0  0.2467483E-04  0.2310911E+04  0.7818609E-02  0.8473632E-01
        2   -1    0    0  501    0  0.00000000000E+00  0.00000000000E+00  0.96401294841E+03  0.96401294842E+03  0.25500000920E-02 0.  1.
       -2   -1    0    0    0  501  0.00000000000E+00  0.00000000000E+00 -0.13849161574E+04  0.13849161574E+04  0.25500000920E-02 0. -1.
    10030    2    1    2    0    0  0.00000000000E+00  0.00000000000E+00 -0.42090320897E+03  0.23489291058E+04  0.23109107367E+04 0.  0.
        4    1    3    3  502    0  0.11058279275E+04 -0.96437379931E+02  0.11563763126E+03  0.11160328168E+04  0.12699999809E+01 0.  1.
       -4    1    3    3    0  502 -0.11058279275E+04  0.96437379931E+02 -0.53654084024E+03  0.12328962890E+04  0.12699999809E+01 0. -1.
</event>
<event>
 5   0  0.1042395E-04  0.2106621E+04  0.7818609E-02  0.8558332E-01
       -1   -1    0    0    0  501  0.00000000000E+00  0.00000000000E+00  0.36404585080E+03  0.36404585084E+03  0.50400001928E-02 0.  1.
        1   -1    0    0  501    0  0.00000000000E+00  0.00000000000E+00 -0.30475918372E+04  0.30475918372E+04  0.50400001928E-02 0. -1.
    10030    2    1    2    0    0  0.00000000000E+00  0.00000000000E+00 -0.26835459864E+04  0.34116376881E+04  0.21066211461E+04 0.  0.
        3    1    3    3  502    0  0.54987497581E+02  0.48503813617E+03 -0.28533483322E+04  0.28948026416E+04  0.10100000352E+00 0. -1.
       -3    1    3    3    0  502 -0.54987497581E+02 -0.48503813617E+03  0.16980234581E+03  0.51683504649E+03  0.10100000352E+00 0.  1.
</event>
<event>
 5   0  0.2579241E-04  0.2070408E+04  0.7818609E-02  0.8574392E-01
        2   -1    0    0  501    0  0.00000000000E+00  0.00000000000E+00  0.98845371787E+03  0.98845371787E+03  0.25500000920E-02 0.  1.
       -2   -1    0    0    0  501  0.00000000000E+00  0.00000000000E+00 -0.10841656189E+04  0.10841656189E+04  0.25500000920E-02 0. -1.
    10030    2    1    2    0    0  0.00000000000E+00  0.00000000000E+00 -0.95711901029E+02  0.20726193368E+04  0.20704082079E+04 0.  0.
        5    1    3    3  502    0  0.64511262901E+03  0.43993879908E+03 -0.72822065439E+03  0.10677283655E+04  0.46999998093E+01 0.  1.
       -5    1    3    3    0  502 -0.64511262901E+03 -0.43993879908E+03  0.63250875337E+03  0.10048909713E+04  0.46999998093E+01 0. -1.
</event>
<event>
 5   0  0.1042395E-04  0.1045465E+04  0.7818609E-02  0.9260039E-01
        1   -1    0    0  501    0  0.00000000000E+00  0.00000000000E+00  0.60180590723E+03  0.60180590725E+03  0.50400001928E-02 0.  1.
       -1   -1    0    0    0  501  0.00000000000E+00  0.00000000000E+00 -0.45404853811E+03  0.45404853814E+03  0.50400001928E-02 0. -1.
    10030    2    1    2    0    0  0.00000000000E+00  0.00000000000E+00  0.14775736912E+03  0.10558544454E+04  0.10454646669E+04 0.  0.
        3    1    3    3  502    0 -0.50843880588E+03 -0.11086279011E+03  0.12385280533E+03  0.53492065313E+03  0.10100000352E+00 0.  1.
       -3    1    3    3    0  502  0.50843880588E+03  0.11086279011E+03  0.23904563793E+02  0.52093379227E+03  0.10100000352E+00 0. -1.
</event>
<event>
 5   0  0.2430898E-04  0.1070042E+04  0.7818609E-02  0.9234893E-01
        2   -1    0    0  501    0  0.00000000000E+00  0.00000000000E+00  0.13298434156E+04  0.13298434156E+04  0.25500000920E-02 0. -1.
       -2   -1    0    0    0  501  0.00000000000E+00  0.00000000000E+00 -0.21524890352E+03  0.21524890354E+03  0.25500000920E-02 0.  1.
    10030    2    1    2    0    0  0.00000000000E+00  0.00000000000E+00  0.11145945121E+04  0.15450923192E+04  0.10700417508E+04 0.  0.
        1    1    3    3  502    0  0.41792414630E+03  0.88042890869E+02  0.10225897006E+04  0.11081975629E+04  0.50400001928E-02 0. -1.
       -1    1    3    3    0  502 -0.41792414630E+03 -0.88042890869E+02  0.92004811548E+02  0.43689475628E+03  0.50400001928E-02 0.  1.
</event>
<event>
 5   0  0.1042395E-04  0.2068186E+04  0.7818609E-02  0.8575389E-01
       -1   -1    0    0    0  501  0.00000000000E+00  0.00000000000E+00  0.56413117689E+03  0.56413117691E+03  0.50400001928E-02 0.  1.
        1   -1    0    0  501    0  0.00000000000E+00  0.00000000000E+00 -0.18955662099E+04  0.18955662100E+04  0.50400001928E-02 0. -1.
    10030    2    1    2    0    0  0.00000000000E+00  0.00000000000E+00 -0.13314350331E+04  0.24596973869E+04  0.20681856753E+04 0.  0.
        3    1    3    3  502    0 -0.94966859366E+03 -0.63473779236E+02 -0.18489721770E+03  0.96958050195E+03  0.10100000352E+00 0.  1.
       -3    1    3    3    0  502  0.94966859366E+03  0.63473779236E+02 -0.11465378154E+04  0.14901168849E+04  0.10100000352E+00 0. -1.
</event>
<event>
 5   0  0.2579241E-04  0.2061621E+04  0.7818609E-02  0.8578341E-01
       -2   -1    0    0    0  501  0.00000000000E+00  0.00000000000E+00  0.10262061939E+04  0.10262061939E+04  0.25500000920E-02 0.  1.
        2   -1    0    0  501    0  0.00000000000E+00  0.00000000000E+00 -0.10354350321E+04  0.10354350321E+04  0.25500000920E-02 0. -1.
    10030    2    1    2    0    0  0.00000000000E+00  0.00000000000E+00 -0.92288382805E+01  0.20616412260E+04  0.20616205697E+04 0.  0.
        5    1    3    3  502    0 -0.56601349537E+03  0.39575654551E+02 -0.86521019247E+03  0.10346730288E+04  0.46999998093E+01 0. -1.
       -5    1    3    3    0  502  0.56601349537E+03 -0.39575654551E+02  0.85598135419E+03  0.10269681972E+04  0.46999998093E+01 0.  1.
</event>
<event>
 5   0  0.2512839E-04  0.2142904E+04  0.7818609E-02  0.8542576E-01
       -2   -1    0    0    0  501  0.00000000000E+00  0.00000000000E+00  0.95410268412E+03  0.95410268412E+03  0.25500000920E-02 0. -1.
        2   -1    0    0  501    0  0.00000000000E+00  0.00000000000E+00 -0.12032343537E+04  0.12032343537E+04  0.25500000920E-02 0.  1.
    10030    2    1    2    0    0  0.00000000000E+00  0.00000000000E+00 -0.24913166955E+03  0.21573370378E+04  0.21429037556E+04 0.  0.
        3    1    3    3  502    0  0.61238344583E+03  0.87027550210E+03 -0.25037224327E+03  0.10931967822E+04  0.10100000352E+00 0.  1.
       -3    1    3    3    0  502 -0.61238344583E+03 -0.87027550210E+03  0.12405737200E+01  0.10641402556E+04  0.10100000352E+00 0. -1.
</event>
<event>
 5   0  0.2512839E-04  0.2057585E+04  0.7818609E-02  0.8580161E-01
        2   -1    0    0  501    0  0.00000000000E+00  0.00000000000E+00  0.14906803747E+04  0.14906803747E+04  0.25500000920E-02 0.  1.
       -2   -1    0    0    0  501  0.00000000000E+00  0.00000000000E+00 -0.71002042236E+03  0.71002042237E+03  0.25500000920E-02 0. -1.
    10030    2    1    2    0    0  0.00000000000E+00  0.00000000000E+00  0.78065995234E+03  0.22007007971E+04  0.20575845152E+04 0.  0.
        3    1    3    3  502    0 -0.27310593817E+02  0.31599796519E+03 -0.65642169415E+03  0.72903362974E+03  0.10100000352E+00 0. -1.
       -3    1    3    3    0  502  0.27310593817E+02 -0.31599796519E+03  0.14370816465E+04  0.14716671673E+04  0.10100000352E+00 0.  1.
</event>
<event>
 5   0  0.1122711E-04  0.2098392E+04  0.7818609E-02  0.8561952E-01
       -1   -1    0    0    0  501  0.00000000000E+00  0.00000000000E+00  0.76272793854E+03  0.76272793856E+03  0.50400001928E-02 0. -1.
        1   -1    0    0  501    0  0.00000000000E+00  0.00000000000E+00 -0.14432569121E+04  0.14432569122E+04  0.50400001928E-02 0.  1.
    10030    2    1    2    0    0  0.00000000000E+00  0.00000000000E+00 -0.68052897360E+03  0.22059848507E+04  0.20983921172E+04 0.  0.
        1    1    3    3  502    0 -0.35287638606E+03  0.27136335730E+03  0.65853011661E+03  0.79487214698E+03  0.50400001928E-02 0. -1.
       -1    1    3    3    0  502  0.35287638606E+03 -0.27136335730E+03 -0.13390590902E+04  0.14111127037E+04  0.50400001928E-02 0.  1.
</event>
<event>
 5   0  0.1186038E-04  0.2098775E+04  0.7818609E-02  0.8561783E-01
        1   -1    0    0  501    0  0.00000000000E+00  0.00000000000E+00  0.13851434248E+04  0.13851434248E+04  0.50400001928E-02 0. -1.
       -1   -1    0    0    0  501  0.00000000000E+00  0.00000000000E+00 -0.79501820903E+03  0.79501820904E+03  0.50400001928E-02 0.  1.
    10030    2    1    2    0    0  0.00000000000E+00  0.00000000000E+00  0.59012521576E+03  0.21801616338E+04  0.20987751141E+04 0.  0.
        4    1    3    3  502    0  0.21063104647E+03 -0.48019645120E+02  0.13617927942E+04  0.13788228861E+04  0.12699999809E+01 0. -1.
       -4    1    3    3    0  502 -0.21063104647E+03  0.48019645120E+02 -0.77166757845E+03  0.80133874771E+03  0.12699999809E+01 0.  1.
</event>
<event>
 5   0  0.1122711E-04  0.2336996E+04  0.7818609E-02  0.8463475E-01
       -1   -1    0    0    0  501  0.00000000000E+00  0.00000000000E+00  0.69971461333E+03  0.69971461335E+03  0.50400001928E-02 0. -1.
        1   -1    0    0  501    0  0.00000000000E+00  0.00000000000E+00 -0.19513499656E+04  0.19513499656E+04  0.50400001928E-02 0.  1.
    10030    2    1    2    0    0  0.00000000000E+00  0.00000000000E+00 -0.12516353522E+04  0.26510645789E+04  0.23369964370E+04 0.  0.
        1    1    3    3  502    0 -0.39689554347E+02 -0.62936707817E+03  0.49010692107E+03  0.79867576270E+03  0.50400001928E-02 0. -1.
       -1    1    3    3    0  502  0.39689554347E+02  0.62936707817E+03 -0.17417422733E+04  0.18523888162E+04  0.50400001928E-02 0.  1.
</event>
<event>
 5   0  0.8698750E-05  0.2022052E+04  0.7818609E-02  0.8596379E-01
       -3   -1    0    0    0  501  0.00000000000E+00  0.00000000000E+00  0.22083263270E+04  0.22083263293E+04  0.10100000352E+00 0. -1.
        3   -1    0    0  501    0  0.00000000000E+00  0.00000000000E+00 -0.46287273890E+03  0.46287274992E+03  0.10100000352E+00 0.  1.
    10030    2    1    2    0    0  0.00000000000E+00  0.00000000000E+00  0.17454535881E+04  0.26711990792E+04  0.20220524950E+04 0.  0.
        2    1    3    3  502    0  0.22146573532E+03 -0.15178916946E+03  0.21603699660E+04  0.21769899893E+04  0.25500000920E-02 0. -1.
       -2    1    3    3    0  502 -0.22146573532E+03  0.15178916946E+03 -0.41491637787E+03  0.49420908987E+03  0.25500000920E-02 0.  1.
</event>
<event>
 5   0  0.1042395E-04  0.1802514E+04  0.7818609E-02  0.8704964E-01
        1   -1    0    0  501    0  0.00000000000E+00  0.00000000000E+00  0.14102584399E+04  0.14102584399E+04  0.50400001928E-02 0. -1.
       -1   -1    0    0    0  501  0.00000000000E+00  0.00000000000E+00 -0.57596800918E+03  0.57596800920E+03  0.50400001928E-02 0.  1.
    10030    2    1    2    0    0  0.00000000000E+00  0.00000000000E+00  0.83429043071E+03  0.19862264491E+04  0.18025135185E+04 0.  0.
        3    1    3    3  502    0  0.84089415933E+03 -0.31232019984E+03  0.32097564226E+03  0.95271835689E+03  0.10100000352E+00 0.  1.
       -3    1    3    3    0  502 -0.84089415933E+03  0.31232019984E+03  0.51331478845E+03  0.10335080922E+04  0.10100000352E+00 0. -1.
</event>
<event>
 5   0  0.1186038E-04  0.2170406E+04  0.7818609E-02  0.8530848E-01
        1   -1    0    0  501    0  0.00000000000E+00  0.00000000000E+00  0.14544670633E+04  0.14544670633E+04  0.50400001928E-02 0. -1.
       -1   -1    0    0    0  501  0.00000000000E+00  0.00000000000E+00 -0.80968892557E+03  0.80968892558E+03  0.50400001928E-02 0.  1.
    10030    2    1    2    0    0  0.00000000000E+00  0.00000000000E+00  0.64477813777E+03  0.22641559889E+04  0.21704062973E+04 0.  0.
        4    1    3    3  502    0  0.26983854592E+03 -0.66944703815E+03  0.11677578269E+04  0.13728190460E+04  0.12699999809E+01 0. -1.
       -4    1    3    3    0  502 -0.26983854592E+03  0.66944703815E+03 -0.52297968913E+03  0.89133694297E+03  0.12699999809E+01 0.  1.
</event>
<event>
 5   0  0.1156733E-04  0.1557175E+04  0.7818609E-02  0.8847298E-01
        1   -1    0    0  501    0  0.00000000000E+00  0.00000000000E+00  0.29910561310E+04  0.29910561310E+04  0.50400001928E-02 0.  1.
       -1   -1    0    0    0  501  0.00000000000E+00  0.00000000000E+00 -0.20267043431E+03  0.20267043437E+03  0.50400001928E-02 0. -1.
    10030    2    1    2    0    0  0.00000000000E+00  0.00000000000E+00  0.27883856967E+04  0.31937265654E+04  0.15571751927E+04 0.  0.
        2    1    3    3  502    0  0.48139636724E+03  0.83430923981E+02  0.26375223701E+04  0.26823921104E+04  0.25500000920E-02 0.  1.
       -2    1    3    3    0  502 -0.48139636724E+03 -0.83430923981E+02  0.15086332660E+03  0.51133445492E+03  0.25500000920E-02 0. -1.
</event>
<event>
 5   0  0.2448804E-04  0.2202833E+04  0.7818609E-02  0.8517250E-01
       -2   -1    0    0    0  501  0.00000000000E+00  0.00000000000E+00  0.11796918291E+04  0.11796918291E+04  0.25500000920E-02 0. -1.
        2   -1    0    0  501    0  0.00000000000E+00  0.00000000000E+00 -0.10283350684E+04  0.10283350684E+04  0.25500000920E-02 0.  1.
    10030    2    1    2    0    0  0.00000000000E+00  0.00000000000E+00  0.15135676071E+03  0.22080268974E+04  0.22028331554E+04 0.  0.
        2    1    3    3  502    0  0.75984797233E+03  0.66058149991E+03 -0.37189609744E+03  0.10733329243E+04  0.25500000920E-02 0.  1.
       -2    1    3    3    0  502 -0.75984797233E+03 -0.66058149991E+03  0.52325285815E+03  0.11346939731E+04  0.25500000920E-02 0. -1.
</event>
<event>
 5   0  0.1130848E-04  0.2391606E+04  0.7818609E-02  0.8442653E-01
       -1   -1    0    0    0  501  0.00000000000E+00  0.00000000000E+00  0.10038289345E+04  0.10038289346E+04  0.50400001928E-02 0.  1.
        1   -1    0    0  501    0  0.00000000000E+00  0.00000000000E+00 -0.14244908889E+04  0.14244908889E+04  0.50400001928E-02 0. -1.
    10030    2    1    2    0    0  0.00000000000E+00  0.00000000000E+00 -0.42066195438E+03  0.24283198235E+04  0.23916062981E+04 0.  0.
        5    1    3    3  502    0 -0.75417281658E+03  0.54766052505E+03  0.55031153984E+03  0.10823925207E+04  0.46999998093E+01 0.  1.
       -5    1    3    3    0  502  0.75417281658E+03 -0.54766052505E+03 -0.97097349421E+03  0.13459273028E+04  0.46999998093E+01 0. -1.
</event>
<event>
 5   0  0.1042395E-04  0.2416198E+04  0.7818609E-02  0.8433464E-01
        1   -1    0    0  501    0  0.00000000000E+00  0.00000000000E+00  0.13474797932E+04  0.13474797933E+04  0.50400001928E-02 0.  1.
       -1   -1    0    0    0  501  0.00000000000E+00  0.00000000000E+00 -0.10831351151E+04  0.10831351151E+04  0.50400001928E-02 0. -1.
    10030    2    1    2    0    0  0.00000000000E+00  0.00000000000E+00  0.26434467816E+03  0.24306149084E+04  0.24161975755E+04 0.  0.
        3    1    3    3  502    0 -0.38133056572E+03  0.88639424896E+03  0.86341753204E+03  0.12948349740E+04  0.10100000352E+00 0.  1.
       -3    1    3    3    0  502  0.38133056572E+03 -0.88639424896E+03 -0.59907285389E+03  0.11357799344E+04  0.10100000352E+00 0. -1.
</event>
<event>
 5   0  0.2448804E-04  0.2151704E+04  0.7818609E-02  0.8538803E-01
       -2   -1    0    0    0  501  0.00000000000E+00  0.00000000000E+00  0.46075062158E+03  0.46075062159E+03  0.25500000920E-02 0.  1.
        2   -1    0    0  501    0  0.00000000000E+00  0.00000000000E+00 -0.25121125370E+04  0.25121125370E+04  0.25500000920E-02 0. -1.
    10030    2    1    2    0    0  0.00000000000E+00  0.00000000000E+00 -0.20513619154E+04  0.29728631586E+04  0.21517038950E+04 0.  0.
        2    1    3    3  502    0 -0.39982956804E+03 -0.97903065293E+03 -0.75250636632E+03  0.12979331779E+04  0.25500000920E-02 0.  1.
       -2    1    3    3    0  502  0.39982956804E+03  0.97903065293E+03 -0.12988555491E+04  0.16749299807E+04  0.25500000920E-02 0. -1.
</event>
<event>
 5   0  0.1156733E-04  0.2020964E+04  0.7818609E-02  0.8596882E-01
       -1   -1    0    0    0  501  0.00000000000E+00  0.00000000000E+00  0.86072960584E+03  0.86072960586E+03  0.50400001928E-02 0.  1.
        1   -1    0    0  501    0  0.00000000000E+00  0.00000000000E+00 -0.11862886581E+04  0.11862886582E+04  0.50400001928E-02 0. -1.
    10030    2    1    2    0    0  0.00000000000E+00  0.00000000000E+00 -0.32555905230E+03  0.20470182640E+04  0.20209638979E+04 0.  0.
        2    1    3    3  502    0  0.46268509220E+02 -0.95778489363E+03  0.16004728795E+03  0.97216655559E+03  0.25500000920E-02 0. -1.
       -2    1    3    3    0  502 -0.46268509220E+02  0.95778489363E+03 -0.48560634025E+03  0.10748517084E+04  0.25500000920E-02 0.  1.
</event>
<event>
 5   0  0.1130848E-04  0.2122604E+04  0.7818609E-02  0.8551351E-01
        1   -1    0    0  501    0  0.00000000000E+00  0.00000000000E+00  0.15752258386E+04  0.15752258386E+04  0.50400001928E-02 0. -1.
       -1   -1    0    0    0  501  0.00000000000E+00  0.00000000000E+00 -0.71504761879E+03  0.71504761881E+03  0.50400001928E-02 0.  1.
    10030    2    1    2    0    0  0.00000000000E+00  0.00000000000E+00  0.86017821985E+03  0.22902734575E+04  0.21226035758E+04 0.  0.
        5    1    3    3  502    0  0.19558551973E+03 -0.10299562628E+04  0.60828889135E+03  0.12120647937E+04  0.46999998093E+01 0.  1.
       -5    1    3    3    0  502 -0.19558551973E+03  0.10299562628E+04  0.25188932850E+03  0.10782086638E+04  0.46999998093E+01 0. -1.
</event>
<event>
 5   0  0.2430898E-04  0.2081624E+04  0.7818609E-02  0.8569382E-01
        2   -1    0    0  501    0  0.00000000000E+00  0.00000000000E+00  0.87735888642E+03  0.87735888643E+03  0.25500000920E-02 0. -1.
       -2   -1    0    0    0  501  0.00000000000E+00  0.00000000000E+00 -0.12347165944E+04  0.12347165944E+04  0.25500000920E-02 0.  1.
    10030    2    1    2    0    0  0.00000000000E+00  0.00000000000E+00 -0.35735770799E+03  0.21120754808E+04  0.20816239587E+04 0.  0.
        1    1    3    3  502    0 -0.78099300684E+03 -0.64829195582E+03  0.55031882560E+02  0.10164944883E+04  0.50400001928E-02 0. -1.
       -1    1    3    3    0  502  0.78099300684E+03  0.64829195582E+03 -0.41238959055E+03  0.10955809925E+04  0.50400001928E-02 0.  1.
</event>
<event>
 5   0  0.2448804E-04  0.2065805E+04  0.7818609E-02  0.8576458E-01
       -2   -1    0    0    0  501  0.00000000000E+00  0.00000000000E+00  0.78636942332E+03  0.78636942332E+03  0.25500000920E-02 0. -1.
        2   -1    0    0  501    0  0.00000000000E+00  0.00000000000E+00 -0.13567254916E+04  0.13567254916E+04  0.25500000920E-02 0.  1.
    10030    2    1    2    0    0  0.00000000000E+00  0.00000000000E+00 -0.57035606831E+03  0.21430949150E+04  0.20658048722E+04 0.  0.
        2    1    3    3  502    0 -0.47011980547E+03 -0.10241694865E+03  0.66301245665E+03  0.81919923129E+03  0.25500000920E-02 0. -1.
       -2    1    3    3    0  502  0.47011980547E+03  0.10241694865E+03 -0.12333685250E+04  0.13238956837E+04  0.25500000920E-02 0.  1.
</event>
<event>
 5   0  0.2467483E-04  0.1043007E+04  0.7818609E-02  0.9262594E-01
       -2   -1    0    0    0  501  0.00000000000E+00  0.00000000000E+00  0.13931611533E+03  0.13931611535E+03  0.25500000920E-02 0. -1.
        2   -1    0    0  501    0  0.00000000000E+00  0.00000000000E+00 -0.19521501684E+04  0.19521501684E+04  0.25500000920E-02 0.  1.
    10030    2    1    2    0    0  0.00000000000E+00  0.00000000000E+00 -0.18128340531E+04  0.20914662837E+04  0.10430071486E+04 0.  0.
        4    1    3    3  502    0 -0.21720519364E+03  0.26551032734E+03 -0.16940669321E+04  0.17284496560E+04  0.12699999809E+01 0.  1.
       -4    1    3    3    0  502  0.21720519364E+03 -0.26551032734E+03 -0.11876712094E+03  0.36301662770E+03  0.12699999809E+01 0. -1.
</event>
<event>
 5   0  0.2579241E-04  0.2043474E+04  0.7818609E-02  0.8586561E-01
        2   -1    0    0  501    0  0.00000000000E+00  0.00000000000E+00  0.10377926464E+04  0.10377926464E+04  0.25500000920E-02 0. -1.
       -2   -1    0    0    0  501  0.00000000000E+00  0.00000000000E+00 -0.10059298033E+04  0.10059298033E+04  0.25500000920E-02 0.  1.
    10030    2    1    2    0    0  0.00000000000E+00  0.00000000000E+00  0.31862843062E+02  0.20437224497E+04  0.20434740543E+04 0.  0.
        5    1    3    3  502    0  0.58788015044E+03 -0.54696697994E+03  0.64779023288E+03  0.10317122778E+04  0.46999998093E+01 0. -1.
       -5    1    3    3    0  502 -0.58788015044E+03  0.54696697994E+03 -0.61592738982E+03  0.10120101719E+04  0.46999998093E+01 0.  1.
</event>
<event>
 5   0  0.2467483E-04  0.2170845E+04  0.7818609E-02  0.8530662E-01
       -2   -1    0    0    0  501  0.00000000000E+00  0.00000000000E+00  0.18224364184E+04  0.18224364184E+04  0.25500000920E-02 0. -1.
        2   -1    0    0  501    0  0.00000000000E+00  0.00000000000E+00 -0.64646536681E+03  0.64646536682E+03  0.25500000920E-02 0.  1.
    10030    2    1    2    0    0  0.00000000000E+00  0.00000000000E+00  0.11759710516E+04  0.24689017852E+04  0.21708450223E+04 0.  0.
        4    1    3    3  502    0 -0.34641195460E+03 -0.73128471303E+03 -0.23477987610E+03  0.84255669063E+03  0.12699999809E+01 0.  1.
       -4    1    3    3    0  502  0.34641195460E+03  0.73128471303E+03  0.14107509277E+04  0.16263450946E+04  0.12699999809E+01 0. -1.
</event>
<event>
 5   0  0.2430898E-04  0.1932559E+04  0.7818609E-02  0.8638817E-01
       -2   -1    0    0    0  501  0.00000000000E+00  0.00000000000E+00  0.45469462192E+03  0.45469462193E+03  0.25500000920E-02 0.  1.
        2   -1    0    0  501    0  0.00000000000E+00  0.00000000000E+00 -0.20534581444E+04  0.20534581444E+04  0.25500000920E-02 0. -1.
    10030    2    1    2    0    0  0.00000000000E+00  0.00000000000E+00 -0.15987635225E+04  0.25081527664E+04  0.19325593131E+04 0.  0.
        1    1    3    3  502    0  0.92977564069E+02 -0.85207464861E+03 -0.13783701914E+04  0.16231390633E+04  0.50400001928E-02 0. -1.
       -1    1    3    3    0  502 -0.92977564069E+02  0.85207464861E+03 -0.22039333115E+03  0.88501370310E+03  0.50400001928E-02 0.  1.
</event>
<event>
 5   0  0.1186038E-04  0.2077051E+04  0.7818609E-02  0.8571420E-01
        1   -1    0    0  501    0  0.00000000000E+00  0.00000000000E+00  0.19208121143E+04  0.19208121143E+04  0.50400001928E-02 0. -1.
       -1   -1    0    0    0  501  0.00000000000E+00  0.00000000000E+00 -0.56149973550E+03  0.56149973552E+03  0.50400001928E-02 0.  1.
    10030    2    1    2    0    0  0.00000000000E+00  0.00000000000E+00  0.13593123788E+04  0.24823118498E+04  0.20770512696E+04 0.  0.
        4    1    3    3  502    0 -0.76901100055E+03 -0.17662614001E+03  0.14866535243E+04  0.16830671485E+04  0.12699999809E+01 0. -1.
       -4    1    3    3    0  502  0.76901100055E+03  0.17662614001E+03 -0.12734114549E+03  0.79924470128E+03  0.12699999809E+01 0.  1.
</event>
<event>
 5   0  0.2448804E-04  0.2103312E+04  0.7818609E-02  0.8559786E-01
       -2   -1    0    0    0  501  0.00000000000E+00  0.00000000000E+00  0.57308106693E+03  0.57308106693E+03  0.25500000920E-02 0.  1.
        2   -1    0    0  501    0  0.00000000000E+00  0.00000000000E+00 -0.19298854416E+04  0.19298854416E+04  0.25500000920E-02 0. -1.
    10030    2    1    2    0    0  0.00000000000E+00  0.00000000000E+00 -0.13568043747E+04  0.25029665086E+04  0.21033124427E+04 0.  0.
        2    1    3    3  502    0 -0.44313693805E+03  0.91016159256E+03 -0.33926692579E+03  0.10676453144E+04  0.25500000920E-02 0.  1.
       -2    1    3    3    0  502  0.44313693805E+03 -0.91016159256E+03 -0.10175374489E+04  0.14353211941E+04  0.25500000920E-02 0. -1.
</event>
<event>
 5   0  0.2512839E-04  0.2128929E+04  0.7818609E-02  0.8548606E-01
       -2   -1    0    0    0  501  0.00000000000E+00  0.00000000000E+00  0.66497263926E+03  0.66497263927E+03  0.25500000920E-02 0. -1.
        2   -1    0    0  501    0  0.00000000000E+00  0.00000000000E+00 -0.17039573175E+04  0.17039573175E+04  0.25500000920E-02 0.  1.
    10030    2    1    2    0    0  0.00000000000E+00  0.00000000000E+00 -0.10389846782E+04  0.23689299568E+04  0.21289293033E+04 0.  0.
        3    1    3    3  502    0 -0.57896692184E+03 -0.46566911237E+03  0.32869535017E+03  0.81245988346E+03  0.10100000352E+00 0. -1.
       -3    1    3    3    0  502  0.57896692184E+03  0.46566911237E+03 -0.13676800284E+04  0.15564700733E+04  0.10100000352E+00 0.  1.
</event>
<event>
 5   0  0.8698750E-05  0.2086000E+04  0.7818609E-02  0.8567436E-01
        4   -1    0    0  501    0  0.00000000000E+00  0.00000000000E+00  0.99085068371E+03  0.99085149760E+03  0.12699999809E+01 0. -1.
       -4   -1    0    0    0  501  0.00000000000E+00  0.00000000000E+00 -0.10978925025E+04  0.10978932370E+04  0.12699999809E+01 0.  1.
    10030    2    1    2    0    0  0.00000000000E+00  0.00000000000E+00 -0.10704181877E+03  0.20887447346E+04  0.20860001475E+04 0.  0.
        3    1    3    3  502    0 -0.35423431486E+03  0.74589820141E+03 -0.69154296274E+03  0.10770690582E+04  0.10100000352E+00 0.  1.
       -3    1    3    3    0  502  0.35423431486E+03 -0.74589820141E+03  0.58450114397E+03  0.10116756764E+04  0.10100000352E+00 0. -1.
</event>
<event>
 5   0  0.2430898E-04  0.2048781E+04  0.7818609E-02  0.8584148E-01
        2   -1    0    0  501    0  0.00000000000E+00  0.00000000000E+00  0.99263338736E+03  0.99263338736E+03  0.25500000920E-02 0. -1.
       -2   -1    0    0    0  501  0.00000000000E+00  0.00000000000E+00 -0.10571633624E+04  0.10571633624E+04  0.25500000920E-02 0.  1.
    10030    2    1    2    0    0  0.00000000000E+00  0.00000000000E+00 -0.64529975009E+02  0.20497967497E+04  0.20487807588E+04 0.  0.
        1    1    3    3  502    0 -0.42164134850E+03 -0.52854569834E+03  0.73768383592E+03  0.10006594944E+04  0.50400001928E-02 0. -1.
       -1    1    3    3    0  502  0.42164134850E+03  0.52854569834E+03 -0.80221381093E+03  0.10491372553E+04  0.50400001928E-02 0.  1.
</event>
<event>
 5   0  0.1122711E-04  0.2091456E+04  0.7818609E-02  0.8565017E-01
        1   -1    0    0  501    0  0.00000000000E+00  0.00000000000E+00  0.86367543375E+03  0.86367543376E+03  0.50400001928E-02 0. -1.
       -1   -1    0    0    0  501  0.00000000000E+00  0.00000000000E+00 -0.12661546658E+04  0.12661546659E+04  0.50400001928E-02 0.  1.
    10030    2    1    2    0    0  0.00000000000E+00  0.00000000000E+00 -0.40247923210E+03  0.21298300996E+04  0.20914556464E+04 0.  0.
        1    1    3    3  502    0 -0.53436553897E+03  0.89115683213E+03 -0.81439047575E+02  0.10422760417E+04  0.50400001928E-02 0.  1.
       -1    1    3    3    0  502  0.53436553897E+03 -0.89115683213E+03 -0.32104018452E+03  0.10875540579E+04  0.50400001928E-02 0. -1.
</event>
<event>
 5   0  0.2448804E-04  0.2137413E+04  0.7818609E-02  0.8544939E-01
        2   -1    0    0  501    0  0.00000000000E+00  0.00000000000E+00  0.12354692471E+04  0.12354692471E+04  0.25500000920E-02 0. -1.
       -2   -1    0    0    0  501  0.00000000000E+00  0.00000000000E+00 -0.92445323983E+03  0.92445323983E+03  0.25500000920E-02 0.  1.
    10030    2    1    2    0    0  0.00000000000E+00  0.00000000000E+00  0.31101600724E+03  0.21599224869E+04  0.21374129673E+04 0.  0.
        2    1    3    3  502    0 -0.10107334752E+03 -0.91333687375E+02  0.12266595785E+04  0.12342007071E+04  0.25500000920E-02 0. -1.
       -2    1    3    3    0  502  0.10107334752E+03  0.91333687375E+02 -0.91564357122E+03  0.92572177978E+03  0.25500000920E-02 0.  1.
</event>
<event>
 5   0  0.1130848E-04  0.2075181E+04  0.7818609E-02  0.8572256E-01
       -1   -1    0    0    0  501  0.00000000000E+00  0.00000000000E+00  0.86909619784E+03  0.86909619786E+03  0.50400001928E-02 0. -1.
        1   -1    0    0  501    0  0.00000000000E+00  0.00000000000E+00 -0.12387512739E+04  0.12387512739E+04  0.50400001928E-02 0.  1.
    10030    2    1    2    0    0  0.00000000000E+00  0.00000000000E+00 -0.36965507601E+03  0.21078474717E+04  0.20751809774E+04 0.  0.
        5    1    3    3  502    0  0.81599514079E+03 -0.28830141175E+03 -0.76620639278E+03  0.11558806600E+04  0.46999998093E+01 0.  1.
       -5    1    3    3    0  502 -0.81599514079E+03  0.28830141175E+03  0.39655131677E+03  0.95196681173E+03  0.46999998093E+01 0. -1.
</event>
<event>
 5   0  0.2579241E-04  0.2083957E+04  0.7818609E-02  0.8568344E-01
       -2   -1    0    0    0  501  0.00000000000E+00  0.00000000000E+00  0.11896052841E+04  0.11896052841E+04  0.25500000920E-02 0.  1.
        2   -1    0    0  501    0  0.00000000000E+00  0.00000000000E+00 -0.91267159345E+03  0.91267159346E+03  0.25500000920E-02 0. -1.
    10030    2    1    2    0    0  0.00000000000E+00  0.00000000000E+00  0.27693369065E+03  0.21022768776E+04  0.20839567656E+04 0.  0.
        5    1    3    3  502    0  0.95148526527E+03 -0.28605103587E+03  0.45514923657E+03  0.10928551243E+04  0.46999998093E+01 0. -1.
       -5    1    3    3    0  502 -0.95148526527E+03  0.28605103587E+03 -0.17821554593E+03  0.10094217533E+04  0.46999998093E+01 0.  1.
</event>
<event>
 5   0  0.1186038E-04  0.2055521E+04  0.7818609E-02  0.8581094E-01
        1   -1    0    0  501    0  0.00000000000E+00  0.00000000000E+00  0.93975467692E+03  0.93975467693E+03  0.50400001928E-02 0. -1.
       -1   -1    0    0    0  501  0.00000000000E+00  0.00000000000E+00 -0.11240082274E+04  0.11240082274E+04  0.50400001928E-02 0.  1.
    10030    2    1    2    0    0  0.00000000000E+00  0.00000000000E+00 -0.18425355046E+03  0.20637629043E+04  0.20555213340E+04 0.  0.
        4    1    3    3  502    0  0.96968521846E+03  0.20859476178E+03  0.17819087351E+03  0.10077473879E+04  0.12699999809E+01 0. -1.
       -4    1    3    3    0  502 -0.96968521846E+03 -0.20859476178E+03 -0.36244442397E+03  0.10560155164E+04  0.12699999809E+01 0.  1.
</event>
<event>
 5   0  0.2467483E-04  0.2125762E+04  0.7818609E-02  0.8549979E-01
       -2   -1    0    0    0  501  0.00000000000E+00  0.00000000000E+00  0.54810435317E+03  0.54810435318E+03  0.25500000920E-02 0. -1.
        2   -1    0    0  501    0  0.00000000000E+00  0.00000000000E+00 -0.20611337619E+04  0.20611337619E+04  0.25500000920E-02 0.  1.
    10030    2    1    2    0    0  0.00000000000E+00  0.00000000000E+00 -0.15130294087E+04  0.26092381151E+04  0.21257623455E+04 0.  0.
        4    1    3    3  502    0 -0.83964738355E+03 -0.54643764668E+03 -0.11924066419E+04  0.15573814700E+04  0.12699999809E+01 0.  1.
       -4    1    3    3    0  502  0.83964738355E+03  0.54643764668E+03 -0.32062276685E+03  0.10518566451E+04  0.12699999809E+01 0. -1.
</event>
<event>
 5   0  0.1122711E-04  0.2159245E+04  0.7818609E-02  0.8535585E-01
       -1   -1    0    0    0  501  0.00000000000E+00  0.00000000000E+00  0.79014367656E+03  0.79014367657E+03  0.50400001928E-02 0. -1.
        1   -1    0    0  501    0  0.00000000000E+00  0.00000000000E+00 -0.14751555250E+04  0.14751555250E+04  0.50400001928E-02 0.  1.
    10030    2    1    2    0    0  0.00000000000E+00  0.00000000000E+00 -0.68501184840E+03  0.22652992015E+04  0.21592450625E+04 0.  0.
        1    1    3    3  502    0  0.82373100116E+03  0.69363535011E+03 -0.26177133737E+03  0.11082359831E+04  0.50400001928E-02 0.  1.
       -1    1    3    3    0  502 -0.82373100116E+03 -0.69363535011E+03 -0.42324051103E+03  0.11570632184E+04  0.50400001928E-02 0. -1.
</event>
<event>
 5   0  0.2430898E-04  0.1729575E+04  0.7818609E-02  0.8744674E-01
       -2   -1    0    0    0  501  0.00000000000E+00  0.00000000000E+00  0.10505751406E+04  0.10505751407E+04  0.25500000920E-02 0.  1.
        2   -1    0    0  501    0  0.00000000000E+00  0.00000000000E+00 -0.71185564670E+03  0.71185564671E+03  0.25500000920E-02 0. -1.
    10030    2    1    2    0    0  0.00000000000E+00  0.00000000000E+00  0.33871949395E+03  0.17624307874E+04  0.17295754926E+04 0.  0.
        1    1    3    3  502    0  0.47716966804E+03  0.71848529835E+03  0.23336884948E+03  0.89351722758E+03  0.50400001928E-02 0. -1.
       -1    1    3    3    0  502 -0.47716966804E+03 -0.71848529835E+03  0.10535064447E+03  0.86891355978E+03  0.50400001928E-02 0.  1.
</event>
<event>
 5   0  0.1186038E-04  0.2101036E+04  0.7818609E-02  0.8560787E-01
       -1   -1    0    0    0  501  0.00000000000E+00  0.00000000000E+00  0.65261220050E+03  0.65261220052E+03  0.50400001928E-02 0. -1.
        1   -1    0    0  501    0  0.00000000000E+00  0.00000000000E+00 -0.16910324404E+04  0.16910324404E+04  0.50400001928E-02 0.  1.
    10030    2    1    2    0    0  0.00000000000E+00  0.00000000000E+00 -0.10384202399E+04  0.23436446409E+04  0.21010363177E+04 0.  0.
        4    1    3    3  502    0 -0.97681109062E+03  0.30559605993E+03 -0.78326806950E+03  0.12888209108E+04  0.12699999809E+01 0.  1.
       -4    1    3    3    0  502  0.97681109062E+03 -0.30559605993E+03 -0.25515217040E+03  0.10548237301E+04  0.12699999809E+01 0. -1.
</event>
<event>
 5   0  0.2512839E-04  0.2109620E+04  0.7818609E-02  0.8557017E-01
       -2   -1    0    0    0  501  0.00000000000E+00  0.00000000000E+00  0.24602931753E+04  0.24602931753E+04  0.25500000920E-02 0.  1.
        2   -1    0    0  501    0  0.00000000000E+00  0.00000000000E+00 -0.45223238621E+03  0.45223238622E+03  0.25500000920E-02 0. -1.
    10030    2    1    2    0    0  0.00000000000E+00  0.00000000000E+00  0.20080607890E+04  0.29125255615E+04  0.21096201112E+04 0.  0.
        3    1    3    3  502    0 -0.48364923765E+03 -0.65985437919E+03  0.84821360577E+02  0.82250778733E+03  0.10100000352E+00 0. -1.
       -3    1    3    3    0  502  0.48364923765E+03  0.65985437919E+03  0.19232394285E+04  0.20900177741E+04  0.10100000352E+00 0.  1.
</event>
<event>
 5   0  0.1042395E-04  0.2086296E+04  0.7818609E-02  0.8567304E-01
        1   -1    0    0  501    0  0.00000000000E+00  0.00000000000E+00  0.19773948765E+04  0.19773948765E+04  0.50400001928E-02 0.  1.
       -1   -1    0    0    0  501  0.00000000000E+00  0.00000000000E+00 -0.55029864012E+03  0.55029864014E+03  0.50400001928E-02 0. -1.
    10030    2    1    2    0    0  0.00000000000E+00  0.00000000000E+00  0.14270962364E+04  0.25276935166E+04  0.20862959632E+04 0.  0.
        3    1    3    3  502    0  0.47896303237E+03  0.61824675326E+03  0.15499027395E+04  0.17360395002E+04  0.10100000352E+00 0. -1.
       -3    1    3    3    0  502 -0.47896303237E+03 -0.61824675326E+03 -0.12280650311E+03  0.79165401641E+03  0.10100000352E+00 0.  1.
</event>
<event>
 5   0  0.2430898E-04  0.1676578E+04  0.7818609E-02  0.8774837E-01
        2   -1    0    0  501    0  0.00000000000E+00  0.00000000000E+00  0.13714328050E+04  0.13714328050E+04  0.25500000920E-02 0. -1.
       -2   -1    0    0    0  501  0.00000000000E+00  0.00000000000E+00 -0.51240461496E+03  0.51240461496E+03  0.25500000920E-02 0.  1.
    10030    2    1    2    0    0  0.00000000000E+00  0.00000000000E+00  0.85902819000E+03  0.18838374199E+04  0.16765780607E+04 0.  0.
        1    1    3    3  502    0  0.69089037536E+03  0.63366708528E+02 -0.99165331434E+02  0.70084136115E+03  0.50400001928E-02 0.  1.
       -1    1    3    3    0  502 -0.69089037536E+03 -0.63366708528E+02  0.95819352144E+03  0.11829960588E+04  0.50400001928E-02 0. -1.
</event>
<event>
 5   0  0.1186038E-04  0.2096415E+04  0.7818609E-02  0.8562824E-01
       -1   -1    0    0    0  501  0.00000000000E+00  0.00000000000E+00  0.10715304163E+04  0.10715304163E+04  0.50400001928E-02 0.  1.
        1   -1    0    0  501    0  0.00000000000E+00  0.00000000000E+00 -0.10253921960E+04  0.10253921960E+04  0.50400001928E-02 0. -1.
    10030    2    1    2    0    0  0.00000000000E+00  0.00000000000E+00  0.46138220310E+02  0.20969226123E+04  0.20964149653E+04 0.  0.
        4    1    3    3  502    0  0.85262401542E+03  0.60671384980E+03 -0.37508799465E+02  0.10471284210E+04  0.12699999809E+01 0.  1.
       -4    1    3    3    0  502 -0.85262401542E+03 -0.60671384980E+03  0.83647019775E+02  0.10497941913E+04  0.12699999809E+01 0. -1.
</event>
<event>
 5   0  0.2512839E-04  0.2154544E+04  0.7818609E-02  0.8537590E-01
        2   -1    0    0  501    0  0.00000000000E+00  0.00000000000E+00  0.66643209413E+03  0.66643209414E+03  0.25500000920E-02 0.  1.
       -2   -1    0    0    0  501  0.00000000000E+00  0.00000000000E+00 -0.17413844500E+04  0.17413844500E+04  0.25500000920E-02 0. -1.
    10030    2    1    2    0    0  0.00000000000E+00  0.00000000000E+00 -0.10749523558E+04  0.24078165441E+04  0.21545435579E+04 0.  0.
        3    1    3    3  502    0 -0.16524099762E+03  0.17384450978E+03 -0.17111664483E+04  0.17278938408E+04  0.10100000352E+00 0. -1.
       -3    1    3    3    0  502  0.16524099762E+03 -0.17384450978E+03  0.63621409248E+03  0.67992270336E+03  0.10100000352E+00 0.  1.
</event>
<event>
 5   0  0.1186038E-04  0.2133965E+04  0.7818609E-02  0.8546427E-01
       -1   -1    0    0    0  501  0.00000000000E+00  0.00000000000E+00  0.71605569009E+03  0.71605569011E+03  0.50400001928E-02 0. -1.
        1   -1    0    0  501    0  0.00000000000E+00  0.00000000000E+00 -0.15898926172E+04  0.15898926172E+04  0.50400001928E-02 0.  1.
    10030    2    1    2    0    0  0.00000000000E+00  0.00000000000E+00 -0.87383692710E+03  0.23059483073E+04  0.21339649999E+04 0.  0.
        4    1    3    3  502    0  0.60565592418E+03 -0.71134226041E+03 -0.99384155120E+03  0.13640196303E+04  0.12699999809E+01 0.  1.
       -4    1    3    3    0  502 -0.60565592418E+03  0.71134226041E+03  0.12000462411E+03  0.94192867705E+03  0.12699999809E+01 0. -1.
</event>
<event>
 5   0  0.8698750E-05  0.1181498E+04  0.7818609E-02  0.9129208E-01
        3   -1    0    0  501    0  0.00000000000E+00  0.00000000000E+00  0.67368407337E+03  0.67368408094E+03  0.10100000352E+00 0. -1.
       -3   -1    0    0    0  501  0.00000000000E+00  0.00000000000E+00 -0.51802338730E+03  0.51802339714E+03  0.10100000352E+00 0.  1.
    10030    2    1    2    0    0  0.00000000000E+00  0.00000000000E+00  0.15566068607E+03  0.11917074781E+04  0.11814975515E+04 0.  0.
        2    1    3    3  502    0 -0.53773304874E+03 -0.15584524462E+03  0.26797878207E+03  0.62069090506E+03  0.25500000920E-02 0.  1.
       -2    1    3    3    0  502  0.53773304874E+03  0.15584524462E+03 -0.11231809600E+03  0.57101657302E+03  0.25500000920E-02 0. -1.
</event>
<event>
 5   0  0.1186038E-04  0.2152768E+04  0.7818609E-02  0.8538348E-01
       -1   -1    0    0    0  501  0.00000000000E+00  0.00000000000E+00  0.19947452127E+04  0.19947452127E+04  0.50400001928E-02 0.  1.
        1   -1    0    0  501    0  0.00000000000E+00  0.00000000000E+00 -0.58082718965E+03  0.58082718967E+03  0.50400001928E-02 0. -1.
    10030    2    1    2    0    0  0.00000000000E+00  0.00000000000E+00  0.14139180230E+04  0.25755724023E+04  0.21527677589E+04 0.  0.
        4    1    3    3  502    0  0.10204157595E+04 -0.34201312799E+03  0.73026092023E+03  0.13005783047E+04  0.12699999809E+01 0. -1.
       -4    1    3    3    0  502 -0.10204157595E+04  0.34201312799E+03  0.68365710278E+03  0.12749940977E+04  0.12699999809E+01 0.  1.
</event>
<event>
 5   0  0.1130848E-04  0.2068625E+04  0.7818609E-02  0.8575192E-01
       -1   -1    0    0    0  501  0.00000000000E+00  0.00000000000E+00  0.13305836285E+04  0.13305836285E+04  0.50400001928E-02 0. -1.
        1   -1    0    0  501    0  0.00000000000E+00  0.00000000000E+00 -0.80400980763E+03  0.80400980765E+03  0.50400001928E-02 0.  1.
    10030    2    1    2    0    0  0.00000000000E+00  0.00000000000E+00  0.52657382089E+03  0.21345934362E+04  0.20686249416E+04 0.  0.
        5    1    3    3  502    0 -0.83204036429E+01  0.68558292840E+03 -0.53580316352E+03  0.87017256960E+03  0.46999998093E+01 0.  1.
       -5    1    3    3    0  502  0.83204036429E+01 -0.68558292840E+03  0.10623769844E+04  0.12644208666E+04  0.46999998093E+01 0. -1.
</event>
<event>
 5   0  0.2448804E-04  0.2162171E+04  0.7818609E-02  0.8534341E-01
        2   -1    0    0  501    0  0.00000000000E+00  0.00000000000E+00  0.13499409277E+04  0.13499409277E+04  0.25500000920E-02 0.  1.
       -2   -1    0    0    0  501  0.00000000000E+00  0.00000000000E+00 -0.86577531399E+03  0.86577531399E+03  0.25500000920E-02 0. -1.
    10030    2    1    2    0    0  0.00000000000E+00  0.00000000000E+00  0.48416561372E+03  0.22157162417E+04  0.21621706968E+04 0.  0.
        2    1    3    3  502    0  0.10386906777E+04 -0.18588024816E+03  0.48310027901E+03  0.11605238775E+04  0.25500000920E-02 0.  1.
       -2    1    3    3    0  502 -0.10386906777E+04  0.18588024816E+03  0.10653347117E+01  0.10551923642E+04  0.25500000920E-02 0. -1.
</event>
<event>
 5   0  0.2467483E-04  0.2093602E+04  0.7818609E-02  0.8564067E-01
        2   -1    0    0  501    0  0.00000000000E+00  0.00000000000E+00  0.22837765959E+04  0.22837765959E+04  0.25500000920E-02 0. -1.
       -2   -1    0    0    0  501  0.00000000000E+00  0.00000000000E+00 -0.47981569919E+03  0.47981569919E+03  0.25500000920E-02 0.  1.
    10030    2    1    2    0    0  0.00000000000E+00  0.00000000000E+00  0.18039608967E+04  0.27635922951E+04  0.20936015515E+04 0.  0.
        4    1    3    3  502    0 -0.39599110168E+03 -0.55411269745E+03 -0.14736385210E+03  0.69682677324E+03  0.12699999809E+01 0.  1.
       -4    1    3    3    0  502  0.39599110168E+03  0.55411269745E+03  0.19513247488E+04  0.20667655218E+04  0.12699999809E+01 0. -1.
</event>
<event>
 5   0  0.2579241E-04  0.2074123E+04  0.7818609E-02  0.8572729E-01
       -2   -1    0    0    0  501  0.00000000000E+00  0.00000000000E+00  0.18302165854E+04  0.18302165854E+04  0.25500000920E-02 0.  1.
        2   -1    0    0  501    0  0.00000000000E+00  0.00000000000E+00 -0.58763330245E+03  0.58763330246E+03  0.25500000920E-02 0. -1.
    10030    2    1    2    0    0  0.00000000000E+00  0.00000000000E+00  0.12425832830E+04  0.24178498879E+04  0.20741226736E+04 0.  0.
        5    1    3    3  502    0 -0.52135069951E+03 -0.32433556165E+03  0.15955407632E+04  0.17096118055E+04  0.46999998093E+01 0.  1.
       -5    1    3    3    0  502  0.52135069951E+03  0.32433556165E+03 -0.35295748027E+03  0.70823808236E+03  0.46999998093E+01 0. -1.
</event>
<event>
 5   0  0.8698750E-05  0.1864497E+04  0.7818609E-02  0.8672733E-01
       -4   -1    0    0    0  501  0.00000000000E+00  0.00000000000E+00  0.89818694714E+03  0.89818784500E+03  0.12699999809E+01 0. -1.
        4   -1    0    0  501    0  0.00000000000E+00  0.00000000000E+00 -0.96760029718E+03  0.96760113063E+03  0.12699999809E+01 0.  1.
    10030    2    1    2    0    0  0.00000000000E+00  0.00000000000E+00 -0.69413350046E+02  0.18657889756E+04  0.18644973286E+04 0.  0.
        4    1    3    3  502    0  0.97481873279E+02 -0.52866827988E+03  0.72745938370E+03  0.90453945940E+03  0.12699999809E+01 0. -1.
       -4    1    3    3    0  502 -0.97481873279E+02  0.52866827988E+03 -0.79687273375E+03  0.96124951624E+03  0.12699999809E+01 0.  1.
</event>
<event>
 5   0  0.1186038E-04  0.1364518E+04  0.7818609E-02  0.8979910E-01
       -1   -1    0    0    0  501  0.00000000000E+00  0.00000000000E+00  0.22343896782E+03  0.22343896787E+03  0.50400001928E-02 0. -1.
        1   -1    0    0  501    0  0.00000000000E+00  0.00000000000E+00 -0.20832413135E+04  0.20832413135E+04  0.50400001928E-02 0.  1.
    10030    2    1    2    0    0  0.00000000000E+00  0.00000000000E+00 -0.18598023457E+04  0.23066802814E+04  0.13645179205E+04 0.  0.
        4    1    3    3  502    0  0.21150041605E+03 -0.10803058229E+03 -0.20111070005E+04  0.20250817299E+04  0.12699999809E+01 0.  1.
       -4    1    3    3    0  502 -0.21150041605E+03  0.10803058229E+03  0.15130465480E+03  0.28159855143E+03  0.12699999809E+01 0. -1.
</event>
<event>
 5   0  0.1122711E-04  0.2093889E+04  0.7818609E-02  0.8563940E-01
       -1   -1    0    0    0  501  0.00000000000E+00  0.00000000000E+00  0.20333414003E+04  0.20333414003E+04  0.50400001928E-02 0. -1.
        1   -1    0    0  501    0  0.00000000000E+00  0.00000000000E+00 -0.53905974051E+03  0.53905974054E+03  0.50400001928E-02 0.  1.
    10030    2    1    2    0    0  0.00000000000E+00  0.00000000000E+00  0.14942816598E+04  0.25724011408E+04  0.20938887149E+04 0.  0.
        1    1    3    3  502    0 -0.51956876065E+02 -0.10179893475E+04  0.10406810564E+04  0.14567151025E+04  0.50400001928E-02 0.  1.
       -1    1    3    3    0  502  0.51956876065E+02  0.10179893475E+04  0.45360060334E+03  0.11156860383E+04  0.50400001928E-02 0. -1.
</event>
<event>
 5   0  0.2512839E-04  0.2179253E+04  0.7818609E-02  0.8527114E-01
       -2   -1    0    0    0  501  0.00000000000E+00  0.00000000000E+00  0.54160308059E+03  0.54160308059E+03  0.25500000920E-02 0. -1.
        2   -1    0    0  501    0  0.00000000000E+00  0.00000000000E+00 -0.21921688431E+04  0.21921688431E+04  0.25500000920E-02 0.  1.
    10030    2    1    2    0    0  0.00000000000E+00  0.00000000000E+00 -0.16505657625E+04  0.27337719236E+04  0.21792525311E+04 0.  0.
        3    1    3    3  502    0 -0.42974838502E+03  0.93469514760E+03 -0.12757466101E+04  0.16388618357E+04  0.10100000352E+00 0.  1.
       -3    1    3    3    0  502  0.42974838502E+03 -0.93469514760E+03 -0.37481915240E+03  0.10949100879E+04  0.10100000352E+00 0. -1.
</event>
<event>
 5   0  0.2430898E-04  0.1628352E+04  0.7818609E-02  0.8803317E-01
       -2   -1    0    0    0  501  0.00000000000E+00  0.00000000000E+00  0.61111711018E+03  0.61111711019E+03  0.25500000920E-02 0. -1.
        2   -1    0    0  501    0  0.00000000000E+00  0.00000000000E+00 -0.10847067222E+04  0.10847067222E+04  0.25500000920E-02 0.  1.
    10030    2    1    2    0    0  0.00000000000E+00  0.00000000000E+00 -0.47358961203E+03  0.16958238324E+04  0.16283523421E+04 0.  0.
        1    1    3    3  502    0  0.57639508238E+03 -0.30653702161E+03  0.26986819076E+03  0.70641707016E+03  0.50400001928E-02 0. -1.
       -1    1    3    3    0  502 -0.57639508238E+03  0.30653702161E+03 -0.74345780279E+03  0.98940676224E+03  0.50400001928E-02 0.  1.
</event>
<event>
 5   0  0.2579241E-04  0.2159758E+04  0.7818609E-02  0.8535367E-01
        2   -1    0    0  501    0  0.00000000000E+00  0.00000000000E+00  0.10612884298E+04  0.10612884298E+04  0.25500000920E-02 0.  1.
       -2   -1    0    0    0  501  0.00000000000E+00  0.00000000000E+00 -0.10987953283E+04  0.10987953283E+04  0.25500000920E-02 0. -1.
    10030    2    1    2    0    0  0.00000000000E+00  0.00000000000E+00 -0.37506898520E+02  0.21600837581E+04  0.21597581055E+04 0.  0.
        5    1    3    3  502    0  0.10186566559E+04 -0.20085718555E+03 -0.31563433510E+03  0.10851968093E+04  0.46999998093E+01 0. -1.
       -5    1    3    3    0  502 -0.10186566559E+04  0.20085718555E+03  0.27812743658E+03  0.10748869487E+04  0.46999998093E+01 0.  1.
</event>
<event>
 5   0  0.1042395E-04  0.1680071E+04  0.7818609E-02  0.8772813E-01
        1   -1    0    0  501    0  0.00000000000E+00  0.00000000000E+00  0.83482192464E+03  0.83482192465E+03  0.50400001928E-02 0. -1.
       -1   -1    0    0    0  501  0.00000000000E+00  0.00000000000E+00 -0.84528187398E+03  0.84528187399E+03  0.50400001928E-02 0.  1.
    10030    2    1    2    0    0  0.00000000000E+00  0.00000000000E+00 -0.10459949342E+02  0.16801037986E+04  0.16800712377E+04 0.  0.
        3    1    3    3  502    0 -0.47547791724E+02  0.46492945255E+03  0.69280908487E+03  0.83570606473E+03  0.10100000352E+00 0. -1.
       -3    1    3    3    0  502  0.47547791724E+02 -0.46492945255E+03 -0.70326903422E+03  0.84439773391E+03  0.10100000352E+00 0.  1.
</event>
<event>
 5   0  0.2448804E-04  0.2071550E+04  0.7818609E-02  0.8573881E-01
       -2   -1    0    0    0  501  0.00000000000E+00  0.00000000000E+00  0.14621035287E+04  0.14621035287E+04  0.25500000920E-02 0. -1.
        2   -1    0    0  501    0  0.00000000000E+00  0.00000000000E+00 -0.73375761081E+03  0.73375761081E+03  0.25500000920E-02 0.  1.
    10030    2    1    2    0    0  0.00000000000E+00  0.00000000000E+00  0.72834591793E+03  0.21958611395E+04  0.20715497503E+04 0.  0.
        2    1    3    3  502    0  0.82550032827E+03 -0.24670879631E+03  0.97357534837E+03  0.13000634527E+04  0.25500000920E-02 0. -1.
       -2    1    3    3    0  502 -0.82550032827E+03  0.24670879631E+03 -0.24522943045E+03  0.89579768682E+03  0.25500000920E-02 0.  1.
</event>
<event>
 5   0  0.1122711E-04  0.1314195E+04  0.7818609E-02  0.9018384E-01
       -1   -1    0    0    0  501  0.00000000000E+00  0.00000000000E+00  0.40152903219E+03  0.40152903223E+03  0.50400001928E-02 0. -1.
        1   -1    0    0  501    0  0.00000000000E+00  0.00000000000E+00 -0.10753322614E+04  0.10753322614E+04  0.50400001928E-02 0.  1.
    10030    2    1    2    0    0  0.00000000000E+00  0.00000000000E+00 -0.67380322920E+03  0.14768612936E+04  0.13141949965E+04 0.  0.
        1    1    3    3  502    0  0.81479926889E+02 -0.36266694907E+03  0.27202636901E+03  0.46061333014E+03  0.50400001928E-02 0. -1.
       -1    1    3    3    0  502 -0.81479926889E+02  0.36266694907E+03 -0.94582959821E+03  0.10162479635E+04  0.50400001928E-02 0.  1.
</event>
<event>
 5   0  0.2512839E-04  0.1222107E+04  0.7818609E-02  0.9093724E-01
       -2   -1    0    0    0  501  0.00000000000E+00  0.00000000000E+00  0.34261942238E+03  0.34261942239E+03  0.25500000920E-02 0. -1.
        2   -1    0    0  501    0  0.00000000000E+00  0.00000000000E+00 -0.10897988499E+04  0.10897988499E+04  0.25500000920E-02 0.  1.
    10030    2    1    2    0    0  0.00000000000E+00  0.00000000000E+00 -0.74717942747E+03  0.14324182722E+04  0.12221067915E+04 0.  0.
        3    1    3    3  502    0  0.12905277909E+03  0.54600881822E+03 -0.65733699487E+03  0.86421767188E+03  0.10100000352E+00 0.  1.
       -3    1    3    3    0  502 -0.12905277909E+03 -0.54600881822E+03 -0.89842432602E+02  0.56820060037E+03  0.10100000352E+00 0. -1.
</event>
<event>
 5   0  0.2448804E-04  0.2082853E+04  0.7818609E-02  0.8568835E-01
        2   -1    0    0  501    0  0.00000000000E+00  0.00000000000E+00  0.10655355830E+04  0.10655355830E+04  0.25500000920E-02 0.  1.
       -2   -1    0    0    0  501  0.00000000000E+00  0.00000000000E+00 -0.10178627377E+04  0.10178627377E+04  0.25500000920E-02 0. -1.
    10030    2    1    2    0    0  0.00000000000E+00  0.00000000000E+00  0.47672845301E+02  0.20833983206E+04  0.20828528182E+04 0.  0.
        2    1    3    3  502    0 -0.19188291008E+03 -0.43924270098E+03 -0.90096819339E+03  0.10205375481E+04  0.25500000920E-02 0. -1.
       -2    1    3    3    0  502  0.19188291008E+03  0.43924270098E+03  0.94864103869E+03  0.10628607726E+04  0.25500000920E-02 0.  1.
</event>
<event>
 5   0  0.1122711E-04  0.2364135E+04  0.7818609E-02  0.8453054E-01
        1   -1    0    0  501    0  0.00000000000E+00  0.00000000000E+00  0.13131472674E+04  0.13131472674E+04  0.50400001928E-02 0. -1.
       -1   -1    0    0    0  501  0.00000000000E+00  0.00000000000E+00 -0.10640721813E+04  0.10640721813E+04  0.50400001928E-02 0.  1.
    10030    2    1    2    0    0  0.00000000000E+00  0.00000000000E+00  0.24907508607E+03  0.23772194487E+04  0.23641349177E+04 0.  0.
        1    1    3    3  502    0  0.93370051336E+03  0.41512383003E+03  0.72209844968E+03  0.12512196506E+04  0.50400001928E-02 0. -1.
       -1    1    3    3    0  502 -0.93370051336E+03 -0.41512383003E+03 -0.47302336361E+03  0.11259997982E+04  0.50400001928E-02 0.  1.
</event>
<event>
 5   0  0.2579241E-04  0.2068838E+04  0.7818609E-02  0.8575096E-01
        2   -1    0    0  501    0  0.00000000000E+00  0.00000000000E+00  0.11146808370E+04  0.11146808370E+04  0.25500000920E-02 0.  1.
       -2   -1    0    0    0  501  0.00000000000E+00  0.00000000000E+00 -0.95993650573E+03  0.95993650574E+03  0.25500000920E-02 0. -1.
    10030    2    1    2    0    0  0.00000000000E+00  0.00000000000E+00  0.15474433131E+03  0.20746173428E+04  0.20688381548E+04 0.  0.
        5    1    3    3  502    0 -0.28364441936E+03  0.51219687731E+03 -0.77777075098E+03  0.97352412854E+03  0.46999998093E+01 0. -1.
       -5    1    3    3    0  502  0.28364441936E+03 -0.51219687731E+03  0.93251508229E+03  0.11010932142E+04  0.46999998093E+01 0.  1.
</event>
<event>
 5   0  0.2448804E-04  0.1709069E+04  0.7818609E-02  0.8756209E-01
        2   -1    0    0  501    0  0.00000000000E+00  0.00000000000E+00  0.15457533045E+04  0.15457533045E+04  0.25500000920E-02 0.  1.
       -2   -1    0    0    0  501  0.00000000000E+00  0.00000000000E+00 -0.47241014338E+03  0.47241014338E+03  0.25500000920E-02 0. -1.
    10030    2    1    2    0    0  0.00000000000E+00  0.00000000000E+00  0.10733431611E+04  0.20181634479E+04  0.17090693845E+04 0.  0.
        2    1    3    3  502    0 -0.79512975572E+02  0.80560926711E+03  0.85984844517E+03  0.11809606061E+04  0.25500000920E-02 0.  1.
       -2    1    3    3    0  502  0.79512975572E+02 -0.80560926711E+03  0.21349471598E+03  0.83720284179E+03  0.25500000920E-02 0. -1.
</event>
<event>
 5   0  0.8698750E-05  0.2094258E+04  0.7818609E-02  0.8563777E-01
        4   -1    0    0  501    0  0.00000000000E+00  0.00000000000E+00  0.10964420938E+04  0.10964428293E+04  0.12699999809E+01 0.  1.
       -4   -1    0    0    0  501  0.00000000000E+00  0.00000000000E+00 -0.10000318750E+04  0.10000326814E+04  0.12699999809E+01 0. -1.
    10030    2    1    2    0    0  0.00000000000E+00  0.00000000000E+00  0.96410218851E+02  0.20964755107E+04  0.20942575383E+04 0.  0.
        2    1    3    3  502    0  0.98280493033E+03 -0.61608139575E+02 -0.30823035592E+03  0.10318464257E+04  0.25500000920E-02 0. -1.
       -2    1    3    3    0  502 -0.98280493033E+03  0.61608139575E+02  0.40464057477E+03  0.10646290850E+04  0.25500000920E-02 0.  1.
</event>
<event>
 5   0  0.1122711E-04  0.1735867E+04  0.7818609E-02  0.8741168E-01
        1   -1    0    0  501    0  0.00000000000E+00  0.00000000000E+00  0.16513820783E+04  0.16513820783E+04  0.50400001928E-02 0.  1.
       -1   -1    0    0    0  501  0.00000000000E+00  0.00000000000E+00 -0.45616857548E+03  0.45616857550E+03  0.50400001928E-02 0. -1.
    10030    2    1    2    0    0  0.00000000000E+00  0.00000000000E+00  0.11952135028E+04  0.21075506538E+04  0.17358670574E+04 0.  0.
        1    1    3    3  502    0  0.62170605923E+03  0.50933587964E+03  0.99543651193E+03  0.12793886476E+04  0.50400001928E-02 0. -1.
       -1    1    3    3    0  502 -0.62170605923E+03 -0.50933587964E+03  0.19977699089E+03  0.82816200618E+03  0.50400001928E-02 0.  1.
</event>
<event>
 5   0  0.2467483E-04  0.2073444E+04  0.7818609E-02  0.8573032E-01
       -2   -1    0    0    0  501  0.00000000000E+00  0.00000000000E+00  0.84577554885E+03  0.84577554886E+03  0.25500000920E-02 0. -1.
        2   -1    0    0  501    0  0.00000000000E+00  0.00000000000E+00 -0.12707776471E+04  0.12707776471E+04  0.25500000920E-02 0.  1.
    10030    2    1    2    0    0  0.00000000000E+00  0.00000000000E+00 -0.42500209822E+03  0.21165531959E+04  0.20734441511E+04 0.  0.
        4    1    3    3  502    0 -0.37042809560E+03  0.73827765337E+03 -0.85204123928E+03  0.11866957292E+04  0.12699999809E+01 0. -1.
       -4    1    3    3    0  502  0.37042809560E+03 -0.73827765337E+03  0.42703914106E+03  0.92985746669E+03  0.12699999809E+01 0.  1.
</event>
<event>
 5   0  0.2512839E-04  0.2071653E+04  0.7818609E-02  0.8573834E-01
       -2   -1    0    0    0  501  0.00000000000E+00  0.00000000000E+00  0.68570457444E+03  0.68570457445E+03  0.25500000920E-02 0. -1.
        2   -1    0    0  501    0  0.00000000000E+00  0.00000000000E+00 -0.15647219241E+04  0.15647219241E+04  0.25500000920E-02 0.  1.
    10030    2    1    2    0    0  0.00000000000E+00  0.00000000000E+00 -0.87901734968E+03  0.22504264986E+04  0.20716534277E+04 0.  0.
        3    1    3    3  502    0 -0.23925748601E+03  0.31082374333E+03 -0.14809258240E+04  0.15319911391E+04  0.10100000352E+00 0.  1.
       -3    1    3    3    0  502  0.23925748601E+03 -0.31082374333E+03  0.60190847431E+03  0.71843535943E+03  0.10100000352E+00 0. -1.
</event>
<event>
 5   0  0.8698750E-05  0.2083385E+04  0.7818609E-02  0.8568598E-01
       -4   -1    0    0    0  501  0.00000000000E+00  0.00000000000E+00  0.77649806635E+03  0.77649910492E+03  0.12699999809E+01 0.  1.
        4   -1    0    0  501    0  0.00000000000E+00  0.00000000000E+00 -0.13974550757E+04  0.13974556528E+04  0.12699999809E+01 0. -1.
    10030    2    1    2    0    0  0.00000000000E+00  0.00000000000E+00 -0.62095700939E+03  0.21739547578E+04  0.20833846695E+04 0.  0.
        4    1    3    3  502    0  0.38770837317E+03 -0.85033498553E+03 -0.79062777617E+03  0.12241246928E+04  0.12699999809E+01 0. -1.
       -4    1    3    3    0  502 -0.38770837317E+03  0.85033498553E+03  0.16967076678E+03  0.94983006492E+03  0.12699999809E+01 0.  1.
</event>
<event>
 5   0  0.2512839E-04  0.2132770E+04  0.7818609E-02  0.8546944E-01
        2   -1    0    0  501    0  0.00000000000E+00  0.00000000000E+00  0.19899890818E+04  0.19899890818E+04  0.25500000920E-02 0.  1.
       -2   -1    0    0    0  501  0.00000000000E+00  0.00000000000E+00 -0.57144882931E+03  0.57144882932E+03  0.25500000920E-02 0. -1.
    10030    2    1    2    0    0  0.00000000000E+00  0.00000000000E+00  0.14185402525E+04  0.25614379111E+04  0.21327699652E+04 0.  0.
        3    1    3    3  502    0  0.23950794588E+03 -0.10285833097E+04  0.88671322869E+03  0.13789880497E+04  0.10100000352E+00 0.  1.
       -3    1    3    3    0  502 -0.23950794588E+03  0.10285833097E+04  0.53182702379E+03  0.11824498614E+04  0.10100000352E+00 0. -1.
</event>
<event>
 5   0  0.1042395E-04  0.2091413E+04  0.7818609E-02  0.8565035E-01
       -1   -1    0    0    0  501  0.00000000000E+00  0.00000000000E+00  0.76385182980E+03  0.76385182982E+03  0.50400001928E-02 0.  1.
        1   -1    0    0  501    0  0.00000000000E+00  0.00000000000E+00 -0.14315630043E+04  0.14315630043E+04  0.50400001928E-02 0. -1.
    10030    2    1    2    0    0  0.00000000000E+00  0.00000000000E+00 -0.66771117447E+03  0.21954148341E+04  0.20914129390E+04 0.  0.
        3    1    3    3  502    0  0.85761607275E+03  0.59234193760E+03 -0.42247968768E+03  0.11246614584E+04  0.10100000352E+00 0.  1.
       -3    1    3    3    0  502 -0.85761607275E+03 -0.59234193760E+03 -0.24523148678E+03  0.10707533757E+04  0.10100000352E+00 0. -1.
</event>
<event>
 5   0  0.1042395E-04  0.2046041E+04  0.7818609E-02  0.8585392E-01
        1   -1    0    0  501    0  0.00000000000E+00  0.00000000000E+00  0.10702199996E+04  0.10702199997E+04  0.50400001928E-02 0.  1.
       -1   -1    0    0    0  501  0.00000000000E+00  0.00000000000E+00 -0.97790288966E+03  0.97790288967E+03  0.50400001928E-02 0. -1.
    10030    2    1    2    0    0  0.00000000000E+00  0.00000000000E+00  0.92317109983E+02  0.20481228893E+04  0.20460412804E+04 0.  0.
        3    1    3    3  502    0  0.35020730798E+03 -0.75852166428E+03  0.63715818939E+03  0.10507001676E+04  0.10100000352E+00 0.  1.
       -3    1    3    3    0  502 -0.35020730798E+03  0.75852166428E+03 -0.54484107941E+03  0.99742272170E+03  0.10100000352E+00 0. -1.
</event>
<event>
 5   0  0.2467483E-04  0.1668511E+04  0.7818609E-02  0.8779530E-01
        2   -1    0    0  501    0  0.00000000000E+00  0.00000000000E+00  0.82035502767E+03  0.82035502767E+03  0.25500000920E-02 0.  1.
       -2   -1    0    0    0  501  0.00000000000E+00  0.00000000000E+00 -0.84839116377E+03  0.84839116377E+03  0.25500000920E-02 0. -1.
    10030    2    1    2    0    0  0.00000000000E+00  0.00000000000E+00 -0.28036136101E+02  0.16687461914E+04  0.16685106612E+04 0.  0.
        4    1    3    3  502    0 -0.24861404270E+03 -0.56051292482E+03  0.55174425989E+03  0.82486788175E+03  0.12699999809E+01 0.  1.
       -4    1    3    3    0  502  0.24861404270E+03  0.56051292482E+03 -0.57978039599E+03  0.84387830970E+03  0.12699999809E+01 0. -1.
</event>
<event>
 5   0  0.1130848E-04  0.2002954E+04  0.7818609E-02  0.8605241E-01
        1   -1    0    0  501    0  0.00000000000E+00  0.00000000000E+00  0.13885839076E+04  0.13885839076E+04  0.50400001928E-02 0. -1.
       -1   -1    0    0    0  501  0.00000000000E+00  0.00000000000E+00 -0.72228725806E+03  0.72228725808E+03  0.50400001928E-02 0.  1.
    10030    2    1    2    0    0  0.00000000000E+00  0.00000000000E+00  0.66629664952E+03  0.21108711657E+04  0.20029542813E+04 0.  0.
        5    1    3    3  502    0 -0.82562409206E+03 -0.47648814874E+02 -0.26209157931E+03  0.86754806028E+03  0.46999998093E+01 0.  1.
       -5    1    3    3    0  502  0.82562409206E+03  0.47648814874E+02  0.92838822883E+03  0.12433231054E+04  0.46999998093E+01 0. -1.
</event>
<event>
 5   0  0.8698750E-05  0.2062818E+04  0.7818609E-02  0.8577802E-01
        3   -1    0    0  501    0  0.00000000000E+00  0.00000000000E+00  0.71649913064E+03  0.71649913776E+03  0.10100000352E+00 0. -1.
       -3   -1    0    0    0  501  0.00000000000E+00  0.00000000000E+00 -0.14847255818E+04  0.14847255853E+04  0.10100000352E+00 0.  1.
    10030    2    1    2    0    0  0.00000000000E+00  0.00000000000E+00 -0.76822645118E+03  0.22012247230E+04  0.20628180727E+04 0.  0.
        5    1    3    3  502    0  0.26473223593E+03  0.94612039934E+03 -0.49113861397E+02  0.98369773211E+03  0.46999998093E+01 0.  1.
       -5    1    3    3    0  502 -0.26473223593E+03 -0.94612039934E+03 -0.71911258979E+03  0.12175269909E+04  0.46999998093E+01 0. -1.
</event>
<event>
 5   0  0.1042395E-04  0.2084624E+04  0.7818609E-02  0.8568047E-01
        1   -1    0    0  501    0  0.00000000000E+00  0.00000000000E+00  0.88468087960E+03  0.88468087961E+03  0.50400001928E-02 0.  1.
       -1   -1    0    0    0  501  0.00000000000E+00  0.00000000000E+00 -0.12280290267E+04  0.12280290267E+04  0.50400001928E-02 0. -1.
    10030    2    1    2    0    0  0.00000000000E+00  0.00000000000E+00 -0.34334814714E+03  0.21127099064E+04  0.20846235148E+04 0.  0.
        3    1    3    3  502    0  0.78134272753E+03  0.81014531436E+02 -0.86599856947E+03  0.11691934591E+04  0.10100000352E+00 0. -1.
       -3    1    3    3    0  502 -0.78134272753E+03 -0.81014531436E+02  0.52265042233E+03  0.94351644730E+03  0.10100000352E+00 0.  1.
</event>
<event>
 5   0  0.8698750E-05  0.2081523E+04  0.7818609E-02  0.8569427E-01
        3   -1    0    0  501    0  0.00000000000E+00  0.00000000000E+00  0.76247307445E+03  0.76247308114E+03  0.10100000352E+00 0.  1.
       -3   -1    0    0    0  501  0.00000000000E+00  0.00000000000E+00 -0.14206194166E+04  0.14206194202E+04  0.10100000352E+00 0. -1.
    10030    2    1    2    0    0  0.00000000000E+00  0.00000000000E+00 -0.65814634219E+03  0.21830925014E+04  0.20815225826E+04 0.  0.
        4    1    3    3  502    0  0.90742054201E+03 -0.19353394362E+03 -0.82358355863E+03  0.12406284369E+04  0.12699999809E+01 0. -1.
       -4    1    3    3    0  502 -0.90742054201E+03  0.19353394362E+03  0.16543721644E+03  0.94246406450E+03  0.12699999809E+01 0.  1.
</event>
<event>
 5   0  0.1042395E-04  0.2082269E+04  0.7818609E-02  0.8569094E-01
       -1   -1    0    0    0  501  0.00000000000E+00  0.00000000000E+00  0.46296261215E+03  0.46296261218E+03  0.50400001928E-02 0.  1.
        1   -1    0    0  501    0  0.00000000000E+00  0.00000000000E+00 -0.23413585589E+04  0.23413585589E+04  0.50400001928E-02 0. -1.
    10030    2    1    2    0    0  0.00000000000E+00  0.00000000000E+00 -0.18783959468E+04  0.28043211711E+04  0.20822694105E+04 0.  0.
        3    1    3    3  502    0  0.56464325685E+03 -0.59589525563E+03 -0.76798783405E+02  0.82450665645E+03  0.10100000352E+00 0.  1.
       -3    1    3    3    0  502 -0.56464325685E+03  0.59589525563E+03 -0.18015971634E+04  0.19798145146E+04  0.10100000352E+00 0. -1.
</event>
<event>
 5   0  0.2430898E-04  0.2032701E+04  0.7818609E-02  0.8591483E-01
       -2   -1    0    0    0  501  0.00000000000E+00  0.00000000000E+00  0.15941437137E+04  0.15941437137E+04  0.25500000920E-02 0.  1.
        2   -1    0    0  501    0  0.00000000000E+00  0.00000000000E+00 -0.64797675439E+03  0.64797675440E+03  0.25500000920E-02 0. -1.
    10030    2    1    2    0    0  0.00000000000E+00  0.00000000000E+00  0.94616695927E+03  0.22421204681E+04  0.20327007351E+04 0.  0.
        1    1    3    3  502    0  0.82921950367E+03  0.30229209719E+03 -0.82804723614E+02  0.88647736551E+03  0.50400001928E-02 0. -1.
       -1    1    3    3    0  502 -0.82921950367E+03 -0.30229209719E+03  0.10289716829E+04  0.13556431026E+04  0.50400001928E-02 0.  1.
</event>
<event>
 5   0  0.1156733E-04  0.2106867E+04  0.7818609E-02  0.8558224E-01
       -1   -1    0    0    0  501  0.00000000000E+00  0.00000000000E+00  0.55895729109E+03  0.55895729111E+03  0.50400001928E-02 0.  1.
        1   -1    0    0  501    0  0.00000000000E+00  0.00000000000E+00 -0.19853440918E+04  0.19853440919E+04  0.50400001928E-02 0. -1.
    10030    2    1    2    0    0  0.00000000000E+00  0.00000000000E+00 -0.14263868008E+04  0.25443013830E+04  0.21068673954E+04 0.  0.
        2    1    3    3  502    0 -0.12491734114E+02  0.97596638803E+03 -0.11917780733E+04  0.15404549360E+04  0.25500000920E-02 0. -1.
       -2    1    3    3    0  502  0.12491734114E+02 -0.97596638803E+03 -0.23460872746E+03  0.10038464469E+04  0.25500000920E-02 0.  1.
</event>
<event>
 5   0  0.1042395E-04  0.2469505E+04  0.7818609E-02  0.8413931E-01
        1   -1    0    0  501    0  0.00000000000E+00  0.00000000000E+00  0.11593128961E+04  0.11593128961E+04  0.50400001928E-02 0. -1.
       -1   -1    0    0    0  501  0.00000000000E+00  0.00000000000E+00 -0.13151011078E+04  0.13151011078E+04  0.50400001928E-02 0.  1.
    10030    2    1    2    0    0  0.00000000000E+00  0.00000000000E+00 -0.15578821176E+03  0.24744140039E+04  0.24695049496E+04 0.  0.
        3    1    3    3  502    0  0.92980038673E+03 -0.76999338139E+03  0.18184136143E+03  0.12208541508E+04  0.10100000352E+00 0.  1.
       -3    1    3    3    0  502 -0.92980038673E+03  0.76999338139E+03 -0.33762957319E+03  0.12535598532E+04  0.10100000352E+00 0. -1.
</event>
<event>
 5   0  0.1156733E-04  0.2321757E+04  0.7818609E-02  0.8469392E-01
        1   -1    0    0  501    0  0.00000000000E+00  0.00000000000E+00  0.13661198746E+04  0.13661198746E+04  0.50400001928E-02 0.  1.
       -1   -1    0    0    0  501  0.00000000000E+00  0.00000000000E+00 -0.98647200218E+03  0.98647200220E+03  0.50400001928E-02 0. -1.
    10030    2    1    2    0    0  0.00000000000E+00  0.00000000000E+00  0.37964787239E+03  0.23525918768E+04  0.23217571001E+04 0.  0.
        2    1    3    3  502    0 -0.72990998040E+03  0.28854147725E+03 -0.67688023568E+03  0.10364321575E+04  0.25500000920E-02 0. -1.
       -2    1    3    3    0  502  0.72990998040E+03 -0.28854147725E+03  0.10565281081E+04  0.13161597193E+04  0.25500000920E-02 0.  1.
</event>
<event>
 5   0  0.1042395E-04  0.2088134E+04  0.7818609E-02  0.8566488E-01
       -1   -1    0    0    0  501  0.00000000000E+00  0.00000000000E+00  0.69792468238E+03  0.69792468240E+03  0.50400001928E-02 0. -1.
        1   -1    0    0  501    0  0.00000000000E+00  0.00000000000E+00 -0.15618825271E+04  0.15618825271E+04  0.50400001928E-02 0.  1.
    10030    2    1    2    0    0  0.00000000000E+00  0.00000000000E+00 -0.86395784469E+03  0.22598072095E+04  0.20881344465E+04 0.  0.
        3    1    3    3  502    0  0.67853592441E+03 -0.78001439000E+03 -0.27424688702E+03  0.10696003060E+04  0.10100000352E+00 0. -1.
       -3    1    3    3    0  502 -0.67853592441E+03  0.78001439000E+03 -0.58971095767E+03  0.11902069035E+04  0.10100000352E+00 0.  1.
</event>
<event>
 5   0  0.2579241E-04  0.2116425E+04  0.7818609E-02  0.8554042E-01
       -2   -1    0    0    0  501  0.00000000000E+00  0.00000000000E+00  0.11064946430E+04  0.11064946430E+04  0.25500000920E-02 0.  1.
        2   -1    0    0  501    0  0.00000000000E+00  0.00000000000E+00 -0.10120368660E+04  0.10120368661E+04  0.25500000920E-02 0. -1.
    10030    2    1    2    0    0  0.00000000000E+00  0.00000000000E+00  0.94457776946E+02  0.21185315090E+04  0.21164246935E+04 0.  0.
        5    1    3    3  502    0 -0.83915468194E+03  0.55649618308E+03  0.37301054438E+03  0.10737911986E+04  0.46999998093E+01 0.  1.
       -5    1    3    3    0  502  0.83915468194E+03 -0.55649618308E+03 -0.27855276743E+03  0.10447403104E+04  0.46999998093E+01 0. -1.
</event>
<event>
 5   0  0.2430898E-04  0.2141402E+04  0.7818609E-02  0.8543222E-01
        2   -1    0    0  501    0  0.00000000000E+00  0.00000000000E+00  0.25082157033E+04  0.25082157033E+04  0.25500000920E-02 0. -1.
       -2   -1    0    0    0  501  0.00000000000E+00  0.00000000000E+00 -0.45705813366E+03  0.45705813367E+03  0.25500000920E-02 0.  1.
    10030    2    1    2    0    0  0.00000000000E+00  0.00000000000E+00  0.20511575696E+04  0.29652738370E+04  0.21414017728E+04 0.  0.
        1    1    3    3  502    0 -0.61212982601E+02  0.69529041838E+03 -0.98724160187E+02  0.70492712741E+03  0.50400001928E-02 0.  1.
       -1    1    3    3    0  502  0.61212982601E+02 -0.69529041838E+03  0.21498817298E+04  0.22603467095E+04  0.50400001928E-02 0. -1.
</event>
<event>
 5   0  0.1122711E-04  0.2132533E+04  0.7818609E-02  0.8547046E-01
        1   -1    0    0  501    0  0.00000000000E+00  0.00000000000E+00  0.22903402646E+04  0.22903402646E+04  0.50400001928E-02 0.  1.
       -1   -1    0    0    0  501  0.00000000000E+00  0.00000000000E+00 -0.49639953405E+03  0.49639953407E+03  0.50400001928E-02 0. -1.
    10030    2    1    2    0    0  0.00000000000E+00  0.00000000000E+00  0.17939407306E+04  0.27867397987E+04  0.21325326166E+04 0.  0.
        1    1    3    3  502    0 -0.46923865128E+03  0.87870359830E+03  0.40001968825E+03  0.10734620052E+04  0.50400001928E-02 0.  1.
       -1    1    3    3    0  502  0.46923865128E+03 -0.87870359830E+03  0.13939210423E+04  0.17132777935E+04  0.50400001928E-02 0. -1.
</event>
<event>
 5   0  0.2448804E-04  0.2073692E+04  0.7818609E-02  0.8572922E-01
       -2   -1    0    0    0  501  0.00000000000E+00  0.00000000000E+00  0.58850442181E+03  0.58850442181E+03  0.25500000920E-02 0.  1.
        2   -1    0    0  501    0  0.00000000000E+00  0.00000000000E+00 -0.18267485541E+04  0.18267485541E+04  0.25500000920E-02 0. -1.
    10030    2    1    2    0    0  0.00000000000E+00  0.00000000000E+00 -0.12382441323E+04  0.24152529759E+04  0.20736919748E+04 0.  0.
        2    1    3    3  502    0  0.87319244647E+03  0.55572882417E+03 -0.69044604773E+03  0.12441926376E+04  0.25500000920E-02 0. -1.
       -2    1    3    3    0  502 -0.87319244647E+03 -0.55572882417E+03 -0.54779808456E+03  0.11710603383E+04  0.25500000920E-02 0.  1.
</event>
<event>
 5   0  0.2579241E-04  0.2058950E+04  0.7818609E-02  0.8579545E-01
        2   -1    0    0  501    0  0.00000000000E+00  0.00000000000E+00  0.13791129849E+04  0.13791129849E+04  0.25500000920E-02 0. -1.
       -2   -1    0    0    0  501  0.00000000000E+00  0.00000000000E+00 -0.76847887142E+03  0.76847887142E+03  0.25500000920E-02 0.  1.
    10030    2    1    2    0    0  0.00000000000E+00  0.00000000000E+00  0.61063411347E+03  0.21475918563E+04  0.20589504027E+04 0.  0.
        5    1    3    3  502    0  0.69383640454E+03  0.52708169841E+03 -0.26653128475E+03  0.91119980729E+03  0.46999998093E+01 0.  1.
       -5    1    3    3    0  502 -0.69383640454E+03 -0.52708169841E+03  0.87716539822E+03  0.12363920490E+04  0.46999998093E+01 0. -1.
</event>
<event>
 5   0  0.1156733E-04  0.2095500E+04  0.7818609E-02  0.8563228E-01
        1   -1    0    0  501    0  0.00000000000E+00  0.00000000000E+00  0.13872729904E+04  0.13872729904E+04  0.50400001928E-02 0. -1.
       -1   -1    0    0    0  501  0.00000000000E+00  0.00000000000E+00 -0.79132243241E+03  0.79132243242E+03  0.50400001928E-02 0.  1.
    10030    2    1    2    0    0  0.00000000000E+00  0.00000000000E+00  0.59595055797E+03  0.21785954228E+04  0.20955001667E+04 0.  0.
        2    1    3    3  502    0  0.91744605282E+02  0.12022471778E+03  0.13758660995E+04  0.13841526575E+04  0.25500000920E-02 0. -1.
       -2    1    3    3    0  502 -0.91744605282E+02 -0.12022471778E+03 -0.77991554158E+03  0.79444276532E+03  0.25500000920E-02 0.  1.
</event>
<event>
 5   0  0.2448804E-04  0.2008650E+04  0.7818609E-02  0.8602587E-01
        2   -1    0    0  501    0  0.00000000000E+00  0.00000000000E+00  0.16089695811E+04  0.16089695811E+04  0.25500000920E-02 0.  1.
       -2   -1    0    0    0  501  0.00000000000E+00  0.00000000000E+00 -0.62690366686E+03  0.62690366686E+03  0.25500000920E-02 0. -1.
    10030    2    1    2    0    0  0.00000000000E+00  0.00000000000E+00  0.98206591421E+03  0.22358732479E+04  0.20086502236E+04 0.  0.
        2    1    3    3  502    0 -0.91370685596E+02 -0.55962749369E+03 -0.43167582622E+03  0.71265388010E+03  0.25500000920E-02 0. -1.
       -2    1    3    3    0  502  0.91370685596E+02  0.55962749369E+03  0.14137417404E+04  0.15232193678E+04  0.25500000920E-02 0.  1.
</event>
<event>
 5   0  0.2512839E-04  0.2187543E+04  0.7818609E-02  0.8523631E-01
       -2   -1    0    0    0  501  0.00000000000E+00  0.00000000000E+00  0.10427776172E+04  0.10427776172E+04  0.25500000920E-02 0. -1.
        2   -1    0    0  501    0  0.00000000000E+00  0.00000000000E+00 -0.11472595414E+04  0.11472595415E+04  0.25500000920E-02 0.  1.
    10030    2    1    2    0    0  0.00000000000E+00  0.00000000000E+00 -0.10448192423E+03  0.21900371587E+04  0.21875434359E+04 0.  0.
        3    1    3    3  502    0 -0.11086206933E+03 -0.64260146021E+03 -0.93137041981E+03  0.11369599396E+04  0.10100000352E+00 0.  1.
       -3    1    3    3    0  502  0.11086206933E+03  0.64260146021E+03  0.82688849558E+03  0.10530772191E+04  0.10100000352E+00 0. -1.
</event>
<event>
 5   0  0.8698750E-05  0.1701904E+04  0.7818609E-02  0.8760279E-01
        3   -1    0    0  501    0  0.00000000000E+00  0.00000000000E+00  0.52188230477E+03  0.52188231455E+03  0.10100000352E+00 0.  1.
       -3   -1    0    0    0  501  0.00000000000E+00  0.00000000000E+00 -0.13875138181E+04  0.13875138217E+04  0.10100000352E+00 0. -1.
    10030    2    1    2    0    0  0.00000000000E+00  0.00000000000E+00 -0.86563151330E+03  0.19093961363E+04  0.17019035485E+04 0.  0.
        2    1    3    3  502    0 -0.14134433127E+02  0.81419078523E+03 -0.15569406316E+03  0.82906396512E+03  0.25500000920E-02 0.  1.
       -2    1    3    3    0  502  0.14134433127E+02 -0.81419078523E+03 -0.70993745014E+03  0.10803321712E+04  0.25500000920E-02 0. -1.
</event>
<event>
 5   0  0.1130848E-04  0.2057138E+04  0.7818609E-02  0.8580363E-01
        1   -1    0    0  501    0  0.00000000000E+00  0.00000000000E+00  0.11122532514E+04  0.11122532514E+04  0.50400001928E-02 0. -1.
       -1   -1    0    0    0  501  0.00000000000E+00  0.00000000000E+00 -0.95118104337E+03  0.95118104338E+03  0.50400001928E-02 0.  1.
    10030    2    1    2    0    0  0.00000000000E+00  0.00000000000E+00  0.16107220800E+03  0.20634342948E+04  0.20571380198E+04 0.  0.
        5    1    3    3  502    0  0.56535715716E+03 -0.36368132232E+03  0.86140407024E+03  0.10926719002E+04  0.46999998093E+01 0. -1.
       -5    1    3    3    0  502 -0.56535715716E+03  0.36368132232E+03 -0.70033186224E+03  0.97076239452E+03  0.46999998093E+01 0.  1.
</event>
<event>
 5   0  0.2430898E-04  0.2067887E+04  0.7818609E-02  0.8575523E-01
       -2   -1    0    0    0  501  0.00000000000E+00  0.00000000000E+00  0.99738915331E+03  0.99738915332E+03  0.25500000920E-02 0. -1.
        2   -1    0    0  501    0  0.00000000000E+00  0.00000000000E+00 -0.10718373545E+04  0.10718373545E+04  0.25500000920E-02 0.  1.
    10030    2    1    2    0    0  0.00000000000E+00  0.00000000000E+00 -0.74448201174E+02  0.20692265078E+04  0.20678867972E+04 0.  0.
        1    1    3    3  502    0  0.57821456432E+03  0.73753908681E+03 -0.47424835137E+03  0.10503368440E+04  0.50400001928E-02 0. -1.
       -1    1    3    3    0  502 -0.57821456432E+03 -0.73753908681E+03  0.39980015020E+03  0.10188896638E+04  0.50400001928E-02 0.  1.
</event>
<event>
 5   0  0.1186038E-04  0.2006352E+04  0.7818609E-02  0.8603657E-01
       -1   -1    0    0    0  501  0.00000000000E+00  0.00000000000E+00  0.11296044639E+04  0.11296044640E+04  0.50400001928E-02 0.  1.
        1   -1    0    0  501    0  0.00000000000E+00  0.00000000000E+00 -0.89089752871E+03  0.89089752873E+03  0.50400001928E-02 0. -1.
    10030    2    1    2    0    0  0.00000000000E+00  0.00000000000E+00  0.23870693523E+03  0.20205019927E+04  0.20063517392E+04 0.  0.
        4    1    3    3  502    0 -0.30152567368E+03 -0.10952781266E+03  0.10765549079E+04  0.11233370626E+04  0.12699999809E+01 0.  1.
       -4    1    3    3    0  502  0.30152567368E+03  0.10952781266E+03 -0.83784797264E+03  0.89716493009E+03  0.12699999809E+01 0. -1.
</event>
<event>
 5   0  0.1156733E-04  0.2128918E+04  0.7818609E-02  0.8548611E-01
       -1   -1    0    0    0  501  0.00000000000E+00  0.00000000000E+00  0.65209663098E+03  0.65209663100E+03  0.50400001928E-02 0.  1.
        1   -1    0    0  501    0  0.00000000000E+00  0.00000000000E+00 -0.17375838521E+04  0.17375838521E+04  0.50400001928E-02 0. -1.
    10030    2    1    2    0    0  0.00000000000E+00  0.00000000000E+00 -0.10854872211E+04  0.23896804831E+04  0.21289176368E+04 0.  0.
        2    1    3    3  502    0  0.10105733641E+04  0.30987952191E+03 -0.40169960724E+03  0.11307724868E+04  0.25500000920E-02 0.  1.
       -2    1    3    3    0  502 -0.10105733641E+04 -0.30987952191E+03 -0.68378761391E+03  0.12589079964E+04  0.25500000920E-02 0. -1.
</event>
<event>
 5   0  0.2467483E-04  0.2119597E+04  0.7818609E-02  0.8552660E-01
       -2   -1    0    0    0  501  0.00000000000E+00  0.00000000000E+00  0.10941539054E+04  0.10941539054E+04  0.25500000920E-02 0.  1.
        2   -1    0    0  501    0  0.00000000000E+00  0.00000000000E+00 -0.10265218728E+04  0.10265218728E+04  0.25500000920E-02 0. -1.
    10030    2    1    2    0    0  0.00000000000E+00  0.00000000000E+00  0.67632032548E+02  0.21206757782E+04  0.21195970524E+04 0.  0.
        4    1    3    3  502    0  0.25686791325E+03  0.29985324625E+03 -0.95018754714E+03  0.10289563070E+04  0.12699999809E+01 0. -1.
       -4    1    3    3    0  502 -0.25686791325E+03 -0.29985324625E+03  0.10178195797E+04  0.10917194712E+04  0.12699999809E+01 0.  1.
</event>
<event>
 5   0  0.2448804E-04  0.1823946E+04  0.7818609E-02  0.8693668E-01
       -2   -1    0    0    0  501  0.00000000000E+00  0.00000000000E+00  0.11890447671E+04  0.11890447671E+04  0.25500000920E-02 0. -1.
        2   -1    0    0  501    0  0.00000000000E+00  0.00000000000E+00 -0.69946484499E+03  0.69946484500E+03  0.25500000920E-02 0.  1.
    10030    2    1    2    0    0  0.00000000000E+00  0.00000000000E+00  0.48957992211E+03  0.18885096121E+04  0.18239462862E+04 0.  0.
        2    1    3    3  502    0 -0.83926299315E+02 -0.63731468564E+03 -0.42501016577E+03  0.77061486701E+03  0.25500000920E-02 0.  1.
       -2    1    3    3    0  502  0.83926299315E+02  0.63731468564E+03  0.91459008789E+03  0.11178947451E+04  0.25500000920E-02 0. -1.
</event>
<event>
 5   0  0.2579241E-04  0.2101271E+04  0.7818609E-02  0.8560684E-01
        2   -1    0    0  501    0  0.00000000000E+00  0.00000000000E+00  0.15172920377E+04  0.15172920377E+04  0.25500000920E-02 0.  1.
       -2   -1    0    0    0  501  0.00000000000E+00  0.00000000000E+00 -0.72750349644E+03  0.72750349644E+03  0.25500000920E-02 0. -1.
    10030    2    1    2    0    0  0.00000000000E+00  0.00000000000E+00  0.78978854125E+03  0.22447955341E+04  0.21012712938E+04 0.  0.
        5    1    3    3  502    0  0.13449865444E+03 -0.10243803882E+04  0.19116426535E+03  0.10507192461E+04  0.46999998093E+01 0. -1.
       -5    1    3    3    0  502 -0.13449865444E+03  0.10243803882E+04  0.59862427590E+03  0.11940762880E+04  0.46999998093E+01 0.  1.
</event>
<event>
 5   0  0.1156733E-04  0.2125272E+04  0.7818609E-02  0.8550192E-01
        1   -1    0    0  501    0  0.00000000000E+00  0.00000000000E+00  0.17063023710E+04  0.17063023710E+04  0.50400001928E-02 0. -1.
       -1   -1    0    0    0  501  0.00000000000E+00  0.00000000000E+00 -0.66177942130E+03  0.66177942132E+03  0.50400001928E-02 0.  1.
    10030    2    1    2    0    0  0.00000000000E+00  0.00000000000E+00  0.10445229497E+04  0.23680817923E+04  0.21252724961E+04 0.  0.
        2    1    3    3  502    0 -0.17961047570E+03  0.30972693127E+03  0.16370698479E+04  0.16757650139E+04  0.25500000920E-02 0. -1.
       -2    1    3    3    0  502  0.17961047570E+03 -0.30972693127E+03 -0.59254689826E+03  0.69231677835E+03  0.25500000920E-02 0.  1.
</event>
<event>
 5   0  0.2467483E-04  0.2122566E+04  0.7818609E-02  0.8551368E-01
        2   -1    0    0  501    0  0.00000000000E+00  0.00000000000E+00  0.89138795784E+03  0.89138795784E+03  0.25500000920E-02 0.  1.
       -2   -1    0    0    0  501  0.00000000000E+00  0.00000000000E+00 -0.12635593841E+04  0.12635593841E+04  0.25500000920E-02 0. -1.
    10030    2    1    2    0    0  0.00000000000E+00  0.00000000000E+00 -0.37217142630E+03  0.21549473420E+04  0.21225660122E+04 0.  0.
        4    1    3    3  502    0  0.96926060675E+03 -0.31075037654E+03 -0.49114951571E+03  0.11301598913E+04  0.12699999809E+01 0.  1.
       -4    1    3    3    0  502 -0.96926060675E+03  0.31075037654E+03  0.11897808941E+03  0.10247874506E+04  0.12699999809E+01 0. -1.
</event>
<event>
 5   0  0.2512839E-04  0.2107437E+04  0.7818609E-02  0.8557974E-01
        2   -1    0    0  501    0  0.00000000000E+00  0.00000000000E+00  0.13148476333E+04  0.13148476333E+04  0.25500000920E-02 0.  1.
       -2   -1    0    0    0  501  0.00000000000E+00  0.00000000000E+00 -0.84444970560E+03  0.84444970560E+03  0.25500000920E-02 0. -1.
    10030    2    1    2    0    0  0.00000000000E+00  0.00000000000E+00  0.47039792770E+03  0.21592973389E+04  0.21074370186E+04 0.  0.
        3    1    3    3  502    0  0.62248864663E+02  0.71097274578E+03  0.10294954162E+04  0.12526843132E+04  0.10100000352E+00 0.  1.
       -3    1    3    3    0  502 -0.62248864663E+02 -0.71097274578E+03 -0.55909748854E+03  0.90661302565E+03  0.10100000352E+00 0. -1.
</event>
<event>
 5   0  0.1042395E-04  0.2101521E+04  0.7818609E-02  0.8560574E-01
        1   -1    0    0  501    0  0.00000000000E+00  0.00000000000E+00  0.15127726205E+04  0.15127726206E+04  0.50400001928E-02 0. -1.
       -1   -1    0    0    0  501  0.00000000000E+00  0.00000000000E+00 -0.72985042899E+03  0.72985042901E+03  0.50400001928E-02 0.  1.
    10030    2    1    2    0    0  0.00000000000E+00  0.00000000000E+00  0.78292219155E+03  0.22426230496E+04  0.21015211121E+04 0.  0.
        3    1    3    3  502    0 -0.26394605453E+02 -0.10499299932E+04  0.35691350997E+03  0.11092506162E+04  0.10100000352E+00 0.  1.
       -3    1    3    3    0  502  0.26394605453E+02  0.10499299932E+04  0.42600868159E+03  0.11333724334E+04  0.10100000352E+00 0. -1.
</event>
<event>
 5   0  0.2512839E-04  0.2092691E+04  0.7818609E-02  0.8564470E-01
       -2   -1    0    0    0  501  0.00000000000E+00  0.00000000000E+00  0.87260454687E+03  0.87260454688E+03  0.25500000920E-02 0.  1.
        2   -1    0    0  501    0  0.00000000000E+00  0.00000000000E+00 -0.12546796888E+04  0.12546796888E+04  0.25500000920E-02 0. -1.
    10030    2    1    2    0    0  0.00000000000E+00  0.00000000000E+00 -0.38207514196E+03  0.21272842357E+04  0.20926912829E+04 0.  0.
        3    1    3    3  502    0 -0.38031413677E+02 -0.30238638405E+02 -0.12535323178E+04  0.12544736130E+04  0.10100000352E+00 0. -1.
       -3    1    3    3    0  502  0.38031413677E+02  0.30238638405E+02  0.87145717583E+03  0.87281062275E+03  0.10100000352E+00 0.  1.
</event>
<event>
 5   0  0.1156733E-04  0.1477362E+04  0.7818609E-02  0.8899648E-01
       -1   -1    0    0    0  501  0.00000000000E+00  0.00000000000E+00  0.46009900652E+03  0.46009900654E+03  0.50400001928E-02 0. -1.
        1   -1    0    0  501    0  0.00000000000E+00  0.00000000000E+00 -0.11859394871E+04  0.11859394871E+04  0.50400001928E-02 0.  1.
    10030    2    1    2    0    0  0.00000000000E+00  0.00000000000E+00 -0.72584048060E+03  0.16460384937E+04  0.14773619460E+04 0.  0.
        2    1    3    3  502    0 -0.27168756300E+03 -0.19780978708E+02  0.40209169275E+03  0.48567802955E+03  0.25500000920E-02 0. -1.
       -2    1    3    3    0  502  0.27168756300E+03  0.19780978708E+02 -0.11279321733E+04  0.11603604641E+04  0.25500000920E-02 0.  1.
</event>
<event>
 5   0  0.1122711E-04  0.2074569E+04  0.7818609E-02  0.8572529E-01
       -1   -1    0    0    0  501  0.00000000000E+00  0.00000000000E+00  0.14528474372E+04  0.14528474372E+04  0.50400001928E-02 0. -1.
        1   -1    0    0  501    0  0.00000000000E+00  0.00000000000E+00 -0.74058664608E+03  0.74058664610E+03  0.50400001928E-02 0.  1.
    10030    2    1    2    0    0  0.00000000000E+00  0.00000000000E+00  0.71226079108E+03  0.21934340833E+04  0.20745692669E+04 0.  0.
        1    1    3    3  502    0 -0.79701717102E+03  0.61110638485E+03  0.81901065784E+02  0.10076681840E+04  0.50400001928E-02 0.  1.
       -1    1    3    3    0  502  0.79701717102E+03 -0.61110638485E+03  0.63035972529E+03  0.11857658992E+04  0.50400001928E-02 0. -1.
</event>
<event>
 5   0  0.2467483E-04  0.2102421E+04  0.7818609E-02  0.8560178E-01
        2   -1    0    0  501    0  0.00000000000E+00  0.00000000000E+00  0.21133098805E+04  0.21133098805E+04  0.25500000920E-02 0. -1.
       -2   -1    0    0    0  501  0.00000000000E+00  0.00000000000E+00 -0.52289707729E+03  0.52289707730E+03  0.25500000920E-02 0.  1.
    10030    2    1    2    0    0  0.00000000000E+00  0.00000000000E+00  0.15904128032E+04  0.26362069578E+04  0.21024210424E+04 0.  0.
        4    1    3    3  502    0  0.53993764090E+03  0.66020720630E+03  0.24664341352E+02  0.85323862661E+03  0.12699999809E+01 0.  1.
       -4    1    3    3    0  502 -0.53993764090E+03 -0.66020720630E+03  0.15657484618E+04  0.17829683311E+04  0.12699999809E+01 0. -1.
</event>
<event>
 5   0  0.2467483E-04  0.2550140E+04  0.7818609E-02  0.8385337E-01
       -2   -1    0    0    0  501  0.00000000000E+00  0.00000000000E+00  0.60161885749E+03  0.60161885749E+03  0.25500000920E-02 0.  1.
        2   -1    0    0  501    0  0.00000000000E+00  0.00000000000E+00 -0.27023819850E+04  0.27023819850E+04  0.25500000920E-02 0. -1.
    10030    2    1    2    0    0  0.00000000000E+00  0.00000000000E+00 -0.21007631275E+04  0.33040008425E+04  0.25501403587E+04 0.  0.
        4    1    3    3  502    0 -0.72129890229E+03 -0.84484728340E+03 -0.23944301509E+03  0.11363862060E+04  0.12699999809E+01 0.  1.
       -4    1    3    3    0  502  0.72129890229E+03  0.84484728340E+03 -0.18613201124E+04  0.21676146365E+04  0.12699999809E+01 0. -1.
</event>
<event>
 5   0  0.2467483E-04  0.2103893E+04  0.7818609E-02  0.8559530E-01
       -2   -1    0    0    0  501  0.00000000000E+00  0.00000000000E+00  0.49921562119E+03  0.49921562120E+03  0.25500000920E-02 0.  1.
        2   -1    0    0  501    0  0.00000000000E+00  0.00000000000E+00 -0.22166608502E+04  0.22166608502E+04  0.25500000920E-02 0. -1.
    10030    2    1    2    0    0  0.00000000000E+00  0.00000000000E+00 -0.17174452290E+04  0.27158764714E+04  0.21038932704E+04 0.  0.
        4    1    3    3  502    0 -0.41498911688E+03 -0.71053791964E+03 -0.12717571057E+02  0.82294802503E+03  0.12699999809E+01 0.  1.
       -4    1    3    3    0  502  0.41498911688E+03  0.71053791964E+03 -0.17047276580E+04  0.18929284464E+04  0.12699999809E+01 0. -1.
</event>
<event>
 5   0  0.1122711E-04  0.1511078E+04  0.7818609E-02  0.8877119E-01
       -1   -1    0    0    0  501  0.00000000000E+00  0.00000000000E+00  0.40627036337E+03  0.40627036340E+03  0.50400001928E-02 0. -1.
        1   -1    0    0  501    0  0.00000000000E+00  0.00000000000E+00 -0.14050722616E+04  0.14050722616E+04  0.50400001928E-02 0.  1.
    10030    2    1    2    0    0  0.00000000000E+00  0.00000000000E+00 -0.99880189825E+03  0.18113426250E+04  0.15110780500E+04 0.  0.
        1    1    3    3  502    0 -0.19809182405E+03 -0.72571354411E+03 -0.58364126918E+03  0.95212270742E+03  0.50400001928E-02 0.  1.
       -1    1    3    3    0  502  0.19809182405E+03  0.72571354411E+03 -0.41516062906E+03  0.85921991761E+03  0.50400001928E-02 0. -1.
</event>
<event>
 5   0  0.2512839E-04  0.2103778E+04  0.7818609E-02  0.8559581E-01
       -2   -1    0    0    0  501  0.00000000000E+00  0.00000000000E+00  0.67490016625E+03  0.67490016626E+03  0.25500000920E-02 0. -1.
        2   -1    0    0  501    0  0.00000000000E+00  0.00000000000E+00 -0.16394576835E+04  0.16394576835E+04  0.25500000920E-02 0.  1.
    10030    2    1    2    0    0  0.00000000000E+00  0.00000000000E+00 -0.96455751727E+03  0.23143578498E+04  0.21037778050E+04 0.  0.
        3    1    3    3  502    0  0.37946717368E+03  0.89711748678E+03 -0.91908083928E+03  0.13392254180E+04  0.10100000352E+00 0.  1.
       -3    1    3    3    0  502 -0.37946717368E+03 -0.89711748678E+03 -0.45476677984E+02  0.97513243174E+03  0.10100000352E+00 0. -1.
</event>
<event>
 5   0  0.2430898E-04  0.2133861E+04  0.7818609E-02  0.8546473E-01
        2   -1    0    0  501    0  0.00000000000E+00  0.00000000000E+00  0.17492619837E+04  0.17492619837E+04  0.25500000920E-02 0. -1.
       -2   -1    0    0    0  501  0.00000000000E+00  0.00000000000E+00 -0.65075453697E+03  0.65075453697E+03  0.25500000920E-02 0.  1.
    10030    2    1    2    0    0  0.00000000000E+00  0.00000000000E+00  0.10985074468E+04  0.24000165207E+04  0.21338605130E+04 0.  0.
        1    1    3    3  502    0 -0.91195559199E+02 -0.10627197603E+04  0.57793440566E+03  0.12131356463E+04  0.50400001928E-02 0.  1.
       -1    1    3    3    0  502  0.91195559199E+02  0.10627197603E+04  0.52057304110E+03  0.11868808744E+04  0.50400001928E-02 0. -1.
</event>
<event>
 5   0  0.1156733E-04  0.2207054E+04  0.7818609E-02  0.8515498E-01
        1   -1    0    0  501    0  0.00000000000E+00  0.00000000000E+00  0.16498696954E+04  0.16498696954E+04  0.50400001928E-02 0.  1.
       -1   -1    0    0    0  501  0.00000000000E+00  0.00000000000E+00 -0.73810199405E+03  0.73810199407E+03  0.50400001928E-02 0. -1.
    10030    2    1    2    0    0  0.00000000000E+00  0.00000000000E+00  0.91176770136E+03  0.23879716895E+04  0.22070542468E+04 0.  0.
        2    1    3    3  502    0  0.83002368552E+03 -0.62947717380E+03  0.84986337332E+03  0.13444138441E+04  0.25500000920E-02 0.  1.
       -2    1    3    3    0  502 -0.83002368552E+03  0.62947717380E+03  0.61904328047E+02  0.10435578454E+04  0.25500000920E-02 0. -1.
</event>
<event>
 5   0  0.1122711E-04  0.1936601E+04  0.7818609E-02  0.8636849E-01
        1   -1    0    0  501    0  0.00000000000E+00  0.00000000000E+00  0.15559879680E+04  0.15559879680E+04  0.50400001928E-02 0. -1.
       -1   -1    0    0    0  501  0.00000000000E+00  0.00000000000E+00 -0.60257927972E+03  0.60257927974E+03  0.50400001928E-02 0.  1.
    10030    2    1    2    0    0  0.00000000000E+00  0.00000000000E+00  0.95340868832E+03  0.21585672478E+04  0.19366012590E+04 0.  0.
        1    1    3    3  502    0  0.41445590704E+03  0.77568264634E+03  0.92829431199E+03  0.12787445391E+04  0.50400001928E-02 0. -1.
       -1    1    3    3    0  502 -0.41445590704E+03 -0.77568264634E+03  0.25114376332E+02  0.87982270864E+03  0.50400001928E-02 0.  1.
</event>
<event>
 5   0  0.1156733E-04  0.2084281E+04  0.7818609E-02  0.8568199E-01
       -1   -1    0    0    0  501  0.00000000000E+00  0.00000000000E+00  0.97975419031E+03  0.97975419032E+03  0.50400001928E-02 0. -1.
        1   -1    0    0  501    0  0.00000000000E+00  0.00000000000E+00 -0.11084996476E+04  0.11084996476E+04  0.50400001928E-02 0.  1.
    10030    2    1    2    0    0  0.00000000000E+00  0.00000000000E+00 -0.12874545725E+03  0.20882538379E+04  0.20842813387E+04 0.  0.
        2    1    3    3  502    0 -0.82170584297E+03 -0.11580382732E+03 -0.69600759990E+03  0.10830686026E+04  0.25500000920E-02 0.  1.
       -2    1    3    3    0  502  0.82170584297E+03  0.11580382732E+03  0.56726214264E+03  0.10051852353E+04  0.25500000920E-02 0. -1.
</event>
<event>
 5   0  0.2512839E-04  0.1956449E+04  0.7818609E-02  0.8627257E-01
        2   -1    0    0  501    0  0.00000000000E+00  0.00000000000E+00  0.20376657871E+04  0.20376657871E+04  0.25500000920E-02 0.  1.
       -2   -1    0    0    0  501  0.00000000000E+00  0.00000000000E+00 -0.46961726266E+03  0.46961726266E+03  0.25500000920E-02 0. -1.
    10030    2    1    2    0    0  0.00000000000E+00  0.00000000000E+00  0.15680485244E+04  0.25072830498E+04  0.19564488536E+04 0.  0.
        3    1    3    3  502    0  0.63222008853E+03 -0.64580619483E+03  0.12638012092E+04  0.15536928229E+04  0.10100000352E+00 0. -1.
       -3    1    3    3    0  502 -0.63222008853E+03  0.64580619483E+03  0.30424731529E+03  0.95359022682E+03  0.10100000352E+00 0.  1.
</event>
<event>
 5   0  0.1156733E-04  0.2101972E+04  0.7818609E-02  0.8560375E-01
        1   -1    0    0  501    0  0.00000000000E+00  0.00000000000E+00  0.11301565384E+04  0.11301565384E+04  0.50400001928E-02 0.  1.
       -1   -1    0    0    0  501  0.00000000000E+00  0.00000000000E+00 -0.97736141848E+03  0.97736141850E+03  0.50400001928E-02 0. -1.
    10030    2    1    2    0    0  0.00000000000E+00  0.00000000000E+00  0.15279511988E+03  0.21075179569E+04  0.21019718337E+04 0.  0.
        2    1    3    3  502    0  0.40218004489E+03  0.18955315402E+03  0.10312191430E+04  0.11229835740E+04  0.25500000920E-02 0.  1.
       -2    1    3    3    0  502 -0.40218004489E+03 -0.18955315402E+03 -0.87842402307E+03  0.98453438286E+03  0.25500000920E-02 0. -1.
</event>
<event>
 5   0  0.2448804E-04  0.2100721E+04  0.7818609E-02  0.8560926E-01
        2   -1    0    0  501    0  0.00000000000E+00  0.00000000000E+00  0.17039692435E+04  0.17039692435E+04  0.25500000920E-02 0.  1.
       -2   -1    0    0    0  501  0.00000000000E+00  0.00000000000E+00 -0.64746304128E+03  0.64746304128E+03  0.25500000920E-02 0. -1.
    10030    2    1    2    0    0  0.00000000000E+00  0.00000000000E+00  0.10565062023E+04  0.23514322848E+04  0.21007209321E+04 0.  0.
        2    1    3    3  502    0  0.56635427986E+03  0.58675038415E+03  0.12692427752E+04  0.15086452221E+04  0.25500000920E-02 0.  1.
       -2    1    3    3    0  502 -0.56635427986E+03 -0.58675038415E+03 -0.21273657298E+03  0.84278706274E+03  0.25500000920E-02 0. -1.
</event>
<event>
 5   0  0.1042395E-04  0.2053917E+04  0.7818609E-02  0.8581819E-01
        1   -1    0    0  501    0  0.00000000000E+00  0.00000000000E+00  0.16343389484E+04  0.16343389484E+04  0.50400001928E-02 0.  1.
       -1   -1    0    0    0  501  0.00000000000E+00  0.00000000000E+00 -0.64530315404E+03  0.64530315406E+03  0.50400001928E-02 0. -1.
    10030    2    1    2    0    0  0.00000000000E+00  0.00000000000E+00  0.98903579439E+03  0.22796421025E+04  0.20539173092E+04 0.  0.
        3    1    3    3  502    0  0.18624042540E+03  0.48702838681E+03 -0.48745287175E+03  0.71378740392E+03  0.10100000352E+00 0. -1.
       -3    1    3    3    0  502 -0.18624042540E+03 -0.48702838681E+03  0.14764886661E+04  0.15658546986E+04  0.10100000352E+00 0.  1.
</event>
<event>
 5   0  0.1122711E-04  0.1305664E+04  0.7818609E-02  0.9025086E-01
        1   -1    0    0  501    0  0.00000000000E+00  0.00000000000E+00  0.88002990012E+03  0.88002990014E+03  0.50400001928E-02 0. -1.
       -1   -1    0    0    0  501  0.00000000000E+00  0.00000000000E+00 -0.48428963802E+03  0.48428963805E+03  0.50400001928E-02 0.  1.
    10030    2    1    2    0    0  0.00000000000E+00  0.00000000000E+00  0.39574026210E+03  0.13643195382E+04  0.13056636042E+04 0.  0.
        1    1    3    3  502    0  0.55077002448E+02 -0.28610274407E+03 -0.41258485867E+03  0.50508862786E+03  0.50400001928E-02 0.  1.
       -1    1    3    3    0  502 -0.55077002448E+02  0.28610274407E+03  0.80832512077E+03  0.85923091033E+03  0.50400001928E-02 0. -1.
</event>
<event>
 5   0  0.2467483E-04  0.2002344E+04  0.7818609E-02  0.8605525E-01
       -2   -1    0    0    0  501  0.00000000000E+00  0.00000000000E+00  0.11348523215E+04  0.11348523215E+04  0.25500000920E-02 0.  1.
        2   -1    0    0  501    0  0.00000000000E+00  0.00000000000E+00 -0.88323900352E+03  0.88323900353E+03  0.25500000920E-02 0. -1.
    10030    2    1    2    0    0  0.00000000000E+00  0.00000000000E+00  0.25161331798E+03  0.20180913250E+04  0.20023444595E+04 0.  0.
        4    1    3    3  502    0  0.72951316498E+03 -0.17229371056E+03  0.79470483993E+03  0.10924431226E+04  0.12699999809E+01 0.  1.
       -4    1    3    3    0  502 -0.72951316498E+03  0.17229371056E+03 -0.54309152195E+03  0.92564820245E+03  0.12699999809E+01 0. -1.
</event>
<event>
 5   0  0.2579241E-04  0.2087979E+04  0.7818609E-02  0.8566557E-01
       -2   -1    0    0    0  501  0.00000000000E+00  0.00000000000E+00  0.64500396366E+03  0.64500396366E+03  0.25500000920E-02 0.  1.
        2   -1    0    0  501    0  0.00000000000E+00  0.00000000000E+00 -0.16897789537E+04  0.16897789537E+04  0.25500000920E-02 0. -1.
    10030    2    1    2    0    0  0.00000000000E+00  0.00000000000E+00 -0.10447749901E+04  0.23347829174E+04  0.20879790448E+04 0.  0.
        5    1    3    3  502    0 -0.39505415135E+03 -0.40794238207E+03  0.45717765097E+03  0.72905299131E+03  0.46999998093E+01 0.  1.
       -5    1    3    3    0  502  0.39505415135E+03  0.40794238207E+03 -0.15019526411E+04  0.16057299261E+04  0.46999998093E+01 0. -1.
</event>
<event>
 5   0  0.1156733E-04  0.2345119E+04  0.7818609E-02  0.8460341E-01
        1   -1    0    0  501    0  0.00000000000E+00  0.00000000000E+00  0.10695142363E+04  0.10695142363E+04  0.50400001928E-02 0.  1.
       -1   -1    0    0    0  501  0.00000000000E+00  0.00000000000E+00 -0.12855331569E+04  0.12855331569E+04  0.50400001928E-02 0. -1.
    10030    2    1    2    0    0  0.00000000000E+00  0.00000000000E+00 -0.21601892064E+03  0.23550473933E+04  0.23451191975E+04 0.  0.
        2    1    3    3  502    0 -0.72895750839E+03  0.31766051872E+03  0.75738629954E+03  0.10981444627E+04  0.25500000920E-02 0.  1.
       -2    1    3    3    0  502  0.72895750839E+03 -0.31766051872E+03 -0.97340522018E+03  0.12569029306E+04  0.25500000920E-02 0. -1.
</event>
<event>
 5   0  0.1186038E-04  0.2139686E+04  0.7818609E-02  0.8543960E-01
       -1   -1    0    0    0  501  0.00000000000E+00  0.00000000000E+00  0.67484311765E+03  0.67484311766E+03  0.50400001928E-02 0. -1.
        1   -1    0    0  501    0  0.00000000000E+00  0.00000000000E+00 -0.16960452956E+04  0.16960452956E+04  0.50400001928E-02 0.  1.
    10030    2    1    2    0    0  0.00000000000E+00  0.00000000000E+00 -0.10212021779E+04  0.23708884132E+04  0.21396864209E+04 0.  0.
        4    1    3    3  502    0  0.12696314407E+03  0.13424882691E+03 -0.16782296728E+04  0.16883716519E+04  0.12699999809E+01 0.  1.
       -4    1    3    3    0  502 -0.12696314407E+03 -0.13424882691E+03  0.65702749490E+03  0.68251676129E+03  0.12699999809E+01 0. -1.
</event>
<event>
 5   0  0.1122711E-04  0.1290156E+04  0.7818609E-02  0.9037408E-01
        1   -1    0    0  501    0  0.00000000000E+00  0.00000000000E+00  0.30153271922E+03  0.30153271926E+03  0.50400001928E-02 0.  1.
       -1   -1    0    0    0  501  0.00000000000E+00  0.00000000000E+00 -0.13800338389E+04  0.13800338389E+04  0.50400001928E-02 0. -1.
    10030    2    1    2    0    0  0.00000000000E+00  0.00000000000E+00 -0.10785011197E+04  0.16815665582E+04  0.12901555815E+04 0.  0.
        1    1    3    3  502    0  0.43474912620E+02 -0.17076257777E+03  0.26955640203E+03  0.32204127048E+03  0.50400001928E-02 0.  1.
       -1    1    3    3    0  502 -0.43474912620E+02  0.17076257777E+03 -0.13480575217E+04  0.13595252877E+04  0.50400001928E-02 0. -1.
</event>
<event>
 5   0  0.1130848E-04  0.2124202E+04  0.7818609E-02  0.8550656E-01
       -1   -1    0    0    0  501  0.00000000000E+00  0.00000000000E+00  0.69345241361E+03  0.69345241362E+03  0.50400001928E-02 0.  1.
        1   -1    0    0  501    0  0.00000000000E+00  0.00000000000E+00 -0.16267283066E+04  0.16267283066E+04  0.50400001928E-02 0. -1.
    10030    2    1    2    0    0  0.00000000000E+00  0.00000000000E+00 -0.93327589301E+03  0.23201807203E+04  0.21242021284E+04 0.  0.
        5    1    3    3  502    0 -0.26307768813E+03 -0.56142658568E+03 -0.14085351764E+04  0.15389617000E+04  0.46999998093E+01 0. -1.
       -5    1    3    3    0  502  0.26307768813E+03  0.56142658568E+03  0.47525928337E+03  0.78121902020E+03  0.46999998093E+01 0.  1.
</event>
<event>
 5   0  0.1042395E-04  0.1095466E+04  0.7818609E-02  0.9209622E-01
        1   -1    0    0  501    0  0.00000000000E+00  0.00000000000E+00  0.57217091410E+03  0.57217091412E+03  0.50400001928E-02 0.  1.
       -1   -1    0    0    0  501  0.00000000000E+00  0.00000000000E+00 -0.52433911503E+03  0.52433911506E+03  0.50400001928E-02 0. -1.
    10030    2    1    2    0    0  0.00000000000E+00  0.00000000000E+00  0.47831799064E+02  0.10965100292E+04  0.10954662766E+04 0.  0.
        3    1    3    3  502    0  0.33601601426E+03 -0.33994227940E+03  0.29164797406E+03  0.55993398373E+03  0.10100000352E+00 0.  1.
       -3    1    3    3    0  502 -0.33601601426E+03  0.33994227940E+03 -0.24381617500E+03  0.53657604545E+03  0.10100000352E+00 0. -1.
</event>
<event>
 5   0  0.2430898E-04  0.2132062E+04  0.7818609E-02  0.8547250E-01
        2   -1    0    0  501    0  0.00000000000E+00  0.00000000000E+00  0.57009607826E+03  0.57009607827E+03  0.25500000920E-02 0. -1.
       -2   -1    0    0    0  501  0.00000000000E+00  0.00000000000E+00 -0.19933875429E+04  0.19933875429E+04  0.25500000920E-02 0.  1.
    10030    2    1    2    0    0  0.00000000000E+00  0.00000000000E+00 -0.14232914647E+04  0.25634836212E+04  0.21320623074E+04 0.  0.
        1    1    3    3  502    0 -0.50636632405E+03  0.91256982173E+03 -0.45034038150E+03  0.11366604563E+04  0.50400001928E-02 0.  1.
       -1    1    3    3    0  502  0.50636632405E+03 -0.91256982173E+03 -0.97295108316E+03  0.14268231649E+04  0.50400001928E-02 0. -1.
</event>
<event>
 5   0  0.1130848E-04  0.2057375E+04  0.7818609E-02  0.8580256E-01
       -1   -1    0    0    0  501  0.00000000000E+00  0.00000000000E+00  0.95861836878E+03  0.95861836879E+03  0.50400001928E-02 0. -1.
        1   -1    0    0  501    0  0.00000000000E+00  0.00000000000E+00 -0.11038784626E+04  0.11038784626E+04  0.50400001928E-02 0.  1.
    10030    2    1    2    0    0  0.00000000000E+00  0.00000000000E+00 -0.14526009381E+03  0.20624968314E+04  0.20573751930E+04 0.  0.
        5    1    3    3  502    0 -0.33834375370E+03  0.92523648662E+03  0.22414242552E+03  0.10103469546E+04  0.46999998093E+01 0. -1.
       -5    1    3    3    0  502  0.33834375370E+03 -0.92523648662E+03 -0.36940251934E+03  0.10521498767E+04  0.46999998093E+01 0.  1.
</event>
<event>
 5   0  0.1122711E-04  0.1143419E+04  0.7818609E-02  0.9163876E-01
        1   -1    0    0  501    0  0.00000000000E+00  0.00000000000E+00  0.23075210966E+04  0.23075210966E+04  0.50400001928E-02 0.  1.
       -1   -1    0    0    0  501  0.00000000000E+00  0.00000000000E+00 -0.14164636121E+03  0.14164636130E+03  0.50400001928E-02 0. -1.
    10030    2    1    2    0    0  0.00000000000E+00  0.00000000000E+00  0.21658747354E+04  0.24491674579E+04  0.11434193751E+04 0.  0.
        1    1    3    3  502    0  0.42896778268E+03  0.35655084676E+03  0.81446324321E+03  0.98716373489E+03  0.50400001928E-02 0. -1.
       -1    1    3    3    0  502 -0.42896778268E+03 -0.35655084676E+03  0.13514114922E+04  0.14620037230E+04  0.50400001928E-02 0.  1.
</event>
<event>
 5   0  0.1042395E-04  0.1576825E+04  0.7818609E-02  0.8834913E-01
        1   -1    0    0  501    0  0.00000000000E+00  0.00000000000E+00  0.54982849661E+03  0.54982849663E+03  0.50400001928E-02 0. -1.
       -1   -1    0    0    0  501  0.00000000000E+00  0.00000000000E+00 -0.11305239975E+04  0.11305239975E+04  0.50400001928E-02 0.  1.
    10030    2    1    2    0    0  0.00000000000E+00  0.00000000000E+00 -0.58069550087E+03  0.16803524941E+04  0.15768250505E+04 0.  0.
        3    1    3    3  502    0  0.25722188833E+03 -0.26024630480E+03  0.45386074731E+03  0.58299299065E+03  0.10100000352E+00 0. -1.
       -3    1    3    3    0  502 -0.25722188833E+03  0.26024630480E+03 -0.10345562482E+04  0.10973595035E+04  0.10100000352E+00 0.  1.
</event>
<event>
 5   0  0.1186038E-04  0.2118038E+04  0.7818609E-02  0.8553339E-01
       -1   -1    0    0    0  501  0.00000000000E+00  0.00000000000E+00  0.81150871276E+03  0.81150871278E+03  0.50400001928E-02 0. -1.
        1   -1    0    0  501    0  0.00000000000E+00  0.00000000000E+00 -0.13820201561E+04  0.13820201561E+04  0.50400001928E-02 0.  1.
    10030    2    1    2    0    0  0.00000000000E+00  0.00000000000E+00 -0.57051144332E+03  0.21935288689E+04  0.21180381469E+04 0.  0.
        4    1    3    3  502    0 -0.47623087556E+02 -0.66714358973E+03  0.56508835958E+03  0.87559979147E+03  0.12699999809E+01 0. -1.
       -4    1    3    3    0  502  0.47623087556E+02  0.66714358973E+03 -0.11355998029E+04  0.13179290774E+04  0.12699999809E+01 0.  1.
</event>
<event>
 5   0  0.1042395E-04  0.2040862E+04  0.7818609E-02  0.8587751E-01
       -1   -1    0    0    0  501  0.00000000000E+00  0.00000000000E+00  0.90347649724E+03  0.90347649725E+03  0.50400001928E-02 0. -1.
        1   -1    0    0  501    0  0.00000000000E+00  0.00000000000E+00 -0.11525251608E+04  0.11525251608E+04  0.50400001928E-02 0.  1.
    10030    2    1    2    0    0  0.00000000000E+00  0.00000000000E+00 -0.24904866353E+03  0.20560016580E+04  0.20408619701E+04 0.  0.
        3    1    3    3  502    0 -0.40030198853E+03 -0.57498834684E+03  0.62288641587E+03  0.93746508111E+03  0.10100000352E+00 0. -1.
       -3    1    3    3    0  502  0.40030198853E+03  0.57498834684E+03 -0.87193507941E+03  0.11185365769E+04  0.10100000352E+00 0.  1.
</event>
<event>
 5   0  0.2430898E-04  0.1599374E+04  0.7818609E-02  0.8820933E-01
       -2   -1    0    0    0  501  0.00000000000E+00  0.00000000000E+00  0.62521885350E+03  0.62521885350E+03  0.25500000920E-02 0.  1.
        2   -1    0    0  501    0  0.00000000000E+00  0.00000000000E+00 -0.10228408281E+04  0.10228408281E+04  0.25500000920E-02 0. -1.
    10030    2    1    2    0    0  0.00000000000E+00  0.00000000000E+00 -0.39762197456E+03  0.16480596816E+04  0.15993740899E+04 0.  0.
        1    1    3    3  502    0 -0.77393001949E+03 -0.96082177441E+02 -0.38111424209E+03  0.86801355142E+03  0.50400001928E-02 0.  1.
       -1    1    3    3    0  502  0.77393001949E+03  0.96082177441E+02 -0.16507732467E+02  0.78004613014E+03  0.50400001928E-02 0. -1.
</event>
<event>
 5   0  0.2512839E-04  0.2131542E+04  0.7818609E-02  0.8547475E-01
        2   -1    0    0  501    0  0.00000000000E+00  0.00000000000E+00  0.89190505381E+03  0.89190505381E+03  0.25500000920E-02 0.  1.
       -2   -1    0    0    0  501  0.00000000000E+00  0.00000000000E+00 -0.12735295773E+04  0.12735295773E+04  0.25500000920E-02 0. -1.
    10030    2    1    2    0    0  0.00000000000E+00  0.00000000000E+00 -0.38162452352E+03  0.21654346311E+04  0.21315416639E+04 0.  0.
        3    1    3    3  502    0 -0.21435216115E+03  0.72150396954E+01 -0.12513797566E+04  0.12696260124E+04  0.10100000352E+00 0. -1.
       -3    1    3    3    0  502  0.21435216115E+03 -0.72150396954E+01  0.86975523310E+03  0.89580861878E+03  0.10100000352E+00 0.  1.
</event>
<event>
 5   0  0.1042395E-04  0.1126905E+04  0.7818609E-02  0.9179358E-01
       -1   -1    0    0    0  501  0.00000000000E+00  0.00000000000E+00  0.66225133378E+03  0.66225133380E+03  0.50400001928E-02 0.  1.
        1   -1    0    0  501    0  0.00000000000E+00  0.00000000000E+00 -0.47939316477E+03  0.47939316479E+03  0.50400001928E-02 0. -1.
    10030    2    1    2    0    0  0.00000000000E+00  0.00000000000E+00  0.18285816901E+03  0.11416444986E+04  0.11269050764E+04 0.  0.
        3    1    3    3  502    0 -0.36288364646E+03  0.54439107482E+02 -0.34175050919E+03  0.50143950585E+03  0.10100000352E+00 0. -1.
       -3    1    3    3    0  502  0.36288364646E+03 -0.54439107482E+02  0.52460867820E+03  0.64020499275E+03  0.10100000352E+00 0.  1.
</event>
<event>
 5   0  0.8698750E-05  0.2052726E+04  0.7818609E-02  0.8582359E-01
        4   -1    0    0  501    0  0.00000000000E+00  0.00000000000E+00  0.13056456570E+04  0.13056462747E+04  0.12699999809E+01 0.  1.
       -4   -1    0    0    0  501  0.00000000000E+00  0.00000000000E+00 -0.80681878173E+03  0.80681978128E+03  0.12699999809E+01 0. -1.
    10030    2    1    2    0    0  0.00000000000E+00  0.00000000000E+00  0.49882687526E+03  0.21124660559E+04  0.20527261352E+04 0.  0.
        5    1    3    3  502    0 -0.56480726237E+03 -0.33346055181E+03 -0.56298861474E+03  0.86439658349E+03  0.46999998093E+01 0. -1.
       -5    1    3    3    0  502  0.56480726237E+03  0.33346055181E+03  0.10618154900E+04  0.12480694724E+04  0.46999998093E+01 0.  1.
</event>
<event>
 5   0  0.1186038E-04  0.2136311E+04  0.7818609E-02  0.8545415E-01
       -1   -1    0    0    0  501  0.00000000000E+00  0.00000000000E+00  0.59910134162E+03  0.59910134164E+03  0.50400001928E-02 0. -1.
        1   -1    0    0  501    0  0.00000000000E+00  0.00000000000E+00 -0.19044459443E+04  0.19044459443E+04  0.50400001928E-02 0.  1.
    10030    2    1    2    0    0  0.00000000000E+00  0.00000000000E+00 -0.13053446026E+04  0.25035472859E+04  0.21363109514E+04 0.  0.
        4    1    3    3  502    0 -0.34830275322E+03  0.11311628878E+03 -0.18285780465E+04  0.18648885724E+04  0.12699999809E+01 0.  1.
       -4    1    3    3    0  502  0.34830275322E+03 -0.11311628878E+03  0.52323344381E+03  0.63865871348E+03  0.12699999809E+01 0. -1.
</event>
<event>
 5   0  0.1156733E-04  0.2119363E+04  0.7818609E-02  0.8552761E-01
       -1   -1    0    0    0  501  0.00000000000E+00  0.00000000000E+00  0.10429783034E+04  0.10429783034E+04  0.50400001928E-02 0.  1.
        1   -1    0    0  501    0  0.00000000000E+00  0.00000000000E+00 -0.10766526304E+04  0.10766526304E+04  0.50400001928E-02 0. -1.
    10030    2    1    2    0    0  0.00000000000E+00  0.00000000000E+00 -0.33674326919E+02  0.21196309338E+04  0.21193634269E+04 0.  0.
        2    1    3    3  502    0  0.44916581142E+03  0.45072661790E+03  0.83063094379E+03  0.10463518409E+04  0.25500000920E-02 0.  1.
       -2    1    3    3    0  502 -0.44916581142E+03 -0.45072661790E+03 -0.86430527071E+03  0.10732790929E+04  0.25500000920E-02 0. -1.
</event>
<event>
 5   0  0.1122711E-04  0.2101957E+04  0.7818609E-02  0.8560382E-01
       -1   -1    0    0    0  501  0.00000000000E+00  0.00000000000E+00  0.46603359539E+03  0.46603359541E+03  0.50400001928E-02 0. -1.
        1   -1    0    0  501    0  0.00000000000E+00  0.00000000000E+00 -0.23701216841E+04  0.23701216841E+04  0.50400001928E-02 0.  1.
    10030    2    1    2    0    0  0.00000000000E+00  0.00000000000E+00 -0.19040880887E+04  0.28361552795E+04  0.21019574972E+04 0.  0.
        1    1    3    3  502    0  0.93210113661E+02 -0.91030052642E+03 -0.25454840929E+03  0.94980527814E+03  0.50400001928E-02 0. -1.
       -1    1    3    3    0  502 -0.93210113661E+02  0.91030052642E+03 -0.16495396794E+04  0.18863500013E+04  0.50400001928E-02 0.  1.
</event>
<event>
 5   0  0.1130848E-04  0.1750494E+04  0.7818609E-02  0.8733078E-01
       -1   -1    0    0    0  501  0.00000000000E+00  0.00000000000E+00  0.32631879780E+03  0.32631879784E+03  0.50400001928E-02 0.  1.
        1   -1    0    0  501    0  0.00000000000E+00  0.00000000000E+00 -0.23475742475E+04  0.23475742475E+04  0.50400001928E-02 0. -1.
    10030    2    1    2    0    0  0.00000000000E+00  0.00000000000E+00 -0.20212554497E+04  0.26738930454E+04  0.17504943373E+04 0.  0.
        5    1    3    3  502    0 -0.13066038537E+03 -0.12642251257E+03 -0.23183923921E+04  0.23255150315E+04  0.46999998093E+01 0. -1.
       -5    1    3    3    0  502  0.13066038537E+03  0.12642251257E+03  0.29713694241E+03  0.34837801384E+03  0.46999998093E+01 0.  1.
</event>
<event>
 5   0  0.2579241E-04  0.2095776E+04  0.7818609E-02  0.8563106E-01
       -2   -1    0    0    0  501  0.00000000000E+00  0.00000000000E+00  0.87718136387E+03  0.87718136387E+03  0.25500000920E-02 0.  1.
        2   -1    0    0  501    0  0.00000000000E+00  0.00000000000E+00 -0.12518156906E+04  0.12518156906E+04  0.25500000920E-02 0. -1.
    10030    2    1    2    0    0  0.00000000000E+00  0.00000000000E+00 -0.37463432672E+03  0.21289970545E+04  0.20957761281E+04 0.  0.
        5    1    3    3  502    0  0.43173093536E+03 -0.57131132241E+03 -0.96446608805E+03  0.12012514943E+04  0.46999998093E+01 0. -1.
       -5    1    3    3    0  502 -0.43173093536E+03  0.57131132241E+03  0.58983176132E+03  0.92774556012E+03  0.46999998093E+01 0.  1.
</event>
<event>
 5   0  0.2467483E-04  0.2084312E+04  0.7818609E-02  0.8568186E-01
        2   -1    0    0  501    0  0.00000000000E+00  0.00000000000E+00  0.13950853321E+04  0.13950853321E+04  0.25500000920E-02 0.  1.
       -2   -1    0    0    0  501  0.00000000000E+00  0.00000000000E+00 -0.77851099831E+03  0.77851099832E+03  0.25500000920E-02 0. -1.
    10030    2    1    2    0    0  0.00000000000E+00  0.00000000000E+00  0.61657433376E+03  0.21735963304E+04  0.20843121404E+04 0.  0.
        4    1    3    3  502    0 -0.45215327630E+03  0.93313084470E+03  0.19935243106E+03  0.10558971367E+04  0.12699999809E+01 0. -1.
       -4    1    3    3    0  502  0.45215327630E+03 -0.93313084470E+03  0.41722190271E+03  0.11176991937E+04  0.12699999809E+01 0.  1.
</event>
<event>
 5   0  0.1130848E-04  0.2085632E+04  0.7818609E-02  0.8567599E-01
       -1   -1    0    0    0  501  0.00000000000E+00  0.00000000000E+00  0.69325220337E+03  0.69325220339E+03  0.50400001928E-02 0.  1.
        1   -1    0    0  501    0  0.00000000000E+00  0.00000000000E+00 -0.15686437067E+04  0.15686437067E+04  0.50400001928E-02 0. -1.
    10030    2    1    2    0    0  0.00000000000E+00  0.00000000000E+00 -0.87539150334E+03  0.22618959101E+04  0.20856324758E+04 0.  0.
        5    1    3    3  502    0 -0.10159223599E+04  0.19667247361E+03 -0.29769138856E+03  0.10767639277E+04  0.46999998093E+01 0.  1.
       -5    1    3    3    0  502  0.10159223599E+04 -0.19667247361E+03 -0.57770011478E+03  0.11851319824E+04  0.46999998093E+01 0. -1.
</event>
<event>
 5   0  0.8698750E-05  0.1169388E+04  0.7818609E-02  0.9140081E-01
       -3   -1    0    0    0  501  0.00000000000E+00  0.00000000000E+00  0.45117272693E+03  0.45117273824E+03  0.10100000352E+00 0.  1.
        3   -1    0    0  501    0  0.00000000000E+00  0.00000000000E+00 -0.75772971897E+03  0.75772972570E+03  0.10100000352E+00 0. -1.
    10030    2    1    2    0    0  0.00000000000E+00  0.00000000000E+00 -0.30655699204E+03  0.12089024639E+04  0.11693878646E+04 0.  0.
        4    1    3    3  502    0  0.11223200292E+03  0.42482178243E+03 -0.55205359767E+03  0.70557377850E+03  0.12699999809E+01 0. -1.
       -4    1    3    3    0  502 -0.11223200292E+03 -0.42482178243E+03  0.24549660563E+03  0.50332868544E+03  0.12699999809E+01 0.  1.
</event>
<event>
 5   0  0.2430898E-04  0.2230425E+04  0.7818609E-02  0.8505870E-01
        2   -1    0    0  501    0  0.00000000000E+00  0.00000000000E+00  0.31346967879E+04  0.31346967879E+04  0.25500000920E-02 0.  1.
       -2   -1    0    0    0  501  0.00000000000E+00  0.00000000000E+00 -0.39675243088E+03  0.39675243089E+03  0.25500000920E-02 0. -1.
    10030    2    1    2    0    0  0.00000000000E+00  0.00000000000E+00  0.27379443570E+04  0.35314492188E+04  0.22304246866E+04 0.  0.
        1    1    3    3  502    0 -0.34564330428E+03  0.28229803600E+03  0.29871540684E+04  0.30203064254E+04  0.50400001928E-02 0.  1.
       -1    1    3    3    0  502  0.34564330428E+03 -0.28229803600E+03 -0.24920971141E+03  0.51114279336E+03  0.50400001928E-02 0. -1.
</event>
<event>
 5   0  0.2467483E-04  0.2058796E+04  0.7818609E-02  0.8579614E-01
        2   -1    0    0  501    0  0.00000000000E+00  0.00000000000E+00  0.12507832562E+04  0.12507832562E+04  0.25500000920E-02 0.  1.
       -2   -1    0    0    0  501  0.00000000000E+00  0.00000000000E+00 -0.84719761432E+03  0.84719761433E+03  0.25500000920E-02 0. -1.
    10030    2    1    2    0    0  0.00000000000E+00  0.00000000000E+00  0.40358564188E+03  0.20979808705E+04  0.20587963384E+04 0.  0.
        4    1    3    3  502    0 -0.51861658251E+03  0.43775145811E+03  0.99051986781E+03  0.12007167527E+04  0.12699999809E+01 0.  1.
       -4    1    3    3    0  502  0.51861658251E+03 -0.43775145811E+03 -0.58693422593E+03  0.89726411786E+03  0.12699999809E+01 0. -1.
</event>
<event>
 5   0  0.2467483E-04  0.2150752E+04  0.7818609E-02  0.8539211E-01
        2   -1    0    0  501    0  0.00000000000E+00  0.00000000000E+00  0.94901106695E+03  0.94901106695E+03  0.25500000920E-02 0. -1.
       -2   -1    0    0    0  501  0.00000000000E+00  0.00000000000E+00 -0.12185666882E+04  0.12185666882E+04  0.25500000920E-02 0.  1.
    10030    2    1    2    0    0  0.00000000000E+00  0.00000000000E+00 -0.26955562122E+03  0.21675777551E+04  0.21507517503E+04 0.  0.
        4    1    3    3  502    0 -0.77840525120E+03  0.67559934830E+03 -0.44390606330E+03  0.11222314469E+04  0.12699999809E+01 0.  1.
       -4    1    3    3    0  502  0.77840525120E+03 -0.67559934830E+03  0.17435044209E+03  0.10453463082E+04  0.12699999809E+01 0. -1.
</event>
<event>
 5   0  0.1122711E-04  0.2018084E+04  0.7818609E-02  0.8598212E-01
        1   -1    0    0  501    0  0.00000000000E+00  0.00000000000E+00  0.16701969805E+04  0.16701969805E+04  0.50400001928E-02 0.  1.
       -1   -1    0    0    0  501  0.00000000000E+00  0.00000000000E+00 -0.60960798473E+03  0.60960798475E+03  0.50400001928E-02 0. -1.
    10030    2    1    2    0    0  0.00000000000E+00  0.00000000000E+00  0.10605889958E+04  0.22798049653E+04  0.20180836607E+04 0.  0.
        1    1    3    3  502    0 -0.29853049711E+03  0.22390992092E+01  0.16191637205E+04  0.16464557769E+04  0.50400001928E-02 0.  1.
       -1    1    3    3    0  502  0.29853049711E+03 -0.22390992092E+01 -0.55857472476E+03  0.63334918839E+03  0.50400001928E-02 0. -1.
</event>
<event>
 5   0  0.1042395E-04  0.2039486E+04  0.7818609E-02  0.8588379E-01
       -1   -1    0    0    0  501  0.00000000000E+00  0.00000000000E+00  0.72186588517E+03  0.72186588519E+03  0.50400001928E-02 0. -1.
        1   -1    0    0  501    0  0.00000000000E+00  0.00000000000E+00 -0.14405393039E+04  0.14405393039E+04  0.50400001928E-02 0.  1.
    10030    2    1    2    0    0  0.00000000000E+00  0.00000000000E+00 -0.71867341875E+03  0.21624051891E+04  0.20394863861E+04 0.  0.
        3    1    3    3  502    0  0.86884926288E+03  0.51566922759E+03 -0.50572447314E+03  0.11298544361E+04  0.10100000352E+00 0.  1.
       -3    1    3    3    0  502 -0.86884926288E+03 -0.51566922759E+03 -0.21294894562E+03  0.10325507530E+04  0.10100000352E+00 0. -1.
</event>
<event>
 5   0  0.1042395E-04  0.2099736E+04  0.7818609E-02  0.8561360E-01
       -1   -1    0    0    0  501  0.00000000000E+00  0.00000000000E+00  0.73761790954E+03  0.73761790956E+03  0.50400001928E-02 0. -1.
        1   -1    0    0  501    0  0.00000000000E+00  0.00000000000E+00 -0.14943002010E+04  0.14943002011E+04  0.50400001928E-02 0.  1.
    10030    2    1    2    0    0  0.00000000000E+00  0.00000000000E+00 -0.75668229150E+03  0.22319181106E+04  0.20997357839E+04 0.  0.
        3    1    3    3  502    0  0.53031058844E+03  0.32580356998E+03 -0.12770512776E+04  0.14206467760E+04  0.10100000352E+00 0.  1.
       -3    1    3    3    0  502 -0.53031058844E+03 -0.32580356998E+03  0.52036898610E+03  0.81127133458E+03  0.10100000352E+00 0. -1.
</event>
<event>
 5   0  0.2467483E-04  0.2071947E+04  0.7818609E-02  0.8573703E-01
        2   -1    0    0  501    0  0.00000000000E+00  0.00000000000E+00  0.80054237014E+03  0.80054237014E+03  0.25500000920E-02 0. -1.
       -2   -1    0    0    0  501  0.00000000000E+00  0.00000000000E+00 -0.13406427195E+04  0.13406427195E+04  0.25500000920E-02 0.  1.
    10030    2    1    2    0    0  0.00000000000E+00  0.00000000000E+00 -0.54010034933E+03  0.21411850896E+04  0.20719472003E+04 0.  0.
        4    1    3    3  502    0  0.91597485813E+03 -0.47856459531E+03 -0.34461157176E+03  0.10894001840E+04  0.12699999809E+01 0. -1.
       -4    1    3    3    0  502 -0.91597485813E+03  0.47856459531E+03 -0.19548877757E+03  0.10517849056E+04  0.12699999809E+01 0.  1.
</event>
<event>
 5   0  0.1186038E-04  0.1976025E+04  0.7818609E-02  0.8617912E-01
       -1   -1    0    0    0  501  0.00000000000E+00  0.00000000000E+00  0.45109186847E+03  0.45109186850E+03  0.50400001928E-02 0.  1.
        1   -1    0    0  501    0  0.00000000000E+00  0.00000000000E+00 -0.21640138748E+04  0.21640138748E+04  0.50400001928E-02 0. -1.
    10030    2    1    2    0    0  0.00000000000E+00  0.00000000000E+00 -0.17129220064E+04  0.26151057433E+04  0.19760253665E+04 0.  0.
        4    1    3    3  502    0 -0.14930539258E+03 -0.60864615277E+03 -0.18673170996E+04  0.19696743393E+04  0.12699999809E+01 0. -1.
       -4    1    3    3    0  502  0.14930539258E+03  0.60864615277E+03  0.15439509327E+03  0.64543140400E+03  0.12699999809E+01 0.  1.
</event>
<event>
 5   0  0.2430898E-04  0.2005519E+04  0.7818609E-02  0.8604045E-01
        2   -1    0    0  501    0  0.00000000000E+00  0.00000000000E+00  0.17979757146E+04  0.17979757146E+04  0.25500000920E-02 0. -1.
       -2   -1    0    0    0  501  0.00000000000E+00  0.00000000000E+00 -0.55925457794E+03  0.55925457795E+03  0.25500000920E-02 0.  1.
    10030    2    1    2    0    0  0.00000000000E+00  0.00000000000E+00  0.12387211366E+04  0.23572302925E+04  0.20055185359E+04 0.  0.
        1    1    3    3  502    0  0.13232088662E+03  0.52467137412E+03  0.16116538966E+04  0.17000638666E+04  0.50400001928E-02 0. -1.
       -1    1    3    3    0  502 -0.13232088662E+03 -0.52467137412E+03 -0.37293276002E+03  0.65716642594E+03  0.50400001928E-02 0.  1.
</event>
<event>
 5   0  0.1130848E-04  0.2136373E+04  0.7818609E-02  0.8545388E-01
       -1   -1    0    0    0  501  0.00000000000E+00  0.00000000000E+00  0.43242680335E+03  0.43242680338E+03  0.50400001928E-02 0.  1.
        1   -1    0    0  501    0  0.00000000000E+00  0.00000000000E+00 -0.26386498342E+04  0.26386498342E+04  0.50400001928E-02 0. -1.
    10030    2    1    2    0    0  0.00000000000E+00  0.00000000000E+00 -0.22062230309E+04  0.30710766376E+04  0.21363734814E+04 0.  0.
        5    1    3    3  502    0  0.44357013783E+03  0.74454776432E+03 -0.20550230775E+03  0.89070709497E+03  0.46999998093E+01 0. -1.
       -5    1    3    3    0  502 -0.44357013783E+03 -0.74454776432E+03 -0.20007207231E+04  0.21803695426E+04  0.46999998093E+01 0.  1.
</event>
<event>
 5   0  0.2512839E-04  0.2175666E+04  0.7818609E-02  0.8528625E-01
        2   -1    0    0  501    0  0.00000000000E+00  0.00000000000E+00  0.13308576099E+04  0.13308576099E+04  0.25500000920E-02 0. -1.
       -2   -1    0    0    0  501  0.00000000000E+00  0.00000000000E+00 -0.88918626143E+03  0.88918626144E+03  0.25500000920E-02 0.  1.
    10030    2    1    2    0    0  0.00000000000E+00  0.00000000000E+00  0.44167134846E+03  0.22200438713E+04  0.21756656937E+04 0.  0.
        3    1    3    3  502    0  0.97444994610E+02  0.90124970828E+03 -0.39279047402E+03  0.98794277685E+03  0.10100000352E+00 0.  1.
       -3    1    3    3    0  502 -0.97444994610E+02 -0.90124970828E+03  0.83446182247E+03  0.12321010945E+04  0.10100000352E+00 0. -1.
</event>
<event>
 5   0  0.2430898E-04  0.2062679E+04  0.7818609E-02  0.8577864E-01
       -2   -1    0    0    0  501  0.00000000000E+00  0.00000000000E+00  0.67209733702E+03  0.67209733703E+03  0.25500000920E-02 0.  1.
        2   -1    0    0  501    0  0.00000000000E+00  0.00000000000E+00 -0.15826002693E+04  0.15826002693E+04  0.25500000920E-02 0. -1.
    10030    2    1    2    0    0  0.00000000000E+00  0.00000000000E+00 -0.91050293229E+03  0.22546976063E+04  0.20626792544E+04 0.  0.
        1    1    3    3  502    0 -0.52253477307E+03 -0.49502976300E+03  0.35213153859E+03  0.80130747895E+03  0.50400001928E-02 0.  1.
       -1    1    3    3    0  502  0.52253477307E+03  0.49502976300E+03 -0.12626344709E+04  0.14533901274E+04  0.50400001928E-02 0. -1.
</event>
<event>
 5   0  0.1130848E-04  0.2133897E+04  0.7818609E-02  0.8546457E-01
       -1   -1    0    0    0  501  0.00000000000E+00  0.00000000000E+00  0.90372182027E+03  0.90372182028E+03  0.50400001928E-02 0. -1.
        1   -1    0    0  501    0  0.00000000000E+00  0.00000000000E+00 -0.12596562420E+04  0.12596562420E+04  0.50400001928E-02 0.  1.
    10030    2    1    2    0    0  0.00000000000E+00  0.00000000000E+00 -0.35593442169E+03  0.21633780622E+04  0.21338967472E+04 0.  0.
        5    1    3    3  502    0 -0.15348336674E+03  0.79323596251E+03  0.52849309242E+03  0.96545713256E+03  0.46999998093E+01 0. -1.
       -5    1    3    3    0  502  0.15348336674E+03 -0.79323596251E+03 -0.88442751410E+03  0.11979209297E+04  0.46999998093E+01 0.  1.
</event>
<event>
 5   0  0.1156733E-04  0.2109097E+04  0.7818609E-02  0.8557247E-01
        1   -1    0    0  501    0  0.00000000000E+00  0.00000000000E+00  0.18590238049E+04  0.18590238049E+04  0.50400001928E-02 0.  1.
       -1   -1    0    0    0  501  0.00000000000E+00  0.00000000000E+00 -0.59820236401E+03  0.59820236403E+03  0.50400001928E-02 0. -1.
    10030    2    1    2    0    0  0.00000000000E+00  0.00000000000E+00  0.12608214409E+04  0.24572261689E+04  0.21090969014E+04 0.  0.
        2    1    3    3  502    0 -0.60123655626E+03 -0.17721352808E+03  0.16184361549E+04  0.17355764514E+04  0.25500000920E-02 0.  1.
       -2    1    3    3    0  502  0.60123655626E+03  0.17721352808E+03 -0.35761471403E+03  0.72164971753E+03  0.25500000920E-02 0. -1.
</event>
<event>
 5   0  0.2448804E-04  0.2062030E+04  0.7818609E-02  0.8578157E-01
       -2   -1    0    0    0  501  0.00000000000E+00  0.00000000000E+00  0.57697259747E+03  0.57697259748E+03  0.25500000920E-02 0.  1.
        2   -1    0    0  501    0  0.00000000000E+00  0.00000000000E+00 -0.18423603392E+04  0.18423603392E+04  0.25500000920E-02 0. -1.
    10030    2    1    2    0    0  0.00000000000E+00  0.00000000000E+00 -0.12653877418E+04  0.24193329367E+04  0.20620295152E+04 0.  0.
        2    1    3    3  502    0 -0.24320142743E+03 -0.99965344221E+03 -0.71172690896E+03  0.12510032501E+04  0.25500000920E-02 0.  1.
       -2    1    3    3    0  502  0.24320142743E+03  0.99965344221E+03 -0.55366083281E+03  0.11683296866E+04  0.25500000920E-02 0. -1.
</event>
<event>
 5   0  0.2448804E-04  0.2056315E+04  0.7818609E-02  0.8580735E-01
        2   -1    0    0  501    0  0.00000000000E+00  0.00000000000E+00  0.12863909280E+04  0.12863909280E+04  0.25500000920E-02 0. -1.
       -2   -1    0    0    0  501  0.00000000000E+00  0.00000000000E+00 -0.82176248158E+03  0.82176248158E+03  0.25500000920E-02 0.  1.
    10030    2    1    2    0    0  0.00000000000E+00  0.00000000000E+00  0.46462844641E+03  0.21081534096E+04  0.20563149577E+04 0.  0.
        2    1    3    3  502    0  0.73156867325E+03 -0.81395667511E+02  0.96824736137E+03  0.12162733785E+04  0.25500000920E-02 0. -1.
       -2    1    3    3    0  502 -0.73156867325E+03  0.81395667511E+02 -0.50361891496E+03  0.89188003110E+03  0.25500000920E-02 0.  1.
</event>
<event>
 5   0  0.1042395E-04  0.2122023E+04  0.7818609E-02  0.8551604E-01
        1   -1    0    0  501    0  0.00000000000E+00  0.00000000000E+00  0.61143302881E+03  0.61143302883E+03  0.50400001928E-02 0.  1.
       -1   -1    0    0    0  501  0.00000000000E+00  0.00000000000E+00 -0.18411594924E+04  0.18411594924E+04  0.50400001928E-02 0. -1.
    10030    2    1    2    0    0  0.00000000000E+00  0.00000000000E+00 -0.12297264636E+04  0.24525925213E+04  0.21220233034E+04 0.  0.
        3    1    3    3  502    0  0.36382512081E+03  0.53347514137E+03 -0.15879047402E+04  0.17141779135E+04  0.10100000352E+00 0. -1.
       -3    1    3    3    0  502 -0.36382512081E+03 -0.53347514137E+03  0.35817827656E+03  0.73841460779E+03  0.10100000352E+00 0.  1.
</event>
<event>
 5   0  0.1156733E-04  0.2194002E+04  0.7818609E-02  0.8520929E-01
       -1   -1    0    0    0  501  0.00000000000E+00  0.00000000000E+00  0.44801035737E+03  0.44801035740E+03  0.50400001928E-02 0. -1.
        1   -1    0    0  501    0  0.00000000000E+00  0.00000000000E+00 -0.26861245912E+04  0.26861245912E+04  0.50400001928E-02 0.  1.
    10030    2    1    2    0    0  0.00000000000E+00  0.00000000000E+00 -0.22381142338E+04  0.31341349486E+04  0.21940024048E+04 0.  0.
        2    1    3    3  502    0 -0.71342358173E+03 -0.50683118208E+03 -0.20639872306E+04  0.22418506512E+04  0.25500000920E-02 0.  1.
       -2    1    3    3    0  502  0.71342358173E+03  0.50683118208E+03 -0.17412700318E+03  0.89228429738E+03  0.25500000920E-02 0. -1.
</event>
<event>
 5   0  0.2430898E-04  0.2159057E+04  0.7818609E-02  0.8535666E-01
        2   -1    0    0  501    0  0.00000000000E+00  0.00000000000E+00  0.90952973891E+03  0.90952973892E+03  0.25500000920E-02 0. -1.
       -2   -1    0    0    0  501  0.00000000000E+00  0.00000000000E+00 -0.12813009048E+04  0.12813009048E+04  0.25500000920E-02 0.  1.
    10030    2    1    2    0    0  0.00000000000E+00  0.00000000000E+00 -0.37177116591E+03  0.21908306437E+04  0.21590565323E+04 0.  0.
        1    1    3    3  502    0 -0.10444133367E+04  0.94395118210E+02  0.74150527819E+02  0.10512887125E+04  0.50400001928E-02 0. -1.
       -1    1    3    3    0  502  0.10444133367E+04 -0.94395118210E+02 -0.44592169373E+03  0.11395419313E+04  0.50400001928E-02 0.  1.
</event>
<event>
 5   0  0.1186038E-04  0.1078322E+04  0.7818609E-02  0.9226582E-01
       -1   -1    0    0    0  501  0.00000000000E+00  0.00000000000E+00  0.24823718151E+03  0.24823718156E+03  0.50400001928E-02 0.  1.
        1   -1    0    0  501    0  0.00000000000E+00  0.00000000000E+00 -0.11710364901E+04  0.11710364901E+04  0.50400001928E-02 0. -1.
    10030    2    1    2    0    0  0.00000000000E+00  0.00000000000E+00 -0.92279930862E+03  0.14192736717E+04  0.10783223967E+04 0.  0.
        4    1    3    3  502    0 -0.33809822148E+03  0.21078184027E+03  0.16711042924E+02  0.39877344872E+03  0.12699999809E+01 0.  1.
       -4    1    3    3    0  502  0.33809822148E+03 -0.21078184027E+03 -0.93951035154E+03  0.10205002230E+04  0.12699999809E+01 0. -1.
</event>
<event>
 5   0  0.2430898E-04  0.2052067E+04  0.7818609E-02  0.8582657E-01
        2   -1    0    0  501    0  0.00000000000E+00  0.00000000000E+00  0.11021778540E+04  0.11021778540E+04  0.25500000920E-02 0. -1.
       -2   -1    0    0    0  501  0.00000000000E+00  0.00000000000E+00 -0.95514966700E+03  0.95514966701E+03  0.25500000920E-02 0.  1.
    10030    2    1    2    0    0  0.00000000000E+00  0.00000000000E+00  0.14702818695E+03  0.20573275210E+04  0.20520670654E+04 0.  0.
        1    1    3    3  502    0  0.35327925876E+03  0.85871492031E+03 -0.36412210900E+03  0.99738781791E+03  0.50400001928E-02 0.  1.
       -1    1    3    3    0  502 -0.35327925876E+03 -0.85871492031E+03  0.51115029595E+03  0.10599397031E+04  0.50400001928E-02 0. -1.
</event>
<event>
 5   0  0.1122711E-04  0.2101290E+04  0.7818609E-02  0.8560676E-01
       -1   -1    0    0    0  501  0.00000000000E+00  0.00000000000E+00  0.11539925987E+04  0.11539925987E+04  0.50400001928E-02 0.  1.
        1   -1    0    0  501    0  0.00000000000E+00  0.00000000000E+00 -0.95655249365E+03  0.95655249366E+03  0.50400001928E-02 0. -1.
    10030    2    1    2    0    0  0.00000000000E+00  0.00000000000E+00  0.19744010506E+03  0.21105450924E+04  0.21012896021E+04 0.  0.
        1    1    3    3  502    0 -0.35215626829E+03  0.84637093796E+03  0.61430034783E+03  0.11035047437E+04  0.50400001928E-02 0.  1.
       -1    1    3    3    0  502  0.35215626829E+03 -0.84637093796E+03 -0.41686024277E+03  0.10070403487E+04  0.50400001928E-02 0. -1.
</event>
<event>
 5   0  0.2467483E-04  0.2078316E+04  0.7818609E-02  0.8570856E-01
        2   -1    0    0  501    0  0.00000000000E+00  0.00000000000E+00  0.15720249840E+04  0.15720249840E+04  0.25500000920E-02 0.  1.
       -2   -1    0    0    0  501  0.00000000000E+00  0.00000000000E+00 -0.68691639876E+03  0.68691639876E+03  0.25500000920E-02 0. -1.
    10030    2    1    2    0    0  0.00000000000E+00  0.00000000000E+00  0.88510858529E+03  0.22589413828E+04  0.20783163771E+04 0.  0.
        4    1    3    3  502    0  0.12133834911E+03 -0.85994643516E+03 -0.17766748517E+03  0.88645260138E+03  0.12699999809E+01 0. -1.
       -4    1    3    3    0  502 -0.12133834911E+03  0.85994643516E+03  0.10627760705E+04  0.13724887814E+04  0.12699999809E+01 0.  1.
</event>
<event>
 5   0  0.8698750E-05  0.2228490E+04  0.7818609E-02  0.8506663E-01
       -3   -1    0    0    0  501  0.00000000000E+00  0.00000000000E+00  0.11948421031E+04  0.11948421074E+04  0.10100000352E+00 0.  1.
        3   -1    0    0  501    0  0.00000000000E+00  0.00000000000E+00 -0.10390845694E+04  0.10390845743E+04  0.10100000352E+00 0. -1.
    10030    2    1    2    0    0  0.00000000000E+00  0.00000000000E+00  0.15575753372E+03  0.22339266816E+04  0.22284900739E+04 0.  0.
        4    1    3    3  502    0  0.83933971759E+03  0.69736109367E+03 -0.14791890563E+03  0.11012199018E+04  0.12699999809E+01 0. -1.
       -4    1    3    3    0  502 -0.83933971759E+03 -0.69736109367E+03  0.30367643935E+03  0.11327067799E+04  0.12699999809E+01 0.  1.
</event>
<event>
 5   0  0.2512839E-04  0.2115976E+04  0.7818609E-02  0.8554238E-01
        2   -1    0    0  501    0  0.00000000000E+00  0.00000000000E+00  0.24005274887E+04  0.24005274887E+04  0.25500000920E-02 0.  1.
       -2   -1    0    0    0  501  0.00000000000E+00  0.00000000000E+00 -0.46628855471E+03  0.46628855471E+03  0.25500000920E-02 0. -1.
    10030    2    1    2    0    0  0.00000000000E+00  0.00000000000E+00  0.19342389340E+04  0.28668160434E+04  0.21159758914E+04 0.  0.
        3    1    3    3  502    0 -0.57494830980E+02  0.42329140609E+03 -0.34425225193E+03  0.54862636942E+03  0.10100000352E+00 0. -1.
       -3    1    3    3    0  502  0.57494830980E+02 -0.42329140609E+03  0.22784911859E+04  0.23181896740E+04  0.10100000352E+00 0.  1.
</event>
<event>
 5   0  0.2448804E-04  0.2097519E+04  0.7818609E-02  0.8562337E-01
       -2   -1    0    0    0  501  0.00000000000E+00  0.00000000000E+00  0.11596962000E+04  0.11596962000E+04  0.25500000920E-02 0.  1.
        2   -1    0    0  501    0  0.00000000000E+00  0.00000000000E+00 -0.94843544287E+03  0.94843544288E+03  0.25500000920E-02 0. -1.
    10030    2    1    2    0    0  0.00000000000E+00  0.00000000000E+00  0.21126075710E+03  0.21081316428E+04  0.20975194674E+04 0.  0.
        2    1    3    3  502    0 -0.75733827336E+03 -0.40598323277E+03 -0.49867141969E+03  0.99350733788E+03  0.25500000920E-02 0. -1.
       -2    1    3    3    0  502  0.75733827336E+03  0.40598323277E+03  0.70993217679E+03  0.11146243050E+04  0.25500000920E-02 0.  1.
</event>
<event>
 5   0  0.2430898E-04  0.1816481E+04  0.7818609E-02  0.8697584E-01
       -2   -1    0    0    0  501  0.00000000000E+00  0.00000000000E+00  0.67458345673E+03  0.67458345674E+03  0.25500000920E-02 0. -1.
        2   -1    0    0  501    0  0.00000000000E+00  0.00000000000E+00 -0.12228294040E+04  0.12228294040E+04  0.25500000920E-02 0.  1.
    10030    2    1    2    0    0  0.00000000000E+00  0.00000000000E+00 -0.54824594724E+03  0.18974128607E+04  0.18164806482E+04 0.  0.
        1    1    3    3  502    0  0.54385023650E+03 -0.28754571249E+02  0.48510396410E+03  0.72933240783E+03  0.50400001928E-02 0. -1.
       -1    1    3    3    0  502 -0.54385023650E+03  0.28754571249E+02 -0.10333499113E+04  0.11680804529E+04  0.50400001928E-02 0.  1.
</event>
<event>
 5   0  0.1186038E-04  0.2074065E+04  0.7818609E-02  0.8572755E-01
       -1   -1    0    0    0  501  0.00000000000E+00  0.00000000000E+00  0.79466762171E+03  0.79466762173E+03  0.50400001928E-02 0.  1.
        1   -1    0    0  501    0  0.00000000000E+00  0.00000000000E+00 -0.13533153533E+04  0.13533153533E+04  0.50400001928E-02 0. -1.
    10030    2    1    2    0    0  0.00000000000E+00  0.00000000000E+00 -0.55864773162E+03  0.21479829751E+04  0.20740645055E+04 0.  0.
        4    1    3    3  502    0 -0.26190287518E+03  0.55615375567E+03  0.58562676034E+03  0.84903500004E+03  0.12699999809E+01 0.  1.
       -4    1    3    3    0  502  0.26190287518E+03 -0.55615375567E+03 -0.11442744920E+04  0.12989479750E+04  0.12699999809E+01 0. -1.
</event>
<event>
 5   0  0.2448804E-04  0.2119444E+04  0.7818609E-02  0.8552726E-01
        2   -1    0    0  501    0  0.00000000000E+00  0.00000000000E+00  0.11480271227E+04  0.11480271227E+04  0.25500000920E-02 0. -1.
       -2   -1    0    0    0  501  0.00000000000E+00  0.00000000000E+00 -0.97820922390E+03  0.97820922390E+03  0.25500000920E-02 0.  1.
    10030    2    1    2    0    0  0.00000000000E+00  0.00000000000E+00  0.16981789883E+03  0.21262363466E+04  0.21194440033E+04 0.  0.
        2    1    3    3  502    0 -0.31094362323E+02  0.23754399612E+02  0.11473021393E+04  0.11479692199E+04  0.25500000920E-02 0. -1.
       -2    1    3    3    0  502  0.31094362323E+02 -0.23754399612E+02 -0.97748424050E+03  0.97826712676E+03  0.25500000920E-02 0.  1.
</event>
<event>
 5   0  0.1042395E-04  0.2078942E+04  0.7818609E-02  0.8570577E-01
        1   -1    0    0  501    0  0.00000000000E+00  0.00000000000E+00  0.11185300465E+04  0.11185300465E+04  0.50400001928E-02 0.  1.
       -1   -1    0    0    0  501  0.00000000000E+00  0.00000000000E+00 -0.96600012853E+03  0.96600012854E+03  0.50400001928E-02 0. -1.
    10030    2    1    2    0    0  0.00000000000E+00  0.00000000000E+00  0.15252991800E+03  0.20845301751E+04  0.20789422010E+04 0.  0.
        3    1    3    3  502    0  0.57631717205E+03  0.10242444501E+03 -0.78503630052E+03  0.97924167245E+03  0.10100000352E+00 0. -1.
       -3    1    3    3    0  502 -0.57631717205E+03 -0.10242444501E+03  0.93756621852E+03  0.11052885026E+04  0.10100000352E+00 0.  1.
</event>
<event>
 5   0  0.1186038E-04  0.2049924E+04  0.7818609E-02  0.8583629E-01
        1   -1    0    0  501    0  0.00000000000E+00  0.00000000000E+00  0.10637268574E+04  0.10637268574E+04  0.50400001928E-02 0. -1.
       -1   -1    0    0    0  501  0.00000000000E+00  0.00000000000E+00 -0.98761004215E+03  0.98761004216E+03  0.50400001928E-02 0.  1.
    10030    2    1    2    0    0  0.00000000000E+00  0.00000000000E+00  0.76116815271E+02  0.20513368996E+04  0.20499242196E+04 0.  0.
        4    1    3    3  502    0  0.95153569278E+03 -0.29771888554E+03  0.27589635333E+03  0.10344936540E+04  0.12699999809E+01 0. -1.
       -4    1    3    3    0  502 -0.95153569278E+03  0.29771888554E+03 -0.19977953806E+03  0.10168432456E+04  0.12699999809E+01 0.  1.
</event>
<event>
 5   0  0.1156733E-04  0.2112164E+04  0.7818609E-02  0.8555904E-01
       -1   -1    0    0    0  501  0.00000000000E+00  0.00000000000E+00  0.48243710234E+03  0.48243710237E+03  0.50400001928E-02 0. -1.
        1   -1    0    0  501    0  0.00000000000E+00  0.00000000000E+00 -0.23118220009E+04  0.23118220009E+04  0.50400001928E-02 0.  1.
    10030    2    1    2    0    0  0.00000000000E+00  0.00000000000E+00 -0.18293848986E+04  0.27942591033E+04  0.21121635422E+04 0.  0.
        2    1    3    3  502    0  0.47623576536E+02 -0.76576107587E+03 -0.18747570478E+04  0.20256781627E+04  0.25500000920E-02 0.  1.
       -2    1    3    3    0  502 -0.47623576536E+02  0.76576107587E+03  0.45372149231E+02  0.76858094063E+03  0.25500000920E-02 0. -1.
</event>
<event>
 5   0  0.1130848E-04  0.2091513E+04  0.7818609E-02  0.8564991E-01
       -1   -1    0    0    0  501  0.00000000000E+00  0.00000000000E+00  0.75302699724E+03  0.75302699725E+03  0.50400001928E-02 0. -1.
        1   -1    0    0  501    0  0.00000000000E+00  0.00000000000E+00 -0.14522811633E+04  0.14522811633E+04  0.50400001928E-02 0.  1.
    10030    2    1    2    0    0  0.00000000000E+00  0.00000000000E+00 -0.69925416604E+03  0.22053081605E+04  0.20915132546E+04 0.  0.
        5    1    3    3  502    0 -0.51843678751E+03  0.87845321466E+03 -0.10659101727E+03  0.10255927496E+04  0.46999998093E+01 0. -1.
       -5    1    3    3    0  502  0.51843678751E+03 -0.87845321466E+03 -0.59266314878E+03  0.11797154110E+04  0.46999998093E+01 0.  1.
</event>
<event>
 5   0  0.2512839E-04  0.2070470E+04  0.7818609E-02  0.8574364E-01
       -2   -1    0    0    0  501  0.00000000000E+00  0.00000000000E+00  0.91125619818E+03  0.91125619818E+03  0.25500000920E-02 0.  1.
        2   -1    0    0  501    0  0.00000000000E+00  0.00000000000E+00 -0.11760812976E+04  0.11760812976E+04  0.25500000920E-02 0. -1.
    10030    2    1    2    0    0  0.00000000000E+00  0.00000000000E+00 -0.26482509939E+03  0.20873374957E+04  0.20704698713E+04 0.  0.
        3    1    3    3  502    0  0.19129479958E+03  0.94136876133E+03 -0.52148735000E+03  0.10930315236E+04  0.10100000352E+00 0. -1.
       -3    1    3    3    0  502 -0.19129479958E+03 -0.94136876133E+03  0.25666225061E+03  0.99430597215E+03  0.10100000352E+00 0.  1.
</event>
<event>
 5   0  0.2467483E-04  0.2088817E+04  0.7818609E-02  0.8566186E-01
       -2   -1    0    0    0  501  0.00000000000E+00  0.00000000000E+00  0.10092690336E+04  0.10092690336E+04  0.25500000920E-02 0.  1.
        2   -1    0    0  501    0  0.00000000000E+00  0.00000000000E+00 -0.10807713661E+04  0.10807713661E+04  0.25500000920E-02 0. -1.
    10030    2    1    2    0    0  0.00000000000E+00  0.00000000000E+00 -0.71502332452E+02  0.20900403997E+04  0.20888169591E+04 0.  0.
        4    1    3    3  502    0  0.97663638799E+03 -0.36143954315E+03  0.43858501256E+02  0.10422966750E+04  0.12699999809E+01 0. -1.
       -4    1    3    3    0  502 -0.97663638799E+03  0.36143954315E+03 -0.11536083371E+03  0.10477437247E+04  0.12699999809E+01 0.  1.
</event>
<event>
 5   0  0.2579241E-04  0.2135520E+04  0.7818609E-02  0.8545756E-01
        2   -1    0    0  501    0  0.00000000000E+00  0.00000000000E+00  0.15222087935E+04  0.15222087935E+04  0.25500000920E-02 0.  1.
       -2   -1    0    0    0  501  0.00000000000E+00  0.00000000000E+00 -0.74898469550E+03  0.74898469550E+03  0.25500000920E-02 0. -1.
    10030    2    1    2    0    0  0.00000000000E+00  0.00000000000E+00  0.77322409796E+03  0.22711934890E+04  0.21355196929E+04 0.  0.
        5    1    3    3  502    0 -0.25137108181E+03  0.13604063149E+03 -0.70753160609E+03  0.76309733180E+03  0.46999998093E+01 0. -1.
       -5    1    3    3    0  502  0.25137108181E+03 -0.13604063149E+03  0.14807557040E+04  0.15080961572E+04  0.46999998093E+01 0.  1.
</event>
<event>
 5   0  0.1156733E-04  0.1267247E+04  0.7818609E-02  0.9055949E-01
        1   -1    0    0  501    0  0.00000000000E+00  0.00000000000E+00  0.52041268615E+03  0.52041268617E+03  0.50400001928E-02 0. -1.
       -1   -1    0    0    0  501  0.00000000000E+00  0.00000000000E+00 -0.77146243447E+03  0.77146243449E+03  0.50400001928E-02 0.  1.
    10030    2    1    2    0    0  0.00000000000E+00  0.00000000000E+00 -0.25104974832E+03  0.12918751207E+04  0.12672471548E+04 0.  0.
        2    1    3    3  502    0 -0.63282220460E+03  0.31785289767E+02 -0.12334068416E+03  0.64551310727E+03  0.25500000920E-02 0.  1.
       -2    1    3    3    0  502  0.63282220460E+03 -0.31785289767E+02 -0.12770906416E+03  0.64636201339E+03  0.25500000920E-02 0. -1.
</event>
<event>
 5   0  0.1156733E-04  0.2162752E+04  0.7818609E-02  0.8534094E-01
       -1   -1    0    0    0  501  0.00000000000E+00  0.00000000000E+00  0.81550423561E+03  0.81550423562E+03  0.50400001928E-02 0. -1.
        1   -1    0    0  501    0  0.00000000000E+00  0.00000000000E+00 -0.14339272337E+04  0.14339272337E+04  0.50400001928E-02 0.  1.
    10030    2    1    2    0    0  0.00000000000E+00  0.00000000000E+00 -0.61842299805E+03  0.22494314693E+04  0.21627517034E+04 0.  0.
        2    1    3    3  502    0  0.30902446329E+03 -0.53416709705E+03 -0.12328006631E+04  0.13786326855E+04  0.25500000920E-02 0.  1.
       -2    1    3    3    0  502 -0.30902446329E+03  0.53416709705E+03  0.61437766509E+03  0.87079878379E+03  0.25500000920E-02 0. -1.
</event>
<event>
 5   0  0.8698750E-05  0.1916885E+04  0.7818609E-02  0.8646497E-01
        3   -1    0    0  501    0  0.00000000000E+00  0.00000000000E+00  0.11268508636E+04  0.11268508682E+04  0.10100000352E+00 0. -1.
       -3   -1    0    0    0  501  0.00000000000E+00  0.00000000000E+00 -0.81520292935E+03  0.81520293561E+03  0.10100000352E+00 0.  1.
    10030    2    1    2    0    0  0.00000000000E+00  0.00000000000E+00  0.31164793428E+03  0.19420538038E+04  0.19168851144E+04 0.  0.
        1    1    3    3  502    0 -0.94425947585E+03 -0.16427358729E+03  0.15643707048E+03  0.97112528865E+03  0.50400001928E-02 0.  1.
       -1    1    3    3    0  502  0.94425947585E+03  0.16427358729E+03  0.15521086380E+03  0.97092851512E+03  0.50400001928E-02 0. -1.
</event>
<event>
 5   0  0.8698750E-05  0.1817188E+04  0.7818609E-02  0.8697212E-01
       -3   -1    0    0    0  501  0.00000000000E+00  0.00000000000E+00  0.12689713733E+04  0.12689713773E+04  0.10100000352E+00 0.  1.
        3   -1    0    0  501    0  0.00000000000E+00  0.00000000000E+00 -0.65056078277E+03  0.65056079061E+03  0.10100000352E+00 0. -1.
    10030    2    1    2    0    0  0.00000000000E+00  0.00000000000E+00  0.61841059051E+03  0.19195321679E+04  0.18171879609E+04 0.  0.
        4    1    3    3  502    0  0.18744500689E+03 -0.10578474656E+03  0.12416525990E+04  0.12601701602E+04  0.12699999809E+01 0.  1.
       -4    1    3    3    0  502 -0.18744500689E+03  0.10578474656E+03 -0.62324200846E+03  0.65936200772E+03  0.12699999809E+01 0. -1.
</event>
<event>
 5   0  0.1186038E-04  0.2088943E+04  0.7818609E-02  0.8566130E-01
       -1   -1    0    0    0  501  0.00000000000E+00  0.00000000000E+00  0.73442492540E+03  0.73442492542E+03  0.50400001928E-02 0.  1.
        1   -1    0    0  501    0  0.00000000000E+00  0.00000000000E+00 -0.14854077765E+04  0.14854077765E+04  0.50400001928E-02 0. -1.
    10030    2    1    2    0    0  0.00000000000E+00  0.00000000000E+00 -0.75098285107E+03  0.22198327019E+04  0.20889427905E+04 0.  0.
        4    1    3    3  502    0 -0.72461426925E+03  0.72316528903E+03 -0.59555413054E+03  0.11843648972E+04  0.12699999809E+01 0. -1.
       -4    1    3    3    0  502  0.72461426925E+03 -0.72316528903E+03 -0.15542872053E+03  0.10354678047E+04  0.12699999809E+01 0.  1.
</event>
<event>
 5   0  0.1042395E-04  0.2084074E+04  0.7818609E-02  0.8568292E-01
       -1   -1    0    0    0  501  0.00000000000E+00  0.00000000000E+00  0.73435233809E+03  0.73435233811E+03  0.50400001928E-02 0. -1.
        1   -1    0    0  501    0  0.00000000000E+00  0.00000000000E+00 -0.14786376794E+04  0.14786376794E+04  0.50400001928E-02 0.  1.
    10030    2    1    2    0    0  0.00000000000E+00  0.00000000000E+00 -0.74428534126E+03  0.22129900175E+04  0.20840739306E+04 0.  0.
        3    1    3    3  502    0 -0.87808296496E+03 -0.11955092611E+02  0.22350974326E+03  0.90616181399E+03  0.10100000352E+00 0. -1.
       -3    1    3    3    0  502  0.87808296496E+03  0.11955092611E+02 -0.96779508452E+03  0.13068282035E+04  0.10100000352E+00 0.  1.
</event>
<event>
 5   0  0.2467483E-04  0.2025469E+04  0.7818609E-02  0.8594805E-01
        2   -1    0    0  501    0  0.00000000000E+00  0.00000000000E+00  0.82589373188E+03  0.82589373188E+03  0.25500000920E-02 0. -1.
       -2   -1    0    0    0  501  0.00000000000E+00  0.00000000000E+00 -0.12418438257E+04  0.12418438257E+04  0.25500000920E-02 0.  1.
    10030    2    1    2    0    0  0.00000000000E+00  0.00000000000E+00 -0.41595009382E+03  0.20677375576E+04  0.20254688658E+04 0.  0.
        4    1    3    3  502    0  0.50505783820E+03  0.47882602986E+03 -0.95903996619E+03  0.11849544533E+04  0.12699999809E+01 0.  1.
       -4    1    3    3    0  502 -0.50505783820E+03 -0.47882602986E+03  0.54308987237E+03  0.88278310426E+03  0.12699999809E+01 0. -1.
</event>
<event>
 5   0  0.2579241E-04  0.2099062E+04  0.7818609E-02  0.8561657E-01
       -2   -1    0    0    0  501  0.00000000000E+00  0.00000000000E+00  0.97372001515E+03  0.97372001515E+03  0.25500000920E-02 0.  1.
        2   -1    0    0  501    0  0.00000000000E+00  0.00000000000E+00 -0.11312445739E+04  0.11312445739E+04  0.25500000920E-02 0. -1.
    10030    2    1    2    0    0  0.00000000000E+00  0.00000000000E+00 -0.15752455875E+03  0.21049645891E+04  0.20990621560E+04 0.  0.
        5    1    3    3  502    0 -0.14327818187E+03  0.33380371519E+02  0.96331832750E+03  0.97449842314E+03  0.46999998093E+01 0.  1.
       -5    1    3    3    0  502  0.14327818187E+03 -0.33380371519E+02 -0.11208428863E+04  0.11304661659E+04  0.46999998093E+01 0. -1.
</event>
<event>
 5   0  0.1130848E-04  0.2013406E+04  0.7818609E-02  0.8600379E-01
        1   -1    0    0  501    0  0.00000000000E+00  0.00000000000E+00  0.10376608468E+04  0.10376608468E+04  0.50400001928E-02 0.  1.
       -1   -1    0    0    0  501  0.00000000000E+00  0.00000000000E+00 -0.97666851489E+03  0.97666851490E+03  0.50400001928E-02 0. -1.
    10030    2    1    2    0    0  0.00000000000E+00  0.00000000000E+00  0.60992331896E+02  0.20143293617E+04  0.20134057497E+04 0.  0.
        5    1    3    3  502    0  0.18538604883E+03 -0.26166022957E+03 -0.92419234514E+03  0.97825745265E+03  0.46999998093E+01 0. -1.
       -5    1    3    3    0  502 -0.18538604883E+03  0.26166022957E+03  0.98518467704E+03  0.10360719090E+04  0.46999998093E+01 0.  1.
</event>
<event>
 5   0  0.2430898E-04  0.2055879E+04  0.7818609E-02  0.8580932E-01
       -2   -1    0    0    0  501  0.00000000000E+00  0.00000000000E+00  0.99369343233E+03  0.99369343233E+03  0.25500000920E-02 0.  1.
        2   -1    0    0  501    0  0.00000000000E+00  0.00000000000E+00 -0.10633662994E+04  0.10633662994E+04  0.25500000920E-02 0. -1.
    10030    2    1    2    0    0  0.00000000000E+00  0.00000000000E+00 -0.69672867107E+02  0.20570597318E+04  0.20558794789E+04 0.  0.
        1    1    3    3  502    0  0.34627654108E+03  0.96718304295E+03 -0.71045969943E+02  0.10297562874E+04  0.50400001928E-02 0.  1.
       -1    1    3    3    0  502 -0.34627654108E+03 -0.96718304295E+03  0.13731028362E+01  0.10273034444E+04  0.50400001928E-02 0. -1.
</event>
<event>
 5   0  0.2448804E-04  0.2115544E+04  0.7818609E-02  0.8554427E-01
       -2   -1    0    0    0  501  0.00000000000E+00  0.00000000000E+00  0.92571040358E+03  0.92571040358E+03  0.25500000920E-02 0.  1.
        2   -1    0    0  501    0  0.00000000000E+00  0.00000000000E+00 -0.12086730272E+04  0.12086730272E+04  0.25500000920E-02 0. -1.
    10030    2    1    2    0    0  0.00000000000E+00  0.00000000000E+00 -0.28296262357E+03  0.21343834307E+04  0.21155436141E+04 0.  0.
        2    1    3    3  502    0 -0.25452813765E+03  0.82967934115E+03 -0.75162208251E+03  0.11480801962E+04  0.25500000920E-02 0. -1.
       -2    1    3    3    0  502  0.25452813765E+03 -0.82967934115E+03  0.46865945894E+03  0.98630323453E+03  0.25500000920E-02 0.  1.
</event>
<event>
 5   0  0.2448804E-04  0.2082979E+04  0.7818609E-02  0.8568779E-01
       -2   -1    0    0    0  501  0.00000000000E+00  0.00000000000E+00  0.11461883606E+04  0.11461883606E+04  0.25500000920E-02 0.  1.
        2   -1    0    0  501    0  0.00000000000E+00  0.00000000000E+00 -0.94635444529E+03  0.94635444529E+03  0.25500000920E-02 0. -1.
    10030    2    1    2    0    0  0.00000000000E+00  0.00000000000E+00  0.19983391532E+03  0.20925428059E+04  0.20829790687E+04 0.  0.
        2    1    3    3  502    0 -0.23446763668E+03  0.26599597885E+03  0.10836840681E+04  0.11402193178E+04  0.25500000920E-02 0.  1.
       -2    1    3    3    0  502  0.23446763668E+03 -0.26599597885E+03 -0.88385015273E+03  0.95232348806E+03  0.25500000920E-02 0. -1.
</event>
<event>
 5   0  0.1186038E-04  0.2086672E+04  0.7818609E-02  0.8567137E-01
       -1   -1    0    0    0  501  0.00000000000E+00  0.00000000000E+00  0.53686617812E+03  0.53686617815E+03  0.50400001928E-02 0.  1.
        1   -1    0    0  501    0  0.00000000000E+00  0.00000000000E+00 -0.20276008117E+04  0.20276008117E+04  0.50400001928E-02 0. -1.
    10030    2    1    2    0    0  0.00000000000E+00  0.00000000000E+00 -0.14907346336E+04  0.25644669899E+04  0.20866722777E+04 0.  0.
        4    1    3    3  502    0  0.29818243186E+03  0.72015052548E+03 -0.15977292530E+04  0.17777148030E+04  0.12699999809E+01 0. -1.
       -4    1    3    3    0  502 -0.29818243186E+03 -0.72015052548E+03  0.10699461943E+03  0.78675218685E+03  0.12699999809E+01 0.  1.
</event>
<event>
 5   0  0.1122711E-04  0.2047727E+04  0.7818609E-02  0.8584626E-01
       -1   -1    0    0    0  501  0.00000000000E+00  0.00000000000E+00  0.10876685670E+04  0.10876685670E+04  0.50400001928E-02 0.  1.
        1   -1    0    0  501    0  0.00000000000E+00  0.00000000000E+00 -0.96380113244E+03  0.96380113245E+03  0.50400001928E-02 0. -1.
    10030    2    1    2    0    0  0.00000000000E+00  0.00000000000E+00  0.12386743455E+03  0.20514696995E+04  0.20477267363E+04 0.  0.
        1    1    3    3  502    0 -0.96830625977E+02  0.79917686417E+03  0.69573246897E+03  0.10640035238E+04  0.50400001928E-02 0.  1.
       -1    1    3    3    0  502  0.96830625977E+02 -0.79917686417E+03 -0.57186503442E+03  0.98746617561E+03  0.50400001928E-02 0. -1.
</event>
<event>
 5   0  0.2579241E-04  0.2112480E+04  0.7818609E-02  0.8555766E-01
        2   -1    0    0  501    0  0.00000000000E+00  0.00000000000E+00  0.20858307582E+04  0.20858307582E+04  0.25500000920E-02 0. -1.
       -2   -1    0    0    0  501  0.00000000000E+00  0.00000000000E+00 -0.53486732263E+03  0.53486732264E+03  0.25500000920E-02 0.  1.
    10030    2    1    2    0    0  0.00000000000E+00  0.00000000000E+00  0.15509634355E+04  0.26206980808E+04  0.21124797874E+04 0.  0.
        5    1    3    3  502    0  0.36126684107E+02  0.38865749324E+03  0.19930585634E+04  0.20309269587E+04  0.46999998093E+01 0. -1.
       -5    1    3    3    0  502 -0.36126684107E+02 -0.38865749324E+03 -0.44209512789E+03  0.58977112210E+03  0.46999998093E+01 0.  1.
</event>
<event>
 5   0  0.1130848E-04  0.1549720E+04  0.7818609E-02  0.8852047E-01
       -1   -1    0    0    0  501  0.00000000000E+00  0.00000000000E+00  0.49268715590E+03  0.49268715592E+03  0.50400001928E-02 0.  1.
        1   -1    0    0  501    0  0.00000000000E+00  0.00000000000E+00 -0.12186396113E+04  0.12186396114E+04  0.50400001928E-02 0. -1.
    10030    2    1    2    0    0  0.00000000000E+00  0.00000000000E+00 -0.72595245545E+03  0.17113267673E+04  0.15497200834E+04 0.  0.
        5    1    3    3  502    0 -0.48464363163E+03  0.55259170433E+03 -0.92148131100E+02  0.74077689585E+03  0.46999998093E+01 0.  1.
       -5    1    3    3    0  502  0.48464363163E+03 -0.55259170433E+03 -0.63380432435E+03  0.97054987143E+03  0.46999998093E+01 0. -1.
</event>
<event>
 5   0  0.2448804E-04  0.1572323E+04  0.7818609E-02  0.8837734E-01
        2   -1    0    0  501    0  0.00000000000E+00  0.00000000000E+00  0.19249338691E+04  0.19249338691E+04  0.25500000920E-02 0. -1.
       -2   -1    0    0    0  501  0.00000000000E+00  0.00000000000E+00 -0.32107590791E+03  0.32107590792E+03  0.25500000920E-02 0.  1.
    10030    2    1    2    0    0  0.00000000000E+00  0.00000000000E+00  0.16038579611E+04  0.22460097770E+04  0.15723229817E+04 0.  0.
        2    1    3    3  502    0  0.28338184675E+02  0.57396645200E+03  0.15682704523E+04  0.16702433213E+04  0.25500000920E-02 0. -1.
       -2    1    3    3    0  502 -0.28338184675E+02 -0.57396645200E+03  0.35587508864E+02  0.57576645571E+03  0.25500000920E-02 0.  1.
</event>
<event>
 5   0  0.2467483E-04  0.2069898E+04  0.7818609E-02  0.8574621E-01
       -2   -1    0    0    0  501  0.00000000000E+00  0.00000000000E+00  0.39695307596E+03  0.39695307596E+03  0.25500000920E-02 0. -1.
        2   -1    0    0  501    0  0.00000000000E+00  0.00000000000E+00 -0.26983516871E+04  0.26983516871E+04  0.25500000920E-02 0.  1.
    10030    2    1    2    0    0  0.00000000000E+00  0.00000000000E+00 -0.23013986112E+04  0.30953047631E+04  0.20698975842E+04 0.  0.
        4    1    3    3  502    0  0.15936547572E+03 -0.63010255335E+03 -0.23551067464E+04  0.24431446913E+04  0.12699999809E+01 0.  1.
       -4    1    3    3    0  502 -0.15936547572E+03  0.63010255335E+03  0.53708135248E+02  0.65216007182E+03  0.12699999809E+01 0. -1.
</event>
<event>
 5   0  0.1186038E-04  0.1188336E+04  0.7818609E-02  0.9123128E-01
        1   -1    0    0  501    0  0.00000000000E+00  0.00000000000E+00  0.12806236710E+04  0.12806236710E+04  0.50400001928E-02 0. -1.
       -1   -1    0    0    0  501  0.00000000000E+00  0.00000000000E+00 -0.27567461987E+03  0.27567461991E+03  0.50400001928E-02 0.  1.
    10030    2    1    2    0    0  0.00000000000E+00  0.00000000000E+00  0.10049490511E+04  0.15562982909E+04  0.11883357164E+04 0.  0.
        4    1    3    3  502    0 -0.38189937963E+03  0.30625351964E+03  0.94348769150E+03  0.10629247346E+04  0.12699999809E+01 0. -1.
       -4    1    3    3    0  502  0.38189937963E+03 -0.30625351964E+03  0.61461359607E+02  0.49337355633E+03  0.12699999809E+01 0.  1.
</event>
<event>
 5   0  0.2579241E-04  0.2183300E+04  0.7818609E-02  0.8525411E-01
       -2   -1    0    0    0  501  0.00000000000E+00  0.00000000000E+00  0.67979316292E+03  0.67979316292E+03  0.25500000920E-02 0.  1.
        2   -1    0    0  501    0  0.00000000000E+00  0.00000000000E+00 -0.17530333985E+04  0.17530333985E+04  0.25500000920E-02 0. -1.
    10030    2    1    2    0    0  0.00000000000E+00  0.00000000000E+00 -0.10732402356E+04  0.24328265614E+04  0.21833003629E+04 0.  0.
        5    1    3    3  502    0  0.74778402522E+02  0.65530304813E+03 -0.15059000835E+04  0.16440106587E+04  0.46999998093E+01 0. -1.
       -5    1    3    3    0  502 -0.74778402522E+02 -0.65530304813E+03  0.43265984794E+03  0.78881590272E+03  0.46999998093E+01 0.  1.
</event>
<event>
 5   0  0.2512839E-04  0.2098577E+04  0.7818609E-02  0.8561871E-01
       -2   -1    0    0    0  501  0.00000000000E+00  0.00000000000E+00  0.93612139757E+03  0.93612139757E+03  0.25500000920E-02 0.  1.
        2   -1    0    0  501    0  0.00000000000E+00  0.00000000000E+00 -0.11761361664E+04  0.11761361664E+04  0.25500000920E-02 0. -1.
    10030    2    1    2    0    0  0.00000000000E+00  0.00000000000E+00 -0.24001476886E+03  0.21122575640E+04  0.20985768815E+04 0.  0.
        3    1    3    3  502    0 -0.29349001709E+03  0.77178411220E+03  0.53168482381E+03  0.98207732285E+03  0.10100000352E+00 0.  1.
       -3    1    3    3    0  502  0.29349001709E+03 -0.77178411220E+03 -0.77169959267E+03  0.11301802412E+04  0.10100000352E+00 0. -1.
</event>
<event>
 5   0  0.2467483E-04  0.2078550E+04  0.7818609E-02  0.8570752E-01
       -2   -1    0    0    0  501  0.00000000000E+00  0.00000000000E+00  0.17826179031E+04  0.17826179031E+04  0.25500000920E-02 0.  1.
        2   -1    0    0  501    0  0.00000000000E+00  0.00000000000E+00 -0.60590240981E+03  0.60590240982E+03  0.25500000920E-02 0. -1.
    10030    2    1    2    0    0  0.00000000000E+00  0.00000000000E+00  0.11767154932E+04  0.23885203129E+04  0.20785499592E+04 0.  0.
        4    1    3    3  502    0  0.39760888824E+03  0.56368988083E+03  0.14816168148E+04  0.16343283356E+04  0.12699999809E+01 0.  1.
       -4    1    3    3    0  502 -0.39760888824E+03 -0.56368988083E+03 -0.30490132157E+03  0.75419197726E+03  0.12699999809E+01 0. -1.
</event>
<event>
 5   0  0.1156733E-04  0.2057811E+04  0.7818609E-02  0.8580059E-01
       -1   -1    0    0    0  501  0.00000000000E+00  0.00000000000E+00  0.67509183169E+03  0.67509183170E+03  0.50400001928E-02 0. -1.
        1   -1    0    0  501    0  0.00000000000E+00  0.00000000000E+00 -0.15681523970E+04  0.15681523970E+04  0.50400001928E-02 0.  1.
    10030    2    1    2    0    0  0.00000000000E+00  0.00000000000E+00 -0.89306056529E+03  0.22432442287E+04  0.20578113364E+04 0.  0.
        2    1    3    3  502    0  0.78255845841E+03  0.66344535635E+03 -0.53159666881E+03  0.11554879921E+04  0.25500000920E-02 0. -1.
       -2    1    3    3    0  502 -0.78255845841E+03 -0.66344535635E+03 -0.36146389648E+03  0.10877562366E+04  0.25500000920E-02 0.  1.
</event>
<event>
 5   0  0.2579241E-04  0.1151539E+04  0.7818609E-02  0.9156365E-01
       -2   -1    0    0    0  501  0.00000000000E+00  0.00000000000E+00  0.56245532543E+03  0.56245532544E+03  0.25500000920E-02 0.  1.
        2   -1    0    0  501    0  0.00000000000E+00  0.00000000000E+00 -0.58939929782E+03  0.58939929783E+03  0.25500000920E-02 0. -1.
    10030    2    1    2    0    0  0.00000000000E+00  0.00000000000E+00 -0.26943972391E+02  0.11518546233E+04  0.11515394459E+04 0.  0.
        5    1    3    3  502    0  0.52414069657E+03 -0.23698695321E+03 -0.38022503122E+02  0.57650159283E+03  0.46999998093E+01 0. -1.
       -5    1    3    3    0  502 -0.52414069657E+03  0.23698695321E+03  0.11078530731E+02  0.57535303043E+03  0.46999998093E+01 0.  1.
</event>
<event>
 5   0  0.1130848E-04  0.2111401E+04  0.7818609E-02  0.8556238E-01
       -1   -1    0    0    0  501  0.00000000000E+00  0.00000000000E+00  0.13015867119E+04  0.13015867120E+04  0.50400001928E-02 0.  1.
        1   -1    0    0  501    0  0.00000000000E+00  0.00000000000E+00 -0.85626542339E+03  0.85626542340E+03  0.50400001928E-02 0. -1.
    10030    2    1    2    0    0  0.00000000000E+00  0.00000000000E+00  0.44532128856E+03  0.21578521354E+04  0.21114011433E+04 0.  0.
        5    1    3    3  502    0 -0.10056579103E+04  0.29288990910E+03  0.88046218431E+02  0.10511453553E+04  0.46999998093E+01 0. -1.
       -5    1    3    3    0  502  0.10056579103E+04 -0.29288990910E+03  0.35727507013E+03  0.11067067801E+04  0.46999998093E+01 0.  1.
</event>
<event>
 5   0  0.2467483E-04  0.2174072E+04  0.7818609E-02  0.8529298E-01
       -2   -1    0    0    0  501  0.00000000000E+00  0.00000000000E+00  0.12435520404E+04  0.12435520404E+04  0.25500000920E-02 0.  1.
        2   -1    0    0  501    0  0.00000000000E+00  0.00000000000E+00 -0.95021967361E+03  0.95021967361E+03  0.25500000920E-02 0. -1.
    10030    2    1    2    0    0  0.00000000000E+00  0.00000000000E+00  0.29333236675E+03  0.21937717140E+04  0.21740723207E+04 0.  0.
        4    1    3    3  502    0  0.65513912377E+03 -0.61751844466E+03  0.76137380612E+03  0.11790792961E+04  0.12699999809E+01 0.  1.
       -4    1    3    3    0  502 -0.65513912377E+03  0.61751844466E+03 -0.46804143937E+03  0.10146924179E+04  0.12699999809E+01 0. -1.
</event>
<event>
 5   0  0.1122711E-04  0.1482524E+04  0.7818609E-02  0.8896158E-01
        1   -1    0    0  501    0  0.00000000000E+00  0.00000000000E+00  0.12710083838E+04  0.12710083838E+04  0.50400001928E-02 0. -1.
       -1   -1    0    0    0  501  0.00000000000E+00  0.00000000000E+00 -0.43230996073E+03  0.43230996076E+03  0.50400001928E-02 0.  1.
    10030    2    1    2    0    0  0.00000000000E+00  0.00000000000E+00  0.83869842304E+03  0.17033183445E+04  0.14825243128E+04 0.  0.
        1    1    3    3  502    0 -0.45832629071E+02  0.93176077723E+02 -0.42391237403E+03  0.43644485589E+03  0.50400001928E-02 0.  1.
       -1    1    3    3    0  502  0.45832629071E+02 -0.93176077723E+02  0.12626107971E+04  0.12668734887E+04  0.50400001928E-02 0. -1.
</event>
<event>
 5   0  0.2579241E-04  0.2093753E+04  0.7818609E-02  0.8564000E-01
        2   -1    0    0  501    0  0.00000000000E+00  0.00000000000E+00  0.95050460225E+03  0.95050460226E+03  0.25500000920E-02 0. -1.
       -2   -1    0    0    0  501  0.00000000000E+00  0.00000000000E+00 -0.11530192347E+04  0.11530192347E+04  0.25500000920E-02 0.  1.
    10030    2    1    2    0    0  0.00000000000E+00  0.00000000000E+00 -0.20251463245E+03  0.21035238370E+04  0.20937526970E+04 0.  0.
        5    1    3    3  502    0  0.87790871829E+03 -0.15865986473E+02 -0.67396370769E+03  0.11068986478E+04  0.46999998093E+01 0.  1.
       -5    1    3    3    0  502 -0.87790871829E+03  0.15865986473E+02  0.47144907524E+03  0.99662518919E+03  0.46999998093E+01 0. -1.
</event>
<event>
 5   0  0.1130848E-04  0.2109342E+04  0.7818609E-02  0.8557139E-01
        1   -1    0    0  501    0  0.00000000000E+00  0.00000000000E+00  0.11959931733E+04  0.11959931733E+04  0.50400001928E-02 0.  1.
       -1   -1    0    0    0  501  0.00000000000E+00  0.00000000000E+00 -0.93004758415E+03  0.93004758417E+03  0.50400001928E-02 0. -1.
    10030    2    1    2    0    0  0.00000000000E+00  0.00000000000E+00  0.26594558912E+03  0.21260407575E+04  0.21093416617E+04 0.  0.
        5    1    3    3  502    0  0.22576857945E+03 -0.88732180865E+03  0.66056404116E+03  0.11290165570E+04  0.46999998093E+01 0.  1.
       -5    1    3    3    0  502 -0.22576857945E+03  0.88732180865E+03 -0.39461845203E+03  0.99702420043E+03  0.46999998093E+01 0. -1.
</event>
<event>
 5   0  0.1130848E-04  0.1226983E+04  0.7818609E-02  0.9089561E-01
       -1   -1    0    0    0  501  0.00000000000E+00  0.00000000000E+00  0.65166184515E+03  0.65166184517E+03  0.50400001928E-02 0. -1.
        1   -1    0    0  501    0  0.00000000000E+00  0.00000000000E+00 -0.57755684164E+03  0.57755684166E+03  0.50400001928E-02 0.  1.
    10030    2    1    2    0    0  0.00000000000E+00  0.00000000000E+00  0.74105003513E+02  0.12292186868E+04  0.12269828966E+04 0.  0.
        5    1    3    3  502    0  0.21754938883E+03  0.56246188709E+03 -0.75662761724E+02  0.60781416117E+03  0.46999998093E+01 0.  1.
       -5    1    3    3    0  502 -0.21754938883E+03 -0.56246188709E+03  0.14976776524E+03  0.62140452566E+03  0.46999998093E+01 0. -1.
</event>
<event>
 5   0  0.2579241E-04  0.2108842E+04  0.7818609E-02  0.8557358E-01
        2   -1    0    0  501    0  0.00000000000E+00  0.00000000000E+00  0.13594886331E+04  0.13594886331E+04  0.25500000920E-02 0. -1.
       -2   -1    0    0    0  501  0.00000000000E+00  0.00000000000E+00 -0.81781038082E+03  0.81781038083E+03  0.25500000920E-02 0.  1.
    10030    2    1    2    0    0  0.00000000000E+00  0.00000000000E+00  0.54167825229E+03  0.21772990139E+04  0.21088422575E+04 0.  0.
        5    1    3    3  502    0  0.60614870706E+03 -0.44151127366E+03  0.10361387425E+04  0.12790441914E+04  0.46999998093E+01 0. -1.
       -5    1    3    3    0  502 -0.60614870706E+03  0.44151127366E+03 -0.49446049022E+03  0.89825482254E+03  0.46999998093E+01 0.  1.
</event>
<event>
 5   0  0.1122711E-04  0.2084793E+04  0.7818609E-02  0.8567972E-01
       -1   -1    0    0    0  501  0.00000000000E+00  0.00000000000E+00  0.90563687865E+03  0.90563687867E+03  0.50400001928E-02 0.  1.
        1   -1    0    0  501    0  0.00000000000E+00  0.00000000000E+00 -0.11998078980E+04  0.11998078980E+04  0.50400001928E-02 0. -1.
    10030    2    1    2    0    0  0.00000000000E+00  0.00000000000E+00 -0.29417101937E+03  0.21054447767E+04  0.20847928240E+04 0.  0.
        1    1    3    3  502    0 -0.10250010971E+04  0.13733608024E+03 -0.15016090642E+02  0.10342697573E+04  0.50400001928E-02 0. -1.
       -1    1    3    3    0  502  0.10250010971E+04 -0.13733608024E+03 -0.27915492872E+03  0.10711750194E+04  0.50400001928E-02 0.  1.
</event>
<event>
 5   0  0.1186038E-04  0.2047857E+04  0.7818609E-02  0.8584567E-01
        1   -1    0    0  501    0  0.00000000000E+00  0.00000000000E+00  0.14189678097E+04  0.14189678098E+04  0.50400001928E-02 0.  1.
       -1   -1    0    0    0  501  0.00000000000E+00  0.00000000000E+00 -0.73886760612E+03  0.73886760614E+03  0.50400001928E-02 0. -1.
    10030    2    1    2    0    0  0.00000000000E+00  0.00000000000E+00  0.68010020362E+03  0.21578354159E+04  0.20478567809E+04 0.  0.
        4    1    3    3  502    0  0.36093402041E+03 -0.94624067876E+03  0.18100376062E+03  0.10287899511E+04  0.12699999809E+01 0.  1.
       -4    1    3    3    0  502 -0.36093402041E+03  0.94624067876E+03  0.49909644300E+03  0.11290454648E+04  0.12699999809E+01 0. -1.
</event>
<event>
 5   0  0.1130848E-04  0.2074276E+04  0.7818609E-02  0.8572660E-01
       -1   -1    0    0    0  501  0.00000000000E+00  0.00000000000E+00  0.44871676521E+03  0.44871676523E+03  0.50400001928E-02 0. -1.
        1   -1    0    0  501    0  0.00000000000E+00  0.00000000000E+00 -0.23971809450E+04  0.23971809450E+04  0.50400001928E-02 0.  1.
    10030    2    1    2    0    0  0.00000000000E+00  0.00000000000E+00 -0.19484641798E+04  0.28458977103E+04  0.20742760465E+04 0.  0.
        5    1    3    3  502    0  0.77626474795E+03 -0.61593639372E+03 -0.55432836830E+03  0.11354587751E+04  0.46999998093E+01 0. -1.
       -5    1    3    3    0  502 -0.77626474795E+03  0.61593639372E+03 -0.13941358115E+04  0.17104389352E+04  0.46999998093E+01 0.  1.
</event>
<event>
 5   0  0.1186038E-04  0.2112411E+04  0.7818609E-02  0.8555796E-01
        1   -1    0    0  501    0  0.00000000000E+00  0.00000000000E+00  0.12821873457E+04  0.12821873457E+04  0.50400001928E-02 0.  1.
       -1   -1    0    0    0  501  0.00000000000E+00  0.00000000000E+00 -0.87005209470E+03  0.87005209472E+03  0.50400001928E-02 0. -1.
    10030    2    1    2    0    0  0.00000000000E+00  0.00000000000E+00  0.41213525098E+03  0.21522394404E+04  0.21124107422E+04 0.  0.
        4    1    3    3  502    0  0.84148729194E+03  0.42426741186E+03 -0.27985710971E+03  0.98306933327E+03  0.12699999809E+01 0.  1.
       -4    1    3    3    0  502 -0.84148729194E+03 -0.42426741186E+03  0.69199236069E+03  0.11691701071E+04  0.12699999809E+01 0. -1.
</event>
<event>
 5   0  0.1186038E-04  0.2143804E+04  0.7818609E-02  0.8542189E-01
       -1   -1    0    0    0  501  0.00000000000E+00  0.00000000000E+00  0.92519828832E+03  0.92519828834E+03  0.50400001928E-02 0. -1.
        1   -1    0    0  501    0  0.00000000000E+00  0.00000000000E+00 -0.12418676406E+04  0.12418676406E+04  0.50400001928E-02 0.  1.
    10030    2    1    2    0    0  0.00000000000E+00  0.00000000000E+00 -0.31666935227E+03  0.21670659289E+04  0.21438039233E+04 0.  0.
        4    1    3    3  502    0 -0.74327102555E+03  0.76866549282E+03 -0.23447627277E+03  0.10946593957E+04  0.12699999809E+01 0.  1.
       -4    1    3    3    0  502  0.74327102555E+03 -0.76866549282E+03 -0.82193079509E+02  0.10724065332E+04  0.12699999809E+01 0. -1.
</event>
<event>
 5   0  0.1186038E-04  0.2074523E+04  0.7818609E-02  0.8572550E-01
        1   -1    0    0  501    0  0.00000000000E+00  0.00000000000E+00  0.13111636364E+04  0.13111636364E+04  0.50400001928E-02 0.  1.
       -1   -1    0    0    0  501  0.00000000000E+00  0.00000000000E+00 -0.82057753811E+03  0.82057753813E+03  0.50400001928E-02 0. -1.
    10030    2    1    2    0    0  0.00000000000E+00  0.00000000000E+00  0.49058609827E+03  0.21317411745E+04  0.20745230091E+04 0.  0.
        4    1    3    3  502    0  0.21761441670E+03  0.24801451758E+03  0.12557993276E+04  0.12984224272E+04  0.12699999809E+01 0.  1.
       -4    1    3    3    0  502 -0.21761441670E+03 -0.24801451758E+03 -0.76521322938E+03  0.83331874730E+03  0.12699999809E+01 0. -1.
</event>
<event>
 5   0  0.1042395E-04  0.1919452E+04  0.7818609E-02  0.8645234E-01
       -1   -1    0    0    0  501  0.00000000000E+00  0.00000000000E+00  0.61079587170E+03  0.61079587172E+03  0.50400001928E-02 0. -1.
        1   -1    0    0  501    0  0.00000000000E+00  0.00000000000E+00 -0.15079896927E+04  0.15079896927E+04  0.50400001928E-02 0.  1.
    10030    2    1    2    0    0  0.00000000000E+00  0.00000000000E+00 -0.89719382095E+03  0.21187855644E+04  0.19194518789E+04 0.  0.
        3    1    3    3  502    0  0.35812135315E+03 -0.77103538606E+03 -0.94018475353E+03  0.12675542794E+04  0.10100000352E+00 0.  1.
       -3    1    3    3    0  502 -0.35812135315E+03  0.77103538606E+03  0.42990932578E+02  0.85123128503E+03  0.10100000352E+00 0. -1.
</event>
<event>
 5   0  0.2448804E-04  0.1850690E+04  0.7818609E-02  0.8679798E-01
       -2   -1    0    0    0  501  0.00000000000E+00  0.00000000000E+00  0.11002318323E+04  0.11002318323E+04  0.25500000920E-02 0.  1.
        2   -1    0    0  501    0  0.00000000000E+00  0.00000000000E+00 -0.77825737665E+03  0.77825737666E+03  0.25500000920E-02 0. -1.
    10030    2    1    2    0    0  0.00000000000E+00  0.00000000000E+00  0.32197445565E+03  0.18784892090E+04  0.18506901843E+04 0.  0.
        2    1    3    3  502    0 -0.75855475022E+03  0.51398415933E+03  0.29207242909E+03  0.96171270604E+03  0.25500000920E-02 0. -1.
       -2    1    3    3    0  502  0.75855475022E+03 -0.51398415933E+03  0.29902026558E+02  0.91677650293E+03  0.25500000920E-02 0.  1.
</event>
<event>
 5   0  0.1122711E-04  0.2086186E+04  0.7818609E-02  0.8567353E-01
        1   -1    0    0  501    0  0.00000000000E+00  0.00000000000E+00  0.12498582272E+04  0.12498582272E+04  0.50400001928E-02 0.  1.
       -1   -1    0    0    0  501  0.00000000000E+00  0.00000000000E+00 -0.87053314079E+03  0.87053314081E+03  0.50400001928E-02 0. -1.
    10030    2    1    2    0    0  0.00000000000E+00  0.00000000000E+00  0.37932508637E+03  0.21203913680E+04  0.20861860014E+04 0.  0.
        1    1    3    3  502    0  0.97293552969E+02 -0.78775083328E+03  0.87753492930E+03  0.11832518595E+04  0.50400001928E-02 0.  1.
       -1    1    3    3    0  502 -0.97293552969E+02  0.78775083328E+03 -0.49820984293E+03  0.93713950851E+03  0.50400001928E-02 0. -1.
</event>
<event>
 5   0  0.1122711E-04  0.2119559E+04  0.7818609E-02  0.8552676E-01
       -1   -1    0    0    0  501  0.00000000000E+00  0.00000000000E+00  0.11293214600E+04  0.11293214601E+04  0.50400001928E-02 0. -1.
        1   -1    0    0  501    0  0.00000000000E+00  0.00000000000E+00 -0.99451992855E+03  0.99451992856E+03  0.50400001928E-02 0.  1.
    10030    2    1    2    0    0  0.00000000000E+00  0.00000000000E+00  0.13480153150E+03  0.21238413886E+04  0.21195591030E+04 0.  0.
        1    1    3    3  502    0 -0.30982521327E+03 -0.43567752304E+03  0.98430477361E+03  0.11201171609E+04  0.50400001928E-02 0. -1.
       -1    1    3    3    0  502  0.30982521327E+03  0.43567752304E+03 -0.84950324211E+03  0.10037242277E+04  0.50400001928E-02 0.  1.
</event>
<event>
 5   0  0.2579241E-04  0.2103918E+04  0.7818609E-02  0.8559519E-01
       -2   -1    0    0    0  501  0.00000000000E+00  0.00000000000E+00  0.10754364585E+04  0.10754364585E+04  0.25500000920E-02 0.  1.
        2   -1    0    0  501    0  0.00000000000E+00  0.00000000000E+00 -0.10289944116E+04  0.10289944116E+04  0.25500000920E-02 0. -1.
    10030    2    1    2    0    0  0.00000000000E+00  0.00000000000E+00  0.46442046921E+02  0.21044308701E+04  0.21039183500E+04 0.  0.
        5    1    3    3  502    0  0.61328679375E+03  0.23950314370E+03  0.84385587107E+03  0.10703257767E+04  0.46999998093E+01 0.  1.
       -5    1    3    3    0  502 -0.61328679375E+03 -0.23950314370E+03 -0.79741382415E+03  0.10341050934E+04  0.46999998093E+01 0. -1.
</event>
<event>
 5   0  0.1156733E-04  0.2092704E+04  0.7818609E-02  0.8564464E-01
       -1   -1    0    0    0  501  0.00000000000E+00  0.00000000000E+00  0.10321850451E+04  0.10321850451E+04  0.50400001928E-02 0.  1.
        1   -1    0    0  501    0  0.00000000000E+00  0.00000000000E+00 -0.10607131785E+04  0.10607131786E+04  0.50400001928E-02 0. -1.
    10030    2    1    2    0    0  0.00000000000E+00  0.00000000000E+00 -0.28528133451E+02  0.20928982237E+04  0.20927037822E+04 0.  0.
        2    1    3    3  502    0 -0.58601792238E+03 -0.64528682684E+03 -0.59314440713E+03  0.10543397849E+04  0.25500000920E-02 0. -1.
       -2    1    3    3    0  502  0.58601792238E+03  0.64528682684E+03  0.56461627368E+03  0.10385584388E+04  0.25500000920E-02 0.  1.
</event>
<event>
 5   0  0.1042395E-04  0.2078218E+04  0.7818609E-02  0.8570900E-01
        1   -1    0    0  501    0  0.00000000000E+00  0.00000000000E+00  0.50274209671E+03  0.50274209674E+03  0.50400001928E-02 0. -1.
       -1   -1    0    0    0  501  0.00000000000E+00  0.00000000000E+00 -0.21477156673E+04  0.21477156674E+04  0.50400001928E-02 0.  1.
    10030    2    1    2    0    0  0.00000000000E+00  0.00000000000E+00 -0.16449735706E+04  0.26504577641E+04  0.20782175803E+04 0.  0.
        3    1    3    3  502    0 -0.92154867704E+03 -0.25788230027E+03 -0.30602169660E+03  0.10046912630E+04  0.10100000352E+00 0. -1.
       -3    1    3    3    0  502  0.92154867704E+03  0.25788230027E+03 -0.13389518740E+04  0.16457665011E+04  0.10100000352E+00 0.  1.
</event>
<event>
 5   0  0.1186038E-04  0.1083605E+04  0.7818609E-02  0.9221321E-01
        1   -1    0    0  501    0  0.00000000000E+00  0.00000000000E+00  0.51714321744E+03  0.51714321747E+03  0.50400001928E-02 0.  1.
       -1   -1    0    0    0  501  0.00000000000E+00  0.00000000000E+00 -0.56763739681E+03  0.56763739684E+03  0.50400001928E-02 0. -1.
    10030    2    1    2    0    0  0.00000000000E+00  0.00000000000E+00 -0.50494179371E+02  0.10847806143E+04  0.10836047799E+04 0.  0.
        4    1    3    3  502    0  0.52824572581E+03  0.59361555291E+02 -0.13015047236E+03  0.54727333156E+03  0.12699999809E+01 0. -1.
       -4    1    3    3    0  502 -0.52824572581E+03 -0.59361555291E+02  0.79656292989E+02  0.53750728274E+03  0.12699999809E+01 0.  1.
</event>
<event>
 5   0  0.1186038E-04  0.2073819E+04  0.7818609E-02  0.8572865E-01
       -1   -1    0    0    0  501  0.00000000000E+00  0.00000000000E+00  0.51068177805E+03  0.51068177807E+03  0.50400001928E-02 0.  1.
        1   -1    0    0  501    0  0.00000000000E+00  0.00000000000E+00 -0.21053850112E+04  0.21053850112E+04  0.50400001928E-02 0. -1.
    10030    2    1    2    0    0  0.00000000000E+00  0.00000000000E+00 -0.15947032332E+04  0.26160667893E+04  0.20738194338E+04 0.  0.
        4    1    3    3  502    0 -0.89526501385E+03 -0.50987621339E+03 -0.64966256413E+03  0.12180050321E+04  0.12699999809E+01 0.  1.
       -4    1    3    3    0  502  0.89526501385E+03  0.50987621339E+03 -0.94504066907E+03  0.13980617573E+04  0.12699999809E+01 0. -1.
</event>
<event>
 5   0  0.2467483E-04  0.2099652E+04  0.7818609E-02  0.8561397E-01
        2   -1    0    0  501    0  0.00000000000E+00  0.00000000000E+00  0.68953007016E+03  0.68953007017E+03  0.25500000920E-02 0.  1.
       -2   -1    0    0    0  501  0.00000000000E+00  0.00000000000E+00 -0.15983848405E+04  0.15983848405E+04  0.25500000920E-02 0. -1.
    10030    2    1    2    0    0  0.00000000000E+00  0.00000000000E+00 -0.90885477031E+03  0.22879149106E+04  0.20996517913E+04 0.  0.
        4    1    3    3  502    0 -0.76309673585E+03 -0.31664918058E+03 -0.11602314878E+04  0.14243321417E+04  0.12699999809E+01 0. -1.
       -4    1    3    3    0  502  0.76309673585E+03  0.31664918058E+03  0.25137671745E+03  0.86358276893E+03  0.12699999809E+01 0.  1.
</event>
<event>
 5   0  0.8698750E-05  0.2092085E+04  0.7818609E-02  0.8564738E-01
        3   -1    0    0  501    0  0.00000000000E+00  0.00000000000E+00  0.11919427189E+04  0.11919427232E+04  0.10100000352E+00 0.  1.
       -3   -1    0    0    0  501  0.00000000000E+00  0.00000000000E+00 -0.91800115869E+03  0.91800116425E+03  0.10100000352E+00 0. -1.
    10030    2    1    2    0    0  0.00000000000E+00  0.00000000000E+00  0.27394156019E+03  0.21099438874E+04  0.20920849002E+04 0.  0.
        1    1    3    3  502    0 -0.55066644916E+03 -0.38046979371E+03  0.94770738849E+03  0.11602327768E+04  0.50400001928E-02 0.  1.
       -1    1    3    3    0  502  0.55066644916E+03  0.38046979371E+03 -0.67376582831E+03  0.94971111059E+03  0.50400001928E-02 0. -1.
</event>
<event>
 5   0  0.1042395E-04  0.2098667E+04  0.7818609E-02  0.8561831E-01
        1   -1    0    0  501    0  0.00000000000E+00  0.00000000000E+00  0.19457770749E+04  0.19457770749E+04  0.50400001928E-02 0. -1.
       -1   -1    0    0    0  501  0.00000000000E+00  0.00000000000E+00 -0.56589249443E+03  0.56589249445E+03  0.50400001928E-02 0.  1.
    10030    2    1    2    0    0  0.00000000000E+00  0.00000000000E+00  0.13798845805E+04  0.25116695693E+04  0.20986668555E+04 0.  0.
        3    1    3    3  502    0  0.68908118990E+03 -0.77190320145E+03  0.48116042895E+03  0.11411322479E+04  0.10100000352E+00 0.  1.
       -3    1    3    3    0  502 -0.68908118990E+03  0.77190320145E+03  0.89872415151E+03  0.13705373214E+04  0.10100000352E+00 0. -1.
</event>
<event>
 5   0  0.2448804E-04  0.2091170E+04  0.7818609E-02  0.8565143E-01
       -2   -1    0    0    0  501  0.00000000000E+00  0.00000000000E+00  0.62670555609E+03  0.62670555610E+03  0.25500000920E-02 0.  1.
        2   -1    0    0  501    0  0.00000000000E+00  0.00000000000E+00 -0.17444364675E+04  0.17444364675E+04  0.25500000920E-02 0. -1.
    10030    2    1    2    0    0  0.00000000000E+00  0.00000000000E+00 -0.11177309114E+04  0.23711420236E+04  0.20911700327E+04 0.  0.
        2    1    3    3  502    0  0.12193911215E+03 -0.96327139486E+03 -0.11900202592E+03  0.97822411002E+03  0.25500000920E-02 0.  1.
       -2    1    3    3    0  502 -0.12193911215E+03  0.96327139486E+03 -0.99872888545E+03  0.13929179135E+04  0.25500000920E-02 0. -1.
</event>
<event>
 5   0  0.2579241E-04  0.1312937E+04  0.7818609E-02  0.9019369E-01
       -2   -1    0    0    0  501  0.00000000000E+00  0.00000000000E+00  0.84076908054E+03  0.84076908054E+03  0.25500000920E-02 0.  1.
        2   -1    0    0  501    0  0.00000000000E+00  0.00000000000E+00 -0.51256713129E+03  0.51256713129E+03  0.25500000920E-02 0. -1.
    10030    2    1    2    0    0  0.00000000000E+00  0.00000000000E+00  0.32820194925E+03  0.13533362118E+04  0.13129365494E+04 0.  0.
        5    1    3    3  502    0  0.49644434558E+03 -0.39760346543E+03  0.33152742395E+03  0.71727123657E+03  0.46999998093E+01 0.  1.
       -5    1    3    3    0  502 -0.49644434558E+03  0.39760346543E+03 -0.33254746972E+01  0.63606497527E+03  0.46999998093E+01 0. -1.
</event>
<event>
 5   0  0.2512839E-04  0.1991800E+04  0.7818609E-02  0.8610464E-01
       -2   -1    0    0    0  501  0.00000000000E+00  0.00000000000E+00  0.63978471401E+03  0.63978471401E+03  0.25500000920E-02 0.  1.
        2   -1    0    0  501    0  0.00000000000E+00  0.00000000000E+00 -0.15502359430E+04  0.15502359430E+04  0.25500000920E-02 0. -1.
    10030    2    1    2    0    0  0.00000000000E+00  0.00000000000E+00 -0.91045122900E+03  0.21900206570E+04  0.19918004513E+04 0.  0.
        3    1    3    3  502    0  0.49201351294E+03  0.69121763939E+03 -0.10286199600E+04  0.13333859734E+04  0.10100000352E+00 0. -1.
       -3    1    3    3    0  502 -0.49201351294E+03 -0.69121763939E+03  0.11816873097E+03  0.85663468357E+03  0.10100000352E+00 0.  1.
</event>
<event>
 5   0  0.1156733E-04  0.1645043E+04  0.7818609E-02  0.8793345E-01
        1   -1    0    0  501    0  0.00000000000E+00  0.00000000000E+00  0.14048936508E+04  0.14048936508E+04  0.50400001928E-02 0. -1.
       -1   -1    0    0    0  501  0.00000000000E+00  0.00000000000E+00 -0.48156058196E+03  0.48156058199E+03  0.50400001928E-02 0.  1.
    10030    2    1    2    0    0  0.00000000000E+00  0.00000000000E+00  0.92333306886E+03  0.18864542328E+04  0.16450427400E+04 0.  0.
        2    1    3    3  502    0  0.19672781175E+03  0.42096547146E+03 -0.31662818961E+03  0.56228744476E+03  0.25500000920E-02 0.  1.
       -2    1    3    3    0  502 -0.19672781175E+03 -0.42096547146E+03  0.12399612585E+04  0.13241667881E+04  0.25500000920E-02 0. -1.
</event>
<event>
 5   0  0.2512839E-04  0.2071755E+04  0.7818609E-02  0.8573788E-01
       -2   -1    0    0    0  501  0.00000000000E+00  0.00000000000E+00  0.81508892586E+03  0.81508892586E+03  0.25500000920E-02 0.  1.
        2   -1    0    0  501    0  0.00000000000E+00  0.00000000000E+00 -0.13164730484E+04  0.13164730484E+04  0.25500000920E-02 0. -1.
    10030    2    1    2    0    0  0.00000000000E+00  0.00000000000E+00 -0.50138412255E+03  0.21315619743E+04  0.20717553938E+04 0.  0.
        3    1    3    3  502    0 -0.96240740766E+03  0.14179766646E+02  0.14326281412E+03  0.97311526974E+03  0.10100000352E+00 0. -1.
       -3    1    3    3    0  502  0.96240740766E+03 -0.14179766646E+02 -0.64464693666E+03  0.11584467045E+04  0.10100000352E+00 0.  1.
</event>
<event>
 5   0  0.1130848E-04  0.2043427E+04  0.7818609E-02  0.8586582E-01
        1   -1    0    0  501    0  0.00000000000E+00  0.00000000000E+00  0.77796249997E+03  0.77796249999E+03  0.50400001928E-02 0. -1.
       -1   -1    0    0    0  501  0.00000000000E+00  0.00000000000E+00 -0.13418360772E+04  0.13418360772E+04  0.50400001928E-02 0.  1.
    10030    2    1    2    0    0  0.00000000000E+00  0.00000000000E+00 -0.56387357727E+03  0.21197985772E+04  0.20434266801E+04 0.  0.
        5    1    3    3  502    0  0.63302047349E+03 -0.75669535020E+03 -0.63517047206E+01  0.98659272601E+03  0.46999998093E+01 0. -1.
       -5    1    3    3    0  502 -0.63302047349E+03  0.75669535020E+03 -0.55752187255E+03  0.11332058512E+04  0.46999998093E+01 0.  1.
</event>
<event>
 5   0  0.1042395E-04  0.2093616E+04  0.7818609E-02  0.8564061E-01
        1   -1    0    0  501    0  0.00000000000E+00  0.00000000000E+00  0.96340173012E+03  0.96340173013E+03  0.50400001928E-02 0. -1.
       -1   -1    0    0    0  501  0.00000000000E+00  0.00000000000E+00 -0.11374350512E+04  0.11374350512E+04  0.50400001928E-02 0.  1.
    10030    2    1    2    0    0  0.00000000000E+00  0.00000000000E+00 -0.17403332110E+03  0.21008367814E+04  0.20936159116E+04 0.  0.
        3    1    3    3  502    0 -0.87575606813E+03  0.20025109718E+03  0.45219848726E+03  0.10057498073E+04  0.10100000352E+00 0. -1.
       -3    1    3    3    0  502  0.87575606813E+03 -0.20025109718E+03 -0.62623180836E+03  0.10950869741E+04  0.10100000352E+00 0.  1.
</event>
<event>
 5   0  0.1122711E-04  0.2133139E+04  0.7818609E-02  0.8546784E-01
        1   -1    0    0  501    0  0.00000000000E+00  0.00000000000E+00  0.16388279622E+04  0.16388279623E+04  0.50400001928E-02 0.  1.
       -1   -1    0    0    0  501  0.00000000000E+00  0.00000000000E+00 -0.69413636436E+03  0.69413636438E+03  0.50400001928E-02 0. -1.
    10030    2    1    2    0    0  0.00000000000E+00  0.00000000000E+00  0.94469159789E+03  0.23329643266E+04  0.21331386111E+04 0.  0.
        1    1    3    3  502    0  0.96051368576E+03 -0.33194449962E+03  0.82639383281E+03  0.13098474943E+04  0.50400001928E-02 0.  1.
       -1    1    3    3    0  502 -0.96051368576E+03  0.33194449962E+03  0.11829776508E+03  0.10231168323E+04  0.50400001928E-02 0. -1.
</event>
<event>
 5   0  0.2467483E-04  0.2043424E+04  0.7818609E-02  0.8586584E-01
        2   -1    0    0  501    0  0.00000000000E+00  0.00000000000E+00  0.22260466676E+04  0.22260466676E+04  0.25500000920E-02 0. -1.
       -2   -1    0    0    0  501  0.00000000000E+00  0.00000000000E+00 -0.46894567820E+03  0.46894567821E+03  0.25500000920E-02 0.  1.
    10030    2    1    2    0    0  0.00000000000E+00  0.00000000000E+00  0.17571009894E+04  0.26949923458E+04  0.20434235628E+04 0.  0.
        4    1    3    3  502    0 -0.53221867532E+03 -0.24769774887E+03 -0.22432238192E+03  0.62843697940E+03  0.12699999809E+01 0.  1.
       -4    1    3    3    0  502  0.53221867532E+03  0.24769774887E+03  0.19814233713E+04  0.20665553664E+04  0.12699999809E+01 0. -1.
</event>
<event>
 5   0  0.1186038E-04  0.2141759E+04  0.7818609E-02  0.8543068E-01
       -1   -1    0    0    0  501  0.00000000000E+00  0.00000000000E+00  0.10218766363E+04  0.10218766363E+04  0.50400001928E-02 0. -1.
        1   -1    0    0  501    0  0.00000000000E+00  0.00000000000E+00 -0.11222324375E+04  0.11222324375E+04  0.50400001928E-02 0.  1.
    10030    2    1    2    0    0  0.00000000000E+00  0.00000000000E+00 -0.10035580122E+03  0.21441090739E+04  0.21417591914E+04 0.  0.
        4    1    3    3  502    0 -0.53604605857E+03 -0.86503031226E+03  0.28359257765E+03  0.10564322889E+04  0.12699999809E+01 0. -1.
       -4    1    3    3    0  502  0.53604605857E+03  0.86503031226E+03 -0.38394837887E+03  0.10876767850E+04  0.12699999809E+01 0.  1.
</event>
<event>
 5   0  0.8698750E-05  0.1892474E+04  0.7818609E-02  0.8658612E-01
       -4   -1    0    0    0  501  0.00000000000E+00  0.00000000000E+00  0.13286537569E+04  0.13286543638E+04  0.12699999809E+01 0.  1.
        4   -1    0    0  501    0  0.00000000000E+00  0.00000000000E+00 -0.67388705236E+03  0.67388824907E+03  0.12699999809E+01 0. -1.
    10030    2    1    2    0    0  0.00000000000E+00  0.00000000000E+00  0.65476670451E+03  0.20025426129E+04  0.18924739045E+04 0.  0.
        1    1    3    3  502    0 -0.75573324068E+03  0.47813141445E+03  0.65459650601E+03  0.11082594309E+04  0.50400001928E-02 0.  1.
       -1    1    3    3    0  502  0.75573324068E+03 -0.47813141445E+03  0.17019849932E+00  0.89428318197E+03  0.50400001928E-02 0. -1.
</event>
<event>
 5   0  0.1042395E-04  0.1402452E+04  0.7818609E-02  0.8952046E-01
       -1   -1    0    0    0  501  0.00000000000E+00  0.00000000000E+00  0.11079177061E+04  0.11079177061E+04  0.50400001928E-02 0. -1.
        1   -1    0    0  501    0  0.00000000000E+00  0.00000000000E+00 -0.44382141813E+03  0.44382141816E+03  0.50400001928E-02 0.  1.
    10030    2    1    2    0    0  0.00000000000E+00  0.00000000000E+00  0.66409628799E+03  0.15517391243E+04  0.14024515785E+04 0.  0.
        3    1    3    3  502    0  0.52919625420E+03  0.16576721880E+03 -0.14281015954E+03  0.57264491455E+03  0.10100000352E+00 0.  1.
       -3    1    3    3    0  502 -0.52919625420E+03 -0.16576721880E+03  0.80690644752E+03  0.97909420974E+03  0.10100000352E+00 0. -1.
</event>
<event>
 5   0  0.2448804E-04  0.2245284E+04  0.7818609E-02  0.8499813E-01
       -2   -1    0    0    0  501  0.00000000000E+00  0.00000000000E+00  0.99218637424E+03  0.99218637425E+03  0.25500000920E-02 0. -1.
        2   -1    0    0  501    0  0.00000000000E+00  0.00000000000E+00 -0.12702506529E+04  0.12702506529E+04  0.25500000920E-02 0.  1.
    10030    2    1    2    0    0  0.00000000000E+00  0.00000000000E+00 -0.27806427867E+03  0.22624370272E+04  0.22452842935E+04 0.  0.
        2    1    3    3  502    0 -0.95910984336E+03  0.17523545962E+02 -0.72669125243E+03  0.12034446155E+04  0.25500000920E-02 0.  1.
       -2    1    3    3    0  502  0.95910984336E+03 -0.17523545962E+02  0.44862697376E+03  0.10589924116E+04  0.25500000920E-02 0. -1.
</event>
<event>
 5   0  0.2467483E-04  0.2073169E+04  0.7818609E-02  0.8573155E-01
       -2   -1    0    0    0  501  0.00000000000E+00  0.00000000000E+00  0.62976268078E+03  0.62976268078E+03  0.25500000920E-02 0. -1.
        2   -1    0    0  501    0  0.00000000000E+00  0.00000000000E+00 -0.17062107362E+04  0.17062107362E+04  0.25500000920E-02 0.  1.
    10030    2    1    2    0    0  0.00000000000E+00  0.00000000000E+00 -0.10764480554E+04  0.23359734169E+04  0.20731694067E+04 0.  0.
        4    1    3    3  502    0  0.86090283267E+03  0.53716296342E+03 -0.77673770960E+03  0.12778970299E+04  0.12699999809E+01 0.  1.
       -4    1    3    3    0  502 -0.86090283267E+03 -0.53716296342E+03 -0.29971034578E+03  0.10580763871E+04  0.12699999809E+01 0. -1.
</event>
<event>
 5   0  0.2448804E-04  0.2115402E+04  0.7818609E-02  0.8554489E-01
        2   -1    0    0  501    0  0.00000000000E+00  0.00000000000E+00  0.68365272110E+03  0.68365272111E+03  0.25500000920E-02 0.  1.
       -2   -1    0    0    0  501  0.00000000000E+00  0.00000000000E+00 -0.16364023830E+04  0.16364023830E+04  0.25500000920E-02 0. -1.
    10030    2    1    2    0    0  0.00000000000E+00  0.00000000000E+00 -0.95274966189E+03  0.23200551041E+04  0.21154015618E+04 0.  0.
        2    1    3    3  502    0  0.97899179481E+03 -0.29874062780E+03 -0.18401465249E+03  0.10399674463E+04  0.25500000920E-02 0.  1.
       -2    1    3    3    0  502 -0.97899179481E+03  0.29874062780E+03 -0.76873500940E+03  0.12800876578E+04  0.25500000920E-02 0. -1.
</event>
<event>
 5   0  0.1186038E-04  0.2081299E+04  0.7818609E-02  0.8569526E-01
       -1   -1    0    0    0  501  0.00000000000E+00  0.00000000000E+00  0.10694732060E+04  0.10694732060E+04  0.50400001928E-02 0. -1.
        1   -1    0    0  501    0  0.00000000000E+00  0.00000000000E+00 -0.10126029326E+04  0.10126029326E+04  0.50400001928E-02 0.  1.
    10030    2    1    2    0    0  0.00000000000E+00  0.00000000000E+00  0.56870273370E+02  0.20820761386E+04  0.20812993102E+04 0.  0.
        4    1    3    3  502    0  0.93827304556E+03 -0.33177295641E+01  0.47869509435E+03  0.10533365662E+04  0.12699999809E+01 0. -1.
       -4    1    3    3    0  502 -0.93827304556E+03  0.33177295641E+01 -0.42182482098E+03  0.10287395724E+04  0.12699999809E+01 0.  1.
</event>
<event>
 5   0  0.2579241E-04  0.1973504E+04  0.7818609E-02  0.8619110E-01
        2   -1    0    0  501    0  0.00000000000E+00  0.00000000000E+00  0.13049717314E+04  0.13049717314E+04  0.25500000920E-02 0.  1.
       -2   -1    0    0    0  501  0.00000000000E+00  0.00000000000E+00 -0.74613042906E+03  0.74613042907E+03  0.25500000920E-02 0. -1.
    10030    2    1    2    0    0  0.00000000000E+00  0.00000000000E+00  0.55884130238E+03  0.20511021605E+04  0.19735036031E+04 0.  0.
        5    1    3    3  502    0  0.50306723725E+02 -0.93319850716E+03  0.60852071191E+03  0.11152173631E+04  0.46999998093E+01 0.  1.
       -5    1    3    3    0  502 -0.50306723725E+02  0.93319850716E+03 -0.49679409530E+02  0.93588479737E+03  0.46999998093E+01 0. -1.
</event>
<event>
 5   0  0.1156733E-04  0.1509192E+04  0.7818609E-02  0.8878363E-01
       -1   -1    0    0    0  501  0.00000000000E+00  0.00000000000E+00  0.38552677647E+03  0.38552677650E+03  0.50400001928E-02 0. -1.
        1   -1    0    0  501    0  0.00000000000E+00  0.00000000000E+00 -0.14769789697E+04  0.14769789697E+04  0.50400001928E-02 0.  1.
    10030    2    1    2    0    0  0.00000000000E+00  0.00000000000E+00 -0.10914521932E+04  0.18625057462E+04  0.15091917587E+04 0.  0.
        2    1    3    3  502    0  0.45449502393E+03 -0.91149071293E+01 -0.12890302577E+04  0.13668386202E+04  0.25500000920E-02 0.  1.
       -2    1    3    3    0  502 -0.45449502393E+03  0.91149071293E+01  0.19757806444E+03  0.49566712607E+03  0.25500000920E-02 0. -1.
</event>
<event>
 5   0  0.1122711E-04  0.2143897E+04  0.7818609E-02  0.8542149E-01
       -1   -1    0    0    0  501  0.00000000000E+00  0.00000000000E+00  0.53047228372E+03  0.53047228374E+03  0.50400001928E-02 0. -1.
        1   -1    0    0  501    0  0.00000000000E+00  0.00000000000E+00 -0.21661330965E+04  0.21661330965E+04  0.50400001928E-02 0.  1.
    10030    2    1    2    0    0  0.00000000000E+00  0.00000000000E+00 -0.16356608128E+04  0.26966053802E+04  0.21438969850E+04 0.  0.
        1    1    3    3  502    0 -0.15236522186E+03  0.92116336023E+03 -0.15545939463E+03  0.94653300020E+03  0.50400001928E-02 0. -1.
       -1    1    3    3    0  502  0.15236522186E+03 -0.92116336023E+03 -0.14802014181E+04  0.17500723800E+04  0.50400001928E-02 0.  1.
</event>
<event>
 5   0  0.1130848E-04  0.2147376E+04  0.7818609E-02  0.8540656E-01
        1   -1    0    0  501    0  0.00000000000E+00  0.00000000000E+00  0.13965803097E+04  0.13965803097E+04  0.50400001928E-02 0.  1.
       -1   -1    0    0    0  501  0.00000000000E+00  0.00000000000E+00 -0.82544915095E+03  0.82544915096E+03  0.50400001928E-02 0. -1.
    10030    2    1    2    0    0  0.00000000000E+00  0.00000000000E+00  0.57113115872E+03  0.22220294606E+04  0.21473761020E+04 0.  0.
        5    1    3    3  502    0  0.43113988714E+03  0.54563717795E+03  0.11320402265E+04  0.13285852237E+04  0.46999998093E+01 0.  1.
       -5    1    3    3    0  502 -0.43113988714E+03 -0.54563717795E+03 -0.56090906776E+03  0.89344423695E+03  0.46999998093E+01 0. -1.
</event>
<event>
 5   0  0.1186038E-04  0.2091293E+04  0.7818609E-02  0.8565089E-01
        1   -1    0    0  501    0  0.00000000000E+00  0.00000000000E+00  0.13898681035E+04  0.13898681035E+04  0.50400001928E-02 0. -1.
       -1   -1    0    0    0  501  0.00000000000E+00  0.00000000000E+00 -0.78667647892E+03  0.78667647894E+03  0.50400001928E-02 0.  1.
    10030    2    1    2    0    0  0.00000000000E+00  0.00000000000E+00  0.60319162457E+03  0.21765445824E+04  0.20912929454E+04 0.  0.
        4    1    3    3  502    0 -0.14032548661E+03 -0.43447174831E+03 -0.67745268941E+03  0.81694596000E+03  0.12699999809E+01 0.  1.
       -4    1    3    3    0  502  0.14032548661E+03  0.43447174831E+03  0.12806443140E+04  0.13595986224E+04  0.12699999809E+01 0. -1.
</event>
<event>
 5   0  0.2430898E-04  0.2083493E+04  0.7818609E-02  0.8568550E-01
        2   -1    0    0  501    0  0.00000000000E+00  0.00000000000E+00  0.19613014817E+04  0.19613014817E+04  0.25500000920E-02 0.  1.
       -2   -1    0    0    0  501  0.00000000000E+00  0.00000000000E+00 -0.55332424345E+03  0.55332424345E+03  0.25500000920E-02 0. -1.
    10030    2    1    2    0    0  0.00000000000E+00  0.00000000000E+00  0.14079772382E+04  0.25146257252E+04  0.20834928928E+04 0.  0.
        1    1    3    3  502    0  0.62541444337E+03 -0.81941037861E+03  0.88566660792E+03  0.13590371352E+04  0.50400001928E-02 0. -1.
       -1    1    3    3    0  502 -0.62541444337E+03  0.81941037861E+03  0.52231063033E+03  0.11555885899E+04  0.50400001928E-02 0.  1.
</event>
<event>
 5   0  0.1122711E-04  0.2075293E+04  0.7818609E-02  0.8572206E-01
        1   -1    0    0  501    0  0.00000000000E+00  0.00000000000E+00  0.24161131715E+04  0.24161131715E+04  0.50400001928E-02 0. -1.
       -1   -1    0    0    0  501  0.00000000000E+00  0.00000000000E+00 -0.44563721156E+03  0.44563721158E+03  0.50400001928E-02 0.  1.
    10030    2    1    2    0    0  0.00000000000E+00  0.00000000000E+00  0.19704759600E+04  0.28617503831E+04  0.20752926894E+04 0.  0.
        1    1    3    3  502    0 -0.30576000552E+03  0.60249506847E+03 -0.10075103842E+03  0.68311072329E+03  0.50400001928E-02 0.  1.
       -1    1    3    3    0  502  0.30576000552E+03 -0.60249506847E+03  0.20712269984E+04  0.21786396598E+04  0.50400001928E-02 0. -1.
</event>
<event>
 5   0  0.2512839E-04  0.2069334E+04  0.7818609E-02  0.8574874E-01
        2   -1    0    0  501    0  0.00000000000E+00  0.00000000000E+00  0.18539662460E+04  0.18539662460E+04  0.25500000920E-02 0. -1.
       -2   -1    0    0    0  501  0.00000000000E+00  0.00000000000E+00 -0.57743008475E+03  0.57743008475E+03  0.25500000920E-02 0.  1.
    10030    2    1    2    0    0  0.00000000000E+00  0.00000000000E+00  0.12765361612E+04  0.24313963307E+04  0.20693340828E+04 0.  0.
        3    1    3    3  502    0  0.80442190000E+03  0.36665798566E+03  0.12699180442E+04  0.15473281878E+04  0.10100000352E+00 0. -1.
       -3    1    3    3    0  502 -0.80442190000E+03 -0.36665798566E+03  0.66181170437E+01  0.88406814292E+03  0.10100000352E+00 0.  1.
</event>
<event>
 5   0  0.2430898E-04  0.2181698E+04  0.7818609E-02  0.8526085E-01
        2   -1    0    0  501    0  0.00000000000E+00  0.00000000000E+00  0.78392148384E+03  0.78392148384E+03  0.25500000920E-02 0.  1.
       -2   -1    0    0    0  501  0.00000000000E+00  0.00000000000E+00 -0.15179474396E+04  0.15179474396E+04  0.25500000920E-02 0. -1.
    10030    2    1    2    0    0  0.00000000000E+00  0.00000000000E+00 -0.73402595575E+03  0.23018689234E+04  0.21816980627E+04 0.  0.
        1    1    3    3  502    0 -0.51640068044E+03 -0.83040727690E+03 -0.87707219149E+03  0.13135834718E+04  0.50400001928E-02 0. -1.
       -1    1    3    3    0  502  0.51640068044E+03  0.83040727690E+03  0.14304623574E+03  0.98828545162E+03  0.50400001928E-02 0.  1.
</event>
<event>
 5   0  0.2430898E-04  0.2097871E+04  0.7818609E-02  0.8562182E-01
        2   -1    0    0  501    0  0.00000000000E+00  0.00000000000E+00  0.10631517957E+04  0.10631517957E+04  0.25500000920E-02 0. -1.
       -2   -1    0    0    0  501  0.00000000000E+00  0.00000000000E+00 -0.10349091593E+04  0.10349091593E+04  0.25500000920E-02 0.  1.
    10030    2    1    2    0    0  0.00000000000E+00  0.00000000000E+00  0.28242636489E+02  0.20980609550E+04  0.20978708550E+04 0.  0.
        1    1    3    3  502    0  0.60449714309E+03  0.17244981276E+03  0.85390557085E+03  0.10603350687E+04  0.50400001928E-02 0. -1.
       -1    1    3    3    0  502 -0.60449714309E+03 -0.17244981276E+03 -0.82566293436E+03  0.10377258863E+04  0.50400001928E-02 0.  1.
</event>
<event>
 5   0  0.2579241E-04  0.2147066E+04  0.7818609E-02  0.8540789E-01
        2   -1    0    0  501    0  0.00000000000E+00  0.00000000000E+00  0.22026736230E+04  0.22026736230E+04  0.25500000920E-02 0. -1.
       -2   -1    0    0    0  501  0.00000000000E+00  0.00000000000E+00 -0.52321576296E+03  0.52321576297E+03  0.25500000920E-02 0.  1.
    10030    2    1    2    0    0  0.00000000000E+00  0.00000000000E+00  0.16794578600E+04  0.27258893859E+04  0.21470664267E+04 0.  0.
        5    1    3    3  502    0 -0.71893764271E+03  0.15340936665E+03  0.18329700111E+04  0.19748941540E+04  0.46999998093E+01 0. -1.
       -5    1    3    3    0  502  0.71893764271E+03 -0.15340936665E+03 -0.15351215109E+03  0.75099523195E+03  0.46999998093E+01 0.  1.
</event>
<event>
 5   0  0.1130848E-04  0.1957496E+04  0.7818609E-02  0.8626754E-01
       -1   -1    0    0    0  501  0.00000000000E+00  0.00000000000E+00  0.62024817321E+03  0.62024817323E+03  0.50400001928E-02 0. -1.
        1   -1    0    0  501    0  0.00000000000E+00  0.00000000000E+00 -0.15444591693E+04  0.15444591693E+04  0.50400001928E-02 0.  1.
    10030    2    1    2    0    0  0.00000000000E+00  0.00000000000E+00 -0.92421099607E+03  0.21647073425E+04  0.19574963381E+04 0.  0.
        5    1    3    3  502    0  0.63889721315E+03 -0.34754695839E+03  0.26216405243E+03  0.77313040144E+03  0.46999998093E+01 0. -1.
       -5    1    3    3    0  502 -0.63889721315E+03  0.34754695839E+03 -0.11863750485E+04  0.13915769411E+04  0.46999998093E+01 0.  1.
</event>
<event>
 5   0  0.2512839E-04  0.2187741E+04  0.7818609E-02  0.8523548E-01
        2   -1    0    0  501    0  0.00000000000E+00  0.00000000000E+00  0.19201916448E+04  0.19201916448E+04  0.25500000920E-02 0.  1.
       -2   -1    0    0    0  501  0.00000000000E+00  0.00000000000E+00 -0.62314206296E+03  0.62314206297E+03  0.25500000920E-02 0. -1.
    10030    2    1    2    0    0  0.00000000000E+00  0.00000000000E+00  0.12970495819E+04  0.25433337078E+04  0.21877405539E+04 0.  0.
        3    1    3    3  502    0 -0.10023001699E+04  0.93021187045E+02  0.15080927317E+03  0.10178418437E+04  0.10100000352E+00 0. -1.
       -3    1    3    3    0  502  0.10023001699E+04 -0.93021187045E+02  0.11462403087E+04  0.15254918640E+04  0.10100000352E+00 0.  1.
</event>
<event>
 5   0  0.1186038E-04  0.2151539E+04  0.7818609E-02  0.8538874E-01
       -1   -1    0    0    0  501  0.00000000000E+00  0.00000000000E+00  0.18616802030E+04  0.18616802030E+04  0.50400001928E-02 0. -1.
        1   -1    0    0  501    0  0.00000000000E+00  0.00000000000E+00 -0.62163197675E+03  0.62163197677E+03  0.50400001928E-02 0.  1.
    10030    2    1    2    0    0  0.00000000000E+00  0.00000000000E+00  0.12400482262E+04  0.24833121798E+04  0.21515389327E+04 0.  0.
        4    1    3    3  502    0  0.38012348824E+02  0.10206179569E+04  0.10100223421E+04  0.14364026933E+04  0.12699999809E+01 0. -1.
       -4    1    3    3    0  502 -0.38012348824E+02 -0.10206179569E+04  0.23002588412E+03  0.10469094865E+04  0.12699999809E+01 0.  1.
</event>
<event>
 5   0  0.1122711E-04  0.2088251E+04  0.7818609E-02  0.8566437E-01
       -1   -1    0    0    0  501  0.00000000000E+00  0.00000000000E+00  0.11735639370E+04  0.11735639370E+04  0.50400001928E-02 0.  1.
        1   -1    0    0  501    0  0.00000000000E+00  0.00000000000E+00 -0.92896365160E+03  0.92896365161E+03  0.50400001928E-02 0. -1.
    10030    2    1    2    0    0  0.00000000000E+00  0.00000000000E+00  0.24460028544E+03  0.21025275887E+04  0.20882511730E+04 0.  0.
        1    1    3    3  502    0 -0.82630509982E+03 -0.60597206678E+03 -0.79610066618E+02  0.10277743072E+04  0.50400001928E-02 0. -1.
       -1    1    3    3    0  502  0.82630509982E+03  0.60597206678E+03  0.32421035206E+03  0.10747532815E+04  0.50400001928E-02 0.  1.
</event>
<event>
 5   0  0.1042395E-04  0.2052202E+04  0.7818609E-02  0.8582596E-01
        1   -1    0    0  501    0  0.00000000000E+00  0.00000000000E+00  0.84685835533E+03  0.84685835534E+03  0.50400001928E-02 0.  1.
       -1   -1    0    0    0  501  0.00000000000E+00  0.00000000000E+00 -0.12432816137E+04  0.12432816137E+04  0.50400001928E-02 0. -1.
    10030    2    1    2    0    0  0.00000000000E+00  0.00000000000E+00 -0.39642325832E+03  0.20901399690E+04  0.20522021563E+04 0.  0.
        3    1    3    3  502    0  0.27275858057E+03 -0.95894815484E+03  0.48977778138E+02  0.99818717679E+03  0.10100000352E+00 0.  1.
       -3    1    3    3    0  502 -0.27275858057E+03  0.95894815484E+03 -0.44540103646E+03  0.10919527922E+04  0.10100000352E+00 0. -1.
</event>
<event>
 5   0  0.1042395E-04  0.1412918E+04  0.7818609E-02  0.8944521E-01
        1   -1    0    0  501    0  0.00000000000E+00  0.00000000000E+00  0.20667238324E+04  0.20667238324E+04  0.50400001928E-02 0. -1.
       -1   -1    0    0    0  501  0.00000000000E+00  0.00000000000E+00 -0.24148556611E+03  0.24148556617E+03  0.50400001928E-02 0.  1.
    10030    2    1    2    0    0  0.00000000000E+00  0.00000000000E+00  0.18252382663E+04  0.23082093986E+04  0.14129175132E+04 0.  0.
        3    1    3    3  502    0  0.43179830930E+03 -0.32087780761E+03  0.16606649855E+04  0.17456289846E+04  0.10100000352E+00 0. -1.
       -3    1    3    3    0  502 -0.43179830930E+03  0.32087780761E+03  0.16457328080E+03  0.56258041406E+03  0.10100000352E+00 0.  1.
</event>
<event>
 5   0  0.2448804E-04  0.1588261E+04  0.7818609E-02  0.8827792E-01
       -2   -1    0    0    0  501  0.00000000000E+00  0.00000000000E+00  0.53231038255E+03  0.53231038256E+03  0.25500000920E-02 0. -1.
        2   -1    0    0  501    0  0.00000000000E+00  0.00000000000E+00 -0.11847282896E+04  0.11847282896E+04  0.25500000920E-02 0.  1.
    10030    2    1    2    0    0  0.00000000000E+00  0.00000000000E+00 -0.65241790702E+03  0.17170386721E+04  0.15882608968E+04 0.  0.
        2    1    3    3  502    0  0.30149922805E+03 -0.96618147747E+02  0.46113152056E+03  0.55935599599E+03  0.25500000920E-02 0. -1.
       -2    1    3    3    0  502 -0.30149922805E+03  0.96618147747E+02 -0.11135494276E+04  0.11576826761E+04  0.25500000920E-02 0.  1.
</event>
<event>
 5   0  0.1130848E-04  0.2057024E+04  0.7818609E-02  0.8580415E-01
       -1   -1    0    0    0  501  0.00000000000E+00  0.00000000000E+00  0.10248931282E+04  0.10248931282E+04  0.50400001928E-02 0.  1.
        1   -1    0    0  501    0  0.00000000000E+00  0.00000000000E+00 -0.10321433931E+04  0.10321433931E+04  0.50400001928E-02 0. -1.
    10030    2    1    2    0    0  0.00000000000E+00  0.00000000000E+00 -0.72502648755E+01  0.20570365213E+04  0.20570237440E+04 0.  0.
        5    1    3    3  502    0  0.89037635098E+03 -0.86373784269E+02  0.50390546157E+03  0.10267294099E+04  0.46999998093E+01 0.  1.
       -5    1    3    3    0  502 -0.89037635098E+03  0.86373784269E+02 -0.51115572645E+03  0.10303071113E+04  0.46999998093E+01 0. -1.
</event>
<event>
 5   0  0.2579241E-04  0.2207834E+04  0.7818609E-02  0.8515174E-01
        2   -1    0    0  501    0  0.00000000000E+00  0.00000000000E+00  0.17435251406E+04  0.17435251406E+04  0.25500000920E-02 0.  1.
       -2   -1    0    0    0  501  0.00000000000E+00  0.00000000000E+00 -0.69894776860E+03  0.69894776860E+03  0.25500000920E-02 0. -1.
    10030    2    1    2    0    0  0.00000000000E+00  0.00000000000E+00  0.10445773720E+04  0.24424729092E+04  0.22078342388E+04 0.  0.
        5    1    3    3  502    0 -0.93555171569E+02 -0.22188160703E+03 -0.66952839990E+03  0.71152961003E+03  0.46999998093E+01 0. -1.
       -5    1    3    3    0  502  0.93555171569E+02  0.22188160703E+03  0.17141057719E+04  0.17309432992E+04  0.46999998093E+01 0.  1.
</event>
<event>
 5   0  0.1156733E-04  0.2112312E+04  0.7818609E-02  0.8555839E-01
        1   -1    0    0  501    0  0.00000000000E+00  0.00000000000E+00  0.13518646140E+04  0.13518646140E+04  0.50400001928E-02 0.  1.
       -1   -1    0    0    0  501  0.00000000000E+00  0.00000000000E+00 -0.82513092384E+03  0.82513092386E+03  0.50400001928E-02 0. -1.
    10030    2    1    2    0    0  0.00000000000E+00  0.00000000000E+00  0.52673369012E+03  0.21769955378E+04  0.21123118121E+04 0.  0.
        2    1    3    3  502    0  0.32364270106E+03 -0.13380825477E+03  0.12902804466E+04  0.13369640525E+04  0.25500000920E-02 0.  1.
       -2    1    3    3    0  502 -0.32364270106E+03  0.13380825477E+03 -0.76354675645E+03  0.84003148529E+03  0.25500000920E-02 0. -1.
</event>
<event>
 5   0  0.1156733E-04  0.1983048E+04  0.7818609E-02  0.8614587E-01
        1   -1    0    0  501    0  0.00000000000E+00  0.00000000000E+00  0.94377710157E+03  0.94377710158E+03  0.50400001928E-02 0.  1.
       -1   -1    0    0    0  501  0.00000000000E+00  0.00000000000E+00 -0.10416866135E+04  0.10416866135E+04  0.50400001928E-02 0. -1.
    10030    2    1    2    0    0  0.00000000000E+00  0.00000000000E+00 -0.97909511929E+02  0.19854637151E+04  0.19830481314E+04 0.  0.
        2    1    3    3  502    0 -0.65894120177E+03  0.62419897984E+03 -0.44855506636E+03  0.10124374160E+04  0.25500000920E-02 0. -1.
       -2    1    3    3    0  502  0.65894120177E+03 -0.62419897984E+03  0.35064555443E+03  0.97302629906E+03  0.25500000920E-02 0.  1.
</event>
<event>
 5   0  0.1122711E-04  0.1962954E+04  0.7818609E-02  0.8624139E-01
        1   -1    0    0  501    0  0.00000000000E+00  0.00000000000E+00  0.17970241114E+04  0.17970241114E+04  0.50400001928E-02 0. -1.
       -1   -1    0    0    0  501  0.00000000000E+00  0.00000000000E+00 -0.53605131231E+03  0.53605131234E+03  0.50400001928E-02 0.  1.
    10030    2    1    2    0    0  0.00000000000E+00  0.00000000000E+00  0.12609727990E+04  0.23330754237E+04  0.19629540323E+04 0.  0.
        1    1    3    3  502    0 -0.90334392556E+02 -0.63232207408E+03 -0.25520960557E+03  0.68783969836E+03  0.50400001928E-02 0.  1.
       -1    1    3    3    0  502  0.90334392556E+02  0.63232207408E+03  0.15161824046E+04  0.16452357253E+04  0.50400001928E-02 0. -1.
</event>
<event>
 5   0  0.1156733E-04  0.2053989E+04  0.7818609E-02  0.8581787E-01
       -1   -1    0    0    0  501  0.00000000000E+00  0.00000000000E+00  0.13323838951E+04  0.13323838951E+04  0.50400001928E-02 0.  1.
        1   -1    0    0  501    0  0.00000000000E+00  0.00000000000E+00 -0.79160227952E+03  0.79160227954E+03  0.50400001928E-02 0. -1.
    10030    2    1    2    0    0  0.00000000000E+00  0.00000000000E+00  0.54078161559E+03  0.21239861747E+04  0.20539894144E+04 0.  0.
        2    1    3    3  502    0 -0.81177263806E+03  0.59586441280E+03  0.47897987168E+03  0.11151013101E+04  0.25500000920E-02 0.  1.
       -2    1    3    3    0  502  0.81177263806E+03 -0.59586441280E+03  0.61801743903E+02  0.10088848645E+04  0.25500000920E-02 0. -1.
</event>
<event>
 5   0  0.2430898E-04  0.1960245E+04  0.7818609E-02  0.8625436E-01
       -2   -1    0    0    0  501  0.00000000000E+00  0.00000000000E+00  0.49123923396E+03  0.49123923397E+03  0.25500000920E-02 0.  1.
        2   -1    0    0  501    0  0.00000000000E+00  0.00000000000E+00 -0.19555446002E+04  0.19555446002E+04  0.25500000920E-02 0. -1.
    10030    2    1    2    0    0  0.00000000000E+00  0.00000000000E+00 -0.14643053662E+04  0.24467838342E+04  0.19602451187E+04 0.  0.
        1    1    3    3  502    0 -0.94634181335E+03 -0.41535846567E+02 -0.41798175613E+03  0.10353727844E+04  0.50400001928E-02 0.  1.
       -1    1    3    3    0  502  0.94634181335E+03  0.41535846567E+02 -0.10463236101E+04  0.14114110497E+04  0.50400001928E-02 0. -1.
</event>
<event>
 5   0  0.2430898E-04  0.2313727E+04  0.7818609E-02  0.8472528E-01
       -2   -1    0    0    0  501  0.00000000000E+00  0.00000000000E+00  0.69909531130E+03  0.69909531131E+03  0.25500000920E-02 0.  1.
        2   -1    0    0  501    0  0.00000000000E+00  0.00000000000E+00 -0.19143787436E+04  0.19143787436E+04  0.25500000920E-02 0. -1.
    10030    2    1    2    0    0  0.00000000000E+00  0.00000000000E+00 -0.12152834323E+04  0.26134740549E+04  0.23137270398E+04 0.  0.
        1    1    3    3  502    0 -0.46261408556E+03 -0.40635789706E+03 -0.17139074222E+04  0.18211581987E+04  0.50400001928E-02 0. -1.
       -1    1    3    3    0  502  0.46261408556E+03  0.40635789706E+03  0.49862398993E+03  0.79231585622E+03  0.50400001928E-02 0.  1.
</event>
<event>
 5   0  0.8698750E-05  0.2053660E+04  0.7818609E-02  0.8581936E-01
       -3   -1    0    0    0  501  0.00000000000E+00  0.00000000000E+00  0.54220774810E+03  0.54220775750E+03  0.10100000352E+00 0.  1.
        3   -1    0    0  501    0  0.00000000000E+00  0.00000000000E+00 -0.19446055910E+04  0.19446055936E+04  0.10100000352E+00 0. -1.
    10030    2    1    2    0    0  0.00000000000E+00  0.00000000000E+00 -0.14023978429E+04  0.24868133511E+04  0.20536603744E+04 0.  0.
        1    1    3    3  502    0  0.64155646516E+03 -0.43400847029E+03  0.11509080147E+03  0.78307339559E+03  0.50400001928E-02 0.  1.
       -1    1    3    3    0  502 -0.64155646516E+03  0.43400847029E+03 -0.15174886444E+04  0.17037399555E+04  0.50400001928E-02 0. -1.
</event>
<event>
 5   0  0.1186038E-04  0.2145014E+04  0.7818609E-02  0.8541670E-01
        1   -1    0    0  501    0  0.00000000000E+00  0.00000000000E+00  0.14370254035E+04  0.14370254035E+04  0.50400001928E-02 0. -1.
       -1   -1    0    0    0  501  0.00000000000E+00  0.00000000000E+00 -0.80045294291E+03  0.80045294293E+03  0.50400001928E-02 0.  1.
    10030    2    1    2    0    0  0.00000000000E+00  0.00000000000E+00  0.63657246054E+03  0.22374783464E+04  0.21450139517E+04 0.  0.
        4    1    3    3  502    0  0.58426285399E+03 -0.62501001388E+03  0.99290210870E+03  0.13106703668E+04  0.12699999809E+01 0. -1.
       -4    1    3    3    0  502 -0.58426285399E+03  0.62501001388E+03 -0.35632964815E+03  0.92680797961E+03  0.12699999809E+01 0.  1.
</event>
<event>
 5   0  0.2579241E-04  0.2079538E+04  0.7818609E-02  0.8570311E-01
       -2   -1    0    0    0  501  0.00000000000E+00  0.00000000000E+00  0.95918831326E+03  0.95918831327E+03  0.25500000920E-02 0. -1.
        2   -1    0    0  501    0  0.00000000000E+00  0.00000000000E+00 -0.11271188262E+04  0.11271188262E+04  0.25500000920E-02 0.  1.
    10030    2    1    2    0    0  0.00000000000E+00  0.00000000000E+00 -0.16793051293E+03  0.20863071395E+04  0.20795376465E+04 0.  0.
        5    1    3    3  502    0 -0.14963700088E+03 -0.61873098278E+03  0.74082888174E+03  0.97676444606E+03  0.46999998093E+01 0. -1.
       -5    1    3    3    0  502  0.14963700088E+03  0.61873098278E+03 -0.90875939467E+03  0.11095426934E+04  0.46999998093E+01 0.  1.
</event>
<event>
 5   0  0.1130848E-04  0.2008393E+04  0.7818609E-02  0.8602707E-01
       -1   -1    0    0    0  501  0.00000000000E+00  0.00000000000E+00  0.46704135849E+03  0.46704135852E+03  0.50400001928E-02 0.  1.
        1   -1    0    0  501    0  0.00000000000E+00  0.00000000000E+00 -0.21591459051E+04  0.21591459051E+04  0.50400001928E-02 0. -1.
    10030    2    1    2    0    0  0.00000000000E+00  0.00000000000E+00 -0.16921045466E+04  0.26261872636E+04  0.20083928268E+04 0.  0.
        5    1    3    3  502    0 -0.18703741347E+03  0.52565792246E+03  0.24569263610E+03  0.60966073099E+03  0.46999998093E+01 0.  1.
       -5    1    3    3    0  502  0.18703741347E+03 -0.52565792246E+03 -0.19377971827E+04  0.20165265326E+04  0.46999998093E+01 0. -1.
</event>
<event>
 5   0  0.1156733E-04  0.2138278E+04  0.7818609E-02  0.8544567E-01
       -1   -1    0    0    0  501  0.00000000000E+00  0.00000000000E+00  0.57775024977E+03  0.57775024979E+03  0.50400001928E-02 0.  1.
        1   -1    0    0  501    0  0.00000000000E+00  0.00000000000E+00 -0.19784640506E+04  0.19784640506E+04  0.50400001928E-02 0. -1.
    10030    2    1    2    0    0  0.00000000000E+00  0.00000000000E+00 -0.14007138008E+04  0.25562143004E+04  0.21382779047E+04 0.  0.
        2    1    3    3  502    0 -0.73611592933E+03  0.28566676204E+03 -0.15620682373E+04  0.17502940720E+04  0.25500000920E-02 0. -1.
       -2    1    3    3    0  502  0.73611592933E+03 -0.28566676204E+03  0.16135443652E+03  0.80592022840E+03  0.25500000920E-02 0.  1.
</event>
<event>
 5   0  0.2579241E-04  0.2092799E+04  0.7818609E-02  0.8564422E-01
        2   -1    0    0  501    0  0.00000000000E+00  0.00000000000E+00  0.12227319865E+04  0.12227319866E+04  0.25500000920E-02 0.  1.
       -2   -1    0    0    0  501  0.00000000000E+00  0.00000000000E+00 -0.89549643102E+03  0.89549643102E+03  0.25500000920E-02 0. -1.
    10030    2    1    2    0    0  0.00000000000E+00  0.00000000000E+00  0.32723555553E+03  0.21182284176E+04  0.20927992069E+04 0.  0.
        5    1    3    3  502    0  0.67641721965E+02 -0.78434342586E+03 -0.53407652657E+03  0.95133056214E+03  0.46999998093E+01 0. -1.
       -5    1    3    3    0  502 -0.67641721965E+02  0.78434342586E+03  0.86131208210E+03  0.11668978554E+04  0.46999998093E+01 0.  1.
</event>
<event>
 5   0  0.2430898E-04  0.2115032E+04  0.7818609E-02  0.8554650E-01
        2   -1    0    0  501    0  0.00000000000E+00  0.00000000000E+00  0.12879396291E+04  0.12879396291E+04  0.25500000920E-02 0.  1.
       -2   -1    0    0    0  501  0.00000000000E+00  0.00000000000E+00 -0.86831707771E+03  0.86831707772E+03  0.25500000920E-02 0. -1.
    10030    2    1    2    0    0  0.00000000000E+00  0.00000000000E+00  0.41962255140E+03  0.21562567068E+04  0.21150318910E+04 0.  0.
        1    1    3    3  502    0 -0.13616041891E+03  0.10237197087E+04 -0.22217145356E+02  0.10329740090E+04  0.50400001928E-02 0. -1.
       -1    1    3    3    0  502  0.13616041891E+03 -0.10237197087E+04  0.44183969675E+03  0.11232826979E+04  0.50400001928E-02 0.  1.
</event>
<event>
 5   0  0.1186038E-04  0.1519132E+04  0.7818609E-02  0.8871829E-01
        1   -1    0    0  501    0  0.00000000000E+00  0.00000000000E+00  0.59087542445E+03  0.59087542447E+03  0.50400001928E-02 0. -1.
       -1   -1    0    0    0  501  0.00000000000E+00  0.00000000000E+00 -0.97641713054E+03  0.97641713056E+03  0.50400001928E-02 0.  1.
    10030    2    1    2    0    0  0.00000000000E+00  0.00000000000E+00 -0.38554170609E+03  0.15672925550E+04  0.15191324978E+04 0.  0.
        4    1    3    3  502    0 -0.44386974021E+03 -0.55141384887E+03  0.91390940994E+02  0.71374469945E+03  0.12699999809E+01 0.  1.
       -4    1    3    3    0  502  0.44386974021E+03  0.55141384887E+03 -0.47693264709E+03  0.85354785558E+03  0.12699999809E+01 0. -1.
</event>
<event>
 5   0  0.1130848E-04  0.2081801E+04  0.7818609E-02  0.8569303E-01
       -1   -1    0    0    0  501  0.00000000000E+00  0.00000000000E+00  0.89887938660E+03  0.89887938661E+03  0.50400001928E-02 0. -1.
        1   -1    0    0  501    0  0.00000000000E+00  0.00000000000E+00 -0.12053607182E+04  0.12053607182E+04  0.50400001928E-02 0.  1.
    10030    2    1    2    0    0  0.00000000000E+00  0.00000000000E+00 -0.30648133156E+03  0.21042401048E+04  0.20818010501E+04 0.  0.
        5    1    3    3  502    0 -0.39233932322E+03  0.88797276098E+02 -0.11236075196E+04  0.11934534130E+04  0.46999998093E+01 0.  1.
       -5    1    3    3    0  502  0.39233932322E+03 -0.88797276098E+02  0.81712618806E+03  0.91078669182E+03  0.46999998093E+01 0. -1.
</event>
<event>
 5   0  0.1042395E-04  0.2101985E+04  0.7818609E-02  0.8560370E-01
        1   -1    0    0  501    0  0.00000000000E+00  0.00000000000E+00  0.99140144428E+03  0.99140144430E+03  0.50400001928E-02 0.  1.
       -1   -1    0    0    0  501  0.00000000000E+00  0.00000000000E+00 -0.11141653665E+04  0.11141653665E+04  0.50400001928E-02 0. -1.
    10030    2    1    2    0    0  0.00000000000E+00  0.00000000000E+00 -0.12276392223E+03  0.21055668108E+04  0.21019849225E+04 0.  0.
        3    1    3    3  502    0 -0.43244971390E+03 -0.22145732445E+02  0.89789387288E+03  0.99685335215E+03  0.10100000352E+00 0.  1.
       -3    1    3    3    0  502  0.43244971390E+03  0.22145732445E+02 -0.10206577951E+04  0.11087134587E+04  0.10100000352E+00 0. -1.
</event>
<event>
 5   0  0.1042395E-04  0.2109729E+04  0.7818609E-02  0.8556970E-01
        1   -1    0    0  501    0  0.00000000000E+00  0.00000000000E+00  0.14139319359E+04  0.14139319359E+04  0.50400001928E-02 0. -1.
       -1   -1    0    0    0  501  0.00000000000E+00  0.00000000000E+00 -0.78698225909E+03  0.78698225910E+03  0.50400001928E-02 0.  1.
    10030    2    1    2    0    0  0.00000000000E+00  0.00000000000E+00  0.62694967685E+03  0.22009141950E+04  0.21097292235E+04 0.  0.
        3    1    3    3  502    0 -0.63443204044E+03  0.61236638872E+03 -0.29055178009E+03  0.92839482716E+03  0.10100000352E+00 0.  1.
       -3    1    3    3    0  502  0.63443204044E+03 -0.61236638872E+03  0.91750145694E+03  0.12725193679E+04  0.10100000352E+00 0. -1.
</event>
<event>
 5   0  0.1130848E-04  0.2138088E+04  0.7818609E-02  0.8544648E-01
        1   -1    0    0  501    0  0.00000000000E+00  0.00000000000E+00  0.16179214615E+04  0.16179214615E+04  0.50400001928E-02 0. -1.
       -1   -1    0    0    0  501  0.00000000000E+00  0.00000000000E+00 -0.70637232785E+03  0.70637232787E+03  0.50400001928E-02 0.  1.
    10030    2    1    2    0    0  0.00000000000E+00  0.00000000000E+00  0.91154913363E+03  0.23242937894E+04  0.21380878832E+04 0.  0.
        5    1    3    3  502    0 -0.50280079286E+03 -0.93437839195E+03  0.59735208669E+03  0.12176712291E+04  0.46999998093E+01 0. -1.
       -5    1    3    3    0  502  0.50280079286E+03  0.93437839195E+03  0.31419704695E+03  0.11066225603E+04  0.46999998093E+01 0.  1.
</event>
<event>
 5   0  0.1186038E-04  0.2037980E+04  0.7818609E-02  0.8589067E-01
       -1   -1    0    0    0  501  0.00000000000E+00  0.00000000000E+00  0.20419460558E+04  0.20419460558E+04  0.50400001928E-02 0.  1.
        1   -1    0    0  501    0  0.00000000000E+00  0.00000000000E+00 -0.50850518881E+03  0.50850518884E+03  0.50400001928E-02 0. -1.
    10030    2    1    2    0    0  0.00000000000E+00  0.00000000000E+00  0.15334408670E+04  0.25504512447E+04  0.20379795531E+04 0.  0.
        4    1    3    3  502    0 -0.32144396029E+03  0.90176813943E+03  0.12035260208E+04  0.15378519085E+04  0.12699999809E+01 0. -1.
       -4    1    3    3    0  502  0.32144396029E+03 -0.90176813943E+03  0.32991484621E+03  0.10125993361E+04  0.12699999809E+01 0.  1.
</event>
<event>
 5   0  0.1130848E-04  0.1923030E+04  0.7818609E-02  0.8643477E-01
       -1   -1    0    0    0  501  0.00000000000E+00  0.00000000000E+00  0.38532779827E+03  0.38532779830E+03  0.50400001928E-02 0.  1.
        1   -1    0    0  501    0  0.00000000000E+00  0.00000000000E+00 -0.23992847351E+04  0.23992847351E+04  0.50400001928E-02 0. -1.
    10030    2    1    2    0    0  0.00000000000E+00  0.00000000000E+00 -0.20139569369E+04  0.27846125334E+04  0.19230300096E+04 0.  0.
        5    1    3    3  502    0 -0.42121980504E+03 -0.55585080304E+02 -0.22559638474E+04  0.22956286277E+04  0.46999998093E+01 0. -1.
       -5    1    3    3    0  502  0.42121980504E+03  0.55585080304E+02  0.24200691058E+03  0.48898390575E+03  0.46999998093E+01 0.  1.
</event>
<event>
 5   0  0.2467483E-04  0.2137234E+04  0.7818609E-02  0.8545017E-01
       -2   -1    0    0    0  501  0.00000000000E+00  0.00000000000E+00  0.13508698529E+04  0.13508698529E+04  0.25500000920E-02 0. -1.
        2   -1    0    0  501    0  0.00000000000E+00  0.00000000000E+00 -0.84533822982E+03  0.84533822983E+03  0.25500000920E-02 0.  1.
    10030    2    1    2    0    0  0.00000000000E+00  0.00000000000E+00  0.50553162304E+03  0.21962080827E+04  0.21372336607E+04 0.  0.
        4    1    3    3  502    0 -0.22106805670E+03  0.25575058994E+03  0.12944747473E+04  0.13378886106E+04  0.12699999809E+01 0. -1.
       -4    1    3    3    0  502  0.22106805670E+03 -0.25575058994E+03 -0.78894312429E+03  0.85831947211E+03  0.12699999809E+01 0.  1.
</event>
<event>
 5   0  0.1130848E-04  0.2105896E+04  0.7818609E-02  0.8558651E-01
        1   -1    0    0  501    0  0.00000000000E+00  0.00000000000E+00  0.13597968624E+04  0.13597968624E+04  0.50400001928E-02 0. -1.
       -1   -1    0    0    0  501  0.00000000000E+00  0.00000000000E+00 -0.81534193248E+03  0.81534193250E+03  0.50400001928E-02 0.  1.
    10030    2    1    2    0    0  0.00000000000E+00  0.00000000000E+00  0.54445492988E+03  0.21751387949E+04  0.21058959154E+04 0.  0.
        5    1    3    3  502    0  0.33306900307E+03 -0.10513470203E+03 -0.75375567811E+03  0.83075747283E+03  0.46999998093E+01 0.  1.
       -5    1    3    3    0  502 -0.33306900307E+03  0.10513470203E+03  0.12982106080E+04  0.13443813220E+04  0.46999998093E+01 0. -1.
</event>
<event>
 5   0  0.2512839E-04  0.2105631E+04  0.7818609E-02  0.8558767E-01
       -2   -1    0    0    0  501  0.00000000000E+00  0.00000000000E+00  0.90943657891E+03  0.90943657891E+03  0.25500000920E-02 0. -1.
        2   -1    0    0  501    0  0.00000000000E+00  0.00000000000E+00 -0.12187996379E+04  0.12187996379E+04  0.25500000920E-02 0.  1.
    10030    2    1    2    0    0  0.00000000000E+00  0.00000000000E+00 -0.30936305897E+03  0.21282362168E+04  0.21056314711E+04 0.  0.
        3    1    3    3  502    0 -0.38560789974E+03  0.58635013280E+03  0.63855002808E+03  0.94881298428E+03  0.10100000352E+00 0. -1.
       -3    1    3    3    0  502  0.38560789974E+03 -0.58635013280E+03 -0.94791308706E+03  0.11794232325E+04  0.10100000352E+00 0.  1.
</event>
<event>
 5   0  0.2512839E-04  0.2074282E+04  0.7818609E-02  0.8572658E-01
       -2   -1    0    0    0  501  0.00000000000E+00  0.00000000000E+00  0.65753796143E+03  0.65753796143E+03  0.25500000920E-02 0. -1.
        2   -1    0    0  501    0  0.00000000000E+00  0.00000000000E+00 -0.16358920360E+04  0.16358920360E+04  0.25500000920E-02 0.  1.
    10030    2    1    2    0    0  0.00000000000E+00  0.00000000000E+00 -0.97835407453E+03  0.22934299974E+04  0.20742816727E+04 0.  0.
        3    1    3    3  502    0  0.20443846363E+03  0.81612202550E+02  0.63141212943E+03  0.66868297751E+03  0.10100000352E+00 0. -1.
       -3    1    3    3    0  502 -0.20443846363E+03 -0.81612202550E+02 -0.16097662040E+04  0.16247470199E+04  0.10100000352E+00 0.  1.
</event>
<event>
 5   0  0.1156733E-04  0.2071806E+04  0.7818609E-02  0.8573766E-01
        1   -1    0    0  501    0  0.00000000000E+00  0.00000000000E+00  0.12915953130E+04  0.12915953130E+04  0.50400001928E-02 0.  1.
       -1   -1    0    0    0  501  0.00000000000E+00  0.00000000000E+00 -0.83082903231E+03  0.83082903233E+03  0.50400001928E-02 0. -1.
    10030    2    1    2    0    0  0.00000000000E+00  0.00000000000E+00  0.46076628067E+03  0.21224243453E+04  0.20718058635E+04 0.  0.
        2    1    3    3  502    0 -0.79118137460E+03  0.46000840109E+03 -0.26677700683E+03  0.95328152608E+03  0.25500000920E-02 0. -1.
       -2    1    3    3    0  502  0.79118137460E+03 -0.46000840109E+03  0.72754328750E+03  0.11691428192E+04  0.25500000920E-02 0.  1.
</event>
<event>
 5   0  0.2579241E-04  0.2086270E+04  0.7818609E-02  0.8567316E-01
        2   -1    0    0  501    0  0.00000000000E+00  0.00000000000E+00  0.14266348299E+04  0.14266348299E+04  0.25500000920E-02 0.  1.
       -2   -1    0    0    0  501  0.00000000000E+00  0.00000000000E+00 -0.76272550228E+03  0.76272550229E+03  0.25500000920E-02 0. -1.
    10030    2    1    2    0    0  0.00000000000E+00  0.00000000000E+00  0.66390932765E+03  0.21893603322E+04  0.20862701333E+04 0.  0.
        5    1    3    3  502    0 -0.46191297826E+03  0.58743827531E+02 -0.64760101312E+03  0.79763625730E+03  0.46999998093E+01 0. -1.
       -5    1    3    3    0  502  0.46191297826E+03 -0.58743827531E+02  0.13115103408E+04  0.13917240749E+04  0.46999998093E+01 0.  1.
</event>
<event>
 5   0  0.1130848E-04  0.2122582E+04  0.7818609E-02  0.8551361E-01
        1   -1    0    0  501    0  0.00000000000E+00  0.00000000000E+00  0.18452387058E+04  0.18452387058E+04  0.50400001928E-02 0.  1.
       -1   -1    0    0    0  501  0.00000000000E+00  0.00000000000E+00 -0.61040246535E+03  0.61040246537E+03  0.50400001928E-02 0. -1.
    10030    2    1    2    0    0  0.00000000000E+00  0.00000000000E+00  0.12348362404E+04  0.24556411711E+04  0.21225816877E+04 0.  0.
        5    1    3    3  502    0 -0.55068502777E+02  0.23542355130E+03 -0.57810375142E+03  0.62664409828E+03  0.46999998093E+01 0. -1.
       -5    1    3    3    0  502  0.55068502777E+02 -0.23542355130E+03  0.18129399918E+04  0.18289970729E+04  0.46999998093E+01 0.  1.
</event>
<event>
 5   0  0.1156733E-04  0.2096586E+04  0.7818609E-02  0.8562749E-01
       -1   -1    0    0    0  501  0.00000000000E+00  0.00000000000E+00  0.75236111018E+03  0.75236111019E+03  0.50400001928E-02 0.  1.
        1   -1    0    0  501    0  0.00000000000E+00  0.00000000000E+00 -0.14606261532E+04  0.14606261532E+04  0.50400001928E-02 0. -1.
    10030    2    1    2    0    0  0.00000000000E+00  0.00000000000E+00 -0.70826504301E+03  0.22129872634E+04  0.20965860957E+04 0.  0.
        2    1    3    3  502    0 -0.30127412408E+03 -0.78452265242E+03  0.30729707928E+03  0.89480354545E+03  0.25500000920E-02 0.  1.
       -2    1    3    3    0  502  0.30127412408E+03  0.78452265242E+03 -0.10155621223E+04  0.13181837179E+04  0.25500000920E-02 0. -1.
</event>
<event>
 5   0  0.2579241E-04  0.1969993E+04  0.7818609E-02  0.8620780E-01
       -2   -1    0    0    0  501  0.00000000000E+00  0.00000000000E+00  0.66809163508E+03  0.66809163508E+03  0.25500000920E-02 0. -1.
        2   -1    0    0  501    0  0.00000000000E+00  0.00000000000E+00 -0.14522230666E+04  0.14522230666E+04  0.25500000920E-02 0.  1.
    10030    2    1    2    0    0  0.00000000000E+00  0.00000000000E+00 -0.78413143150E+03  0.21203147017E+04  0.19699929777E+04 0.  0.
        5    1    3    3  502    0  0.15727496305E+03  0.68533260861E+02  0.65187524639E+03  0.67408875432E+03  0.46999998093E+01 0. -1.
       -5    1    3    3    0  502 -0.15727496305E+03 -0.68533260861E+02 -0.14360066779E+04  0.14462259473E+04  0.46999998093E+01 0.  1.
</event>
<event>
 5   0  0.2430898E-04  0.2114545E+04  0.7818609E-02  0.8554863E-01
       -2   -1    0    0    0  501  0.00000000000E+00  0.00000000000E+00  0.86023579191E+03  0.86023579192E+03  0.25500000920E-02 0. -1.
        2   -1    0    0  501    0  0.00000000000E+00  0.00000000000E+00 -0.12994403544E+04  0.12994403544E+04  0.25500000920E-02 0.  1.
    10030    2    1    2    0    0  0.00000000000E+00  0.00000000000E+00 -0.43920456245E+03  0.21596761463E+04  0.21145449650E+04 0.  0.
        1    1    3    3  502    0  0.92595282616E+03  0.50817435398E+03 -0.26745623749E+03  0.10895699378E+04  0.50400001928E-02 0. -1.
       -1    1    3    3    0  502 -0.92595282616E+03 -0.50817435398E+03 -0.17174832496E+03  0.10701062085E+04  0.50400001928E-02 0.  1.
</event>
<event>
 5   0  0.1156733E-04  0.2219840E+04  0.7818609E-02  0.8510215E-01
        1   -1    0    0  501    0  0.00000000000E+00  0.00000000000E+00  0.78972211787E+03  0.78972211788E+03  0.50400001928E-02 0.  1.
       -1   -1    0    0    0  501  0.00000000000E+00  0.00000000000E+00 -0.15599444105E+04  0.15599444105E+04  0.50400001928E-02 0. -1.
    10030    2    1    2    0    0  0.00000000000E+00  0.00000000000E+00 -0.77022229263E+03  0.23496665284E+04  0.22198401777E+04 0.  0.
        2    1    3    3  502    0  0.27565492775E+03 -0.96347158735E+03  0.11993071624E+03  0.10092801967E+04  0.25500000920E-02 0.  1.
       -2    1    3    3    0  502 -0.27565492775E+03  0.96347158735E+03 -0.89015300887E+03  0.13403863316E+04  0.25500000920E-02 0. -1.
</event>
<event>
 5   0  0.2430898E-04  0.2144857E+04  0.7818609E-02  0.8541737E-01
       -2   -1    0    0    0  501  0.00000000000E+00  0.00000000000E+00  0.96244428888E+03  0.96244428889E+03  0.25500000920E-02 0.  1.
        2   -1    0    0  501    0  0.00000000000E+00  0.00000000000E+00 -0.11949808525E+04  0.11949808525E+04  0.25500000920E-02 0. -1.
    10030    2    1    2    0    0  0.00000000000E+00  0.00000000000E+00 -0.23253656358E+03  0.21574251414E+04  0.21448566356E+04 0.  0.
        1    1    3    3  502    0  0.92267323971E+03  0.54446560435E+03 -0.16486073607E+03  0.10839500745E+04  0.50400001928E-02 0. -1.
       -1    1    3    3    0  502 -0.92267323971E+03 -0.54446560435E+03 -0.67675827509E+02  0.10734750669E+04  0.50400001928E-02 0.  1.
</event>
<event>
 5   0  0.1186038E-04  0.2254703E+04  0.7818609E-02  0.8495998E-01
       -1   -1    0    0    0  501  0.00000000000E+00  0.00000000000E+00  0.89144313533E+03  0.89144313534E+03  0.50400001928E-02 0. -1.
        1   -1    0    0  501    0  0.00000000000E+00  0.00000000000E+00 -0.14256895217E+04  0.14256895217E+04  0.50400001928E-02 0.  1.
    10030    2    1    2    0    0  0.00000000000E+00  0.00000000000E+00 -0.53424638635E+03  0.23171326570E+04  0.22547027629E+04 0.  0.
        4    1    3    3  502    0 -0.10552288075E+04 -0.28049866926E+03 -0.55548500944E+03  0.12250520594E+04  0.12699999809E+01 0.  1.
       -4    1    3    3    0  502  0.10552288075E+04  0.28049866926E+03  0.21238623084E+02  0.10920805976E+04  0.12699999809E+01 0. -1.
</event>
<event>
 5   0  0.2512839E-04  0.2073133E+04  0.7818609E-02  0.8573172E-01
       -2   -1    0    0    0  501  0.00000000000E+00  0.00000000000E+00  0.91287571592E+03  0.91287571593E+03  0.25500000920E-02 0. -1.
        2   -1    0    0  501    0  0.00000000000E+00  0.00000000000E+00 -0.11770172275E+04  0.11770172275E+04  0.25500000920E-02 0.  1.
    10030    2    1    2    0    0  0.00000000000E+00  0.00000000000E+00 -0.26414151154E+03  0.20898929434E+04  0.20731333234E+04 0.  0.
        3    1    3    3  502    0 -0.97263153175E+03  0.11071722445E+03 -0.47570776764E+03  0.10883787442E+04  0.10100000352E+00 0.  1.
       -3    1    3    3    0  502  0.97263153175E+03 -0.11071722445E+03  0.21156625610E+03  0.10015141992E+04  0.10100000352E+00 0. -1.
</event>
<event>
 5   0  0.1186038E-04  0.2067017E+04  0.7818609E-02  0.8575913E-01
       -1   -1    0    0    0  501  0.00000000000E+00  0.00000000000E+00  0.10036065799E+04  0.10036065800E+04  0.50400001928E-02 0. -1.
        1   -1    0    0  501    0  0.00000000000E+00  0.00000000000E+00 -0.10643018004E+04  0.10643018005E+04  0.50400001928E-02 0.  1.
    10030    2    1    2    0    0  0.00000000000E+00  0.00000000000E+00 -0.60695220507E+02  0.20679083804E+04  0.20670174552E+04 0.  0.
        4    1    3    3  502    0 -0.10442161336E+03  0.61980188571E+03 -0.85111601433E+03  0.10580445802E+04  0.12699999809E+01 0.  1.
       -4    1    3    3    0  502  0.10442161336E+03 -0.61980188571E+03  0.79042079382E+03  0.10098638003E+04  0.12699999809E+01 0. -1.
</event>
<event>
 5   0  0.2512839E-04  0.2022906E+04  0.7818609E-02  0.8595986E-01
       -2   -1    0    0    0  501  0.00000000000E+00  0.00000000000E+00  0.15300073105E+04  0.15300073105E+04  0.25500000920E-02 0.  1.
        2   -1    0    0  501    0  0.00000000000E+00  0.00000000000E+00 -0.66864865459E+03  0.66864865459E+03  0.25500000920E-02 0. -1.
    10030    2    1    2    0    0  0.00000000000E+00  0.00000000000E+00  0.86135865588E+03  0.21986559651E+04  0.20229061567E+04 0.  0.
        3    1    3    3  502    0  0.10059351624E+04  0.99167538784E+02  0.46983066238E+03  0.11146661443E+04  0.10100000352E+00 0.  1.
       -3    1    3    3    0  502 -0.10059351624E+04 -0.99167538784E+02  0.39152799349E+03  0.10839898208E+04  0.10100000352E+00 0. -1.
</event>
<event>
 5   0  0.2467483E-04  0.2072120E+04  0.7818609E-02  0.8573625E-01
        2   -1    0    0  501    0  0.00000000000E+00  0.00000000000E+00  0.12570585794E+04  0.12570585794E+04  0.25500000920E-02 0. -1.
       -2   -1    0    0    0  501  0.00000000000E+00  0.00000000000E+00 -0.85391434892E+03  0.85391434893E+03  0.25500000920E-02 0.  1.
    10030    2    1    2    0    0  0.00000000000E+00  0.00000000000E+00  0.40314423044E+03  0.21109729283E+04  0.20721200335E+04 0.  0.
        4    1    3    3  502    0 -0.23293373644E+03  0.93848038907E+03 -0.17744569136E+03  0.98310332749E+03  0.12699999809E+01 0.  1.
       -4    1    3    3    0  502  0.23293373644E+03 -0.93848038907E+03  0.58058992179E+03  0.11278696008E+04  0.12699999809E+01 0. -1.
</event>
<event>
 5   0  0.2448804E-04  0.2129376E+04  0.7818609E-02  0.8548412E-01
        2   -1    0    0  501    0  0.00000000000E+00  0.00000000000E+00  0.22434878153E+04  0.22434878153E+04  0.25500000920E-02 0.  1.
       -2   -1    0    0    0  501  0.00000000000E+00  0.00000000000E+00 -0.50526728576E+03  0.50526728576E+03  0.25500000920E-02 0. -1.
    10030    2    1    2    0    0  0.00000000000E+00  0.00000000000E+00  0.17382205295E+04  0.27487551010E+04  0.21293764337E+04 0.  0.
        2    1    3    3  502    0  0.47415906504E+03 -0.22687120594E+01  0.20996646340E+04  0.21525388594E+04  0.25500000920E-02 0.  1.
       -2    1    3    3    0  502 -0.47415906504E+03  0.22687120594E+01 -0.36144410453E+03  0.59621624158E+03  0.25500000920E-02 0. -1.
</event>
<event>
 5   0  0.2448804E-04  0.1860458E+04  0.7818609E-02  0.8674793E-01
        2   -1    0    0  501    0  0.00000000000E+00  0.00000000000E+00  0.12881894425E+04  0.12881894425E+04  0.25500000920E-02 0.  1.
       -2   -1    0    0    0  501  0.00000000000E+00  0.00000000000E+00 -0.67173788083E+03  0.67173788083E+03  0.25500000920E-02 0. -1.
    10030    2    1    2    0    0  0.00000000000E+00  0.00000000000E+00  0.61645156167E+03  0.19599273233E+04  0.18604576278E+04 0.  0.
        2    1    3    3  502    0 -0.19558872097E+03 -0.67249074269E+03  0.95318990715E+03  0.11828227872E+04  0.25500000920E-02 0.  1.
       -2    1    3    3    0  502  0.19558872097E+03  0.67249074269E+03 -0.33673834548E+03  0.77710453615E+03  0.25500000920E-02 0. -1.
</event>
<event>
 5   0  0.1186038E-04  0.1966158E+04  0.7818609E-02  0.8622608E-01
        1   -1    0    0  501    0  0.00000000000E+00  0.00000000000E+00  0.10421125240E+04  0.10421125240E+04  0.50400001928E-02 0. -1.
       -1   -1    0    0    0  501  0.00000000000E+00  0.00000000000E+00 -0.92738985976E+03  0.92738985977E+03  0.50400001928E-02 0.  1.
    10030    2    1    2    0    0  0.00000000000E+00  0.00000000000E+00  0.11472266427E+03  0.19695023838E+04  0.19661582719E+04 0.  0.
        4    1    3    3  502    0 -0.10415873103E+03 -0.70978616155E+03 -0.61594076342E+03  0.94553163528E+03  0.12699999809E+01 0.  1.
       -4    1    3    3    0  502  0.10415873103E+03  0.70978616155E+03  0.73066342770E+03  0.10239707485E+04  0.12699999809E+01 0. -1.
</event>
<event>
 5   0  0.2448804E-04  0.2109569E+04  0.7818609E-02  0.8557040E-01
        2   -1    0    0  501    0  0.00000000000E+00  0.00000000000E+00  0.10103138326E+04  0.10103138326E+04  0.25500000920E-02 0.  1.
       -2   -1    0    0    0  501  0.00000000000E+00  0.00000000000E+00 -0.11012129533E+04  0.11012129533E+04  0.25500000920E-02 0. -1.
    10030    2    1    2    0    0  0.00000000000E+00  0.00000000000E+00 -0.90899120686E+02  0.21115267859E+04  0.21095693204E+04 0.  0.
        2    1    3    3  502    0 -0.17592812529E+02  0.57653440069E+03 -0.92937105410E+03  0.10938153311E+04  0.25500000920E-02 0. -1.
       -2    1    3    3    0  502  0.17592812529E+02 -0.57653440069E+03  0.83847193342E+03  0.10177114549E+04  0.25500000920E-02 0.  1.
</event>
<event>
 5   0  0.2579241E-04  0.2297314E+04  0.7818609E-02  0.8478981E-01
       -2   -1    0    0    0  501  0.00000000000E+00  0.00000000000E+00  0.11413193984E+04  0.11413193984E+04  0.25500000920E-02 0. -1.
        2   -1    0    0  501    0  0.00000000000E+00  0.00000000000E+00 -0.11560415881E+04  0.11560415881E+04  0.25500000920E-02 0.  1.
    10030    2    1    2    0    0  0.00000000000E+00  0.00000000000E+00 -0.14722189703E+02  0.22973609864E+04  0.22973138138E+04 0.  0.
        5    1    3    3  502    0 -0.45679273593E+03 -0.10397491949E+04 -0.17956395683E+03  0.11497840217E+04  0.46999998093E+01 0.  1.
       -5    1    3    3    0  502  0.45679273593E+03  0.10397491949E+04  0.16484176713E+03  0.11475769648E+04  0.46999998093E+01 0. -1.
</event>
<event>
 5   0  0.2579241E-04  0.1518497E+04  0.7818609E-02  0.8872245E-01
       -2   -1    0    0    0  501  0.00000000000E+00  0.00000000000E+00  0.13280088751E+04  0.13280088751E+04  0.25500000920E-02 0.  1.
        2   -1    0    0  501    0  0.00000000000E+00  0.00000000000E+00 -0.43407689632E+03  0.43407689633E+03  0.25500000920E-02 0. -1.
    10030    2    1    2    0    0  0.00000000000E+00  0.00000000000E+00  0.89393197881E+03  0.17620857715E+04  0.15184965865E+04 0.  0.
        5    1    3    3  502    0 -0.34936567688E+03 -0.67338213863E+03  0.41146412578E+03  0.86303226916E+03  0.46999998093E+01 0.  1.
       -5    1    3    3    0  502  0.34936567688E+03  0.67338213863E+03  0.48246785303E+03  0.89905350231E+03  0.46999998093E+01 0. -1.
</event>
<event>
 5   0  0.2512839E-04  0.1677501E+04  0.7818609E-02  0.8774302E-01
       -2   -1    0    0    0  501  0.00000000000E+00  0.00000000000E+00  0.84182741823E+03  0.84182741823E+03  0.25500000920E-02 0. -1.
        2   -1    0    0  501    0  0.00000000000E+00  0.00000000000E+00 -0.83568437027E+03  0.83568437027E+03  0.25500000920E-02 0.  1.
    10030    2    1    2    0    0  0.00000000000E+00  0.00000000000E+00  0.61430479589E+01  0.16775117885E+04  0.16775005405E+04 0.  0.
        3    1    3    3  502    0 -0.53432224036E+03 -0.60798403965E+03 -0.21683255776E+03  0.83795060553E+03  0.10100000352E+00 0.  1.
       -3    1    3    3    0  502  0.53432224036E+03  0.60798403965E+03  0.22297560572E+03  0.83956118297E+03  0.10100000352E+00 0. -1.
</event>
<event>
 5   0  0.1130848E-04  0.2105064E+04  0.7818609E-02  0.8559016E-01
        1   -1    0    0  501    0  0.00000000000E+00  0.00000000000E+00  0.13889803915E+04  0.13889803915E+04  0.50400001928E-02 0. -1.
       -1   -1    0    0    0  501  0.00000000000E+00  0.00000000000E+00 -0.79758062202E+03  0.79758062204E+03  0.50400001928E-02 0.  1.
    10030    2    1    2    0    0  0.00000000000E+00  0.00000000000E+00  0.59139976947E+03  0.21865610135E+04  0.21050642220E+04 0.  0.
        5    1    3    3  502    0 -0.48963918978E+03 -0.78710935312E+03  0.81351145967E+03  0.12333331484E+04  0.46999998093E+01 0.  1.
       -5    1    3    3    0  502  0.48963918978E+03  0.78710935312E+03 -0.22211169020E+03  0.95322786513E+03  0.46999998093E+01 0. -1.
</event>
<event>
 5   0  0.1122711E-04  0.2093141E+04  0.7818609E-02  0.8564271E-01
       -1   -1    0    0    0  501  0.00000000000E+00  0.00000000000E+00  0.13665726297E+04  0.13665726297E+04  0.50400001928E-02 0. -1.
        1   -1    0    0  501    0  0.00000000000E+00  0.00000000000E+00 -0.80150120891E+03  0.80150120893E+03  0.50400001928E-02 0.  1.
    10030    2    1    2    0    0  0.00000000000E+00  0.00000000000E+00  0.56507142077E+03  0.21680738386E+04  0.20931408121E+04 0.  0.
        1    1    3    3  502    0  0.35622965985E+03 -0.93820224581E+03  0.59012902959E+03  0.11642058650E+04  0.50400001928E-02 0. -1.
       -1    1    3    3    0  502 -0.35622965985E+03  0.93820224581E+03 -0.25057608820E+02  0.10038679736E+04  0.50400001928E-02 0.  1.
</event>
<event>
 5   0  0.2512839E-04  0.2075224E+04  0.7818609E-02  0.8572237E-01
       -2   -1    0    0    0  501  0.00000000000E+00  0.00000000000E+00  0.50920804338E+03  0.50920804339E+03  0.25500000920E-02 0. -1.
        2   -1    0    0  501    0  0.00000000000E+00  0.00000000000E+00 -0.21143392364E+04  0.21143392364E+04  0.25500000920E-02 0.  1.
    10030    2    1    2    0    0  0.00000000000E+00  0.00000000000E+00 -0.16051311930E+04  0.26235472798E+04  0.20752238873E+04 0.  0.
        3    1    3    3  502    0  0.57765890754E+02 -0.99935565803E+03 -0.11478396691E+04  0.15230182355E+04  0.10100000352E+00 0.  1.
       -3    1    3    3    0  502 -0.57765890754E+02  0.99935565803E+03 -0.45729152389E+03  0.11005290443E+04  0.10100000352E+00 0. -1.
</event>
<event>
 5   0  0.1156733E-04  0.1269369E+04  0.7818609E-02  0.9054215E-01
        1   -1    0    0  501    0  0.00000000000E+00  0.00000000000E+00  0.60834051065E+03  0.60834051067E+03  0.50400001928E-02 0.  1.
       -1   -1    0    0    0  501  0.00000000000E+00  0.00000000000E+00 -0.66216916253E+03  0.66216916255E+03  0.50400001928E-02 0. -1.
    10030    2    1    2    0    0  0.00000000000E+00  0.00000000000E+00 -0.53828651883E+02  0.12705096732E+04  0.12693688613E+04 0.  0.
        2    1    3    3  502    0 -0.22667834997E+03 -0.33319258933E+02 -0.61933399460E+03  0.66035433234E+03  0.25500000920E-02 0. -1.
       -2    1    3    3    0  502  0.22667834997E+03  0.33319258933E+02  0.56550534272E+03  0.61015534088E+03  0.25500000920E-02 0.  1.
</event>
<event>
 5   0  0.2467483E-04  0.1988108E+04  0.7818609E-02  0.8612201E-01
       -2   -1    0    0    0  501  0.00000000000E+00  0.00000000000E+00  0.10214549301E+04  0.10214549301E+04  0.25500000920E-02 0. -1.
        2   -1    0    0  501    0  0.00000000000E+00  0.00000000000E+00 -0.96738765497E+03  0.96738765497E+03  0.25500000920E-02 0.  1.
    10030    2    1    2    0    0  0.00000000000E+00  0.00000000000E+00  0.54067275158E+02  0.19888425851E+04  0.19881075318E+04 0.  0.
        4    1    3    3  502    0 -0.83118998438E+03  0.49561622426E+03 -0.20027062742E+03  0.98824195873E+03  0.12699999809E+01 0. -1.
       -4    1    3    3    0  502  0.83118998438E+03 -0.49561622426E+03  0.25433790258E+03  0.10006006264E+04  0.12699999809E+01 0.  1.
</event>
<event>
 5   0  0.1186038E-04  0.2060301E+04  0.7818609E-02  0.8578936E-01
        1   -1    0    0  501    0  0.00000000000E+00  0.00000000000E+00  0.10824820880E+04  0.10824820880E+04  0.50400001928E-02 0.  1.
       -1   -1    0    0    0  501  0.00000000000E+00  0.00000000000E+00 -0.98034858900E+03  0.98034858902E+03  0.50400001928E-02 0. -1.
    10030    2    1    2    0    0  0.00000000000E+00  0.00000000000E+00  0.10213349899E+03  0.20628306770E+04  0.20603007427E+04 0.  0.
        4    1    3    3  502    0  0.26719526849E+03 -0.10478717763E+03 -0.93950878766E+03  0.98237062207E+03  0.12699999809E+01 0. -1.
       -4    1    3    3    0  502 -0.26719526849E+03  0.10478717763E+03  0.10416422867E+04  0.10804600550E+04  0.12699999809E+01 0.  1.
</event>
<event>
 5   0  0.2467483E-04  0.1653348E+04  0.7818609E-02  0.8788428E-01
       -2   -1    0    0    0  501  0.00000000000E+00  0.00000000000E+00  0.54505763092E+03  0.54505763093E+03  0.25500000920E-02 0. -1.
        2   -1    0    0  501    0  0.00000000000E+00  0.00000000000E+00 -0.12537939682E+04  0.12537939682E+04  0.25500000920E-02 0.  1.
    10030    2    1    2    0    0  0.00000000000E+00  0.00000000000E+00 -0.70873633728E+03  0.17988515991E+04  0.16533480819E+04 0.  0.
        4    1    3    3  502    0 -0.14962444745E+03 -0.43779150269E+03 -0.10997427622E+04  0.11930987516E+04  0.12699999809E+01 0.  1.
       -4    1    3    3    0  502  0.14962444745E+03  0.43779150269E+03  0.39100642491E+03  0.60575284756E+03  0.12699999809E+01 0. -1.
</event>
<event>
 5   0  0.2430898E-04  0.2081344E+04  0.7818609E-02  0.8569506E-01
       -2   -1    0    0    0  501  0.00000000000E+00  0.00000000000E+00  0.84228066376E+03  0.84228066376E+03  0.25500000920E-02 0.  1.
        2   -1    0    0  501    0  0.00000000000E+00  0.00000000000E+00 -0.12857930292E+04  0.12857930292E+04  0.25500000920E-02 0. -1.
    10030    2    1    2    0    0  0.00000000000E+00  0.00000000000E+00 -0.44351236541E+03  0.21280736929E+04  0.20813443791E+04 0.  0.
        1    1    3    3  502    0 -0.46290141017E+03  0.66909583862E+03 -0.88519379628E+03  0.12023040438E+04  0.50400001928E-02 0. -1.
       -1    1    3    3    0  502  0.46290141017E+03 -0.66909583862E+03  0.44168143087E+03  0.92576964911E+03  0.50400001928E-02 0.  1.
</event>
<event>
 5   0  0.2448804E-04  0.2130784E+04  0.7818609E-02  0.8547803E-01
       -2   -1    0    0    0  501  0.00000000000E+00  0.00000000000E+00  0.84995974854E+03  0.84995974854E+03  0.25500000920E-02 0. -1.
        2   -1    0    0  501    0  0.00000000000E+00  0.00000000000E+00 -0.13354284712E+04  0.13354284712E+04  0.25500000920E-02 0.  1.
    10030    2    1    2    0    0  0.00000000000E+00  0.00000000000E+00 -0.48546872267E+03  0.21853882198E+04  0.21307843134E+04 0.  0.
        2    1    3    3  502    0 -0.68885943426E+03 -0.56216629832E+03 -0.84471856359E+03  0.12264206941E+04  0.25500000920E-02 0.  1.
       -2    1    3    3    0  502  0.68885943426E+03  0.56216629832E+03  0.35924984093E+03  0.95896752570E+03  0.25500000920E-02 0. -1.
</event>
<event>
 5   0  0.1042395E-04  0.2122253E+04  0.7818609E-02  0.8551503E-01
       -1   -1    0    0    0  501  0.00000000000E+00  0.00000000000E+00  0.10515872263E+04  0.10515872263E+04  0.50400001928E-02 0.  1.
        1   -1    0    0  501    0  0.00000000000E+00  0.00000000000E+00 -0.10707526263E+04  0.10707526263E+04  0.50400001928E-02 0. -1.
    10030    2    1    2    0    0  0.00000000000E+00  0.00000000000E+00 -0.19165400030E+02  0.21223398526E+04  0.21222533160E+04 0.  0.
        3    1    3    3  502    0 -0.10606774276E+04 -0.26953261684E+02  0.54741583622E+01  0.10610339581E+04  0.10100000352E+00 0. -1.
       -3    1    3    3    0  502  0.10606774276E+04  0.26953261684E+02 -0.24639558392E+02  0.10613058945E+04  0.10100000352E+00 0.  1.
</event>
<event>
 5   0  0.1122711E-04  0.1920289E+04  0.7818609E-02  0.8644823E-01
       -1   -1    0    0    0  501  0.00000000000E+00  0.00000000000E+00  0.10301167658E+04  0.10301167658E+04  0.50400001928E-02 0. -1.
        1   -1    0    0  501    0  0.00000000000E+00  0.00000000000E+00 -0.89492512570E+03  0.89492512571E+03  0.50400001928E-02 0.  1.
    10030    2    1    2    0    0  0.00000000000E+00  0.00000000000E+00  0.13519164008E+03  0.19250418915E+04  0.19202889117E+04 0.  0.
        1    1    3    3  502    0 -0.45411201819E+03 -0.84501603848E+03  0.27402370502E+02  0.95969824439E+03  0.50400001928E-02 0. -1.
       -1    1    3    3    0  502  0.45411201819E+03  0.84501603848E+03  0.10778926958E+03  0.96534364711E+03  0.50400001928E-02 0.  1.
</event>
<event>
 5   0  0.1156733E-04  0.1662799E+04  0.7818609E-02  0.8782871E-01
       -1   -1    0    0    0  501  0.00000000000E+00  0.00000000000E+00  0.10770261114E+04  0.10770261115E+04  0.50400001928E-02 0.  1.
        1   -1    0    0  501    0  0.00000000000E+00  0.00000000000E+00 -0.64179037216E+03  0.64179037218E+03  0.50400001928E-02 0. -1.
    10030    2    1    2    0    0  0.00000000000E+00  0.00000000000E+00  0.43523573928E+03  0.17188164836E+04  0.16627988320E+04 0.  0.
        2    1    3    3  502    0 -0.75533322682E+03  0.16876555530E+03  0.53151715853E+03  0.93889327722E+03  0.25500000920E-02 0.  1.
       -2    1    3    3    0  502  0.75533322682E+03 -0.16876555530E+03 -0.96281419254E+02  0.77992320641E+03  0.25500000920E-02 0. -1.
</event>
<event>
 5   0  0.2448804E-04  0.2071716E+04  0.7818609E-02  0.8573806E-01
        2   -1    0    0  501    0  0.00000000000E+00  0.00000000000E+00  0.10020369740E+04  0.10020369740E+04  0.25500000920E-02 0.  1.
       -2   -1    0    0    0  501  0.00000000000E+00  0.00000000000E+00 -0.10708204140E+04  0.10708204140E+04  0.25500000920E-02 0. -1.
    10030    2    1    2    0    0  0.00000000000E+00  0.00000000000E+00 -0.68783439967E+02  0.20728573880E+04  0.20717158564E+04 0.  0.
        2    1    3    3  502    0  0.89649449765E+03 -0.15636196541E+03 -0.52948777321E+03  0.10528574217E+04  0.25500000920E-02 0. -1.
       -2    1    3    3    0  502 -0.89649449765E+03  0.15636196541E+03  0.46070433324E+03  0.10199999663E+04  0.25500000920E-02 0.  1.
</event>
<event>
 5   0  0.2579241E-04  0.2119645E+04  0.7818609E-02  0.8552639E-01
        2   -1    0    0  501    0  0.00000000000E+00  0.00000000000E+00  0.69718039751E+03  0.69718039752E+03  0.25500000920E-02 0. -1.
       -2   -1    0    0    0  501  0.00000000000E+00  0.00000000000E+00 -0.16110940861E+04  0.16110940861E+04  0.25500000920E-02 0.  1.
    10030    2    1    2    0    0  0.00000000000E+00  0.00000000000E+00 -0.91391368855E+03  0.23082744836E+04  0.21196445130E+04 0.  0.
        5    1    3    3  502    0 -0.29719308305E+02 -0.29387707968E+03 -0.15653521731E+04  0.15929835188E+04  0.46999998093E+01 0.  1.
       -5    1    3    3    0  502  0.29719308305E+02  0.29387707968E+03  0.65143848453E+03  0.71529096483E+03  0.46999998093E+01 0. -1.
</event>
<event>
 5   0  0.1122711E-04  0.1805054E+04  0.7818609E-02  0.8703616E-01
       -1   -1    0    0    0  501  0.00000000000E+00  0.00000000000E+00  0.89341151603E+03  0.89341151604E+03  0.50400001928E-02 0.  1.
        1   -1    0    0  501    0  0.00000000000E+00  0.00000000000E+00 -0.91173575490E+03  0.91173575492E+03  0.50400001928E-02 0. -1.
    10030    2    1    2    0    0  0.00000000000E+00  0.00000000000E+00 -0.18324238878E+02  0.18051472710E+04  0.18050542629E+04 0.  0.
        1    1    3    3  502    0  0.22026659825E+03 -0.82586301670E+03 -0.29898410238E+03  0.90551564876E+03  0.50400001928E-02 0. -1.
       -1    1    3    3    0  502 -0.22026659825E+03  0.82586301670E+03  0.28065986350E+03  0.89963162220E+03  0.50400001928E-02 0.  1.
</event>
<event>
 5   0  0.2430898E-04  0.2043544E+04  0.7818609E-02  0.8586529E-01
        2   -1    0    0  501    0  0.00000000000E+00  0.00000000000E+00  0.24758992124E+04  0.24758992124E+04  0.25500000920E-02 0. -1.
       -2   -1    0    0    0  501  0.00000000000E+00  0.00000000000E+00 -0.42167206028E+03  0.42167206029E+03  0.25500000920E-02 0.  1.
    10030    2    1    2    0    0  0.00000000000E+00  0.00000000000E+00  0.20542271521E+04  0.28975712727E+04  0.20435435126E+04 0.  0.
        1    1    3    3  502    0 -0.95829011304E+03  0.27566032043E+03  0.13432449620E+04  0.16729063276E+04  0.50400001928E-02 0. -1.
       -1    1    3    3    0  502  0.95829011304E+03 -0.27566032043E+03  0.71098219012E+03  0.12246649451E+04  0.50400001928E-02 0.  1.
</event>
<event>
 5   0  0.1122711E-04  0.2084062E+04  0.7818609E-02  0.8568297E-01
       -1   -1    0    0    0  501  0.00000000000E+00  0.00000000000E+00  0.55444193608E+03  0.55444193610E+03  0.50400001928E-02 0. -1.
        1   -1    0    0  501    0  0.00000000000E+00  0.00000000000E+00 -0.19584173077E+04  0.19584173077E+04  0.50400001928E-02 0.  1.
    10030    2    1    2    0    0  0.00000000000E+00  0.00000000000E+00 -0.14039753716E+04  0.25128592438E+04  0.20840620756E+04 0.  0.
        1    1    3    3  502    0  0.90732899494E+03  0.26342404897E+02 -0.13190315264E+04  0.16011820618E+04  0.50400001928E-02 0.  1.
       -1    1    3    3    0  502 -0.90732899494E+03 -0.26342404897E+02 -0.84943845241E+02  0.91167718202E+03  0.50400001928E-02 0. -1.
</event>
<event>
 5   0  0.2579241E-04  0.2026340E+04  0.7818609E-02  0.8594404E-01
       -2   -1    0    0    0  501  0.00000000000E+00  0.00000000000E+00  0.45764570798E+03  0.45764570799E+03  0.25500000920E-02 0. -1.
        2   -1    0    0  501    0  0.00000000000E+00  0.00000000000E+00 -0.22430318939E+04  0.22430318939E+04  0.25500000920E-02 0.  1.
    10030    2    1    2    0    0  0.00000000000E+00  0.00000000000E+00 -0.17853861860E+04  0.27006776019E+04  0.20263404641E+04 0.  0.
        5    1    3    3  502    0 -0.58530960353E+03 -0.37062333818E+03  0.92615861312E+02  0.69896264461E+03  0.46999998093E+01 0. -1.
       -5    1    3    3    0  502  0.58530960353E+03  0.37062333818E+03 -0.18780020473E+04  0.20017149573E+04  0.46999998093E+01 0.  1.
</event>
<event>
 5   0  0.2430898E-04  0.2016854E+04  0.7818609E-02  0.8598781E-01
        2   -1    0    0  501    0  0.00000000000E+00  0.00000000000E+00  0.18703715238E+04  0.18703715238E+04  0.25500000920E-02 0. -1.
       -2   -1    0    0    0  501  0.00000000000E+00  0.00000000000E+00 -0.54370196042E+03  0.54370196043E+03  0.25500000920E-02 0.  1.
    10030    2    1    2    0    0  0.00000000000E+00  0.00000000000E+00  0.13266695633E+04  0.24140734842E+04  0.20168536528E+04 0.  0.
        1    1    3    3  502    0  0.33663560500E+03  0.26005026562E+03 -0.43105679824E+03  0.60560683164E+03  0.50400001928E-02 0.  1.
       -1    1    3    3    0  502 -0.33663560500E+03 -0.26005026562E+03  0.17577263616E+04  0.18084666525E+04  0.50400001928E-02 0. -1.
</event>
<event>
 5   0  0.2579241E-04  0.2043508E+04  0.7818609E-02  0.8586545E-01
       -2   -1    0    0    0  501  0.00000000000E+00  0.00000000000E+00  0.10188481775E+04  0.10188481775E+04  0.25500000920E-02 0.  1.
        2   -1    0    0  501    0  0.00000000000E+00  0.00000000000E+00 -0.10246683293E+04  0.10246683293E+04  0.25500000920E-02 0. -1.
    10030    2    1    2    0    0  0.00000000000E+00  0.00000000000E+00 -0.58201518348E+01  0.20435165068E+04  0.20435082186E+04 0.  0.
        5    1    3    3  502    0  0.20423344070E+03 -0.44299941676E+03  0.89486836354E+03  0.10192012851E+04  0.46999998093E+01 0.  1.
       -5    1    3    3    0  502 -0.20423344070E+03  0.44299941676E+03 -0.90068851538E+03  0.10243152216E+04  0.46999998093E+01 0. -1.
</event>
<event>
 5   0  0.2579241E-04  0.2177850E+04  0.7818609E-02  0.8527704E-01
        2   -1    0    0  501    0  0.00000000000E+00  0.00000000000E+00  0.13203457057E+04  0.13203457057E+04  0.25500000920E-02 0. -1.
       -2   -1    0    0    0  501  0.00000000000E+00  0.00000000000E+00 -0.89806611205E+03  0.89806611206E+03  0.25500000920E-02 0.  1.
    10030    2    1    2    0    0  0.00000000000E+00  0.00000000000E+00  0.42227959367E+03  0.22184118178E+04  0.21778500724E+04 0.  0.
        5    1    3    3  502    0 -0.78702528465E+02  0.52154364730E+03  0.11815281851E+04  0.12939214838E+04  0.46999998093E+01 0. -1.
       -5    1    3    3    0  502  0.78702528465E+02 -0.52154364730E+03 -0.75924859144E+03  0.92449033398E+03  0.46999998093E+01 0.  1.
</event>
<event>
 5   0  0.1156733E-04  0.1938747E+04  0.7818609E-02  0.8635806E-01
       -1   -1    0    0    0  501  0.00000000000E+00  0.00000000000E+00  0.39680002723E+03  0.39680002726E+03  0.50400001928E-02 0. -1.
        1   -1    0    0  501    0  0.00000000000E+00  0.00000000000E+00 -0.23681572873E+04  0.23681572873E+04  0.50400001928E-02 0.  1.
    10030    2    1    2    0    0  0.00000000000E+00  0.00000000000E+00 -0.19713572600E+04  0.27649573145E+04  0.19387468903E+04 0.  0.
        2    1    3    3  502    0  0.22903156981E+03  0.92153720588E+03 -0.70767460587E+03  0.11842675498E+04  0.25500000920E-02 0.  1.
       -2    1    3    3    0  502 -0.22903156981E+03 -0.92153720588E+03 -0.12636826542E+04  0.15806897647E+04  0.25500000920E-02 0. -1.
</event>
<event>
 5   0  0.2430898E-04  0.1206912E+04  0.7818609E-02  0.9106828E-01
       -2   -1    0    0    0  501  0.00000000000E+00  0.00000000000E+00  0.21784273296E+03  0.21784273297E+03  0.25500000920E-02 0.  1.
        2   -1    0    0  501    0  0.00000000000E+00  0.00000000000E+00 -0.16716618505E+04  0.16716618505E+04  0.25500000920E-02 0. -1.
    10030    2    1    2    0    0  0.00000000000E+00  0.00000000000E+00 -0.14538191176E+04  0.18895045835E+04  0.12069124013E+04 0.  0.
        1    1    3    3  502    0  0.16141307636E+03  0.41125054334E+03 -0.13704673226E+04  0.14399173146E+04  0.50400001928E-02 0. -1.
       -1    1    3    3    0  502 -0.16141307636E+03 -0.41125054334E+03 -0.83351795020E+02  0.44958726892E+03  0.50400001928E-02 0.  1.
</event>
<event>
 5   0  0.1156733E-04  0.2040441E+04  0.7818609E-02  0.8587943E-01
        1   -1    0    0  501    0  0.00000000000E+00  0.00000000000E+00  0.24080201502E+04  0.24080201502E+04  0.50400001928E-02 0.  1.
       -1   -1    0    0    0  501  0.00000000000E+00  0.00000000000E+00 -0.43224287306E+03  0.43224287309E+03  0.50400001928E-02 0. -1.
    10030    2    1    2    0    0  0.00000000000E+00  0.00000000000E+00  0.19757772772E+04  0.28402630233E+04  0.20404406859E+04 0.  0.
        2    1    3    3  502    0  0.70283782256E+01  0.58543147876E+03 -0.17512314221E+03  0.61110353408E+03  0.25500000920E-02 0. -1.
       -2    1    3    3    0  502 -0.70283782256E+01 -0.58543147876E+03  0.21509004194E+04  0.22291594892E+04  0.25500000920E-02 0.  1.
</event>
<event>
 5   0  0.2467483E-04  0.2099393E+04  0.7818609E-02  0.8561511E-01
       -2   -1    0    0    0  501  0.00000000000E+00  0.00000000000E+00  0.92254449847E+03  0.92254449847E+03  0.25500000920E-02 0. -1.
        2   -1    0    0  501    0  0.00000000000E+00  0.00000000000E+00 -0.11943730675E+04  0.11943730675E+04  0.25500000920E-02 0.  1.
    10030    2    1    2    0    0  0.00000000000E+00  0.00000000000E+00 -0.27182856904E+03  0.21169175660E+04  0.20993925813E+04 0.  0.
        4    1    3    3  502    0  0.70215842745E+03 -0.39804932189E+03  0.54079965992E+03  0.97156348479E+03  0.12699999809E+01 0. -1.
       -4    1    3    3    0  502 -0.70215842745E+03  0.39804932189E+03 -0.81262822896E+03  0.11453540812E+04  0.12699999809E+01 0.  1.
</event>
<event>
 5   0  0.1042395E-04  0.2100791E+04  0.7818609E-02  0.8560895E-01
        1   -1    0    0  501    0  0.00000000000E+00  0.00000000000E+00  0.22288089186E+04  0.22288089186E+04  0.50400001928E-02 0.  1.
       -1   -1    0    0    0  501  0.00000000000E+00  0.00000000000E+00 -0.49503165078E+03  0.49503165080E+03  0.50400001928E-02 0. -1.
    10030    2    1    2    0    0  0.00000000000E+00  0.00000000000E+00  0.17337772678E+04  0.27238405694E+04  0.21007912398E+04 0.  0.
        3    1    3    3  502    0  0.88881712251E+03 -0.23050283461E+03  0.20550207451E+03  0.94093493232E+03  0.10100000352E+00 0. -1.
       -3    1    3    3    0  502 -0.88881712251E+03  0.23050283461E+03  0.15282751933E+04  0.17829056371E+04  0.10100000352E+00 0.  1.
</event>
<event>
 5   0  0.2512839E-04  0.2097151E+04  0.7818609E-02  0.8562499E-01
       -2   -1    0    0    0  501  0.00000000000E+00  0.00000000000E+00  0.51858468992E+03  0.51858468992E+03  0.25500000920E-02 0. -1.
        2   -1    0    0  501    0  0.00000000000E+00  0.00000000000E+00 -0.21202150659E+04  0.21202150659E+04  0.25500000920E-02 0.  1.
    10030    2    1    2    0    0  0.00000000000E+00  0.00000000000E+00 -0.16016303760E+04  0.26387997558E+04  0.20971514705E+04 0.  0.
        3    1    3    3  502    0 -0.78009758738E+03  0.19223360091E+03  0.47011302675E+02  0.80480809882E+03  0.10100000352E+00 0. -1.
       -3    1    3    3    0  502  0.78009758738E+03 -0.19223360091E+03 -0.16486416787E+04  0.18339916570E+04  0.10100000352E+00 0.  1.
</event>
<event>
 5   0  0.1186038E-04  0.1997227E+04  0.7818609E-02  0.8607918E-01
        1   -1    0    0  501    0  0.00000000000E+00  0.00000000000E+00  0.55373385982E+03  0.55373385984E+03  0.50400001928E-02 0.  1.
       -1   -1    0    0    0  501  0.00000000000E+00  0.00000000000E+00 -0.18009182178E+04  0.18009182178E+04  0.50400001928E-02 0. -1.
    10030    2    1    2    0    0  0.00000000000E+00  0.00000000000E+00 -0.12471843580E+04  0.23546520776E+04  0.19972274743E+04 0.  0.
        4    1    3    3  502    0 -0.16473720626E+03  0.97715287627E+03 -0.76923884942E+03  0.12544704505E+04  0.12699999809E+01 0.  1.
       -4    1    3    3    0  502  0.16473720626E+03 -0.97715287627E+03 -0.47794550855E+03  0.11001816272E+04  0.12699999809E+01 0. -1.
</event>
<event>
 5   0  0.2430898E-04  0.2123121E+04  0.7818609E-02  0.8551126E-01
        2   -1    0    0  501    0  0.00000000000E+00  0.00000000000E+00  0.11499993368E+04  0.11499993368E+04  0.25500000920E-02 0.  1.
       -2   -1    0    0    0  501  0.00000000000E+00  0.00000000000E+00 -0.97992315294E+03  0.97992315295E+03  0.25500000920E-02 0. -1.
    10030    2    1    2    0    0  0.00000000000E+00  0.00000000000E+00  0.17007618390E+03  0.21299224898E+04  0.21231212646E+04 0.  0.
        1    1    3    3  502    0  0.32369420301E+03 -0.33945269095E+03  0.10404042994E+04  0.11412480767E+04  0.50400001928E-02 0.  1.
       -1    1    3    3    0  502 -0.32369420301E+03  0.33945269095E+03 -0.87032811547E+03  0.98867441307E+03  0.50400001928E-02 0. -1.
</event>
<event>
 5   0  0.1130848E-04  0.2049159E+04  0.7818609E-02  0.8583976E-01
        1   -1    0    0  501    0  0.00000000000E+00  0.00000000000E+00  0.70760076407E+03  0.70760076409E+03  0.50400001928E-02 0.  1.
       -1   -1    0    0    0  501  0.00000000000E+00  0.00000000000E+00 -0.14835531889E+04  0.14835531889E+04  0.50400001928E-02 0. -1.
    10030    2    1    2    0    0  0.00000000000E+00  0.00000000000E+00 -0.77595242485E+03  0.21911539530E+04  0.20491592130E+04 0.  0.
        5    1    3    3  502    0 -0.10079325951E+04  0.58653362814E+02 -0.20162138178E+03  0.10295832190E+04  0.46999998093E+01 0.  1.
       -5    1    3    3    0  502  0.10079325951E+04 -0.58653362814E+02 -0.57433104307E+03  0.11615707341E+04  0.46999998093E+01 0. -1.
</event>
<event>
 5   0  0.1186038E-04  0.2222217E+04  0.7818609E-02  0.8509237E-01
       -1   -1    0    0    0  501  0.00000000000E+00  0.00000000000E+00  0.11028102848E+04  0.11028102848E+04  0.50400001928E-02 0. -1.
        1   -1    0    0  501    0  0.00000000000E+00  0.00000000000E+00 -0.11194690367E+04  0.11194690367E+04  0.50400001928E-02 0.  1.
    10030    2    1    2    0    0  0.00000000000E+00  0.00000000000E+00 -0.16658751899E+02  0.22222793215E+04  0.22222168815E+04 0.  0.
        4    1    3    3  502    0 -0.46201373024E+03 -0.25236987773E+02 -0.10185393090E+04  0.11187124426E+04  0.12699999809E+01 0.  1.
       -4    1    3    3    0  502  0.46201373024E+03  0.25236987773E+02  0.10018805571E+04  0.11035668788E+04  0.12699999809E+01 0. -1.
</event>
<event>
 5   0  0.2512839E-04  0.1734368E+04  0.7818609E-02  0.8742002E-01
       -2   -1    0    0    0  501  0.00000000000E+00  0.00000000000E+00  0.66392682767E+03  0.66392682768E+03  0.25500000920E-02 0. -1.
        2   -1    0    0  501    0  0.00000000000E+00  0.00000000000E+00 -0.11326675391E+04  0.11326675391E+04  0.25500000920E-02 0.  1.
    10030    2    1    2    0    0  0.00000000000E+00  0.00000000000E+00 -0.46874071142E+03  0.17965943668E+04  0.17343683185E+04 0.  0.
        3    1    3    3  502    0  0.12689691798E+03 -0.43102300424E+03 -0.10026852873E+04  0.10987545010E+04  0.10100000352E+00 0.  1.
       -3    1    3    3    0  502 -0.12689691798E+03  0.43102300424E+03  0.53394457584E+03  0.69783986577E+03  0.10100000352E+00 0. -1.
</event>
<event>
 5   0  0.1130848E-04  0.1997153E+04  0.7818609E-02  0.8607953E-01
        1   -1    0    0  501    0  0.00000000000E+00  0.00000000000E+00  0.96781786160E+03  0.96781786161E+03  0.50400001928E-02 0. -1.
       -1   -1    0    0    0  501  0.00000000000E+00  0.00000000000E+00 -0.10303125216E+04  0.10303125216E+04  0.50400001928E-02 0.  1.
    10030    2    1    2    0    0  0.00000000000E+00  0.00000000000E+00 -0.62494659964E+02  0.19981303832E+04  0.19971528348E+04 0.  0.
        5    1    3    3  502    0 -0.14197553562E+03  0.17508097745E+03 -0.10045145037E+04  0.10295056481E+04  0.46999998093E+01 0.  1.
       -5    1    3    3    0  502  0.14197553562E+03 -0.17508097745E+03  0.94201984374E+03  0.96862473506E+03  0.46999998093E+01 0. -1.
</event>
<event>
 5   0  0.1042395E-04  0.2149103E+04  0.7818609E-02  0.8539916E-01
        1   -1    0    0  501    0  0.00000000000E+00  0.00000000000E+00  0.13041695590E+04  0.13041695590E+04  0.50400001928E-02 0.  1.
       -1   -1    0    0    0  501  0.00000000000E+00  0.00000000000E+00 -0.88536076897E+03  0.88536076898E+03  0.50400001928E-02 0. -1.
    10030    2    1    2    0    0  0.00000000000E+00  0.00000000000E+00  0.41880879006E+03  0.21895303280E+04  0.21491026627E+04 0.  0.
        3    1    3    3  502    0  0.14322696772E+03  0.10482667371E+03 -0.87032325268E+03  0.88823711371E+03  0.10100000352E+00 0. -1.
       -3    1    3    3    0  502 -0.14322696772E+03 -0.10482667371E+03  0.12891320427E+04  0.13012932143E+04  0.10100000352E+00 0.  1.
</event>
<event>
 5   0  0.1156733E-04  0.2084697E+04  0.7818609E-02  0.8568015E-01
       -1   -1    0    0    0  501  0.00000000000E+00  0.00000000000E+00  0.11781904387E+04  0.11781904388E+04  0.50400001928E-02 0.  1.
        1   -1    0    0  501    0  0.00000000000E+00  0.00000000000E+00 -0.92216873263E+03  0.92216873264E+03  0.50400001928E-02 0. -1.
    10030    2    1    2    0    0  0.00000000000E+00  0.00000000000E+00  0.25602170612E+03  0.21003591714E+04  0.20846969887E+04 0.  0.
        2    1    3    3  502    0  0.58098133460E+03 -0.39904648379E+03 -0.64568624972E+03  0.95587035756E+03  0.25500000920E-02 0. -1.
       -2    1    3    3    0  502 -0.58098133460E+03  0.39904648379E+03  0.90170795584E+03  0.11444888138E+04  0.25500000920E-02 0.  1.
</event>
<event>
 5   0  0.2448804E-04  0.2148023E+04  0.7818609E-02  0.8540379E-01
       -2   -1    0    0    0  501  0.00000000000E+00  0.00000000000E+00  0.43830390241E+03  0.43830390242E+03  0.25500000920E-02 0.  1.
        2   -1    0    0  501    0  0.00000000000E+00  0.00000000000E+00 -0.26317379530E+04  0.26317379530E+04  0.25500000920E-02 0. -1.
    10030    2    1    2    0    0  0.00000000000E+00  0.00000000000E+00 -0.21934340506E+04  0.30700418554E+04  0.21480232912E+04 0.  0.
        2    1    3    3  502    0 -0.58593010219E+02 -0.93363617544E+03 -0.34260964474E+03  0.99623843411E+03  0.25500000920E-02 0.  1.
       -2    1    3    3    0  502  0.58593010219E+02  0.93363617544E+03 -0.18508244058E+04  0.20738034213E+04  0.25500000920E-02 0. -1.
</event>
<event>
 5   0  0.1186038E-04  0.2106652E+04  0.7818609E-02  0.8558319E-01
       -1   -1    0    0    0  501  0.00000000000E+00  0.00000000000E+00  0.16268129640E+04  0.16268129640E+04  0.50400001928E-02 0.  1.
        1   -1    0    0  501    0  0.00000000000E+00  0.00000000000E+00 -0.68200589671E+03  0.68200589673E+03  0.50400001928E-02 0. -1.
    10030    2    1    2    0    0  0.00000000000E+00  0.00000000000E+00  0.94480706725E+03  0.23088188607E+04  0.21066523532E+04 0.  0.
        4    1    3    3  502    0 -0.10099554079E+03 -0.10353528269E+04  0.29119148181E+03  0.10802544457E+04  0.12699999809E+01 0. -1.
       -4    1    3    3    0  502  0.10099554079E+03  0.10353528269E+04  0.65361558544E+03  0.12285644150E+04  0.12699999809E+01 0.  1.
</event>
<event>
 5   0  0.1156733E-04  0.1719936E+04  0.7818609E-02  0.8750075E-01
        1   -1    0    0  501    0  0.00000000000E+00  0.00000000000E+00  0.58105675387E+03  0.58105675390E+03  0.50400001928E-02 0.  1.
       -1   -1    0    0    0  501  0.00000000000E+00  0.00000000000E+00 -0.12727582086E+04  0.12727582086E+04  0.50400001928E-02 0. -1.
    10030    2    1    2    0    0  0.00000000000E+00  0.00000000000E+00 -0.69170145476E+03  0.18538149625E+04  0.17199357583E+04 0.  0.
        2    1    3    3  502    0 -0.24793527323E+03  0.34144350296E+03  0.46180235747E+03  0.62555334128E+03  0.25500000920E-02 0.  1.
       -2    1    3    3    0  502  0.24793527323E+03 -0.34144350296E+03 -0.11535038122E+04  0.12282616213E+04  0.25500000920E-02 0. -1.
</event>
<event>
 5   0  0.1042395E-04  0.2078983E+04  0.7818609E-02  0.8570558E-01
        1   -1    0    0  501    0  0.00000000000E+00  0.00000000000E+00  0.11657796602E+04  0.11657796603E+04  0.50400001928E-02 0. -1.
       -1   -1    0    0    0  501  0.00000000000E+00  0.00000000000E+00 -0.92688430278E+03  0.92688430279E+03  0.50400001928E-02 0.  1.
    10030    2    1    2    0    0  0.00000000000E+00  0.00000000000E+00  0.23889535747E+03  0.20926639631E+04  0.20789832781E+04 0.  0.
        3    1    3    3  502    0 -0.97421919973E+03  0.25964293082E+03 -0.13524971619E+03  0.10172561116E+04  0.10100000352E+00 0. -1.
       -3    1    3    3    0  502  0.97421919973E+03 -0.25964293082E+03  0.37414507365E+03  0.10754078515E+04  0.10100000352E+00 0.  1.
</event>
<event>
 5   0  0.2430898E-04  0.2084480E+04  0.7818609E-02  0.8568111E-01
       -2   -1    0    0    0  501  0.00000000000E+00  0.00000000000E+00  0.65775701196E+03  0.65775701197E+03  0.25500000920E-02 0. -1.
        2   -1    0    0  501    0  0.00000000000E+00  0.00000000000E+00 -0.16514672639E+04  0.16514672639E+04  0.25500000920E-02 0.  1.
    10030    2    1    2    0    0  0.00000000000E+00  0.00000000000E+00 -0.99371025194E+03  0.23092242759E+04  0.20844799571E+04 0.  0.
        1    1    3    3  502    0 -0.38207754808E+03 -0.23146823334E+02 -0.15707788490E+04  0.16167452553E+04  0.50400001928E-02 0.  1.
       -1    1    3    3    0  502  0.38207754808E+03  0.23146823334E+02  0.57706859705E+03  0.69247902055E+03  0.50400001928E-02 0. -1.
</event>
<event>
 5   0  0.2467483E-04  0.2118181E+04  0.7818609E-02  0.8553277E-01
        2   -1    0    0  501    0  0.00000000000E+00  0.00000000000E+00  0.17089279120E+04  0.17089279120E+04  0.25500000920E-02 0.  1.
       -2   -1    0    0    0  501  0.00000000000E+00  0.00000000000E+00 -0.65636021827E+03  0.65636021827E+03  0.25500000920E-02 0. -1.
    10030    2    1    2    0    0  0.00000000000E+00  0.00000000000E+00  0.10525676937E+04  0.23652881302E+04  0.21181806319E+04 0.  0.
        4    1    3    3  502    0 -0.53282215530E+03 -0.74065532558E+02  0.15450094761E+04  0.16359832048E+04  0.12699999809E+01 0.  1.
       -4    1    3    3    0  502  0.53282215530E+03  0.74065532558E+02 -0.49244178241E+03  0.72930492543E+03  0.12699999809E+01 0. -1.
</event>
<event>
 5   0  0.1122711E-04  0.2118836E+04  0.7818609E-02  0.8552991E-01
       -1   -1    0    0    0  501  0.00000000000E+00  0.00000000000E+00  0.99618932144E+03  0.99618932146E+03  0.50400001928E-02 0.  1.
        1   -1    0    0  501    0  0.00000000000E+00  0.00000000000E+00 -0.11266596893E+04  0.11266596893E+04  0.50400001928E-02 0. -1.
    10030    2    1    2    0    0  0.00000000000E+00  0.00000000000E+00 -0.13047036783E+03  0.21228490107E+04  0.21188358609E+04 0.  0.
        1    1    3    3  502    0 -0.95548118968E+03  0.15134280310E+03  0.36745941237E+03  0.10348310817E+04  0.50400001928E-02 0. -1.
       -1    1    3    3    0  502  0.95548118968E+03 -0.15134280310E+03 -0.49792978020E+03  0.10880179290E+04  0.50400001928E-02 0.  1.
</event>
<event>
 5   0  0.2430898E-04  0.2164291E+04  0.7818609E-02  0.8533440E-01
        2   -1    0    0  501    0  0.00000000000E+00  0.00000000000E+00  0.14561163668E+04  0.14561163668E+04  0.25500000920E-02 0.  1.
       -2   -1    0    0    0  501  0.00000000000E+00  0.00000000000E+00 -0.80422080646E+03  0.80422080647E+03  0.25500000920E-02 0. -1.
    10030    2    1    2    0    0  0.00000000000E+00  0.00000000000E+00  0.65189556037E+03  0.22603371733E+04  0.21642911808E+04 0.  0.
        1    1    3    3  502    0  0.64538606911E+02 -0.25815150795E+03  0.14214155484E+04  0.14461084310E+04  0.50400001928E-02 0.  1.
       -1    1    3    3    0  502 -0.64538606911E+02  0.25815150795E+03 -0.76951998804E+03  0.81422874234E+03  0.50400001928E-02 0. -1.
</event>
<event>
 5   0  0.2467483E-04  0.2074239E+04  0.7818609E-02  0.8572677E-01
       -2   -1    0    0    0  501  0.00000000000E+00  0.00000000000E+00  0.17163967223E+04  0.17163967223E+04  0.25500000920E-02 0. -1.
        2   -1    0    0  501    0  0.00000000000E+00  0.00000000000E+00 -0.62667165670E+03  0.62667165670E+03  0.25500000920E-02 0.  1.
    10030    2    1    2    0    0  0.00000000000E+00  0.00000000000E+00  0.10897250656E+04  0.23430683790E+04  0.20742393088E+04 0.  0.
        4    1    3    3  502    0  0.41157830770E+03 -0.91590746777E+03  0.83797754304E+03  0.13078574725E+04  0.12699999809E+01 0. -1.
       -4    1    3    3    0  502 -0.41157830770E+03  0.91590746777E+03  0.25174752257E+03  0.10352109065E+04  0.12699999809E+01 0.  1.
</event>
<event>
 5   0  0.2579241E-04  0.1153317E+04  0.7818609E-02  0.9154729E-01
        2   -1    0    0  501    0  0.00000000000E+00  0.00000000000E+00  0.93598495701E+03  0.93598495701E+03  0.25500000920E-02 0.  1.
       -2   -1    0    0    0  501  0.00000000000E+00  0.00000000000E+00 -0.35527787049E+03  0.35527787050E+03  0.25500000920E-02 0. -1.
    10030    2    1    2    0    0  0.00000000000E+00  0.00000000000E+00  0.58070708652E+03  0.12912628275E+04  0.11533165088E+04 0.  0.
        5    1    3    3  502    0 -0.42512306661E+03 -0.37779920432E+03  0.39686821357E+03  0.69353322162E+03  0.46999998093E+01 0.  1.
       -5    1    3    3    0  502  0.42512306661E+03  0.37779920432E+03  0.18383887295E+03  0.59772960589E+03  0.46999998093E+01 0. -1.
</event>
<event>
 5   0  0.2430898E-04  0.2076312E+04  0.7818609E-02  0.8571751E-01
       -2   -1    0    0    0  501  0.00000000000E+00  0.00000000000E+00  0.61676417946E+03  0.61676417947E+03  0.25500000920E-02 0.  1.
        2   -1    0    0  501    0  0.00000000000E+00  0.00000000000E+00 -0.17474551907E+04  0.17474551907E+04  0.25500000920E-02 0. -1.
    10030    2    1    2    0    0  0.00000000000E+00  0.00000000000E+00 -0.11306910112E+04  0.23642193702E+04  0.20763118907E+04 0.  0.
        1    1    3    3  502    0  0.97130814577E+03  0.35383985840E+03 -0.45657126255E+03  0.11300882608E+04  0.50400001928E-02 0.  1.
       -1    1    3    3    0  502 -0.97130814577E+03 -0.35383985840E+03 -0.67411974868E+03  0.12341311093E+04  0.50400001928E-02 0. -1.
</event>
<event>
 5   0  0.2579241E-04  0.2169918E+04  0.7818609E-02  0.8531054E-01
       -2   -1    0    0    0  501  0.00000000000E+00  0.00000000000E+00  0.52322233530E+03  0.52322233531E+03  0.25500000920E-02 0.  1.
        2   -1    0    0  501    0  0.00000000000E+00  0.00000000000E+00 -0.22497815279E+04  0.22497815279E+04  0.25500000920E-02 0. -1.
    10030    2    1    2    0    0  0.00000000000E+00  0.00000000000E+00 -0.17265591925E+04  0.27730038632E+04  0.21699179201E+04 0.  0.
        5    1    3    3  502    0  0.30361315307E+03  0.10221115611E+04 -0.11195703105E+04  0.15460765699E+04  0.46999998093E+01 0. -1.
       -5    1    3    3    0  502 -0.30361315307E+03 -0.10221115611E+04 -0.60698888208E+03  0.12269272933E+04  0.46999998093E+01 0.  1.
</event>
<event>
 5   0  0.2430898E-04  0.2098937E+04  0.7818609E-02  0.8561712E-01
        2   -1    0    0  501    0  0.00000000000E+00  0.00000000000E+00  0.11147340442E+04  0.11147340442E+04  0.25500000920E-02 0.  1.
       -2   -1    0    0    0  501  0.00000000000E+00  0.00000000000E+00 -0.98802366104E+03  0.98802366104E+03  0.25500000920E-02 0. -1.
    10030    2    1    2    0    0  0.00000000000E+00  0.00000000000E+00  0.12671038313E+03  0.21027577052E+04  0.20989365035E+04 0.  0.
        1    1    3    3  502    0  0.38348781767E+03  0.96249697333E+03  0.23075302317E+03  0.10614661029E+04  0.50400001928E-02 0.  1.
       -1    1    3    3    0  502 -0.38348781767E+03 -0.96249697333E+03 -0.10404264004E+03  0.10412916023E+04  0.50400001928E-02 0. -1.
</event>
<event>
 5   0  0.1186038E-04  0.2160398E+04  0.7818609E-02  0.8535094E-01
        1   -1    0    0  501    0  0.00000000000E+00  0.00000000000E+00  0.15418627173E+04  0.15418627173E+04  0.50400001928E-02 0. -1.
       -1   -1    0    0    0  501  0.00000000000E+00  0.00000000000E+00 -0.75676646344E+03  0.75676646346E+03  0.50400001928E-02 0.  1.
    10030    2    1    2    0    0  0.00000000000E+00  0.00000000000E+00  0.78509625382E+03  0.22986291807E+04  0.21603981075E+04 0.  0.
        4    1    3    3  502    0 -0.16990440621E+03  0.10586114017E+04  0.25259164471E+03  0.11015124869E+04  0.12699999809E+01 0.  1.
       -4    1    3    3    0  502  0.16990440621E+03 -0.10586114017E+04  0.53250460911E+03  0.11971166938E+04  0.12699999809E+01 0. -1.
</event>
<event>
 5   0  0.1042395E-04  0.1732479E+04  0.7818609E-02  0.8743054E-01
        1   -1    0    0  501    0  0.00000000000E+00  0.00000000000E+00  0.15251312592E+04  0.15251312592E+04  0.50400001928E-02 0. -1.
       -1   -1    0    0    0  501  0.00000000000E+00  0.00000000000E+00 -0.49200436247E+03  0.49200436250E+03  0.50400001928E-02 0.  1.
    10030    2    1    2    0    0  0.00000000000E+00  0.00000000000E+00  0.10331268967E+04  0.20171356217E+04  0.17324794174E+04 0.  0.
        3    1    3    3  502    0  0.17792483194E+03  0.52921520980E+03 -0.25455967257E+03  0.61361765066E+03  0.10100000352E+00 0.  1.
       -3    1    3    3    0  502 -0.17792483194E+03 -0.52921520980E+03  0.12876865693E+04  0.14035179710E+04  0.10100000352E+00 0. -1.
</event>
<event>
 5   0  0.2430898E-04  0.2380757E+04  0.7818609E-02  0.8446743E-01
       -2   -1    0    0    0  501  0.00000000000E+00  0.00000000000E+00  0.82426867360E+03  0.82426867360E+03  0.25500000920E-02 0. -1.
        2   -1    0    0  501    0  0.00000000000E+00  0.00000000000E+00 -0.17191013367E+04  0.17191013367E+04  0.25500000920E-02 0.  1.
    10030    2    1    2    0    0  0.00000000000E+00  0.00000000000E+00 -0.89483266313E+03  0.25433700103E+04  0.23807573405E+04 0.  0.
        1    1    3    3  502    0 -0.78298458156E+03 -0.75072121547E+03 -0.97116177054E+03  0.14559541143E+04  0.50400001928E-02 0.  1.
       -1    1    3    3    0  502  0.78298458156E+03  0.75072121547E+03  0.76329107411E+02  0.10874158960E+04  0.50400001928E-02 0. -1.
</event>
<event>
 5   0  0.1156733E-04  0.1518363E+04  0.7818609E-02  0.8872333E-01
       -1   -1    0    0    0  501  0.00000000000E+00  0.00000000000E+00  0.41143306104E+03  0.41143306107E+03  0.50400001928E-02 0. -1.
        1   -1    0    0  501    0  0.00000000000E+00  0.00000000000E+00 -0.14008514721E+04  0.14008514721E+04  0.50400001928E-02 0.  1.
    10030    2    1    2    0    0  0.00000000000E+00  0.00000000000E+00 -0.98941841109E+03  0.18122845332E+04  0.15183630782E+04 0.  0.
        2    1    3    3  502    0 -0.72135825330E+03  0.22793544628E+03 -0.41880373526E+03  0.86470160514E+03  0.25500000920E-02 0.  1.
       -2    1    3    3    0  502  0.72135825330E+03 -0.22793544628E+03 -0.57061467583E+03  0.94758292806E+03  0.25500000920E-02 0. -1.
</event>
<event>
 5   0  0.2448804E-04  0.1781677E+04  0.7818609E-02  0.8716105E-01
       -2   -1    0    0    0  501  0.00000000000E+00  0.00000000000E+00  0.65665683089E+03  0.65665683090E+03  0.25500000920E-02 0. -1.
        2   -1    0    0  501    0  0.00000000000E+00  0.00000000000E+00 -0.12085357023E+04  0.12085357023E+04  0.25500000920E-02 0.  1.
    10030    2    1    2    0    0  0.00000000000E+00  0.00000000000E+00 -0.55187887143E+03  0.18651925332E+04  0.17816769902E+04 0.  0.
        2    1    3    3  502    0  0.53157091191E+02 -0.79741990540E+03  0.13606799084E+03  0.81069024912E+03  0.25500000920E-02 0. -1.
       -2    1    3    3    0  502 -0.53157091191E+02  0.79741990540E+03 -0.68794686227E+03  0.10545022841E+04  0.25500000920E-02 0.  1.
</event>
<event>
 5   0  0.1186038E-04  0.2049014E+04  0.7818609E-02  0.8584042E-01
       -1   -1    0    0    0  501  0.00000000000E+00  0.00000000000E+00  0.13060623181E+04  0.13060623181E+04  0.50400001928E-02 0. -1.
        1   -1    0    0  501    0  0.00000000000E+00  0.00000000000E+00 -0.80364808515E+03  0.80364808517E+03  0.50400001928E-02 0.  1.
    10030    2    1    2    0    0  0.00000000000E+00  0.00000000000E+00  0.50241423296E+03  0.21097104033E+04  0.20490138907E+04 0.  0.
        4    1    3    3  502    0 -0.67109467332E+03 -0.75689970261E+03  0.84079250971E+02  0.10150547540E+04  0.12699999809E+01 0.  1.
       -4    1    3    3    0  502  0.67109467332E+03  0.75689970261E+03  0.41833498199E+03  0.10946556492E+04  0.12699999809E+01 0. -1.
</event>
<event>
 5   0  0.2579241E-04  0.2176865E+04  0.7818609E-02  0.8528120E-01
        2   -1    0    0  501    0  0.00000000000E+00  0.00000000000E+00  0.95272473423E+03  0.95272473424E+03  0.25500000920E-02 0.  1.
       -2   -1    0    0    0  501  0.00000000000E+00  0.00000000000E+00 -0.12434702850E+04  0.12434702850E+04  0.25500000920E-02 0. -1.
    10030    2    1    2    0    0  0.00000000000E+00  0.00000000000E+00 -0.29074555074E+03  0.21961950192E+04  0.21768646231E+04 0.  0.
        5    1    3    3  502    0 -0.56217449566E+03  0.75227859702E+03 -0.70043972953E+03  0.11715806228E+04  0.46999998093E+01 0. -1.
       -5    1    3    3    0  502  0.56217449566E+03 -0.75227859702E+03  0.40969417880E+03  0.10246143964E+04  0.46999998093E+01 0.  1.
</event>
<event>
 5   0  0.1122711E-04  0.2142580E+04  0.7818609E-02  0.8542715E-01
        1   -1    0    0  501    0  0.00000000000E+00  0.00000000000E+00  0.23637808977E+04  0.23637808977E+04  0.50400001928E-02 0. -1.
       -1   -1    0    0    0  501  0.00000000000E+00  0.00000000000E+00 -0.48551990441E+03  0.48551990444E+03  0.50400001928E-02 0.  1.
    10030    2    1    2    0    0  0.00000000000E+00  0.00000000000E+00  0.18782609933E+04  0.28493008021E+04  0.21425803841E+04 0.  0.
        1    1    3    3  502    0  0.99327827900E+03 -0.24567907543E+03  0.51712141862E+03  0.11464617348E+04  0.50400001928E-02 0. -1.
       -1    1    3    3    0  502 -0.99327827900E+03  0.24567907543E+03  0.13611395746E+04  0.17028390674E+04  0.50400001928E-02 0.  1.
</event>
<event>
 5   0  0.2430898E-04  0.2167511E+04  0.7818609E-02  0.8532074E-01
        2   -1    0    0  501    0  0.00000000000E+00  0.00000000000E+00  0.13487445971E+04  0.13487445971E+04  0.25500000920E-02 0. -1.
       -2   -1    0    0    0  501  0.00000000000E+00  0.00000000000E+00 -0.87082886709E+03  0.87082886710E+03  0.25500000920E-02 0.  1.
    10030    2    1    2    0    0  0.00000000000E+00  0.00000000000E+00  0.47791573003E+03  0.22195734642E+04  0.21675107654E+04 0.  0.
        1    1    3    3  502    0  0.89932173980E+03 -0.60295494965E+03  0.28689539791E+03  0.11201085806E+04  0.50400001928E-02 0. -1.
       -1    1    3    3    0  502 -0.89932173980E+03  0.60295494965E+03  0.19102033212E+03  0.10994648836E+04  0.50400001928E-02 0.  1.
</event>
<event>
 5   0  0.1156733E-04  0.2261300E+04  0.7818609E-02  0.8493338E-01
       -1   -1    0    0    0  501  0.00000000000E+00  0.00000000000E+00  0.11944599991E+04  0.11944599991E+04  0.50400001928E-02 0.  1.
        1   -1    0    0  501    0  0.00000000000E+00  0.00000000000E+00 -0.10702487135E+04  0.10702487135E+04  0.50400001928E-02 0. -1.
    10030    2    1    2    0    0  0.00000000000E+00  0.00000000000E+00  0.12421128566E+03  0.22647087126E+04  0.22612998716E+04 0.  0.
        2    1    3    3  502    0  0.83629091556E+02 -0.38253415458E+03  0.11243850629E+04  0.11906166360E+04  0.25500000920E-02 0.  1.
       -2    1    3    3    0  502 -0.83629091556E+02  0.38253415458E+03 -0.10001737772E+04  0.10740920766E+04  0.25500000920E-02 0. -1.
</event>
<event>
 5   0  0.1156733E-04  0.1495849E+04  0.7818609E-02  0.8887218E-01
       -1   -1    0    0    0  501  0.00000000000E+00  0.00000000000E+00  0.29505916465E+03  0.29505916469E+03  0.50400001928E-02 0. -1.
        1   -1    0    0  501    0  0.00000000000E+00  0.00000000000E+00 -0.18958607550E+04  0.18958607551E+04  0.50400001928E-02 0.  1.
    10030    2    1    2    0    0  0.00000000000E+00  0.00000000000E+00 -0.16008015904E+04  0.21909199197E+04  0.14958490442E+04 0.  0.
        2    1    3    3  502    0 -0.36192547784E+03  0.60272984850E+03 -0.42664452098E+03  0.82237392290E+03  0.25500000920E-02 0. -1.
       -2    1    3    3    0  502  0.36192547784E+03 -0.60272984850E+03 -0.11741570694E+04  0.13685459968E+04  0.25500000920E-02 0.  1.
</event>
<event>
 5   0  0.1042395E-04  0.1991277E+04  0.7818609E-02  0.8610710E-01
       -1   -1    0    0    0  501  0.00000000000E+00  0.00000000000E+00  0.96183180140E+03  0.96183180141E+03  0.50400001928E-02 0.  1.
        1   -1    0    0  501    0  0.00000000000E+00  0.00000000000E+00 -0.10306337539E+04  0.10306337539E+04  0.50400001928E-02 0. -1.
    10030    2    1    2    0    0  0.00000000000E+00  0.00000000000E+00 -0.68801952517E+02  0.19924655553E+04  0.19912772988E+04 0.  0.
        3    1    3    3  502    0  0.52930136125E+03 -0.79183531963E+03 -0.32463130757E+03  0.10062547394E+04  0.10100000352E+00 0. -1.
       -3    1    3    3    0  502 -0.52930136125E+03  0.79183531963E+03  0.25582935505E+03  0.98621081598E+03  0.10100000352E+00 0.  1.
</event>
<event>
 5   0  0.1130848E-04  0.2118685E+04  0.7818609E-02  0.8553057E-01
       -1   -1    0    0    0  501  0.00000000000E+00  0.00000000000E+00  0.10394904356E+04  0.10394904356E+04  0.50400001928E-02 0.  1.
        1   -1    0    0  501    0  0.00000000000E+00  0.00000000000E+00 -0.10795733046E+04  0.10795733046E+04  0.50400001928E-02 0. -1.
    10030    2    1    2    0    0  0.00000000000E+00  0.00000000000E+00 -0.40082869066E+02  0.21190637402E+04  0.21186846152E+04 0.  0.
        5    1    3    3  502    0 -0.95880579038E+02 -0.95852459815E+03 -0.46082603000E+03  0.10678694727E+04  0.46999998093E+01 0. -1.
       -5    1    3    3    0  502  0.95880579038E+02  0.95852459815E+03  0.42074316094E+03  0.10511942676E+04  0.46999998093E+01 0.  1.
</event>
<event>
 5   0  0.1186038E-04  0.2127774E+04  0.7818609E-02  0.8549106E-01
        1   -1    0    0  501    0  0.00000000000E+00  0.00000000000E+00  0.14832083586E+04  0.14832083587E+04  0.50400001928E-02 0. -1.
       -1   -1    0    0    0  501  0.00000000000E+00  0.00000000000E+00 -0.76311291860E+03  0.76311291862E+03  0.50400001928E-02 0.  1.
    10030    2    1    2    0    0  0.00000000000E+00  0.00000000000E+00  0.72009544004E+03  0.22463212773E+04  0.21277739161E+04 0.  0.
        4    1    3    3  502    0  0.76654608717E+03 -0.19344244231E+03  0.11116398855E+04  0.13640959388E+04  0.12699999809E+01 0. -1.
       -4    1    3    3    0  502 -0.76654608717E+03  0.19344244231E+03 -0.39154444545E+03  0.88222533850E+03  0.12699999809E+01 0.  1.
</event>
<event>
 5   0  0.2467483E-04  0.1525277E+04  0.7818609E-02  0.8867816E-01
        2   -1    0    0  501    0  0.00000000000E+00  0.00000000000E+00  0.77204702935E+03  0.77204702936E+03  0.25500000920E-02 0.  1.
       -2   -1    0    0    0  501  0.00000000000E+00  0.00000000000E+00 -0.75334472541E+03  0.75334472541E+03  0.25500000920E-02 0. -1.
    10030    2    1    2    0    0  0.00000000000E+00  0.00000000000E+00  0.18702303948E+02  0.15253917548E+04  0.15252770992E+04 0.  0.
        4    1    3    3  502    0  0.49696880773E+03 -0.20382564727E+02  0.58751440638E+03  0.76978453830E+03  0.12699999809E+01 0.  1.
       -4    1    3    3    0  502 -0.49696880773E+03  0.20382564727E+02 -0.56881210243E+03  0.75560721647E+03  0.12699999809E+01 0. -1.
</event>
<event>
 5   0  0.2430898E-04  0.2098393E+04  0.7818609E-02  0.8561952E-01
        2   -1    0    0  501    0  0.00000000000E+00  0.00000000000E+00  0.95902368723E+03  0.95902368723E+03  0.25500000920E-02 0. -1.
       -2   -1    0    0    0  501  0.00000000000E+00  0.00000000000E+00 -0.11478479560E+04  0.11478479560E+04  0.25500000920E-02 0.  1.
    10030    2    1    2    0    0  0.00000000000E+00  0.00000000000E+00 -0.18882426878E+03  0.21068716432E+04  0.20983930796E+04 0.  0.
        1    1    3    3  502    0  0.55921607686E+03  0.53045979956E+03 -0.80911913950E+03  0.11174900454E+04  0.50400001928E-02 0.  1.
       -1    1    3    3    0  502 -0.55921607686E+03 -0.53045979956E+03  0.62029487072E+03  0.98938159788E+03  0.50400001928E-02 0. -1.
</event>
<event>
 5   0  0.2579241E-04  0.1731709E+04  0.7818609E-02  0.8743483E-01
        2   -1    0    0  501    0  0.00000000000E+00  0.00000000000E+00  0.10357282970E+04  0.10357282970E+04  0.25500000920E-02 0.  1.
       -2   -1    0    0    0  501  0.00000000000E+00  0.00000000000E+00 -0.72384242367E+03  0.72384242367E+03  0.25500000920E-02 0. -1.
    10030    2    1    2    0    0  0.00000000000E+00  0.00000000000E+00  0.31188587329E+03  0.17595707206E+04  0.17317090757E+04 0.  0.
        5    1    3    3  502    0  0.83415126052E+03  0.14911561104E+03 -0.24790154336E+02  0.84775021831E+03  0.46999998093E+01 0. -1.
       -5    1    3    3    0  502 -0.83415126052E+03 -0.14911561104E+03  0.33667602763E+03  0.91182050233E+03  0.46999998093E+01 0.  1.
</event>
<event>
 5   0  0.2448804E-04  0.2117917E+04  0.7818609E-02  0.8553392E-01
       -2   -1    0    0    0  501  0.00000000000E+00  0.00000000000E+00  0.69396245666E+03  0.69396245666E+03  0.25500000920E-02 0.  1.
        2   -1    0    0  501    0  0.00000000000E+00  0.00000000000E+00 -0.16159279501E+04  0.16159279501E+04  0.25500000920E-02 0. -1.
    10030    2    1    2    0    0  0.00000000000E+00  0.00000000000E+00 -0.92196549339E+03  0.23098904067E+04  0.21179172127E+04 0.  0.
        2    1    3    3  502    0 -0.22852931095E+03  0.66174061701E+03 -0.13275234201E+04  0.15008146858E+04  0.25500000920E-02 0. -1.
       -2    1    3    3    0  502  0.22852931095E+03 -0.66174061701E+03  0.40555792675E+03  0.80907572088E+03  0.25500000920E-02 0.  1.
</event>
<event>
 5   0  0.1156733E-04  0.2049545E+04  0.7818609E-02  0.8583801E-01
        1   -1    0    0  501    0  0.00000000000E+00  0.00000000000E+00  0.14128093194E+04  0.14128093194E+04  0.50400001928E-02 0. -1.
       -1   -1    0    0    0  501  0.00000000000E+00  0.00000000000E+00 -0.74331225391E+03  0.74331225393E+03  0.50400001928E-02 0.  1.
    10030    2    1    2    0    0  0.00000000000E+00  0.00000000000E+00  0.66949706549E+03  0.21561215733E+04  0.20495448076E+04 0.  0.
        2    1    3    3  502    0 -0.81148405763E+03  0.92924816998E+02  0.98581435756E+03  0.12802231622E+04  0.25500000920E-02 0. -1.
       -2    1    3    3    0  502  0.81148405763E+03 -0.92924816998E+02 -0.31631729207E+03  0.87589841116E+03  0.25500000920E-02 0.  1.
</event>
<event>
 5   0  0.1122711E-04  0.1229872E+04  0.7818609E-02  0.9087104E-01
       -1   -1    0    0    0  501  0.00000000000E+00  0.00000000000E+00  0.28598969857E+03  0.28598969862E+03  0.50400001928E-02 0.  1.
        1   -1    0    0  501    0  0.00000000000E+00  0.00000000000E+00 -0.13222381635E+04  0.13222381635E+04  0.50400001928E-02 0. -1.
    10030    2    1    2    0    0  0.00000000000E+00  0.00000000000E+00 -0.10362484649E+04  0.16082278621E+04  0.12298723411E+04 0.  0.
        1    1    3    3  502    0  0.17384142866E+03 -0.53204932891E+03 -0.18512768159E+03  0.58955032798E+03  0.50400001928E-02 0.  1.
       -1    1    3    3    0  502 -0.17384142866E+03  0.53204932891E+03 -0.85112078333E+03  0.10186775341E+04  0.50400001928E-02 0. -1.
</event>
<event>
 5   0  0.2579241E-04  0.2124582E+04  0.7818609E-02  0.8550491E-01
        2   -1    0    0  501    0  0.00000000000E+00  0.00000000000E+00  0.18798187333E+04  0.18798187333E+04  0.25500000920E-02 0.  1.
       -2   -1    0    0    0  501  0.00000000000E+00  0.00000000000E+00 -0.60030396890E+03  0.60030396891E+03  0.25500000920E-02 0. -1.
    10030    2    1    2    0    0  0.00000000000E+00  0.00000000000E+00  0.12795147643E+04  0.24801227022E+04  0.21245824497E+04 0.  0.
        5    1    3    3  502    0 -0.19727515000E+03  0.21400312481E+03 -0.55283704030E+03  0.62479252986E+03  0.46999998093E+01 0. -1.
       -5    1    3    3    0  502  0.19727515000E+03 -0.21400312481E+03  0.18323518047E+04  0.18553301723E+04  0.46999998093E+01 0.  1.
</event>
<event>
 5   0  0.2430898E-04  0.2055589E+04  0.7818609E-02  0.8581063E-01
        2   -1    0    0  501    0  0.00000000000E+00  0.00000000000E+00  0.46789509789E+03  0.46789509790E+03  0.25500000920E-02 0.  1.
       -2   -1    0    0    0  501  0.00000000000E+00  0.00000000000E+00 -0.22576882549E+04  0.22576882549E+04  0.25500000920E-02 0. -1.
    10030    2    1    2    0    0  0.00000000000E+00  0.00000000000E+00 -0.17897931570E+04  0.27255833528E+04  0.20555887401E+04 0.  0.
        1    1    3    3  502    0 -0.16107867841E+03 -0.29635656621E+03 -0.21822094891E+04  0.22081240475E+04  0.50400001928E-02 0. -1.
       -1    1    3    3    0  502  0.16107867841E+03  0.29635656621E+03  0.39241633204E+03  0.51745930531E+03  0.50400001928E-02 0.  1.
</event>
<event>
 5   0  0.1130848E-04  0.1305824E+04  0.7818609E-02  0.9024959E-01
        1   -1    0    0  501    0  0.00000000000E+00  0.00000000000E+00  0.93178638293E+03  0.93178638295E+03  0.50400001928E-02 0. -1.
       -1   -1    0    0    0  501  0.00000000000E+00  0.00000000000E+00 -0.45750217716E+03  0.45750217719E+03  0.50400001928E-02 0.  1.
    10030    2    1    2    0    0  0.00000000000E+00  0.00000000000E+00  0.47428420577E+03  0.13892885601E+04  0.13058243356E+04 0.  0.
        5    1    3    3  502    0  0.60685032708E+03  0.14635227672E+02 -0.18620284594E+02  0.60733048199E+03  0.46999998093E+01 0. -1.
       -5    1    3    3    0  502 -0.60685032708E+03 -0.14635227672E+02  0.49290449036E+03  0.78195807815E+03  0.46999998093E+01 0.  1.
</event>
<event>
 5   0  0.1042395E-04  0.2073362E+04  0.7818609E-02  0.8573069E-01
       -1   -1    0    0    0  501  0.00000000000E+00  0.00000000000E+00  0.11922217058E+04  0.11922217058E+04  0.50400001928E-02 0.  1.
        1   -1    0    0  501    0  0.00000000000E+00  0.00000000000E+00 -0.90143260872E+03  0.90143260873E+03  0.50400001928E-02 0. -1.
    10030    2    1    2    0    0  0.00000000000E+00  0.00000000000E+00  0.29078909707E+03  0.20936543145E+04  0.20733620257E+04 0.  0.
        3    1    3    3  502    0 -0.42426829371E+03 -0.55782215432E+03  0.91676774832E+03  0.11539637150E+04  0.10100000352E+00 0.  1.
       -3    1    3    3    0  502  0.42426829371E+03  0.55782215432E+03 -0.62597865125E+03  0.93969059957E+03  0.10100000352E+00 0. -1.
</event>
<event>
 5   0  0.2579241E-04  0.2080689E+04  0.7818609E-02  0.8569798E-01
        2   -1    0    0  501    0  0.00000000000E+00  0.00000000000E+00  0.19339133088E+04  0.19339133088E+04  0.25500000920E-02 0. -1.
       -2   -1    0    0    0  501  0.00000000000E+00  0.00000000000E+00 -0.55965090688E+03  0.55965090688E+03  0.25500000920E-02 0.  1.
    10030    2    1    2    0    0  0.00000000000E+00  0.00000000000E+00  0.13742624019E+04  0.24935642156E+04  0.20806886716E+04 0.  0.
        5    1    3    3  502    0 -0.91698855797E+03  0.35958823858E+03  0.10884226441E+04  0.14679433432E+04  0.46999998093E+01 0. -1.
       -5    1    3    3    0  502  0.91698855797E+03 -0.35958823858E+03  0.28583975780E+03  0.10256208724E+04  0.46999998093E+01 0.  1.
</event>
<event>
 5   0  0.1042395E-04  0.2132544E+04  0.7818609E-02  0.8547041E-01
       -1   -1    0    0    0  501  0.00000000000E+00  0.00000000000E+00  0.12342940384E+04  0.12342940384E+04  0.50400001928E-02 0. -1.
        1   -1    0    0  501    0  0.00000000000E+00  0.00000000000E+00 -0.92112284716E+03  0.92112284718E+03  0.50400001928E-02 0.  1.
    10030    2    1    2    0    0  0.00000000000E+00  0.00000000000E+00  0.31317119120E+03  0.21554168855E+04  0.21325444322E+04 0.  0.
        3    1    3    3  502    0 -0.81882096465E+03  0.40777465916E+03 -0.39718540074E+03  0.99724831289E+03  0.10100000352E+00 0.  1.
       -3    1    3    3    0  502  0.81882096465E+03 -0.40777465916E+03  0.71035659193E+03  0.11581685727E+04  0.10100000352E+00 0. -1.
</event>
<event>
 5   0  0.2579241E-04  0.2114367E+04  0.7818609E-02  0.8554941E-01
       -2   -1    0    0    0  501  0.00000000000E+00  0.00000000000E+00  0.12033501024E+04  0.12033501024E+04  0.25500000920E-02 0. -1.
        2   -1    0    0  501    0  0.00000000000E+00  0.00000000000E+00 -0.92877102724E+03  0.92877102724E+03  0.25500000920E-02 0.  1.
    10030    2    1    2    0    0  0.00000000000E+00  0.00000000000E+00  0.27457907520E+03  0.21321211297E+04  0.21143667712E+04 0.  0.
        5    1    3    3  502    0 -0.19463439716E+03  0.10219540370E+04  0.32686286130E+03  0.10904742190E+04  0.46999998093E+01 0.  1.
       -5    1    3    3    0  502  0.19463439716E+03 -0.10219540370E+04 -0.52283786104E+02  0.10416469107E+04  0.46999998093E+01 0. -1.
</event>
<event>
 5   0  0.1156733E-04  0.2114054E+04  0.7818609E-02  0.8555078E-01
        1   -1    0    0  501    0  0.00000000000E+00  0.00000000000E+00  0.99056757339E+03  0.99056757340E+03  0.50400001928E-02 0. -1.
       -1   -1    0    0    0  501  0.00000000000E+00  0.00000000000E+00 -0.11279451000E+04  0.11279451000E+04  0.50400001928E-02 0.  1.
    10030    2    1    2    0    0  0.00000000000E+00  0.00000000000E+00 -0.13737752661E+03  0.21185126734E+04  0.21140537748E+04 0.  0.
        2    1    3    3  502    0 -0.67320624706E+03 -0.35236384669E+03  0.66766642062E+03  0.10115064907E+04  0.25500000920E-02 0. -1.
       -2    1    3    3    0  502  0.67320624706E+03  0.35236384669E+03 -0.80504394723E+03  0.11070061827E+04  0.25500000920E-02 0.  1.
</event>
<event>
 5   0  0.2430898E-04  0.2090291E+04  0.7818609E-02  0.8565533E-01
        2   -1    0    0  501    0  0.00000000000E+00  0.00000000000E+00  0.94784278144E+03  0.94784278144E+03  0.25500000920E-02 0.  1.
       -2   -1    0    0    0  501  0.00000000000E+00  0.00000000000E+00 -0.11524366062E+04  0.11524366062E+04  0.25500000920E-02 0. -1.
    10030    2    1    2    0    0  0.00000000000E+00  0.00000000000E+00 -0.20459382476E+03  0.21002793876E+04  0.20902906193E+04 0.  0.
        1    1    3    3  502    0 -0.16146052272E+03 -0.10099916211E+04 -0.31821012842E+03  0.10711723769E+04  0.50400001928E-02 0. -1.
       -1    1    3    3    0  502  0.16146052272E+03  0.10099916211E+04  0.11361630366E+03  0.10291070108E+04  0.50400001928E-02 0.  1.
</event>
<event>
 5   0  0.1156733E-04  0.2026628E+04  0.7818609E-02  0.8594271E-01
       -1   -1    0    0    0  501  0.00000000000E+00  0.00000000000E+00  0.61643775039E+03  0.61643775041E+03  0.50400001928E-02 0. -1.
        1   -1    0    0  501    0  0.00000000000E+00  0.00000000000E+00 -0.16657087728E+04  0.16657087729E+04  0.50400001928E-02 0.  1.
    10030    2    1    2    0    0  0.00000000000E+00  0.00000000000E+00 -0.10492710225E+04  0.22821465233E+04  0.20266284995E+04 0.  0.
        2    1    3    3  502    0  0.51515335044E+03  0.26671926180E+03  0.41094930699E+03  0.71091593878E+03  0.25500000920E-02 0. -1.
       -2    1    3    3    0  502 -0.51515335044E+03 -0.26671926180E+03 -0.14602203295E+04  0.15712305845E+04  0.25500000920E-02 0.  1.
</event>
<event>
 5   0  0.2467483E-04  0.2113386E+04  0.7818609E-02  0.8555369E-01
       -2   -1    0    0    0  501  0.00000000000E+00  0.00000000000E+00  0.92496448072E+03  0.92496448072E+03  0.25500000920E-02 0.  1.
        2   -1    0    0  501    0  0.00000000000E+00  0.00000000000E+00 -0.12071820391E+04  0.12071820391E+04  0.25500000920E-02 0. -1.
    10030    2    1    2    0    0  0.00000000000E+00  0.00000000000E+00 -0.28221755840E+03  0.21321465198E+04  0.21133863896E+04 0.  0.
        4    1    3    3  502    0 -0.48088694173E+03  0.30883190930E+03 -0.10378007903E+04  0.11847622091E+04  0.12699999809E+01 0. -1.
       -4    1    3    3    0  502  0.48088694173E+03 -0.30883190930E+03  0.75558323191E+03  0.94738431071E+03  0.12699999809E+01 0.  1.
</event>
<event>
 5   0  0.1186038E-04  0.2047231E+04  0.7818609E-02  0.8584852E-01
        1   -1    0    0  501    0  0.00000000000E+00  0.00000000000E+00  0.80086545019E+03  0.80086545020E+03  0.50400001928E-02 0.  1.
       -1   -1    0    0    0  501  0.00000000000E+00  0.00000000000E+00 -0.13083203392E+04  0.13083203392E+04  0.50400001928E-02 0. -1.
    10030    2    1    2    0    0  0.00000000000E+00  0.00000000000E+00 -0.50745488901E+03  0.21091857894E+04  0.20472308687E+04 0.  0.
        4    1    3    3  502    0  0.43298616912E+03  0.87121295867E+03 -0.58163259767E+03  0.11334845096E+04  0.12699999809E+01 0. -1.
       -4    1    3    3    0  502 -0.43298616912E+03 -0.87121295867E+03  0.74177708661E+02  0.97570127978E+03  0.12699999809E+01 0.  1.
</event>
<event>
 5   0  0.1156733E-04  0.2066823E+04  0.7818609E-02  0.8576000E-01
        1   -1    0    0  501    0  0.00000000000E+00  0.00000000000E+00  0.20224138443E+04  0.20224138443E+04  0.50400001928E-02 0. -1.
       -1   -1    0    0    0  501  0.00000000000E+00  0.00000000000E+00 -0.52805192222E+03  0.52805192224E+03  0.50400001928E-02 0.  1.
    10030    2    1    2    0    0  0.00000000000E+00  0.00000000000E+00  0.14943619221E+04  0.25504657666E+04  0.20668231836E+04 0.  0.
        2    1    3    3  502    0 -0.48035583237E+03  0.67418154953E+03  0.15105461862E+04  0.17225017469E+04  0.25500000920E-02 0. -1.
       -2    1    3    3    0  502  0.48035583237E+03 -0.67418154953E+03 -0.16184264116E+02  0.82796401965E+03  0.25500000920E-02 0.  1.
</event>
<event>
 5   0  0.1130848E-04  0.2146350E+04  0.7818609E-02  0.8541096E-01
        1   -1    0    0  501    0  0.00000000000E+00  0.00000000000E+00  0.73935633485E+03  0.73935633487E+03  0.50400001928E-02 0.  1.
       -1   -1    0    0    0  501  0.00000000000E+00  0.00000000000E+00 -0.15577119003E+04  0.15577119003E+04  0.50400001928E-02 0. -1.
    10030    2    1    2    0    0  0.00000000000E+00  0.00000000000E+00 -0.81835556546E+03  0.22970682352E+04  0.21463496094E+04 0.  0.
        5    1    3    3  502    0  0.24707751239E+03 -0.10497739112E+03  0.70282990914E+03  0.75236927167E+03  0.46999998093E+01 0.  1.
       -5    1    3    3    0  502 -0.24707751239E+03  0.10497739112E+03 -0.15211854746E+04  0.15446989635E+04  0.46999998093E+01 0. -1.
</event>
<event>
 5   0  0.1156733E-04  0.2124323E+04  0.7818609E-02  0.8550604E-01
        1   -1    0    0  501    0  0.00000000000E+00  0.00000000000E+00  0.80386065452E+03  0.80386065454E+03  0.50400001928E-02 0. -1.
       -1   -1    0    0    0  501  0.00000000000E+00  0.00000000000E+00 -0.14034609260E+04  0.14034609260E+04  0.50400001928E-02 0.  1.
    10030    2    1    2    0    0  0.00000000000E+00  0.00000000000E+00 -0.59960027144E+03  0.22073215805E+04  0.21243229685E+04 0.  0.
        2    1    3    3  502    0  0.37097562613E+03 -0.96788022085E+03 -0.54074800198E+03  0.11691122439E+04  0.25500000920E-02 0.  1.
       -2    1    3    3    0  502 -0.37097562613E+03  0.96788022085E+03 -0.58852269463E+02  0.10382093367E+04  0.25500000920E-02 0. -1.
</event>
<event>
 5   0  0.1042395E-04  0.1886738E+04  0.7818609E-02  0.8661486E-01
       -1   -1    0    0    0  501  0.00000000000E+00  0.00000000000E+00  0.88435266900E+03  0.88435266902E+03  0.50400001928E-02 0.  1.
        1   -1    0    0  501    0  0.00000000000E+00  0.00000000000E+00 -0.10063238518E+04  0.10063238518E+04  0.50400001928E-02 0. -1.
    10030    2    1    2    0    0  0.00000000000E+00  0.00000000000E+00 -0.12197118279E+03  0.18906765208E+04  0.18867381209E+04 0.  0.
        3    1    3    3  502    0  0.40231470448E+03  0.46727242990E+03  0.65446870044E+03  0.89918292646E+03  0.10100000352E+00 0.  1.
       -3    1    3    3    0  502 -0.40231470448E+03 -0.46727242990E+03 -0.77643988324E+03  0.99149359437E+03  0.10100000352E+00 0. -1.
</event>
<event>
 5   0  0.1130848E-04  0.2128231E+04  0.7818609E-02  0.8548909E-01
       -1   -1    0    0    0  501  0.00000000000E+00  0.00000000000E+00  0.10273153069E+04  0.10273153069E+04  0.50400001928E-02 0.  1.
        1   -1    0    0  501    0  0.00000000000E+00  0.00000000000E+00 -0.11022335491E+04  0.11022335491E+04  0.50400001928E-02 0. -1.
    10030    2    1    2    0    0  0.00000000000E+00  0.00000000000E+00 -0.74918242136E+02  0.21295488560E+04  0.21282306236E+04 0.  0.
        5    1    3    3  502    0  0.99954996000E+03  0.35668510247E+03 -0.11493396063E+03  0.10675000188E+04  0.46999998093E+01 0. -1.
       -5    1    3    3    0  502 -0.99954996000E+03 -0.35668510247E+03  0.40015718498E+02  0.10620488372E+04  0.46999998093E+01 0.  1.
</event>
<event>
 5   0  0.1130848E-04  0.2085549E+04  0.7818609E-02  0.8567636E-01
       -1   -1    0    0    0  501  0.00000000000E+00  0.00000000000E+00  0.84767782075E+03  0.84767782077E+03  0.50400001928E-02 0.  1.
        1   -1    0    0  501    0  0.00000000000E+00  0.00000000000E+00 -0.12827734232E+04  0.12827734232E+04  0.50400001928E-02 0. -1.
    10030    2    1    2    0    0  0.00000000000E+00  0.00000000000E+00 -0.43509560246E+03  0.21304512440E+04  0.20855489253E+04 0.  0.
        5    1    3    3  502    0  0.19592168231E+03 -0.10180724567E+04 -0.10333881661E+03  0.10419010671E+04  0.46999998093E+01 0.  1.
       -5    1    3    3    0  502 -0.19592168231E+03  0.10180724567E+04 -0.33175678585E+03  0.10885501769E+04  0.46999998093E+01 0. -1.
</event>
<event>
 5   0  0.1130848E-04  0.2036218E+04  0.7818609E-02  0.8589872E-01
       -1   -1    0    0    0  501  0.00000000000E+00  0.00000000000E+00  0.63174718433E+03  0.63174718435E+03  0.50400001928E-02 0. -1.
        1   -1    0    0  501    0  0.00000000000E+00  0.00000000000E+00 -0.16407613878E+04  0.16407613878E+04  0.50400001928E-02 0.  1.
    10030    2    1    2    0    0  0.00000000000E+00  0.00000000000E+00 -0.10090142035E+04  0.22725085722E+04  0.20362184430E+04 0.  0.
        5    1    3    3  502    0  0.81868562166E+03 -0.59778340046E+03 -0.60999038076E+03  0.11830898088E+04  0.46999998093E+01 0.  1.
       -5    1    3    3    0  502 -0.81868562166E+03  0.59778340046E+03 -0.39902382271E+03  0.10894187634E+04  0.46999998093E+01 0. -1.
</event>
<event>
 5   0  0.2467483E-04  0.2056412E+04  0.7818609E-02  0.8580691E-01
       -2   -1    0    0    0  501  0.00000000000E+00  0.00000000000E+00  0.11027610637E+04  0.11027610637E+04  0.25500000920E-02 0.  1.
        2   -1    0    0  501    0  0.00000000000E+00  0.00000000000E+00 -0.95869182597E+03  0.95869182597E+03  0.25500000920E-02 0. -1.
    10030    2    1    2    0    0  0.00000000000E+00  0.00000000000E+00  0.14406923774E+03  0.20614528897E+04  0.20564124273E+04 0.  0.
        4    1    3    3  502    0 -0.35541483738E+03 -0.76436563017E+03  0.66223222950E+03  0.10719737226E+04  0.12699999809E+01 0.  1.
       -4    1    3    3    0  502  0.35541483738E+03  0.76436563017E+03 -0.51816299176E+03  0.98947916711E+03  0.12699999809E+01 0. -1.
</event>
<event>
 5   0  0.1186038E-04  0.2109029E+04  0.7818609E-02  0.8557277E-01
       -1   -1    0    0    0  501  0.00000000000E+00  0.00000000000E+00  0.57982473166E+03  0.57982473168E+03  0.50400001928E-02 0.  1.
        1   -1    0    0  501    0  0.00000000000E+00  0.00000000000E+00 -0.19178220518E+04  0.19178220518E+04  0.50400001928E-02 0. -1.
    10030    2    1    2    0    0  0.00000000000E+00  0.00000000000E+00 -0.13379973201E+04  0.24976467835E+04  0.21090288349E+04 0.  0.
        4    1    3    3  502    0  0.92546649211E+02  0.86327341909E+03 -0.13777716361E+04  0.16285153277E+04  0.12699999809E+01 0. -1.
       -4    1    3    3    0  502 -0.92546649211E+02 -0.86327341909E+03  0.39774315927E+02  0.86913145582E+03  0.12699999809E+01 0.  1.
</event>
<event>
 5   0  0.2512839E-04  0.2084826E+04  0.7818609E-02  0.8567957E-01
        2   -1    0    0  501    0  0.00000000000E+00  0.00000000000E+00  0.19616284303E+04  0.19616284303E+04  0.25500000920E-02 0.  1.
       -2   -1    0    0    0  501  0.00000000000E+00  0.00000000000E+00 -0.55394019373E+03  0.55394019373E+03  0.25500000920E-02 0. -1.
    10030    2    1    2    0    0  0.00000000000E+00  0.00000000000E+00  0.14076882366E+04  0.25155686240E+04  0.20848259713E+04 0.  0.
        3    1    3    3  502    0 -0.64526703427E+03  0.81163475887E+03  0.57442561618E+03  0.11853629512E+04  0.10100000352E+00 0. -1.
       -3    1    3    3    0  502  0.64526703427E+03 -0.81163475887E+03  0.83326262037E+03  0.13302056728E+04  0.10100000352E+00 0.  1.
</event>
<event>
 5   0  0.2430898E-04  0.2168076E+04  0.7818609E-02  0.8531834E-01
        2   -1    0    0  501    0  0.00000000000E+00  0.00000000000E+00  0.21863687798E+04  0.21863687798E+04  0.25500000920E-02 0.  1.
       -2   -1    0    0    0  501  0.00000000000E+00  0.00000000000E+00 -0.53748414304E+03  0.53748414305E+03  0.25500000920E-02 0. -1.
    10030    2    1    2    0    0  0.00000000000E+00  0.00000000000E+00  0.16488846368E+04  0.27238529229E+04  0.21680761518E+04 0.  0.
        1    1    3    3  502    0  0.74053157985E+03  0.10002735005E+03  0.18110904838E+04  0.19591940261E+04  0.50400001928E-02 0.  1.
       -1    1    3    3    0  502 -0.74053157985E+03 -0.10002735005E+03 -0.16220584703E+03  0.76465889673E+03  0.50400001928E-02 0. -1.
</event>
<event>
 5   0  0.1186038E-04  0.1291781E+04  0.7818609E-02  0.9036109E-01
        1   -1    0    0  501    0  0.00000000000E+00  0.00000000000E+00  0.19142181061E+04  0.19142181062E+04  0.50400001928E-02 0. -1.
       -1   -1    0    0    0  501  0.00000000000E+00  0.00000000000E+00 -0.21793459255E+03  0.21793459261E+03  0.50400001928E-02 0.  1.
    10030    2    1    2    0    0  0.00000000000E+00  0.00000000000E+00  0.16962835136E+04  0.21321526988E+04  0.12917806982E+04 0.  0.
        4    1    3    3  502    0  0.43875478207E+03 -0.12109869815E+03  0.16045239709E+04  0.16678337566E+04  0.12699999809E+01 0. -1.
       -4    1    3    3    0  502 -0.43875478207E+03  0.12109869815E+03  0.91759542683E+02  0.46431894217E+03  0.12699999809E+01 0.  1.
</event>
<event>
 5   0  0.2430898E-04  0.2126007E+04  0.7818609E-02  0.8549873E-01
       -2   -1    0    0    0  501  0.00000000000E+00  0.00000000000E+00  0.17251036041E+04  0.17251036041E+04  0.25500000920E-02 0. -1.
        2   -1    0    0  501    0  0.00000000000E+00  0.00000000000E+00 -0.65501954253E+03  0.65501954253E+03  0.25500000920E-02 0.  1.
    10030    2    1    2    0    0  0.00000000000E+00  0.00000000000E+00  0.10700840615E+04  0.23801231466E+04  0.21260071247E+04 0.  0.
        1    1    3    3  502    0  0.74733893485E+03 -0.10374624065E+03 -0.30325734200E+03  0.81316897475E+03  0.50400001928E-02 0.  1.
       -1    1    3    3    0  502 -0.74733893485E+03  0.10374624065E+03  0.13733414035E+04  0.15669541718E+04  0.50400001928E-02 0. -1.
</event>
<event>
 5   0  0.2512839E-04  0.1725945E+04  0.7818609E-02  0.8746704E-01
        2   -1    0    0  501    0  0.00000000000E+00  0.00000000000E+00  0.16917087124E+04  0.16917087124E+04  0.25500000920E-02 0. -1.
       -2   -1    0    0    0  501  0.00000000000E+00  0.00000000000E+00 -0.44021849799E+03  0.44021849799E+03  0.25500000920E-02 0.  1.
    10030    2    1    2    0    0  0.00000000000E+00  0.00000000000E+00  0.12514902144E+04  0.21319272104E+04  0.17259449220E+04 0.  0.
        3    1    3    3  502    0 -0.40779590909E+03 -0.35820906516E+03 -0.20296927750E+03  0.57948923687E+03  0.10100000352E+00 0.  1.
       -3    1    3    3    0  502  0.40779590909E+03  0.35820906516E+03  0.14544594919E+04  0.15524379736E+04  0.10100000352E+00 0. -1.
</event>
<event>
 5   0  0.1156733E-04  0.2048088E+04  0.7818609E-02  0.8584462E-01
       -1   -1    0    0    0  501  0.00000000000E+00  0.00000000000E+00  0.78207793219E+03  0.78207793220E+03  0.50400001928E-02 0.  1.
        1   -1    0    0  501    0  0.00000000000E+00  0.00000000000E+00 -0.13408710145E+04  0.13408710145E+04  0.50400001928E-02 0. -1.
    10030    2    1    2    0    0  0.00000000000E+00  0.00000000000E+00 -0.55879308235E+03  0.21229489467E+04  0.20480875278E+04 0.  0.
        2    1    3    3  502    0 -0.47418497512E+03  0.70321938581E+03  0.31542234560E+03  0.90490891880E+03  0.25500000920E-02 0. -1.
       -2    1    3    3    0  502  0.47418497512E+03 -0.70321938581E+03 -0.87421542794E+03  0.12180400279E+04  0.25500000920E-02 0.  1.
</event>
<event>
 5   0  0.2512839E-04  0.2056740E+04  0.7818609E-02  0.8580543E-01
        2   -1    0    0  501    0  0.00000000000E+00  0.00000000000E+00  0.23041582298E+04  0.23041582298E+04  0.25500000920E-02 0.  1.
       -2   -1    0    0    0  501  0.00000000000E+00  0.00000000000E+00 -0.45897237953E+03  0.45897237954E+03  0.25500000920E-02 0. -1.
    10030    2    1    2    0    0  0.00000000000E+00  0.00000000000E+00  0.18451858502E+04  0.27631306093E+04  0.20567401251E+04 0.  0.
        3    1    3    3  502    0  0.87548407758E+03  0.31151896511E+03  0.33082039631E+03  0.98638662832E+03  0.10100000352E+00 0. -1.
       -3    1    3    3    0  502 -0.87548407758E+03 -0.31151896511E+03  0.15143654539E+04  0.17767439810E+04  0.10100000352E+00 0.  1.
</event>
<event>
 5   0  0.1122711E-04  0.2095919E+04  0.7818609E-02  0.8563043E-01
        1   -1    0    0  501    0  0.00000000000E+00  0.00000000000E+00  0.14936376474E+04  0.14936376474E+04  0.50400001928E-02 0.  1.
       -1   -1    0    0    0  501  0.00000000000E+00  0.00000000000E+00 -0.73526501251E+03  0.73526501253E+03  0.50400001928E-02 0. -1.
    10030    2    1    2    0    0  0.00000000000E+00  0.00000000000E+00  0.75837263491E+03  0.22289026600E+04  0.20959193721E+04 0.  0.
        1    1    3    3  502    0 -0.82664203363E+03 -0.21875824825E+03 -0.26508041074E+03  0.89524289839E+03  0.50400001928E-02 0. -1.
       -1    1    3    3    0  502  0.82664203363E+03  0.21875824825E+03  0.10234530457E+04  0.13336597616E+04  0.50400001928E-02 0.  1.
</event>
<event>
 5   0  0.1156733E-04  0.2086254E+04  0.7818609E-02  0.8567323E-01
        1   -1    0    0  501    0  0.00000000000E+00  0.00000000000E+00  0.34674906764E+03  0.34674906767E+03  0.50400001928E-02 0.  1.
       -1   -1    0    0    0  501  0.00000000000E+00  0.00000000000E+00 -0.31380452022E+04  0.31380452022E+04  0.50400001928E-02 0. -1.
    10030    2    1    2    0    0  0.00000000000E+00  0.00000000000E+00 -0.27912961345E+04  0.34847942699E+04  0.20862542972E+04 0.  0.
        2    1    3    3  502    0 -0.71248327172E+03 -0.31513822611E+03 -0.25543161685E+04  0.26704822791E+04  0.25500000920E-02 0. -1.
       -2    1    3    3    0  502  0.71248327172E+03  0.31513822611E+03 -0.23697996601E+03  0.81431199078E+03  0.25500000920E-02 0.  1.
</event>
<event>
 5   0  0.1122711E-04  0.2373360E+04  0.7818609E-02  0.8449545E-01
        1   -1    0    0  501    0  0.00000000000E+00  0.00000000000E+00  0.12367069151E+04  0.12367069151E+04  0.50400001928E-02 0. -1.
       -1   -1    0    0    0  501  0.00000000000E+00  0.00000000000E+00 -0.11386768052E+04  0.11386768052E+04  0.50400001928E-02 0.  1.
    10030    2    1    2    0    0  0.00000000000E+00  0.00000000000E+00  0.98030109899E+02  0.23753837203E+04  0.23733600478E+04 0.  0.
        1    1    3    3  502    0 -0.63876169442E+03 -0.32470320508E+03 -0.89770946251E+03  0.11486213270E+04  0.50400001928E-02 0.  1.
       -1    1    3    3    0  502  0.63876169442E+03  0.32470320508E+03  0.99573957241E+03  0.12267623934E+04  0.50400001928E-02 0. -1.
</event>
<event>
 5   0  0.2430898E-04  0.2070084E+04  0.7818609E-02  0.8574537E-01
       -2   -1    0    0    0  501  0.00000000000E+00  0.00000000000E+00  0.11453520716E+04  0.11453520716E+04  0.25500000920E-02 0.  1.
        2   -1    0    0  501    0  0.00000000000E+00  0.00000000000E+00 -0.93535572340E+03  0.93535572340E+03  0.25500000920E-02 0. -1.
    10030    2    1    2    0    0  0.00000000000E+00  0.00000000000E+00  0.20999634819E+03  0.20807077950E+04  0.20700836848E+04 0.  0.
        1    1    3    3  502    0  0.50759151702E+03  0.43016758281E+03  0.90192181013E+03  0.11207837655E+04  0.50400001928E-02 0.  1.
       -1    1    3    3    0  502 -0.50759151702E+03 -0.43016758281E+03 -0.69192546194E+03  0.95992402947E+03  0.50400001928E-02 0. -1.
</event>
<event>
 5   0  0.1122711E-04  0.2012126E+04  0.7818609E-02  0.8600972E-01
       -1   -1    0    0    0  501  0.00000000000E+00  0.00000000000E+00  0.65203076526E+03  0.65203076528E+03  0.50400001928E-02 0.  1.
        1   -1    0    0  501    0  0.00000000000E+00  0.00000000000E+00 -0.15523233046E+04  0.15523233046E+04  0.50400001928E-02 0. -1.
    10030    2    1    2    0    0  0.00000000000E+00  0.00000000000E+00 -0.90029253931E+03  0.22043540699E+04  0.20121257935E+04 0.  0.
        1    1    3    3  502    0 -0.50696266216E+03 -0.44155276601E+03  0.36981062023E+03  0.76729386865E+03  0.50400001928E-02 0.  1.
       -1    1    3    3    0  502  0.50696266216E+03  0.44155276601E+03 -0.12701031595E+04  0.14370602012E+04  0.50400001928E-02 0. -1.
</event>
<event>
 5   0  0.1186038E-04  0.2152779E+04  0.7818609E-02  0.8538344E-01
       -1   -1    0    0    0  501  0.00000000000E+00  0.00000000000E+00  0.69679123711E+03  0.69679123713E+03  0.50400001928E-02 0. -1.
        1   -1    0    0  501    0  0.00000000000E+00  0.00000000000E+00 -0.16627850785E+04  0.16627850785E+04  0.50400001928E-02 0.  1.
    10030    2    1    2    0    0  0.00000000000E+00  0.00000000000E+00 -0.96599384140E+03  0.23595763157E+04  0.21527787364E+04 0.  0.
        4    1    3    3  502    0 -0.51850037669E+02  0.10519316893E+04 -0.23947462914E+03  0.10800918554E+04  0.12699999809E+01 0.  1.
       -4    1    3    3    0  502  0.51850037669E+02 -0.10519316893E+04 -0.72651921227E+03  0.12794844602E+04  0.12699999809E+01 0. -1.
</event>
<event>
 5   0  0.2448804E-04  0.1828827E+04  0.7818609E-02  0.8691118E-01
       -2   -1    0    0    0  501  0.00000000000E+00  0.00000000000E+00  0.68844132006E+03  0.68844132006E+03  0.25500000920E-02 0.  1.
        2   -1    0    0  501    0  0.00000000000E+00  0.00000000000E+00 -0.12145578770E+04  0.12145578770E+04  0.25500000920E-02 0. -1.
    10030    2    1    2    0    0  0.00000000000E+00  0.00000000000E+00 -0.52611655696E+03  0.19029991971E+04  0.18288267585E+04 0.  0.
        2    1    3    3  502    0 -0.19798101660E+03  0.89195217855E+03 -0.22445014414E+03  0.94082572188E+03  0.25500000920E-02 0.  1.
       -2    1    3    3    0  502  0.19798101660E+03 -0.89195217855E+03 -0.30166641283E+03  0.96217347520E+03  0.25500000920E-02 0. -1.
</event>
<event>
 5   0  0.2448804E-04  0.1993135E+04  0.7818609E-02  0.8609837E-01
        2   -1    0    0  501    0  0.00000000000E+00  0.00000000000E+00  0.83132223404E+03  0.83132223404E+03  0.25500000920E-02 0.  1.
       -2   -1    0    0    0  501  0.00000000000E+00  0.00000000000E+00 -0.11946591591E+04  0.11946591592E+04  0.25500000920E-02 0. -1.
    10030    2    1    2    0    0  0.00000000000E+00  0.00000000000E+00 -0.36333692511E+03  0.20259813932E+04  0.19931349388E+04 0.  0.
        2    1    3    3  502    0 -0.33866220597E+03  0.86783767895E+03 -0.54149713312E+03  0.10775219125E+04  0.25500000920E-02 0. -1.
       -2    1    3    3    0  502  0.33866220597E+03 -0.86783767895E+03  0.17816020801E+03  0.94845948068E+03  0.25500000920E-02 0.  1.
</event>
<event>
 5   0  0.8698750E-05  0.2190009E+04  0.7818609E-02  0.8522598E-01
        4   -1    0    0  501    0  0.00000000000E+00  0.00000000000E+00  0.10951883262E+04  0.10951890625E+04  0.12699999809E+01 0.  1.
       -4   -1    0    0    0  501  0.00000000000E+00  0.00000000000E+00 -0.10948189115E+04  0.10948196481E+04  0.12699999809E+01 0. -1.
    10030    2    1    2    0    0  0.00000000000E+00  0.00000000000E+00  0.36941467794E+00  0.21900087106E+04  0.21900086795E+04 0.  0.
        3    1    3    3  502    0 -0.62031927883E+03  0.16211263486E+03  0.88785469229E+03  0.10951540891E+04  0.10100000352E+00 0.  1.
       -3    1    3    3    0  502  0.62031927883E+03 -0.16211263486E+03 -0.88748527761E+03  0.10948546215E+04  0.10100000352E+00 0. -1.
</event>
<event>
 5   0  0.2430898E-04  0.2100474E+04  0.7818609E-02  0.8561035E-01
       -2   -1    0    0    0  501  0.00000000000E+00  0.00000000000E+00  0.55246144799E+03  0.55246144799E+03  0.25500000920E-02 0. -1.
        2   -1    0    0  501    0  0.00000000000E+00  0.00000000000E+00 -0.19965152407E+04  0.19965152407E+04  0.25500000920E-02 0.  1.
    10030    2    1    2    0    0  0.00000000000E+00  0.00000000000E+00 -0.14440537927E+04  0.25489766887E+04  0.21004739473E+04 0.  0.
        1    1    3    3  502    0  0.81703859406E+03  0.15737126454E+03 -0.14997057676E+04  0.17150612725E+04  0.50400001928E-02 0. -1.
       -1    1    3    3    0  502 -0.81703859406E+03 -0.15737126454E+03  0.55651974845E+02  0.83391541622E+03  0.50400001928E-02 0.  1.
</event>
<event>
 5   0  0.1042395E-04  0.2036146E+04  0.7818609E-02  0.8589905E-01
        1   -1    0    0  501    0  0.00000000000E+00  0.00000000000E+00  0.91714885403E+03  0.91714885404E+03  0.50400001928E-02 0.  1.
       -1   -1    0    0    0  501  0.00000000000E+00  0.00000000000E+00 -0.11301024208E+04  0.11301024208E+04  0.50400001928E-02 0. -1.
    10030    2    1    2    0    0  0.00000000000E+00  0.00000000000E+00 -0.21295356681E+03  0.20472512749E+04  0.20361455156E+04 0.  0.
        3    1    3    3  502    0  0.67836691180E+03  0.59772074815E+02 -0.86738568408E+03  0.11027748198E+04  0.10100000352E+00 0. -1.
       -3    1    3    3    0  502 -0.67836691180E+03 -0.59772074815E+02  0.65443211728E+03  0.94447645512E+03  0.10100000352E+00 0.  1.
</event>
<event>
 5   0  0.2467483E-04  0.2092826E+04  0.7818609E-02  0.8564410E-01
        2   -1    0    0  501    0  0.00000000000E+00  0.00000000000E+00  0.13418685972E+04  0.13418685972E+04  0.25500000920E-02 0.  1.
       -2   -1    0    0    0  501  0.00000000000E+00  0.00000000000E+00 -0.81601141149E+03  0.81601141150E+03  0.25500000920E-02 0. -1.
    10030    2    1    2    0    0  0.00000000000E+00  0.00000000000E+00  0.52585718566E+03  0.21578800087E+04  0.20928259249E+04 0.  0.
        4    1    3    3  502    0 -0.47958060827E+03  0.46034121043E+03  0.10961741687E+04  0.12819949340E+04  0.12699999809E+01 0.  1.
       -4    1    3    3    0  502  0.47958060827E+03 -0.46034121043E+03 -0.57031698306E+03  0.87588507460E+03  0.12699999809E+01 0. -1.
</event>
<event>
 5   0  0.2579241E-04  0.1990629E+04  0.7818609E-02  0.8611015E-01
       -2   -1    0    0    0  501  0.00000000000E+00  0.00000000000E+00  0.96768225227E+03  0.96768225227E+03  0.25500000920E-02 0. -1.
        2   -1    0    0  501    0  0.00000000000E+00  0.00000000000E+00 -0.10237353738E+04  0.10237353738E+04  0.25500000920E-02 0.  1.
    10030    2    1    2    0    0  0.00000000000E+00  0.00000000000E+00 -0.56053121491E+02  0.19914176260E+04  0.19906285964E+04 0.  0.
        5    1    3    3  502    0  0.42879475463E+03  0.30255083195E+03  0.81801931197E+03  0.97189486688E+03  0.46999998093E+01 0. -1.
       -5    1    3    3    0  502 -0.42879475463E+03 -0.30255083195E+03 -0.87407243346E+03  0.10195227592E+04  0.46999998093E+01 0.  1.
</event>
<event>
 5   0  0.2512839E-04  0.1806552E+04  0.7818609E-02  0.8702823E-01
        2   -1    0    0  501    0  0.00000000000E+00  0.00000000000E+00  0.17406437777E+04  0.17406437777E+04  0.25500000920E-02 0.  1.
       -2   -1    0    0    0  501  0.00000000000E+00  0.00000000000E+00 -0.46873920538E+03  0.46873920538E+03  0.25500000920E-02 0. -1.
    10030    2    1    2    0    0  0.00000000000E+00  0.00000000000E+00  0.12719045724E+04  0.22093829831E+04  0.18065524971E+04 0.  0.
        3    1    3    3  502    0  0.81259029282E+03 -0.26939506333E+03  0.98835667046E+03  0.13075647603E+04  0.10100000352E+00 0. -1.
       -3    1    3    3    0  502 -0.81259029282E+03  0.26939506333E+03  0.28354790189E+03  0.90181822281E+03  0.10100000352E+00 0.  1.
</event>
<event>
 5   0  0.1122711E-04  0.1944342E+04  0.7818609E-02  0.8633094E-01
        1   -1    0    0  501    0  0.00000000000E+00  0.00000000000E+00  0.19389539453E+04  0.19389539453E+04  0.50400001928E-02 0. -1.
       -1   -1    0    0    0  501  0.00000000000E+00  0.00000000000E+00 -0.48743628282E+03  0.48743628285E+03  0.50400001928E-02 0.  1.
    10030    2    1    2    0    0  0.00000000000E+00  0.00000000000E+00  0.14515176625E+04  0.24263902281E+04  0.19443420519E+04 0.  0.
        1    1    3    3  502    0 -0.44326689837E+03  0.76140749580E+03  0.12386077148E+04  0.15199921017E+04  0.50400001928E-02 0.  1.
       -1    1    3    3    0  502  0.44326689837E+03 -0.76140749580E+03  0.21290994761E+03  0.90639812647E+03  0.50400001928E-02 0. -1.
</event>
<event>
 5   0  0.1156733E-04  0.2019196E+04  0.7818609E-02  0.8597698E-01
        1   -1    0    0  501    0  0.00000000000E+00  0.00000000000E+00  0.12776070364E+04  0.12776070364E+04  0.50400001928E-02 0. -1.
       -1   -1    0    0    0  501  0.00000000000E+00  0.00000000000E+00 -0.79781007520E+03  0.79781007522E+03  0.50400001928E-02 0.  1.
    10030    2    1    2    0    0  0.00000000000E+00  0.00000000000E+00  0.47979696115E+03  0.20754171116E+04  0.20191956476E+04 0.  0.
        2    1    3    3  502    0 -0.64845743362E+03 -0.31766892121E+03  0.96514908896E+03  0.12053727020E+04  0.25500000920E-02 0. -1.
       -2    1    3    3    0  502  0.64845743362E+03  0.31766892121E+03 -0.48535212781E+03  0.87004440961E+03  0.25500000920E-02 0.  1.
</event>
<event>
 5   0  0.1156733E-04  0.2111338E+04  0.7818609E-02  0.8556265E-01
        1   -1    0    0  501    0  0.00000000000E+00  0.00000000000E+00  0.13148682764E+04  0.13148682764E+04  0.50400001928E-02 0.  1.
       -1   -1    0    0    0  501  0.00000000000E+00  0.00000000000E+00 -0.84756527267E+03  0.84756527268E+03  0.50400001928E-02 0. -1.
    10030    2    1    2    0    0  0.00000000000E+00  0.00000000000E+00  0.46730300370E+03  0.21624335491E+04  0.21113376700E+04 0.  0.
        2    1    3    3  502    0 -0.16810467674E+03  0.13361714480E+02  0.13009841184E+04  0.13118679027E+04  0.25500000920E-02 0.  1.
       -2    1    3    3    0  502  0.16810467674E+03 -0.13361714480E+02 -0.83368111471E+03  0.85056564637E+03  0.25500000920E-02 0. -1.
</event>
<event>
 5   0  0.2448804E-04  0.2079373E+04  0.7818609E-02  0.8570384E-01
        2   -1    0    0  501    0  0.00000000000E+00  0.00000000000E+00  0.10503816426E+04  0.10503816426E+04  0.25500000920E-02 0.  1.
       -2   -1    0    0    0  501  0.00000000000E+00  0.00000000000E+00 -0.10291004443E+04  0.10291004443E+04  0.25500000920E-02 0. -1.
    10030    2    1    2    0    0  0.00000000000E+00  0.00000000000E+00  0.21281198268E+02  0.20794820869E+04  0.20793731892E+04 0.  0.
        2    1    3    3  502    0  0.98091110172E+03 -0.69312517684E+02  0.34823404804E+03  0.10431959388E+04  0.25500000920E-02 0.  1.
       -2    1    3    3    0  502 -0.98091110172E+03  0.69312517684E+02 -0.32695284977E+03  0.10362861480E+04  0.25500000920E-02 0. -1.
</event>
<event>
 5   0  0.2467483E-04  0.2023598E+04  0.7818609E-02  0.8595667E-01
       -2   -1    0    0    0  501  0.00000000000E+00  0.00000000000E+00  0.10034408366E+04  0.10034408366E+04  0.25500000920E-02 0. -1.
        2   -1    0    0  501    0  0.00000000000E+00  0.00000000000E+00 -0.10202265213E+04  0.10202265213E+04  0.25500000920E-02 0.  1.
    10030    2    1    2    0    0  0.00000000000E+00  0.00000000000E+00 -0.16785684728E+02  0.20236673579E+04  0.20235977407E+04 0.  0.
        4    1    3    3  502    0 -0.81967123333E+03 -0.39776790022E+03  0.43168491520E+03  0.10081833723E+04  0.12699999809E+01 0. -1.
       -4    1    3    3    0  502  0.81967123333E+03  0.39776790022E+03 -0.44847059992E+03  0.10154839856E+04  0.12699999809E+01 0.  1.
</event>
<event>
 5   0  0.2579241E-04  0.1582471E+04  0.7818609E-02  0.8831389E-01
        2   -1    0    0  501    0  0.00000000000E+00  0.00000000000E+00  0.17148536311E+04  0.17148536311E+04  0.25500000920E-02 0. -1.
       -2   -1    0    0    0  501  0.00000000000E+00  0.00000000000E+00 -0.36507713673E+03  0.36507713674E+03  0.25500000920E-02 0.  1.
    10030    2    1    2    0    0  0.00000000000E+00  0.00000000000E+00  0.13497764944E+04  0.20799307678E+04  0.15824712997E+04 0.  0.
        5    1    3    3  502    0  0.18854512729E+03 -0.25976362267E+03  0.16254188561E+04  0.16568147007E+04  0.46999998093E+01 0. -1.
       -5    1    3    3    0  502 -0.18854512729E+03  0.25976362267E+03 -0.27564236174E+03  0.42311606714E+03  0.46999998093E+01 0.  1.
</event>
<event>
 5   0  0.1122711E-04  0.2042107E+04  0.7818609E-02  0.8587183E-01
        1   -1    0    0  501    0  0.00000000000E+00  0.00000000000E+00  0.11017234368E+04  0.11017234368E+04  0.50400001928E-02 0.  1.
       -1   -1    0    0    0  501  0.00000000000E+00  0.00000000000E+00 -0.94629033470E+03  0.94629033471E+03  0.50400001928E-02 0. -1.
    10030    2    1    2    0    0  0.00000000000E+00  0.00000000000E+00  0.15543310212E+03  0.20480137715E+04  0.20421069901E+04 0.  0.
        1    1    3    3  502    0 -0.15099270283E+03  0.83066247860E+03  0.65361728554E+03  0.10677146181E+04  0.50400001928E-02 0.  1.
       -1    1    3    3    0  502  0.15099270283E+03 -0.83066247860E+03 -0.49818418342E+03  0.98029915347E+03  0.50400001928E-02 0. -1.
</event>
<event>
 5   0  0.1186038E-04  0.2158990E+04  0.7818609E-02  0.8535694E-01
       -1   -1    0    0    0  501  0.00000000000E+00  0.00000000000E+00  0.71004328103E+03  0.71004328104E+03  0.50400001928E-02 0.  1.
        1   -1    0    0  501    0  0.00000000000E+00  0.00000000000E+00 -0.16411810790E+04  0.16411810790E+04  0.50400001928E-02 0. -1.
    10030    2    1    2    0    0  0.00000000000E+00  0.00000000000E+00 -0.93113779793E+03  0.23512243600E+04  0.21589901325E+04 0.  0.
        4    1    3    3  502    0 -0.76125554027E+03 -0.20829427852E+03  0.33649293688E+03  0.85797762996E+03  0.12699999809E+01 0.  1.
       -4    1    3    3    0  502  0.76125554027E+03  0.20829427852E+03 -0.12676307348E+04  0.14932467300E+04  0.12699999809E+01 0. -1.
</event>
<event>
 5   0  0.2448804E-04  0.2202499E+04  0.7818609E-02  0.8517389E-01
        2   -1    0    0  501    0  0.00000000000E+00  0.00000000000E+00  0.21086110747E+04  0.21086110747E+04  0.25500000920E-02 0.  1.
       -2   -1    0    0    0  501  0.00000000000E+00  0.00000000000E+00 -0.57514162594E+03  0.57514162595E+03  0.25500000920E-02 0. -1.
    10030    2    1    2    0    0  0.00000000000E+00  0.00000000000E+00  0.15334694488E+04  0.26837527007E+04  0.22024985830E+04 0.  0.
        2    1    3    3  502    0 -0.31883661295E+03  0.10365059396E+04  0.10003211344E+04  0.14753452886E+04  0.25500000920E-02 0.  1.
       -2    1    3    3    0  502  0.31883661295E+03 -0.10365059396E+04  0.53314831438E+03  0.12084074121E+04  0.25500000920E-02 0. -1.
</event>
<event>
 5   0  0.2430898E-04  0.2091575E+04  0.7818609E-02  0.8564964E-01
        2   -1    0    0  501    0  0.00000000000E+00  0.00000000000E+00  0.15754671174E+04  0.15754671174E+04  0.25500000920E-02 0. -1.
       -2   -1    0    0    0  501  0.00000000000E+00  0.00000000000E+00 -0.69418881127E+03  0.69418881128E+03  0.25500000920E-02 0.  1.
    10030    2    1    2    0    0  0.00000000000E+00  0.00000000000E+00  0.88127830616E+03  0.22696559287E+04  0.20915751437E+04 0.  0.
        1    1    3    3  502    0  0.70729982974E+03 -0.40440859258E+03  0.11520920848E+04  0.14110760188E+04  0.50400001928E-02 0. -1.
       -1    1    3    3    0  502 -0.70729982974E+03  0.40440859258E+03 -0.27081377868E+03  0.85857990989E+03  0.50400001928E-02 0.  1.
</event>
<event>
 5   0  0.2430898E-04  0.2113011E+04  0.7818609E-02  0.8555533E-01
        2   -1    0    0  501    0  0.00000000000E+00  0.00000000000E+00  0.19719105718E+04  0.19719105718E+04  0.25500000920E-02 0. -1.
       -2   -1    0    0    0  501  0.00000000000E+00  0.00000000000E+00 -0.56605219392E+03  0.56605219393E+03  0.25500000920E-02 0.  1.
    10030    2    1    2    0    0  0.00000000000E+00  0.00000000000E+00  0.14058583779E+04  0.25379627658E+04  0.21130114107E+04 0.  0.
        1    1    3    3  502    0 -0.48645568996E+03  0.69335014552E+03 -0.55609466724E+02  0.84880267165E+03  0.50400001928E-02 0.  1.
       -1    1    3    3    0  502  0.48645568996E+03 -0.69335014552E+03  0.14614678446E+04  0.16891600941E+04  0.50400001928E-02 0. -1.
</event>
<event>
 5   0  0.1156733E-04  0.2097984E+04  0.7818609E-02  0.8562132E-01
        1   -1    0    0  501    0  0.00000000000E+00  0.00000000000E+00  0.18156399303E+04  0.18156399303E+04  0.50400001928E-02 0.  1.
       -1   -1    0    0    0  501  0.00000000000E+00  0.00000000000E+00 -0.60605882724E+03  0.60605882726E+03  0.50400001928E-02 0. -1.
    10030    2    1    2    0    0  0.00000000000E+00  0.00000000000E+00  0.12095811030E+04  0.24216987575E+04  0.20979843725E+04 0.  0.
        2    1    3    3  502    0  0.79775806296E+03 -0.63941419907E+02  0.13875697379E+04  0.16018290201E+04  0.25500000920E-02 0.  1.
       -2    1    3    3    0  502 -0.79775806296E+03  0.63941419907E+02 -0.17798863484E+03  0.81986973742E+03  0.25500000920E-02 0. -1.
</event>
<event>
 5   0  0.2579241E-04  0.2091779E+04  0.7818609E-02  0.8564873E-01
        2   -1    0    0  501    0  0.00000000000E+00  0.00000000000E+00  0.19377587297E+04  0.19377587297E+04  0.25500000920E-02 0. -1.
       -2   -1    0    0    0  501  0.00000000000E+00  0.00000000000E+00 -0.56451045018E+03  0.56451045018E+03  0.25500000920E-02 0.  1.
    10030    2    1    2    0    0  0.00000000000E+00  0.00000000000E+00  0.13732482795E+04  0.25022691799E+04  0.20917791976E+04 0.  0.
        5    1    3    3  502    0  0.75732174108E+03  0.59724103075E+03  0.11705173321E+04  0.15166957451E+04  0.46999998093E+01 0. -1.
       -5    1    3    3    0  502 -0.75732174108E+03 -0.59724103075E+03  0.20273094736E+03  0.98557343478E+03  0.46999998093E+01 0.  1.
</event>
<event>
 5   0  0.1186038E-04  0.2145608E+04  0.7818609E-02  0.8541414E-01
       -1   -1    0    0    0  501  0.00000000000E+00  0.00000000000E+00  0.20228470222E+04  0.20228470222E+04  0.50400001928E-02 0.  1.
        1   -1    0    0  501    0  0.00000000000E+00  0.00000000000E+00 -0.56895491073E+03  0.56895491075E+03  0.50400001928E-02 0. -1.
    10030    2    1    2    0    0  0.00000000000E+00  0.00000000000E+00  0.14538921115E+04  0.25918019330E+04  0.21456083025E+04 0.  0.
        4    1    3    3  502    0  0.16870980826E+03  0.96889191873E+03  0.20922338762E+03  0.10054802775E+04  0.12699999809E+01 0. -1.
       -4    1    3    3    0  502 -0.16870980826E+03 -0.96889191873E+03  0.12446687238E+04  0.15863216555E+04  0.12699999809E+01 0.  1.
</event>
<event>
 5   0  0.1122711E-04  0.2136315E+04  0.7818609E-02  0.8545413E-01
       -1   -1    0    0    0  501  0.00000000000E+00  0.00000000000E+00  0.15052511159E+04  0.15052511159E+04  0.50400001928E-02 0.  1.
        1   -1    0    0  501    0  0.00000000000E+00  0.00000000000E+00 -0.75798669299E+03  0.75798669300E+03  0.50400001928E-02 0. -1.
    10030    2    1    2    0    0  0.00000000000E+00  0.00000000000E+00  0.74726442291E+03  0.22632378089E+04  0.21363148789E+04 0.  0.
        1    1    3    3  502    0  0.96835398097E+03 -0.41855381710E+03  0.55110693184E+03  0.11902166108E+04  0.50400001928E-02 0. -1.
       -1    1    3    3    0  502 -0.96835398097E+03  0.41855381710E+03  0.19615749107E+03  0.10730211981E+04  0.50400001928E-02 0.  1.
</event>
<event>
 5   0  0.1122711E-04  0.1981726E+04  0.7818609E-02  0.8615212E-01
       -1   -1    0    0    0  501  0.00000000000E+00  0.00000000000E+00  0.60819306946E+03  0.60819306949E+03  0.50400001928E-02 0.  1.
        1   -1    0    0  501    0  0.00000000000E+00  0.00000000000E+00 -0.16143056645E+04  0.16143056645E+04  0.50400001928E-02 0. -1.
    10030    2    1    2    0    0  0.00000000000E+00  0.00000000000E+00 -0.10061125951E+04  0.22224987340E+04  0.19817260327E+04 0.  0.
        1    1    3    3  502    0 -0.25517752339E+03  0.84953078546E+03 -0.99828479638E+03  0.13354365049E+04  0.50400001928E-02 0. -1.
       -1    1    3    3    0  502  0.25517752339E+03 -0.84953078546E+03 -0.78277986800E+01  0.88706222913E+03  0.50400001928E-02 0.  1.
</event>
<event>
 5   0  0.1156733E-04  0.2032873E+04  0.7818609E-02  0.8591404E-01
        1   -1    0    0  501    0  0.00000000000E+00  0.00000000000E+00  0.13105407022E+04  0.13105407022E+04  0.50400001928E-02 0. -1.
       -1   -1    0    0    0  501  0.00000000000E+00  0.00000000000E+00 -0.78833321137E+03  0.78833321138E+03  0.50400001928E-02 0.  1.
    10030    2    1    2    0    0  0.00000000000E+00  0.00000000000E+00  0.52220749087E+03  0.20988739136E+04  0.20328726084E+04 0.  0.
        2    1    3    3  502    0 -0.23073595564E+03 -0.97863000653E+03  0.41489278161E+03  0.10877002304E+04  0.25500000920E-02 0. -1.
       -2    1    3    3    0  502  0.23073595564E+03  0.97863000653E+03  0.10731470925E+03  0.10111736833E+04  0.25500000920E-02 0.  1.
</event>
<event>
 5   0  0.1042395E-04  0.2085296E+04  0.7818609E-02  0.8567748E-01
        1   -1    0    0  501    0  0.00000000000E+00  0.00000000000E+00  0.14609878390E+04  0.14609878390E+04  0.50400001928E-02 0.  1.
       -1   -1    0    0    0  501  0.00000000000E+00  0.00000000000E+00 -0.74409577946E+03  0.74409577947E+03  0.50400001928E-02 0. -1.
    10030    2    1    2    0    0  0.00000000000E+00  0.00000000000E+00  0.71689205952E+03  0.22050836185E+04  0.20852960316E+04 0.  0.
        3    1    3    3  502    0 -0.62046865853E+03  0.80626351780E+03  0.11714330798E+03  0.10240921742E+04  0.10100000352E+00 0.  1.
       -3    1    3    3    0  502  0.62046865853E+03 -0.80626351780E+03  0.59974875154E+03  0.11809914443E+04  0.10100000352E+00 0. -1.
</event>
<event>
 5   0  0.2512839E-04  0.2078742E+04  0.7818609E-02  0.8570666E-01
        2   -1    0    0  501    0  0.00000000000E+00  0.00000000000E+00  0.95892709779E+03  0.95892709780E+03  0.25500000920E-02 0.  1.
       -2   -1    0    0    0  501  0.00000000000E+00  0.00000000000E+00 -0.11265635669E+04  0.11265635669E+04  0.25500000920E-02 0. -1.
    10030    2    1    2    0    0  0.00000000000E+00  0.00000000000E+00 -0.16763646914E+03  0.20854906647E+04  0.20787422464E+04 0.  0.
        3    1    3    3  502    0 -0.62365543803E+03 -0.11584713647E+03  0.74221713435E+03  0.97634673612E+03  0.10100000352E+00 0.  1.
       -3    1    3    3    0  502  0.62365543803E+03  0.11584713647E+03 -0.90985360349E+03  0.11091439286E+04  0.10100000352E+00 0. -1.
</event>
<event>
 5   0  0.1042395E-04  0.2198200E+04  0.7818609E-02  0.8519178E-01
       -1   -1    0    0    0  501  0.00000000000E+00  0.00000000000E+00  0.10658245199E+04  0.10658245200E+04  0.50400001928E-02 0.  1.
        1   -1    0    0  501    0  0.00000000000E+00  0.00000000000E+00 -0.11334139508E+04  0.11334139508E+04  0.50400001928E-02 0. -1.
    10030    2    1    2    0    0  0.00000000000E+00  0.00000000000E+00 -0.67589430812E+02  0.21992384707E+04  0.21981996088E+04 0.  0.
        3    1    3    3  502    0 -0.88484533898E+03  0.20035364129E+03 -0.65451319526E+03  0.11186958427E+04  0.10100000352E+00 0.  1.
       -3    1    3    3    0  502  0.88484533898E+03 -0.20035364129E+03  0.58692376445E+03  0.10805426280E+04  0.10100000352E+00 0. -1.
</event>
<event>
 5   0  0.2467483E-04  0.2093923E+04  0.7818609E-02  0.8563925E-01
       -2   -1    0    0    0  501  0.00000000000E+00  0.00000000000E+00  0.59359504600E+03  0.59359504600E+03  0.25500000920E-02 0.  1.
        2   -1    0    0  501    0  0.00000000000E+00  0.00000000000E+00 -0.18465937158E+04  0.18465937158E+04  0.25500000920E-02 0. -1.
    10030    2    1    2    0    0  0.00000000000E+00  0.00000000000E+00 -0.12529986698E+04  0.24401887618E+04  0.20939234768E+04 0.  0.
        4    1    3    3  502    0 -0.80591929994E+02 -0.81918145424E+03 -0.13804600491E+04  0.16072413864E+04  0.12699999809E+01 0. -1.
       -4    1    3    3    0  502  0.80591929994E+02  0.81918145424E+03  0.12746137924E+03  0.83294737543E+03  0.12699999809E+01 0.  1.
</event>
<event>
 5   0  0.2512839E-04  0.1917754E+04  0.7818609E-02  0.8646069E-01
        2   -1    0    0  501    0  0.00000000000E+00  0.00000000000E+00  0.21369922531E+04  0.21369922531E+04  0.25500000920E-02 0.  1.
       -2   -1    0    0    0  501  0.00000000000E+00  0.00000000000E+00 -0.43025185311E+03  0.43025185312E+03  0.25500000920E-02 0. -1.
    10030    2    1    2    0    0  0.00000000000E+00  0.00000000000E+00  0.17067404000E+04  0.25672441062E+04  0.19177537663E+04 0.  0.
        3    1    3    3  502    0  0.69521688853E+03  0.65064139192E+03  0.10047297422E+04  0.13842480298E+04  0.10100000352E+00 0. -1.
       -3    1    3    3    0  502 -0.69521688853E+03 -0.65064139192E+03  0.70201065780E+03  0.11829960764E+04  0.10100000352E+00 0.  1.
</event>
<event>
 5   0  0.2448804E-04  0.2085160E+04  0.7818609E-02  0.8567809E-01
        2   -1    0    0  501    0  0.00000000000E+00  0.00000000000E+00  0.25648697247E+04  0.25648697247E+04  0.25500000920E-02 0.  1.
       -2   -1    0    0    0  501  0.00000000000E+00  0.00000000000E+00 -0.42379260476E+03  0.42379260476E+03  0.25500000920E-02 0. -1.
    10030    2    1    2    0    0  0.00000000000E+00  0.00000000000E+00  0.21410771200E+04  0.29886623295E+04  0.20851597747E+04 0.  0.
        2    1    3    3  502    0 -0.67696620740E+03 -0.66031057381E+03  0.16996901392E+04  0.19450552355E+04  0.25500000920E-02 0.  1.
       -2    1    3    3    0  502  0.67696620740E+03  0.66031057381E+03  0.44138698079E+03  0.10436070940E+04  0.25500000920E-02 0. -1.
</event>
<event>
 5   0  0.1130848E-04  0.2138920E+04  0.7818609E-02  0.8544290E-01
        1   -1    0    0  501    0  0.00000000000E+00  0.00000000000E+00  0.69307545319E+03  0.69307545321E+03  0.50400001928E-02 0.  1.
       -1   -1    0    0    0  501  0.00000000000E+00  0.00000000000E+00 -0.16502459315E+04  0.16502459315E+04  0.50400001928E-02 0. -1.
    10030    2    1    2    0    0  0.00000000000E+00  0.00000000000E+00 -0.95717047832E+03  0.23433213847E+04  0.21389202387E+04 0.  0.
        5    1    3    3  502    0 -0.38881507318E+03 -0.46064680582E+03 -0.14463772741E+04  0.15669722237E+04  0.46999998093E+01 0. -1.
       -5    1    3    3    0  502  0.38881507318E+03  0.46064680582E+03  0.48920679576E+03  0.77634916104E+03  0.46999998093E+01 0.  1.
</event>
<event>
 5   0  0.1122711E-04  0.2107257E+04  0.7818609E-02  0.8558053E-01
        1   -1    0    0  501    0  0.00000000000E+00  0.00000000000E+00  0.12018685510E+04  0.12018685510E+04  0.50400001928E-02 0.  1.
       -1   -1    0    0    0  501  0.00000000000E+00  0.00000000000E+00 -0.92367293816E+03  0.92367293818E+03  0.50400001928E-02 0. -1.
    10030    2    1    2    0    0  0.00000000000E+00  0.00000000000E+00  0.27819561287E+03  0.21255414892E+04  0.21072574174E+04 0.  0.
        1    1    3    3  502    0 -0.68430182460E+03  0.66451839704E+03  0.59050714139E+03  0.11218522056E+04  0.50400001928E-02 0.  1.
       -1    1    3    3    0  502  0.68430182460E+03 -0.66451839704E+03 -0.31231152852E+03  0.10036892836E+04  0.50400001928E-02 0. -1.
</event>
<event>
 5   0  0.2467483E-04  0.2081752E+04  0.7818609E-02  0.8569324E-01
       -2   -1    0    0    0  501  0.00000000000E+00  0.00000000000E+00  0.50137977682E+03  0.50137977683E+03  0.25500000920E-02 0. -1.
        2   -1    0    0  501    0  0.00000000000E+00  0.00000000000E+00 -0.21608834783E+04  0.21608834783E+04  0.25500000920E-02 0.  1.
    10030    2    1    2    0    0  0.00000000000E+00  0.00000000000E+00 -0.16595037015E+04  0.26622632551E+04  0.20817524119E+04 0.  0.
        4    1    3    3  502    0 -0.27362889811E+03 -0.15835390601E+03  0.43849305557E+03  0.54057978700E+03  0.12699999809E+01 0. -1.
       -4    1    3    3    0  502  0.27362889811E+03  0.15835390601E+03 -0.20979967571E+04  0.21216834681E+04  0.12699999809E+01 0.  1.
</event>
<event>
 5   0  0.2467483E-04  0.2079766E+04  0.7818609E-02  0.8570209E-01
       -2   -1    0    0    0  501  0.00000000000E+00  0.00000000000E+00  0.60700937748E+03  0.60700937749E+03  0.25500000920E-02 0.  1.
        2   -1    0    0  501    0  0.00000000000E+00  0.00000000000E+00 -0.17814497872E+04  0.17814497872E+04  0.25500000920E-02 0. -1.
    10030    2    1    2    0    0  0.00000000000E+00  0.00000000000E+00 -0.11744404097E+04  0.23884591647E+04  0.20797660699E+04 0.  0.
        4    1    3    3  502    0  0.51043812177E+03  0.56793435313E+03  0.22342484866E+03  0.79562351745E+03  0.12699999809E+01 0.  1.
       -4    1    3    3    0  502 -0.51043812177E+03 -0.56793435313E+03 -0.13978652584E+04  0.15928356472E+04  0.12699999809E+01 0. -1.
</event>
<event>
 5   0  0.8698750E-05  0.1260080E+04  0.7818609E-02  0.9061835E-01
        4   -1    0    0  501    0  0.00000000000E+00  0.00000000000E+00  0.56322632588E+03  0.56322775772E+03  0.12699999809E+01 0. -1.
       -4   -1    0    0    0  501  0.00000000000E+00  0.00000000000E+00 -0.70477721797E+03  0.70477836223E+03  0.12699999809E+01 0.  1.
    10030    2    1    2    0    0  0.00000000000E+00  0.00000000000E+00 -0.14155089209E+03  0.12680061199E+04  0.12600804995E+04 0.  0.
        4    1    3    3  502    0  0.20930632051E+03  0.54612231023E+02 -0.66623841433E+03  0.70047617319E+03  0.12699999809E+01 0.  1.
       -4    1    3    3    0  502 -0.20930632051E+03 -0.54612231023E+02  0.52468752223E+03  0.56752994676E+03  0.12699999809E+01 0. -1.
</event>
<event>
 5   0  0.2512839E-04  0.2178194E+04  0.7818609E-02  0.8527560E-01
       -2   -1    0    0    0  501  0.00000000000E+00  0.00000000000E+00  0.72537644147E+03  0.72537644148E+03  0.25500000920E-02 0. -1.
        2   -1    0    0  501    0  0.00000000000E+00  0.00000000000E+00 -0.16351949438E+04  0.16351949439E+04  0.25500000920E-02 0.  1.
    10030    2    1    2    0    0  0.00000000000E+00  0.00000000000E+00 -0.90981850238E+03  0.23605713853E+04  0.21781936457E+04 0.  0.
        3    1    3    3  502    0 -0.44950961500E+03  0.98357679904E+03 -0.31507182864E+03  0.11263891339E+04  0.10100000352E+00 0. -1.
       -3    1    3    3    0  502  0.44950961500E+03 -0.98357679904E+03 -0.59474667373E+03  0.12341822514E+04  0.10100000352E+00 0.  1.
</event>
<event>
 5   0  0.2467483E-04  0.1830216E+04  0.7818609E-02  0.8690394E-01
        2   -1    0    0  501    0  0.00000000000E+00  0.00000000000E+00  0.71533072465E+03  0.71533072465E+03  0.25500000920E-02 0. -1.
       -2   -1    0    0    0  501  0.00000000000E+00  0.00000000000E+00 -0.11706787691E+04  0.11706787691E+04  0.25500000920E-02 0.  1.
    10030    2    1    2    0    0  0.00000000000E+00  0.00000000000E+00 -0.45534804449E+03  0.18860094938E+04  0.18302158258E+04 0.  0.
        4    1    3    3  502    0 -0.60454352306E+02 -0.15709844762E+03  0.69923897671E+03  0.71921583020E+03  0.12699999809E+01 0. -1.
       -4    1    3    3    0  502  0.60454352306E+02  0.15709844762E+03 -0.11545870212E+04  0.11667936636E+04  0.12699999809E+01 0.  1.
</event>
<event>
 5   0  0.1130848E-04  0.2112187E+04  0.7818609E-02  0.8555894E-01
        1   -1    0    0  501    0  0.00000000000E+00  0.00000000000E+00  0.18577711096E+04  0.18577711096E+04  0.50400001928E-02 0.  1.
       -1   -1    0    0    0  501  0.00000000000E+00  0.00000000000E+00 -0.60036116352E+03  0.60036116354E+03  0.50400001928E-02 0. -1.
    10030    2    1    2    0    0  0.00000000000E+00  0.00000000000E+00  0.12574099461E+04  0.24581322732E+04  0.21121871366E+04 0.  0.
        5    1    3    3  502    0 -0.38333230213E+03 -0.55783871844E+02  0.17720942619E+04  0.18139447779E+04  0.46999998093E+01 0.  1.
       -5    1    3    3    0  502  0.38333230213E+03  0.55783871844E+02 -0.51468431576E+03  0.64418749530E+03  0.46999998093E+01 0. -1.
</event>
<event>
 5   0  0.1156733E-04  0.2225109E+04  0.7818609E-02  0.8508049E-01
        1   -1    0    0  501    0  0.00000000000E+00  0.00000000000E+00  0.65146369932E+03  0.65146369934E+03  0.50400001928E-02 0.  1.
       -1   -1    0    0    0  501  0.00000000000E+00  0.00000000000E+00 -0.18999941389E+04  0.18999941389E+04  0.50400001928E-02 0. -1.
    10030    2    1    2    0    0  0.00000000000E+00  0.00000000000E+00 -0.12485304396E+04  0.25514578382E+04  0.22251087258E+04 0.  0.
        2    1    3    3  502    0  0.62310973408E+03 -0.77910271547E+03 -0.11889451714E+04  0.15520494202E+04  0.25500000920E-02 0. -1.
       -2    1    3    3    0  502 -0.62310973408E+03  0.77910271547E+03 -0.59585268157E+02  0.99940841809E+03  0.25500000920E-02 0.  1.
</event>
<event>
 5   0  0.2467483E-04  0.2094093E+04  0.7818609E-02  0.8563850E-01
        2   -1    0    0  501    0  0.00000000000E+00  0.00000000000E+00  0.10804904595E+04  0.10804904595E+04  0.25500000920E-02 0. -1.
       -2   -1    0    0    0  501  0.00000000000E+00  0.00000000000E+00 -0.10146378066E+04  0.10146378066E+04  0.25500000920E-02 0.  1.
    10030    2    1    2    0    0  0.00000000000E+00  0.00000000000E+00  0.65852652936E+02  0.20951282661E+04  0.20940930924E+04 0.  0.
        4    1    3    3  502    0  0.24732767682E+03 -0.63775363997E+03 -0.76018501756E+03  0.10226355944E+04  0.12699999809E+01 0.  1.
       -4    1    3    3    0  502 -0.24732767682E+03  0.63775363997E+03  0.82603767049E+03  0.10724926718E+04  0.12699999809E+01 0. -1.
</event>
<event>
 5   0  0.2512839E-04  0.2054904E+04  0.7818609E-02  0.8581373E-01
        2   -1    0    0  501    0  0.00000000000E+00  0.00000000000E+00  0.93973480064E+03  0.93973480064E+03  0.25500000920E-02 0.  1.
       -2   -1    0    0    0  501  0.00000000000E+00  0.00000000000E+00 -0.11233564767E+04  0.11233564767E+04  0.25500000920E-02 0. -1.
    10030    2    1    2    0    0  0.00000000000E+00  0.00000000000E+00 -0.18362167610E+03  0.20630912774E+04  0.20549035741E+04 0.  0.
        3    1    3    3  502    0 -0.58265776588E+03 -0.37477976094E+03  0.66996612428E+03  0.96374506963E+03  0.10100000352E+00 0.  1.
       -3    1    3    3    0  502  0.58265776588E+03  0.37477976094E+03 -0.85358780038E+03  0.10993462078E+04  0.10100000352E+00 0. -1.
</event>
<event>
 5   0  0.8698750E-05  0.1827491E+04  0.7818609E-02  0.8691815E-01
        3   -1    0    0  501    0  0.00000000000E+00  0.00000000000E+00  0.14200510422E+04  0.14200510458E+04  0.10100000352E+00 0. -1.
       -3   -1    0    0    0  501  0.00000000000E+00  0.00000000000E+00 -0.58795839788E+03  0.58795840655E+03  0.10100000352E+00 0.  1.
    10030    2    1    2    0    0  0.00000000000E+00  0.00000000000E+00  0.83209264437E+03  0.20080094524E+04  0.18274911196E+04 0.  0.
        4    1    3    3  502    0  0.21072973359E+03  0.53202047535E+03 -0.36669535353E+03  0.67964689509E+03  0.12699999809E+01 0.  1.
       -4    1    3    3    0  502 -0.21072973359E+03 -0.53202047535E+03  0.11987879979E+04  0.13283625573E+04  0.12699999809E+01 0. -1.
</event>
<event>
 5   0  0.2448804E-04  0.2124445E+04  0.7818609E-02  0.8550551E-01
        2   -1    0    0  501    0  0.00000000000E+00  0.00000000000E+00  0.12591257843E+04  0.12591257843E+04  0.25500000920E-02 0. -1.
       -2   -1    0    0    0  501  0.00000000000E+00  0.00000000000E+00 -0.89611149653E+03  0.89611149654E+03  0.25500000920E-02 0.  1.
    10030    2    1    2    0    0  0.00000000000E+00  0.00000000000E+00  0.36301428775E+03  0.21552372808E+04  0.21244454249E+04 0.  0.
        2    1    3    3  502    0  0.22852060685E+03  0.16658872350E+03  0.12202339516E+04  0.12525750945E+04  0.25500000920E-02 0. -1.
       -2    1    3    3    0  502 -0.22852060685E+03 -0.16658872350E+03 -0.85721966387E+03  0.90266218636E+03  0.25500000920E-02 0.  1.
</event>
<event>
 5   0  0.2467483E-04  0.2085156E+04  0.7818609E-02  0.8567811E-01
       -2   -1    0    0    0  501  0.00000000000E+00  0.00000000000E+00  0.66357426854E+03  0.66357426855E+03  0.25500000920E-02 0. -1.
        2   -1    0    0  501    0  0.00000000000E+00  0.00000000000E+00 -0.16380516001E+04  0.16380516001E+04  0.25500000920E-02 0.  1.
    10030    2    1    2    0    0  0.00000000000E+00  0.00000000000E+00 -0.97447733151E+03  0.23016258686E+04  0.20851560060E+04 0.  0.
        4    1    3    3  502    0 -0.10326546553E+04  0.33452036678E+02 -0.33320764657E+03  0.10855982795E+04  0.12699999809E+01 0.  1.
       -4    1    3    3    0  502  0.10326546553E+04 -0.33452036678E+02 -0.64126968494E+03  0.12160275891E+04  0.12699999809E+01 0. -1.
</event>
<event>
 5   0  0.1122711E-04  0.2105463E+04  0.7818609E-02  0.8558841E-01
       -1   -1    0    0    0  501  0.00000000000E+00  0.00000000000E+00  0.19226502356E+04  0.19226502356E+04  0.50400001928E-02 0.  1.
        1   -1    0    0  501    0  0.00000000000E+00  0.00000000000E+00 -0.57641433800E+03  0.57641433803E+03  0.50400001928E-02 0. -1.
    10030    2    1    2    0    0  0.00000000000E+00  0.00000000000E+00  0.13462358976E+04  0.24990645737E+04  0.21054625742E+04 0.  0.
        1    1    3    3  502    0  0.96980926377E+03  0.18949285976E+03  0.24219770085E+03  0.10173973060E+04  0.50400001928E-02 0. -1.
       -1    1    3    3    0  502 -0.96980926377E+03 -0.18949285976E+03  0.11040381968E+04  0.14816672676E+04  0.50400001928E-02 0.  1.
</event>
<event>
 5   0  0.2448804E-04  0.2054844E+04  0.7818609E-02  0.8581400E-01
        2   -1    0    0  501    0  0.00000000000E+00  0.00000000000E+00  0.94487945819E+03  0.94487945820E+03  0.25500000920E-02 0. -1.
       -2   -1    0    0    0  501  0.00000000000E+00  0.00000000000E+00 -0.11171748472E+04  0.11171748472E+04  0.25500000920E-02 0.  1.
    10030    2    1    2    0    0  0.00000000000E+00  0.00000000000E+00 -0.17229538899E+03  0.20620543054E+04  0.20548436090E+04 0.  0.
        2    1    3    3  502    0  0.42700275790E+03  0.61510212819E+03  0.61982192194E+03  0.97203971024E+03  0.25500000920E-02 0. -1.
       -2    1    3    3    0  502 -0.42700275790E+03 -0.61510212819E+03 -0.79211731093E+03  0.10900145951E+04  0.25500000920E-02 0.  1.
</event>
<event>
 5   0  0.1130848E-04  0.2065538E+04  0.7818609E-02  0.8576578E-01
        1   -1    0    0  501    0  0.00000000000E+00  0.00000000000E+00  0.19010551782E+04  0.19010551782E+04  0.50400001928E-02 0.  1.
       -1   -1    0    0    0  501  0.00000000000E+00  0.00000000000E+00 -0.56106327249E+03  0.56106327251E+03  0.50400001928E-02 0. -1.
    10030    2    1    2    0    0  0.00000000000E+00  0.00000000000E+00  0.13399919057E+04  0.24621184507E+04  0.20655384184E+04 0.  0.
        5    1    3    3  502    0  0.86891022535E+03 -0.23412145804E+03  0.12740137872E+04  0.15597919916E+04  0.46999998093E+01 0.  1.
       -5    1    3    3    0  502 -0.86891022535E+03  0.23412145804E+03  0.65978118497E+02  0.90232645919E+03  0.46999998093E+01 0. -1.
</event>
<event>
 5   0  0.1042395E-04  0.2087768E+04  0.7818609E-02  0.8566651E-01
       -1   -1    0    0    0  501  0.00000000000E+00  0.00000000000E+00  0.79631983818E+03  0.79631983819E+03  0.50400001928E-02 0. -1.
        1   -1    0    0  501    0  0.00000000000E+00  0.00000000000E+00 -0.13684122889E+04  0.13684122889E+04  0.50400001928E-02 0.  1.
    10030    2    1    2    0    0  0.00000000000E+00  0.00000000000E+00 -0.57209245073E+03  0.21647321271E+04  0.20877680451E+04 0.  0.
        3    1    3    3  502    0  0.66524057113E+03  0.76125771274E+03 -0.16390694827E+02  0.10111018681E+04  0.10100000352E+00 0. -1.
       -3    1    3    3    0  502 -0.66524057113E+03 -0.76125771274E+03 -0.55570175590E+03  0.11536302590E+04  0.10100000352E+00 0.  1.
</event>
<event>
 5   0  0.2579241E-04  0.2105250E+04  0.7818609E-02  0.8558934E-01
        2   -1    0    0  501    0  0.00000000000E+00  0.00000000000E+00  0.12486801525E+04  0.12486801525E+04  0.25500000920E-02 0. -1.
       -2   -1    0    0    0  501  0.00000000000E+00  0.00000000000E+00 -0.88735220566E+03  0.88735220566E+03  0.25500000920E-02 0.  1.
    10030    2    1    2    0    0  0.00000000000E+00  0.00000000000E+00  0.36132794686E+03  0.21360323582E+04  0.21052497120E+04 0.  0.
        5    1    3    3  502    0  0.57074032431E+03 -0.26449554962E+03  0.10369799204E+04  0.12128692670E+04  0.46999998093E+01 0. -1.
       -5    1    3    3    0  502 -0.57074032431E+03  0.26449554962E+03 -0.67565197354E+03  0.92316309117E+03  0.46999998093E+01 0.  1.
</event>
<event>
 5   0  0.1130848E-04  0.2085474E+04  0.7818609E-02  0.8567669E-01
        1   -1    0    0  501    0  0.00000000000E+00  0.00000000000E+00  0.20426937508E+04  0.20426937508E+04  0.50400001928E-02 0. -1.
       -1   -1    0    0    0  501  0.00000000000E+00  0.00000000000E+00 -0.53228741405E+03  0.53228741407E+03  0.50400001928E-02 0.  1.
    10030    2    1    2    0    0  0.00000000000E+00  0.00000000000E+00  0.15104063367E+04  0.25749811649E+04  0.20854737345E+04 0.  0.
        5    1    3    3  502    0  0.76172065190E+03 -0.67385958279E+03  0.10393851891E+04  0.14541831900E+04  0.46999998093E+01 0. -1.
       -5    1    3    3    0  502 -0.76172065190E+03  0.67385958279E+03  0.47102114760E+03  0.11207979748E+04  0.46999998093E+01 0.  1.
</event>
<event>
 5   0  0.2512839E-04  0.2178329E+04  0.7818609E-02  0.8527502E-01
        2   -1    0    0  501    0  0.00000000000E+00  0.00000000000E+00  0.77802388922E+03  0.77802388922E+03  0.25500000920E-02 0. -1.
       -2   -1    0    0    0  501  0.00000000000E+00  0.00000000000E+00 -0.15247339698E+04  0.15247339698E+04  0.25500000920E-02 0.  1.
    10030    2    1    2    0    0  0.00000000000E+00  0.00000000000E+00 -0.74671008061E+03  0.23027578590E+04  0.21783291333E+04 0.  0.
        3    1    3    3  502    0 -0.27786835634E+03 -0.71025687208E+03  0.44862298605E+03  0.88483797477E+03  0.10100000352E+00 0. -1.
       -3    1    3    3    0  502  0.27786835634E+03  0.71025687208E+03 -0.11953330667E+04  0.14179198843E+04  0.10100000352E+00 0.  1.
</event>
<event>
 5   0  0.1122711E-04  0.2124209E+04  0.7818609E-02  0.8550653E-01
        1   -1    0    0  501    0  0.00000000000E+00  0.00000000000E+00  0.10328318541E+04  0.10328318541E+04  0.50400001928E-02 0. -1.
       -1   -1    0    0    0  501  0.00000000000E+00  0.00000000000E+00 -0.10922067787E+04  0.10922067787E+04  0.50400001928E-02 0.  1.
    10030    2    1    2    0    0  0.00000000000E+00  0.00000000000E+00 -0.59374924640E+02  0.21250386328E+04  0.21242089843E+04 0.  0.
        1    1    3    3  502    0  0.88718129314E+03  0.32129949892E+03  0.45809085054E+03  0.10488904815E+04  0.50400001928E-02 0. -1.
       -1    1    3    3    0  502 -0.88718129314E+03 -0.32129949892E+03 -0.51746577518E+03  0.10761481512E+04  0.50400001928E-02 0.  1.
</event>
<event>
 5   0  0.1130848E-04  0.2116004E+04  0.7818609E-02  0.8554226E-01
        1   -1    0    0  501    0  0.00000000000E+00  0.00000000000E+00  0.14042522861E+04  0.14042522861E+04  0.50400001928E-02 0.  1.
       -1   -1    0    0    0  501  0.00000000000E+00  0.00000000000E+00 -0.79712758933E+03  0.79712758935E+03  0.50400001928E-02 0. -1.
    10030    2    1    2    0    0  0.00000000000E+00  0.00000000000E+00  0.60712469675E+03  0.22013798754E+04  0.21160040072E+04 0.  0.
        5    1    3    3  502    0  0.29828112179E+03  0.10109269123E+04  0.20820552980E+03  0.10743912147E+04  0.46999998093E+01 0. -1.
       -5    1    3    3    0  502 -0.29828112179E+03 -0.10109269123E+04  0.39891916695E+03  0.11269886607E+04  0.46999998093E+01 0.  1.
</event>
<event>
 5   0  0.2512839E-04  0.1991589E+04  0.7818609E-02  0.8610563E-01
       -2   -1    0    0    0  501  0.00000000000E+00  0.00000000000E+00  0.33430994251E+03  0.33430994252E+03  0.25500000920E-02 0.  1.
        2   -1    0    0  501    0  0.00000000000E+00  0.00000000000E+00 -0.29661308709E+04  0.29661308709E+04  0.25500000920E-02 0. -1.
    10030    2    1    2    0    0  0.00000000000E+00  0.00000000000E+00 -0.26318209284E+04  0.33004408134E+04  0.19915893562E+04 0.  0.
        3    1    3    3  502    0  0.80595174835E+02  0.47440596798E+02  0.32701616154E+03  0.34012611270E+03  0.10100000352E+00 0.  1.
       -3    1    3    3    0  502 -0.80595174835E+02 -0.47440596798E+02 -0.29588370899E+04  0.29603147007E+04  0.10100000352E+00 0. -1.
</event>
<event>
 5   0  0.2579241E-04  0.2187192E+04  0.7818609E-02  0.8523778E-01
        2   -1    0    0  501    0  0.00000000000E+00  0.00000000000E+00  0.15557055836E+04  0.15557055836E+04  0.25500000920E-02 0. -1.
       -2   -1    0    0    0  501  0.00000000000E+00  0.00000000000E+00 -0.76875255610E+03  0.76875255610E+03  0.25500000920E-02 0.  1.
    10030    2    1    2    0    0  0.00000000000E+00  0.00000000000E+00  0.78695302747E+03  0.23244581397E+04  0.21871923957E+04 0.  0.
        5    1    3    3  502    0  0.26449060230E+03  0.85770686136E+03 -0.27048350192E+03  0.93744320016E+03  0.46999998093E+01 0.  1.
       -5    1    3    3    0  502 -0.26449060230E+03 -0.85770686136E+03  0.10574365294E+04  0.13870149395E+04  0.46999998093E+01 0. -1.
</event>
<event>
 5   0  0.2579241E-04  0.2099234E+04  0.7818609E-02  0.8561581E-01
        2   -1    0    0  501    0  0.00000000000E+00  0.00000000000E+00  0.14822745656E+04  0.14822745656E+04  0.25500000920E-02 0. -1.
       -2   -1    0    0    0  501  0.00000000000E+00  0.00000000000E+00 -0.74324689214E+03  0.74324689214E+03  0.25500000920E-02 0.  1.
    10030    2    1    2    0    0  0.00000000000E+00  0.00000000000E+00  0.73902767346E+03  0.22255214577E+04  0.20992341119E+04 0.  0.
        5    1    3    3  502    0  0.24506907875E+03  0.99325878463E+03  0.12076704297E+03  0.10301595193E+04  0.46999998093E+01 0.  1.
       -5    1    3    3    0  502 -0.24506907875E+03 -0.99325878463E+03  0.61826063049E+03  0.11953619384E+04  0.46999998093E+01 0. -1.
</event>
<event>
 5   0  0.1186038E-04  0.2107303E+04  0.7818609E-02  0.8558033E-01
       -1   -1    0    0    0  501  0.00000000000E+00  0.00000000000E+00  0.10725092000E+04  0.10725092000E+04  0.50400001928E-02 0. -1.
        1   -1    0    0  501    0  0.00000000000E+00  0.00000000000E+00 -0.10351252437E+04  0.10351252438E+04  0.50400001928E-02 0.  1.
    10030    2    1    2    0    0  0.00000000000E+00  0.00000000000E+00  0.37383956240E+02  0.21076344438E+04  0.21073028706E+04 0.  0.
        4    1    3    3  502    0  0.50675525914E+03 -0.21595647218E+02  0.94236989458E+03  0.10702008670E+04  0.12699999809E+01 0. -1.
       -4    1    3    3    0  502 -0.50675525914E+03  0.21595647218E+02 -0.90498593834E+03  0.10374335767E+04  0.12699999809E+01 0.  1.
</event>
<event>
 5   0  0.1130848E-04  0.1944640E+04  0.7818609E-02  0.8632950E-01
       -1   -1    0    0    0  501  0.00000000000E+00  0.00000000000E+00  0.85566292554E+03  0.85566292556E+03  0.50400001928E-02 0. -1.
        1   -1    0    0  501    0  0.00000000000E+00  0.00000000000E+00 -0.11048816337E+04  0.11048816337E+04  0.50400001928E-02 0.  1.
    10030    2    1    2    0    0  0.00000000000E+00  0.00000000000E+00 -0.24921870815E+03  0.19605445593E+04  0.19446400706E+04 0.  0.
        5    1    3    3  502    0  0.49540401237E+03  0.83215539705E+03 -0.21178282839E+03  0.99135351752E+03  0.46999998093E+01 0.  1.
       -5    1    3    3    0  502 -0.49540401237E+03 -0.83215539705E+03 -0.37435879766E+02  0.96919104174E+03  0.46999998093E+01 0. -1.
</event>
<event>
 5   0  0.1186038E-04  0.2072700E+04  0.7818609E-02  0.8573366E-01
       -1   -1    0    0    0  501  0.00000000000E+00  0.00000000000E+00  0.11629879934E+04  0.11629879934E+04  0.50400001928E-02 0.  1.
        1   -1    0    0  501    0  0.00000000000E+00  0.00000000000E+00 -0.92350142847E+03  0.92350142848E+03  0.50400001928E-02 0. -1.
    10030    2    1    2    0    0  0.00000000000E+00  0.00000000000E+00  0.23948656489E+03  0.20864894218E+04  0.20726997594E+04 0.  0.
        4    1    3    3  502    0 -0.83063868335E+03 -0.36717493915E+03 -0.38281899029E+03  0.98556077968E+03  0.12699999809E+01 0. -1.
       -4    1    3    3    0  502  0.83063868335E+03  0.36717493915E+03  0.62230555518E+03  0.11009286422E+04  0.12699999809E+01 0.  1.
</event>
<event>
 5   0  0.1042395E-04  0.2110030E+04  0.7818609E-02  0.8556838E-01
        1   -1    0    0  501    0  0.00000000000E+00  0.00000000000E+00  0.18346561221E+04  0.18346561221E+04  0.50400001928E-02 0.  1.
       -1   -1    0    0    0  501  0.00000000000E+00  0.00000000000E+00 -0.60668402208E+03  0.60668402210E+03  0.50400001928E-02 0. -1.
    10030    2    1    2    0    0  0.00000000000E+00  0.00000000000E+00  0.12279721000E+04  0.24413401442E+04  0.21100299100E+04 0.  0.
        3    1    3    3  502    0 -0.20399956680E+03 -0.62994406197E+03  0.15642985783E+04  0.16986687131E+04  0.10100000352E+00 0.  1.
       -3    1    3    3    0  502  0.20399956680E+03  0.62994406197E+03 -0.33632647826E+03  0.74267143115E+03  0.10100000352E+00 0. -1.
</event>
<event>
 5   0  0.1122711E-04  0.1115706E+04  0.7818609E-02  0.9190017E-01
       -1   -1    0    0    0  501  0.00000000000E+00  0.00000000000E+00  0.31672327476E+03  0.31672327480E+03  0.50400001928E-02 0. -1.
        1   -1    0    0  501    0  0.00000000000E+00  0.00000000000E+00 -0.98256170050E+03  0.98256170051E+03  0.50400001928E-02 0.  1.
    10030    2    1    2    0    0  0.00000000000E+00  0.00000000000E+00 -0.66583842574E+03  0.12992849753E+04  0.11157063403E+04 0.  0.
        1    1    3    3  502    0 -0.33659050696E+03 -0.22584087722E+03  0.11342476803E+03  0.42090669895E+03  0.50400001928E-02 0. -1.
       -1    1    3    3    0  502  0.33659050696E+03  0.22584087722E+03 -0.77926319377E+03  0.87837827636E+03  0.50400001928E-02 0.  1.
</event>
<event>
 5   0  0.2512839E-04  0.2070664E+04  0.7818609E-02  0.8574277E-01
        2   -1    0    0  501    0  0.00000000000E+00  0.00000000000E+00  0.91363770008E+03  0.91363770008E+03  0.25500000920E-02 0. -1.
       -2   -1    0    0    0  501  0.00000000000E+00  0.00000000000E+00 -0.11732359766E+04  0.11732359766E+04  0.25500000920E-02 0.  1.
    10030    2    1    2    0    0  0.00000000000E+00  0.00000000000E+00 -0.25959827656E+03  0.20868736767E+04  0.20706642600E+04 0.  0.
        3    1    3    3  502    0 -0.58787891655E+03  0.44284896169E+03  0.60404631733E+03  0.95214956129E+03  0.10100000352E+00 0. -1.
       -3    1    3    3    0  502  0.58787891655E+03 -0.44284896169E+03 -0.86364459390E+03  0.11347241154E+04  0.10100000352E+00 0.  1.
</event>
<event>
 5   0  0.2579241E-04  0.2002533E+04  0.7818609E-02  0.8605438E-01
       -2   -1    0    0    0  501  0.00000000000E+00  0.00000000000E+00  0.14333195076E+04  0.14333195076E+04  0.25500000920E-02 0. -1.
        2   -1    0    0  501    0  0.00000000000E+00  0.00000000000E+00 -0.69944915015E+03  0.69944915016E+03  0.25500000920E-02 0.  1.
    10030    2    1    2    0    0  0.00000000000E+00  0.00000000000E+00  0.73387035747E+03  0.21327686578E+04  0.20025325081E+04 0.  0.
        5    1    3    3  502    0 -0.61297106946E+03  0.60944889401E+03  0.90512138319E+03  0.12515703315E+04  0.46999998093E+01 0. -1.
       -5    1    3    3    0  502  0.61297106946E+03 -0.60944889401E+03 -0.17125102572E+03  0.88119832627E+03  0.46999998093E+01 0.  1.
</event>
<event>
 5   0  0.2579241E-04  0.1810469E+04  0.7818609E-02  0.8700752E-01
       -2   -1    0    0    0  501  0.00000000000E+00  0.00000000000E+00  0.59486727511E+03  0.59486727511E+03  0.25500000920E-02 0.  1.
        2   -1    0    0  501    0  0.00000000000E+00  0.00000000000E+00 -0.13775339235E+04  0.13775339235E+04  0.25500000920E-02 0. -1.
    10030    2    1    2    0    0  0.00000000000E+00  0.00000000000E+00 -0.78266664839E+03  0.19724011986E+04  0.18104693882E+04 0.  0.
        5    1    3    3  502    0 -0.58074328518E+03  0.46464524020E+03 -0.95349990807E+03  0.12092733881E+04  0.46999998093E+01 0. -1.
       -5    1    3    3    0  502  0.58074328518E+03 -0.46464524020E+03  0.17083325968E+03  0.76312781049E+03  0.46999998093E+01 0.  1.
</event>
<event>
 5   0  0.1122711E-04  0.2254947E+04  0.7818609E-02  0.8495900E-01
       -1   -1    0    0    0  501  0.00000000000E+00  0.00000000000E+00  0.90770442198E+03  0.90770442199E+03  0.50400001928E-02 0. -1.
        1   -1    0    0  501    0  0.00000000000E+00  0.00000000000E+00 -0.14004522307E+04  0.14004522308E+04  0.50400001928E-02 0.  1.
    10030    2    1    2    0    0  0.00000000000E+00  0.00000000000E+00 -0.49274780877E+03  0.23081566527E+04  0.22549471680E+04 0.  0.
        1    1    3    3  502    0  0.62662350705E+03 -0.37793839518E+03  0.63159664172E+03  0.96664821315E+03  0.50400001928E-02 0. -1.
       -1    1    3    3    0  502 -0.62662350705E+03  0.37793839518E+03 -0.11243444505E+04  0.13415084396E+04  0.50400001928E-02 0.  1.
</event>
<event>
 5   0  0.2430898E-04  0.2088782E+04  0.7818609E-02  0.8566201E-01
        2   -1    0    0  501    0  0.00000000000E+00  0.00000000000E+00  0.27857149898E+04  0.27857149898E+04  0.25500000920E-02 0. -1.
       -2   -1    0    0    0  501  0.00000000000E+00  0.00000000000E+00 -0.39155203833E+03  0.39155203834E+03  0.25500000920E-02 0.  1.
    10030    2    1    2    0    0  0.00000000000E+00  0.00000000000E+00  0.23941629515E+04  0.31772670282E+04  0.20887818292E+04 0.  0.
        1    1    3    3  502    0  0.59589567907E+03  0.37413898023E+03  0.23710796360E+04  0.24732752126E+04  0.50400001928E-02 0. -1.
       -1    1    3    3    0  502 -0.59589567907E+03 -0.37413898023E+03  0.23083315438E+02  0.70399181553E+03  0.50400001928E-02 0.  1.
</event>
<event>
 5   0  0.2430898E-04  0.1343621E+04  0.7818609E-02  0.8995671E-01
        2   -1    0    0  501    0  0.00000000000E+00  0.00000000000E+00  0.15780235406E+04  0.15780235406E+04  0.25500000920E-02 0.  1.
       -2   -1    0    0    0  501  0.00000000000E+00  0.00000000000E+00 -0.28600911208E+03  0.28600911209E+03  0.25500000920E-02 0. -1.
    10030    2    1    2    0    0  0.00000000000E+00  0.00000000000E+00  0.12920144285E+04  0.18640326527E+04  0.13436206484E+04 0.  0.
        1    1    3    3  502    0  0.53847098158E+03  0.23339668980E+03  0.10996082368E+04  0.12464201889E+04  0.50400001928E-02 0.  1.
       -1    1    3    3    0  502 -0.53847098158E+03 -0.23339668980E+03  0.19240619174E+03  0.61761246382E+03  0.50400001928E-02 0. -1.
</event>
<event>
 5   0  0.1042395E-04  0.2126893E+04  0.7818609E-02  0.8549488E-01
       -1   -1    0    0    0  501  0.00000000000E+00  0.00000000000E+00  0.91337523880E+03  0.91337523882E+03  0.50400001928E-02 0. -1.
        1   -1    0    0  501    0  0.00000000000E+00  0.00000000000E+00 -0.12381752057E+04  0.12381752057E+04  0.50400001928E-02 0.  1.
    10030    2    1    2    0    0  0.00000000000E+00  0.00000000000E+00 -0.32479996689E+03  0.21515504445E+04  0.21268931089E+04 0.  0.
        3    1    3    3  502    0 -0.64647782300E+03 -0.50490236274E+03  0.52224650631E+03  0.97242037982E+03  0.10100000352E+00 0. -1.
       -3    1    3    3    0  502  0.64647782300E+03  0.50490236274E+03 -0.84704647320E+03  0.11791300647E+04  0.10100000352E+00 0.  1.
</event>
<event>
 5   0  0.2467483E-04  0.2257134E+04  0.7818609E-02  0.8495017E-01
       -2   -1    0    0    0  501  0.00000000000E+00  0.00000000000E+00  0.12226719215E+04  0.12226719215E+04  0.25500000920E-02 0.  1.
        2   -1    0    0  501    0  0.00000000000E+00  0.00000000000E+00 -0.10417049596E+04  0.10417049596E+04  0.25500000920E-02 0. -1.
    10030    2    1    2    0    0  0.00000000000E+00  0.00000000000E+00  0.18096696192E+03  0.22643768812E+04  0.22571339390E+04 0.  0.
        4    1    3    3  502    0  0.69003778305E+03 -0.59314802654E+03 -0.57925526298E+03  0.10786635231E+04  0.12699999809E+01 0. -1.
       -4    1    3    3    0  502 -0.69003778305E+03  0.59314802654E+03  0.76022222489E+03  0.11857133581E+04  0.12699999809E+01 0.  1.
</event>
<event>
 5   0  0.1156733E-04  0.2117384E+04  0.7818609E-02  0.8553624E-01
        1   -1    0    0  501    0  0.00000000000E+00  0.00000000000E+00  0.11743505063E+04  0.11743505064E+04  0.50400001928E-02 0. -1.
       -1   -1    0    0    0  501  0.00000000000E+00  0.00000000000E+00 -0.95442393006E+03  0.95442393008E+03  0.50400001928E-02 0.  1.
    10030    2    1    2    0    0  0.00000000000E+00  0.00000000000E+00  0.21992657628E+03  0.21287744364E+04  0.21173835038E+04 0.  0.
        2    1    3    3  502    0  0.59910403262E+03  0.85175847673E+03 -0.81877497127E+02  0.10445678863E+04  0.25500000920E-02 0.  1.
       -2    1    3    3    0  502 -0.59910403262E+03 -0.85175847673E+03  0.30180407341E+03  0.10842065501E+04  0.25500000920E-02 0. -1.
</event>
<event>
 5   0  0.2448804E-04  0.2129896E+04  0.7818609E-02  0.8548187E-01
        2   -1    0    0  501    0  0.00000000000E+00  0.00000000000E+00  0.11450971674E+04  0.11450971674E+04  0.25500000920E-02 0.  1.
       -2   -1    0    0    0  501  0.00000000000E+00  0.00000000000E+00 -0.99040912527E+03  0.99040912527E+03  0.25500000920E-02 0. -1.
    10030    2    1    2    0    0  0.00000000000E+00  0.00000000000E+00  0.15468804215E+03  0.21355062927E+04  0.21298964143E+04 0.  0.
        2    1    3    3  502    0  0.82171121496E+03  0.21548647852E+03  0.72127460349E+03  0.11143970553E+04  0.25500000920E-02 0.  1.
       -2    1    3    3    0  502 -0.82171121496E+03 -0.21548647852E+03 -0.56658656133E+03  0.10211092374E+04  0.25500000920E-02 0. -1.
</event>
<event>
 5   0  0.1122711E-04  0.1457330E+04  0.7818609E-02  0.8913335E-01
        1   -1    0    0  501    0  0.00000000000E+00  0.00000000000E+00  0.80282619081E+03  0.80282619082E+03  0.50400001928E-02 0.  1.
       -1   -1    0    0    0  501  0.00000000000E+00  0.00000000000E+00 -0.66135446330E+03  0.66135446331E+03  0.50400001928E-02 0. -1.
    10030    2    1    2    0    0  0.00000000000E+00  0.00000000000E+00  0.14147172751E+03  0.14641806541E+04  0.14573300032E+04 0.  0.
        1    1    3    3  502    0  0.92811804688E+02 -0.59063360065E+03  0.48921589236E+03  0.77252460846E+03  0.50400001928E-02 0.  1.
       -1    1    3    3    0  502 -0.92811804688E+02  0.59063360065E+03 -0.34774416485E+03  0.69165604568E+03  0.50400001928E-02 0. -1.
</event>
<event>
 5   0  0.2448804E-04  0.1097315E+04  0.7818609E-02  0.9207812E-01
       -2   -1    0    0    0  501  0.00000000000E+00  0.00000000000E+00  0.41712212909E+03  0.41712212910E+03  0.25500000920E-02 0.  1.
        2   -1    0    0  501    0  0.00000000000E+00  0.00000000000E+00 -0.72167171291E+03  0.72167171292E+03  0.25500000920E-02 0. -1.
    10030    2    1    2    0    0  0.00000000000E+00  0.00000000000E+00 -0.30454958382E+03  0.11387938420E+04  0.10973153447E+04 0.  0.
        2    1    3    3  502    0 -0.51919399070E+03  0.16117798307E+03 -0.22913156495E+03  0.58995085920E+03  0.25500000920E-02 0.  1.
       -2    1    3    3    0  502  0.51919399070E+03 -0.16117798307E+03 -0.75418018876E+02  0.54884298282E+03  0.25500000920E-02 0. -1.
</event>
<event>
 5   0  0.2579241E-04  0.2163942E+04  0.7818609E-02  0.8533588E-01
       -2   -1    0    0    0  501  0.00000000000E+00  0.00000000000E+00  0.59615857138E+03  0.59615857138E+03  0.25500000920E-02 0. -1.
        2   -1    0    0  501    0  0.00000000000E+00  0.00000000000E+00 -0.19636747759E+04  0.19636747759E+04  0.25500000920E-02 0.  1.
    10030    2    1    2    0    0  0.00000000000E+00  0.00000000000E+00 -0.13675162045E+04  0.25598333472E+04  0.21639422811E+04 0.  0.
        5    1    3    3  502    0 -0.10872879295E+03  0.10720938873E+04 -0.79864556738E+03  0.13412919465E+04  0.46999998093E+01 0. -1.
       -5    1    3    3    0  502  0.10872879295E+03 -0.10720938873E+04 -0.56887063709E+03  0.12185414007E+04  0.46999998093E+01 0.  1.
</event>
<event>
 5   0  0.2579241E-04  0.2067056E+04  0.7818609E-02  0.8575896E-01
        2   -1    0    0  501    0  0.00000000000E+00  0.00000000000E+00  0.14200159146E+04  0.14200159146E+04  0.25500000920E-02 0. -1.
       -2   -1    0    0    0  501  0.00000000000E+00  0.00000000000E+00 -0.75223099231E+03  0.75223099232E+03  0.25500000920E-02 0.  1.
    10030    2    1    2    0    0  0.00000000000E+00  0.00000000000E+00  0.66778492224E+03  0.21722469069E+04  0.20670558585E+04 0.  0.
        5    1    3    3  502    0 -0.84952279391E+03 -0.14358669783E+03 -0.26599118034E+03  0.90170921875E+03  0.46999998093E+01 0.  1.
       -5    1    3    3    0  502  0.84952279391E+03  0.14358669783E+03  0.93377610259E+03  0.12705376881E+04  0.46999998093E+01 0. -1.
</event>
<event>
 5   0  0.8698750E-05  0.1998634E+04  0.7818609E-02  0.8607260E-01
        4   -1    0    0  501    0  0.00000000000E+00  0.00000000000E+00  0.86414145528E+03  0.86414238851E+03  0.12699999809E+01 0. -1.
       -4   -1    0    0    0  501  0.00000000000E+00  0.00000000000E+00 -0.11556358501E+04  0.11556365480E+04  0.12699999809E+01 0.  1.
    10030    2    1    2    0    0  0.00000000000E+00  0.00000000000E+00 -0.29149439484E+03  0.20197789365E+04  0.19986340260E+04 0.  0.
        3    1    3    3  502    0 -0.68847883132E+03 -0.11784675236E+03 -0.86797133060E+03  0.11141208189E+04  0.10100000352E+00 0.  1.
       -3    1    3    3    0  502  0.68847883132E+03  0.11784675236E+03  0.57647693575E+03  0.90565811755E+03  0.10100000352E+00 0. -1.
</event>
<event>
 5   0  0.1042395E-04  0.1984303E+04  0.7818609E-02  0.8613995E-01
       -1   -1    0    0    0  501  0.00000000000E+00  0.00000000000E+00  0.74393291161E+03  0.74393291163E+03  0.50400001928E-02 0. -1.
        1   -1    0    0  501    0  0.00000000000E+00  0.00000000000E+00 -0.13231903525E+04  0.13231903525E+04  0.50400001928E-02 0.  1.
    10030    2    1    2    0    0  0.00000000000E+00  0.00000000000E+00 -0.57925744084E+03  0.20671232641E+04  0.19843032546E+04 0.  0.
        3    1    3    3  502    0  0.79089379676E+03  0.47500208039E+03  0.90605305614E+02  0.92701095233E+03  0.10100000352E+00 0. -1.
       -3    1    3    3    0  502 -0.79089379676E+03 -0.47500208039E+03 -0.66986274646E+03  0.11401123118E+04  0.10100000352E+00 0.  1.
</event>
<event>
 5   0  0.1042395E-04  0.2150428E+04  0.7818609E-02  0.8539349E-01
        1   -1    0    0  501    0  0.00000000000E+00  0.00000000000E+00  0.22907843694E+04  0.22907843695E+04  0.50400001928E-02 0.  1.
       -1   -1    0    0    0  501  0.00000000000E+00  0.00000000000E+00 -0.50466767130E+03  0.50466767133E+03  0.50400001928E-02 0. -1.
    10030    2    1    2    0    0  0.00000000000E+00  0.00000000000E+00  0.17861166981E+04  0.27954520408E+04  0.21504276907E+04 0.  0.
        3    1    3    3  502    0 -0.69777973175E+03  0.53554346486E+03  0.89207253855E+02  0.88411611293E+03  0.10100000352E+00 0. -1.
       -3    1    3    3    0  502  0.69777973175E+03 -0.53554346486E+03  0.16969094443E+04  0.19113359279E+04  0.10100000352E+00 0.  1.
</event>
<event>
 5   0  0.1042395E-04  0.1631955E+04  0.7818609E-02  0.8801154E-01
       -1   -1    0    0    0  501  0.00000000000E+00  0.00000000000E+00  0.66727777293E+03  0.66727777295E+03  0.50400001928E-02 0. -1.
        1   -1    0    0  501    0  0.00000000000E+00  0.00000000000E+00 -0.99781432477E+03  0.99781432479E+03  0.50400001928E-02 0.  1.
    10030    2    1    2    0    0  0.00000000000E+00  0.00000000000E+00 -0.33053655185E+03  0.16650920977E+04  0.16319550490E+04 0.  0.
        3    1    3    3  502    0 -0.16402001872E+03  0.65911795927E+03 -0.62664508519E+03  0.92413371531E+03  0.10100000352E+00 0.  1.
       -3    1    3    3    0  502  0.16402001872E+03 -0.65911795927E+03  0.29610853334E+03  0.74095838243E+03  0.10100000352E+00 0. -1.
</event>
<event>
 5   0  0.2430898E-04  0.1241885E+04  0.7818609E-02  0.9076965E-01
       -2   -1    0    0    0  501  0.00000000000E+00  0.00000000000E+00  0.51133589745E+03  0.51133589746E+03  0.25500000920E-02 0.  1.
        2   -1    0    0  501    0  0.00000000000E+00  0.00000000000E+00 -0.75404350915E+03  0.75404350916E+03  0.25500000920E-02 0. -1.
    10030    2    1    2    0    0  0.00000000000E+00  0.00000000000E+00 -0.24270761170E+03  0.12653794066E+04  0.12418848811E+04 0.  0.
        1    1    3    3  502    0  0.30822729730E+03 -0.40806864105E+03 -0.48021773678E+03  0.70152202913E+03  0.50400001928E-02 0. -1.
       -1    1    3    3    0  502 -0.30822729730E+03  0.40806864105E+03  0.23751012508E+03  0.56385737749E+03  0.50400001928E-02 0.  1.
</event>
<event>
 5   0  0.1130848E-04  0.1689879E+04  0.7818609E-02  0.8767158E-01
        1   -1    0    0  501    0  0.00000000000E+00  0.00000000000E+00  0.14293248857E+04  0.14293248857E+04  0.50400001928E-02 0.  1.
       -1   -1    0    0    0  501  0.00000000000E+00  0.00000000000E+00 -0.49948271099E+03  0.49948271101E+03  0.50400001928E-02 0. -1.
    10030    2    1    2    0    0  0.00000000000E+00  0.00000000000E+00  0.92984217468E+03  0.19288075967E+04  0.16898793671E+04 0.  0.
        5    1    3    3  502    0 -0.28071198235E+03  0.74408232429E+03  0.13918882952E+03  0.80737435098E+03  0.46999998093E+01 0. -1.
       -5    1    3    3    0  502  0.28071198235E+03 -0.74408232429E+03  0.79065334516E+03  0.11214332457E+04  0.46999998093E+01 0.  1.
</event>
<event>
 5   0  0.2430898E-04  0.2011270E+04  0.7818609E-02  0.8601370E-01
        2   -1    0    0  501    0  0.00000000000E+00  0.00000000000E+00  0.14753367460E+04  0.14753367460E+04  0.25500000920E-02 0. -1.
       -2   -1    0    0    0  501  0.00000000000E+00  0.00000000000E+00 -0.68547192737E+03  0.68547192738E+03  0.25500000920E-02 0.  1.
    10030    2    1    2    0    0  0.00000000000E+00  0.00000000000E+00  0.78986481864E+03  0.21608086734E+04  0.20112701686E+04 0.  0.
        1    1    3    3  502    0 -0.30027991884E+03  0.83787843440E+03 -0.10794342962E+03  0.89658244714E+03  0.50400001928E-02 0.  1.
       -1    1    3    3    0  502  0.30027991884E+03 -0.83787843440E+03  0.89780824826E+03  0.12642262263E+04  0.50400001928E-02 0. -1.
</event>
<event>
 5   0  0.2512839E-04  0.2211722E+04  0.7818609E-02  0.8513565E-01
       -2   -1    0    0    0  501  0.00000000000E+00  0.00000000000E+00  0.11543122229E+04  0.11543122229E+04  0.25500000920E-02 0. -1.
        2   -1    0    0  501    0  0.00000000000E+00  0.00000000000E+00 -0.10594438681E+04  0.10594438681E+04  0.25500000920E-02 0.  1.
    10030    2    1    2    0    0  0.00000000000E+00  0.00000000000E+00  0.94868354858E+02  0.22137560910E+04  0.22117224116E+04 0.  0.
        3    1    3    3  502    0 -0.83136083752E+03  0.30688378899E+03  0.70954866399E+03  0.11352523151E+04  0.10100000352E+00 0. -1.
       -3    1    3    3    0  502  0.83136083752E+03 -0.30688378899E+03 -0.61468030913E+03  0.10785037760E+04  0.10100000352E+00 0.  1.
</event>
<event>
 5   0  0.2448804E-04  0.2318149E+04  0.7818609E-02  0.8470799E-01
       -2   -1    0    0    0  501  0.00000000000E+00  0.00000000000E+00  0.54319882902E+03  0.54319882902E+03  0.25500000920E-02 0. -1.
        2   -1    0    0  501    0  0.00000000000E+00  0.00000000000E+00 -0.24732271683E+04  0.24732271683E+04  0.25500000920E-02 0.  1.
    10030    2    1    2    0    0  0.00000000000E+00  0.00000000000E+00 -0.19300283392E+04  0.30164259973E+04  0.23181493496E+04 0.  0.
        2    1    3    3  502    0  0.77525720699E+03 -0.27357228853E+03 -0.20281915008E+04  0.21884757933E+04  0.25500000920E-02 0.  1.
       -2    1    3    3    0  502 -0.77525720699E+03  0.27357228853E+03  0.98163161502E+02  0.82795020401E+03  0.25500000920E-02 0. -1.
</event>
<event>
 5   0  0.1156733E-04  0.2111311E+04  0.7818609E-02  0.8556277E-01
       -1   -1    0    0    0  501  0.00000000000E+00  0.00000000000E+00  0.57485163728E+03  0.57485163730E+03  0.50400001928E-02 0. -1.
        1   -1    0    0  501    0  0.00000000000E+00  0.00000000000E+00 -0.19386014267E+04  0.19386014267E+04  0.50400001928E-02 0.  1.
    10030    2    1    2    0    0  0.00000000000E+00  0.00000000000E+00 -0.13637497894E+04  0.25134530640E+04  0.21113106870E+04 0.  0.
        2    1    3    3  502    0  0.49750127115E+03  0.43734306996E+03  0.29665399443E+03  0.72579616151E+03  0.25500000920E-02 0. -1.
       -2    1    3    3    0  502 -0.49750127115E+03 -0.43734306996E+03 -0.16604037839E+04  0.17876569025E+04  0.25500000920E-02 0.  1.
</event>
<event>
 5   0  0.2579241E-04  0.2182992E+04  0.7818609E-02  0.8525541E-01
       -2   -1    0    0    0  501  0.00000000000E+00  0.00000000000E+00  0.15054289325E+04  0.15054289325E+04  0.25500000920E-02 0. -1.
        2   -1    0    0  501    0  0.00000000000E+00  0.00000000000E+00 -0.79137841397E+03  0.79137841398E+03  0.25500000920E-02 0.  1.
    10030    2    1    2    0    0  0.00000000000E+00  0.00000000000E+00  0.71405051855E+03  0.22968073465E+04  0.21829924058E+04 0.  0.
        5    1    3    3  502    0 -0.96848352692E+03  0.34757090584E+03 -0.26068247067E+02  0.10293043865E+04  0.46999998093E+01 0.  1.
       -5    1    3    3    0  502  0.96848352692E+03 -0.34757090584E+03  0.74011876562E+03  0.12675029600E+04  0.46999998093E+01 0. -1.
</event>
<event>
 5   0  0.8698750E-05  0.2204069E+04  0.7818609E-02  0.8516736E-01
        3   -1    0    0  501    0  0.00000000000E+00  0.00000000000E+00  0.20843763183E+04  0.20843763207E+04  0.10100000352E+00 0. -1.
       -3   -1    0    0    0  501  0.00000000000E+00  0.00000000000E+00 -0.58265884544E+03  0.58265885419E+03  0.10100000352E+00 0.  1.
    10030    2    1    2    0    0  0.00000000000E+00  0.00000000000E+00  0.15017174728E+04  0.26670351749E+04  0.22040692494E+04 0.  0.
        3    1    3    3  502    0  0.10586564691E+04 -0.29777608929E+03  0.66481584864E+03  0.12850697420E+04  0.10100000352E+00 0.  1.
       -3    1    3    3    0  502 -0.10586564691E+04  0.29777608929E+03  0.83690162419E+03  0.13819654329E+04  0.10100000352E+00 0. -1.
</event>
<event>
 5   0  0.2579241E-04  0.2159651E+04  0.7818609E-02  0.8535412E-01
        2   -1    0    0  501    0  0.00000000000E+00  0.00000000000E+00  0.16295061794E+04  0.16295061794E+04  0.25500000920E-02 0. -1.
       -2   -1    0    0    0  501  0.00000000000E+00  0.00000000000E+00 -0.71556853698E+03  0.71556853698E+03  0.25500000920E-02 0.  1.
    10030    2    1    2    0    0  0.00000000000E+00  0.00000000000E+00  0.91393764241E+03  0.23450747164E+04  0.21596512244E+04 0.  0.
        5    1    3    3  502    0  0.58293144636E+03 -0.63897008853E+02 -0.52758137231E+03  0.78883210717E+03  0.46999998093E+01 0.  1.
       -5    1    3    3    0  502 -0.58293144636E+03  0.63897008853E+02  0.14415190147E+04  0.15562426092E+04  0.46999998093E+01 0. -1.
</event>
<event>
 5   0  0.2430898E-04  0.1898258E+04  0.7818609E-02  0.8655724E-01
        2   -1    0    0  501    0  0.00000000000E+00  0.00000000000E+00  0.10259214308E+04  0.10259214308E+04  0.25500000920E-02 0. -1.
       -2   -1    0    0    0  501  0.00000000000E+00  0.00000000000E+00 -0.87808501161E+03  0.87808501161E+03  0.25500000920E-02 0.  1.
    10030    2    1    2    0    0  0.00000000000E+00  0.00000000000E+00  0.14783641918E+03  0.19040064424E+04  0.18982583928E+04 0.  0.
        1    1    3    3  502    0  0.32888947372E+02  0.93974128716E+03 -0.55510744873E+02  0.94195372098E+03  0.50400001928E-02 0.  1.
       -1    1    3    3    0  502 -0.32888947372E+02 -0.93974128716E+03  0.20334716405E+03  0.96205272142E+03  0.50400001928E-02 0. -1.
</event>
<event>
 5   0  0.2467483E-04  0.2099182E+04  0.7818609E-02  0.8561604E-01
        2   -1    0    0  501    0  0.00000000000E+00  0.00000000000E+00  0.93650953401E+03  0.93650953401E+03  0.25500000920E-02 0. -1.
       -2   -1    0    0    0  501  0.00000000000E+00  0.00000000000E+00 -0.11763268378E+04  0.11763268378E+04  0.25500000920E-02 0.  1.
    10030    2    1    2    0    0  0.00000000000E+00  0.00000000000E+00 -0.23981730377E+03  0.21128363718E+04  0.20991820299E+04 0.  0.
        4    1    3    3  502    0 -0.27012811079E+03 -0.82564501853E+03 -0.71279094793E+03  0.11237132380E+04  0.12699999809E+01 0.  1.
       -4    1    3    3    0  502  0.27012811079E+03  0.82564501853E+03  0.47297364416E+03  0.98912313381E+03  0.12699999809E+01 0. -1.
</event>
<event>
 5   0  0.1156733E-04  0.2049165E+04  0.7818609E-02  0.8583973E-01
        1   -1    0    0  501    0  0.00000000000E+00  0.00000000000E+00  0.12944709544E+04  0.12944709544E+04  0.50400001928E-02 0.  1.
       -1   -1    0    0    0  501  0.00000000000E+00  0.00000000000E+00 -0.81096364646E+03  0.81096364648E+03  0.50400001928E-02 0. -1.
    10030    2    1    2    0    0  0.00000000000E+00  0.00000000000E+00  0.48350730793E+03  0.21054346009E+04  0.20491645961E+04 0.  0.
        2    1    3    3  502    0  0.59793289580E+03 -0.70894110886E+03  0.68919759888E+03  0.11554715808E+04  0.25500000920E-02 0.  1.
       -2    1    3    3    0  502 -0.59793289580E+03  0.70894110886E+03 -0.20569029096E+03  0.94996302008E+03  0.25500000920E-02 0. -1.
</event>
<event>
 5   0  0.1156733E-04  0.2065061E+04  0.7818609E-02  0.8576793E-01
       -1   -1    0    0    0  501  0.00000000000E+00  0.00000000000E+00  0.15273499454E+04  0.15273499454E+04  0.50400001928E-02 0. -1.
        1   -1    0    0  501    0  0.00000000000E+00  0.00000000000E+00 -0.69801872383E+03  0.69801872385E+03  0.50400001928E-02 0.  1.
    10030    2    1    2    0    0  0.00000000000E+00  0.00000000000E+00  0.82933122154E+03  0.22253686692E+04  0.20650606381E+04 0.  0.
        2    1    3    3  502    0 -0.27284417445E+03  0.60782267038E+03 -0.43538232767E+03  0.79589579306E+03  0.25500000920E-02 0.  1.
       -2    1    3    3    0  502  0.27284417445E+03 -0.60782267038E+03  0.12647135492E+04  0.14294728762E+04  0.25500000920E-02 0. -1.
</event>
<event>
 5   0  0.2579241E-04  0.1550572E+04  0.7818609E-02  0.8851502E-01
        2   -1    0    0  501    0  0.00000000000E+00  0.00000000000E+00  0.24561641721E+04  0.24561641721E+04  0.25500000920E-02 0. -1.
       -2   -1    0    0    0  501  0.00000000000E+00  0.00000000000E+00 -0.24471830775E+03  0.24471830776E+03  0.25500000920E-02 0.  1.
    10030    2    1    2    0    0  0.00000000000E+00  0.00000000000E+00  0.22114458643E+04  0.27008824798E+04  0.15505719458E+04 0.  0.
        5    1    3    3  502    0  0.57084320307E+03 -0.21957948559E+03  0.27587757498E+03  0.67097514064E+03  0.46999998093E+01 0.  1.
       -5    1    3    3    0  502 -0.57084320307E+03  0.21957948559E+03  0.19355682893E+04  0.20299073392E+04  0.46999998093E+01 0. -1.
</event>
<event>
 5   0  0.2512839E-04  0.2000480E+04  0.7818609E-02  0.8606397E-01
       -2   -1    0    0    0  501  0.00000000000E+00  0.00000000000E+00  0.48464894869E+03  0.48464894870E+03  0.25500000920E-02 0. -1.
        2   -1    0    0  501    0  0.00000000000E+00  0.00000000000E+00 -0.20643387103E+04  0.20643387103E+04  0.25500000920E-02 0.  1.
    10030    2    1    2    0    0  0.00000000000E+00  0.00000000000E+00 -0.15796897616E+04  0.25489876590E+04  0.20004795282E+04 0.  0.
        3    1    3    3  502    0 -0.81322499344E+03  0.11950816337E+03 -0.63599468339E+02  0.82441615319E+03  0.10100000352E+00 0. -1.
       -3    1    3    3    0  502  0.81322499344E+03 -0.11950816337E+03 -0.15160902933E+04  0.17245715058E+04  0.10100000352E+00 0.  1.
</event>
<event>
 5   0  0.1156733E-04  0.1924506E+04  0.7818609E-02  0.8642754E-01
       -1   -1    0    0    0  501  0.00000000000E+00  0.00000000000E+00  0.41141033541E+03  0.41141033544E+03  0.50400001928E-02 0.  1.
        1   -1    0    0  501    0  0.00000000000E+00  0.00000000000E+00 -0.22506250484E+04  0.22506250484E+04  0.50400001928E-02 0. -1.
    10030    2    1    2    0    0  0.00000000000E+00  0.00000000000E+00 -0.18392147130E+04  0.26620353838E+04  0.19245055532E+04 0.  0.
        2    1    3    3  502    0 -0.92572679084E+03 -0.24474399065E+03 -0.10512738844E+04  0.14219868115E+04  0.25500000920E-02 0. -1.
       -2    1    3    3    0  502  0.92572679084E+03  0.24474399065E+03 -0.78794082860E+03  0.12400485723E+04  0.25500000920E-02 0.  1.
</event>
<event>
 5   0  0.2467483E-04  0.1949530E+04  0.7818609E-02  0.8630587E-01
       -2   -1    0    0    0  501  0.00000000000E+00  0.00000000000E+00  0.13077209428E+04  0.13077209428E+04  0.25500000920E-02 0. -1.
        2   -1    0    0  501    0  0.00000000000E+00  0.00000000000E+00 -0.72658236378E+03  0.72658236378E+03  0.25500000920E-02 0.  1.
    10030    2    1    2    0    0  0.00000000000E+00  0.00000000000E+00  0.58113857901E+03  0.20343033066E+04  0.19495301729E+04 0.  0.
        4    1    3    3  502    0  0.19969246228E+03  0.57490636731E+03  0.10851060024E+04  0.12441266254E+04  0.12699999809E+01 0. -1.
       -4    1    3    3    0  502 -0.19969246228E+03 -0.57490636731E+03 -0.50396742342E+03  0.79017668115E+03  0.12699999809E+01 0.  1.
</event>
<event>
 5   0  0.1186038E-04  0.1986520E+04  0.7818609E-02  0.8612949E-01
       -1   -1    0    0    0  501  0.00000000000E+00  0.00000000000E+00  0.38049987374E+03  0.38049987377E+03  0.50400001928E-02 0.  1.
        1   -1    0    0  501    0  0.00000000000E+00  0.00000000000E+00 -0.25928144137E+04  0.25928144137E+04  0.50400001928E-02 0. -1.
    10030    2    1    2    0    0  0.00000000000E+00  0.00000000000E+00 -0.22123145400E+04  0.29733142875E+04  0.19865201304E+04 0.  0.
        4    1    3    3  502    0 -0.63473479580E+03  0.71864178424E+03 -0.14942435902E+04  0.17754153866E+04  0.12699999809E+01 0. -1.
       -4    1    3    3    0  502  0.63473479580E+03 -0.71864178424E+03 -0.71807094978E+03  0.11978989009E+04  0.12699999809E+01 0.  1.
</event>
<event>
 5   0  0.1042395E-04  0.1802603E+04  0.7818609E-02  0.8704916E-01
       -1   -1    0    0    0  501  0.00000000000E+00  0.00000000000E+00  0.49149357484E+03  0.49149357486E+03  0.50400001928E-02 0.  1.
        1   -1    0    0  501    0  0.00000000000E+00  0.00000000000E+00 -0.16528085093E+04  0.16528085093E+04  0.50400001928E-02 0. -1.
    10030    2    1    2    0    0  0.00000000000E+00  0.00000000000E+00 -0.11613149345E+04  0.21443020842E+04  0.18026034093E+04 0.  0.
        3    1    3    3  502    0 -0.66187949760E+03 -0.57342301160E+03 -0.32706566925E+03  0.93481034535E+03  0.10100000352E+00 0. -1.
       -3    1    3    3    0  502  0.66187949760E+03  0.57342301160E+03 -0.83424926524E+03  0.12094917388E+04  0.10100000352E+00 0.  1.
</event>
<event>
 5   0  0.2430898E-04  0.1967528E+04  0.7818609E-02  0.8621954E-01
       -2   -1    0    0    0  501  0.00000000000E+00  0.00000000000E+00  0.67242104437E+03  0.67242104438E+03  0.25500000920E-02 0.  1.
        2   -1    0    0  501    0  0.00000000000E+00  0.00000000000E+00 -0.14392649179E+04  0.14392649179E+04  0.25500000920E-02 0. -1.
    10030    2    1    2    0    0  0.00000000000E+00  0.00000000000E+00 -0.76684387356E+03  0.21116859623E+04  0.19675284183E+04 0.  0.
        1    1    3    3  502    0  0.91424546998E+03 -0.28498652457E+03 -0.62515742413E+03  0.11436275196E+04  0.50400001928E-02 0.  1.
       -1    1    3    3    0  502 -0.91424546998E+03  0.28498652457E+03 -0.14168644943E+03  0.96805844273E+03  0.50400001928E-02 0. -1.
</event>
<event>
 5   0  0.1156733E-04  0.2056860E+04  0.7818609E-02  0.8580489E-01
       -1   -1    0    0    0  501  0.00000000000E+00  0.00000000000E+00  0.63499909550E+03  0.63499909552E+03  0.50400001928E-02 0.  1.
        1   -1    0    0  501    0  0.00000000000E+00  0.00000000000E+00 -0.16656212791E+04  0.16656212791E+04  0.50400001928E-02 0. -1.
    10030    2    1    2    0    0  0.00000000000E+00  0.00000000000E+00 -0.10306221836E+04  0.23006203746E+04  0.20568597480E+04 0.  0.
        2    1    3    3  502    0 -0.17312374822E+03 -0.58375105114E+03 -0.14423475270E+04  0.15656000481E+04  0.25500000920E-02 0. -1.
       -2    1    3    3    0  502  0.17312374822E+03  0.58375105114E+03  0.41172534346E+03  0.73502032649E+03  0.25500000920E-02 0.  1.
</event>
<event>
 5   0  0.2430898E-04  0.2069818E+04  0.7818609E-02  0.8574657E-01
       -2   -1    0    0    0  501  0.00000000000E+00  0.00000000000E+00  0.96477384438E+03  0.96477384438E+03  0.25500000920E-02 0. -1.
        2   -1    0    0  501    0  0.00000000000E+00  0.00000000000E+00 -0.11101428291E+04  0.11101428291E+04  0.25500000920E-02 0.  1.
    10030    2    1    2    0    0  0.00000000000E+00  0.00000000000E+00 -0.14536898473E+03  0.20749166735E+04  0.20698181225E+04 0.  0.
        1    1    3    3  502    0  0.17394648387E+02  0.53894800486E+03  0.81281989729E+03  0.97541976154E+03  0.50400001928E-02 0. -1.
       -1    1    3    3    0  502 -0.17394648387E+02 -0.53894800486E+03 -0.95818888202E+03  0.10994969120E+04  0.50400001928E-02 0.  1.
</event>
<event>
 5   0  0.2512839E-04  0.1182016E+04  0.7818609E-02  0.9128745E-01
       -2   -1    0    0    0  501  0.00000000000E+00  0.00000000000E+00  0.26115336536E+03  0.26115336537E+03  0.25500000920E-02 0. -1.
        2   -1    0    0  501    0  0.00000000000E+00  0.00000000000E+00 -0.13374917614E+04  0.13374917614E+04  0.25500000920E-02 0.  1.
    10030    2    1    2    0    0  0.00000000000E+00  0.00000000000E+00 -0.10763383961E+04  0.15986451268E+04  0.11820160314E+04 0.  0.
        3    1    3    3  502    0  0.60839517951E+02 -0.25281530473E+03 -0.12559662156E+04  0.12826021091E+04  0.10100000352E+00 0.  1.
       -3    1    3    3    0  502 -0.60839517951E+02  0.25281530473E+03  0.17962781959E+03  0.31604301767E+03  0.10100000352E+00 0. -1.
</event>
<event>
 5   0  0.1122711E-04  0.1721540E+04  0.7818609E-02  0.8749174E-01
        1   -1    0    0  501    0  0.00000000000E+00  0.00000000000E+00  0.14033000736E+04  0.14033000736E+04  0.50400001928E-02 0.  1.
       -1   -1    0    0    0  501  0.00000000000E+00  0.00000000000E+00 -0.52798776840E+03  0.52798776842E+03  0.50400001928E-02 0. -1.
    10030    2    1    2    0    0  0.00000000000E+00  0.00000000000E+00  0.87531230524E+03  0.19312878421E+04  0.17215403269E+04 0.  0.
        1    1    3    3  502    0  0.73618837565E+03  0.44486218935E+03  0.40131170593E+03  0.94917162689E+03  0.50400001928E-02 0. -1.
       -1    1    3    3    0  502 -0.73618837565E+03 -0.44486218935E+03  0.47400059930E+03  0.98211621518E+03  0.50400001928E-02 0.  1.
</event>
<event>
 5   0  0.1122711E-04  0.2138347E+04  0.7818609E-02  0.8544537E-01
        1   -1    0    0  501    0  0.00000000000E+00  0.00000000000E+00  0.26085347280E+04  0.26085347281E+04  0.50400001928E-02 0.  1.
       -1   -1    0    0    0  501  0.00000000000E+00  0.00000000000E+00 -0.43822774680E+03  0.43822774683E+03  0.50400001928E-02 0. -1.
    10030    2    1    2    0    0  0.00000000000E+00  0.00000000000E+00  0.21703069813E+04  0.30467624749E+04  0.21383473023E+04 0.  0.
        1    1    3    3  502    0  0.21371976532E+03 -0.39993497905E+03 -0.29442967317E+03  0.54065974330E+03  0.50400001928E-02 0. -1.
       -1    1    3    3    0  502 -0.21371976532E+03  0.39993497905E+03  0.24647366544E+04  0.25061027316E+04  0.50400001928E-02 0.  1.
</event>
<event>
 5   0  0.2430898E-04  0.2058879E+04  0.7818609E-02  0.8579577E-01
        2   -1    0    0  501    0  0.00000000000E+00  0.00000000000E+00  0.62256343032E+03  0.62256343032E+03  0.25500000920E-02 0. -1.
       -2   -1    0    0    0  501  0.00000000000E+00  0.00000000000E+00 -0.17022295831E+04  0.17022295831E+04  0.25500000920E-02 0.  1.
    10030    2    1    2    0    0  0.00000000000E+00  0.00000000000E+00 -0.10796661528E+04  0.23247930135E+04  0.20588791985E+04 0.  0.
        1    1    3    3  502    0  0.39043767277E+03  0.37881489737E+03 -0.15266674588E+04  0.16206960951E+04  0.50400001928E-02 0.  1.
       -1    1    3    3    0  502 -0.39043767277E+03 -0.37881489737E+03  0.44700130604E+03  0.70409691834E+03  0.50400001928E-02 0. -1.
</event>
<event>
 5   0  0.1156733E-04  0.2074007E+04  0.7818609E-02  0.8572781E-01
       -1   -1    0    0    0  501  0.00000000000E+00  0.00000000000E+00  0.47881825932E+03  0.47881825935E+03  0.50400001928E-02 0. -1.
        1   -1    0    0  501    0  0.00000000000E+00  0.00000000000E+00 -0.22458964347E+04  0.22458964348E+04  0.50400001928E-02 0.  1.
    10030    2    1    2    0    0  0.00000000000E+00  0.00000000000E+00 -0.17670781754E+04  0.27247146941E+04  0.20740069639E+04 0.  0.
        2    1    3    3  502    0  0.66932337509E+03  0.45233011219E+03 -0.17377556643E+04  0.19163483659E+04  0.25500000920E-02 0.  1.
       -2    1    3    3    0  502 -0.66932337509E+03 -0.45233011219E+03 -0.29322511127E+02  0.80836632816E+03  0.25500000920E-02 0. -1.
</event>
<event>
 5   0  0.1122711E-04  0.2034593E+04  0.7818609E-02  0.8590616E-01
       -1   -1    0    0    0  501  0.00000000000E+00  0.00000000000E+00  0.95662948099E+03  0.95662948100E+03  0.50400001928E-02 0. -1.
        1   -1    0    0  501    0  0.00000000000E+00  0.00000000000E+00 -0.10818105765E+04  0.10818105765E+04  0.50400001928E-02 0.  1.
    10030    2    1    2    0    0  0.00000000000E+00  0.00000000000E+00 -0.12518109547E+03  0.20384400575E+04  0.20345927261E+04 0.  0.
        1    1    3    3  502    0  0.96302099683E+03  0.24695565889E+02  0.26494135063E+03  0.99910621588E+03  0.50400001928E-02 0. -1.
       -1    1    3    3    0  502 -0.96302099683E+03 -0.24695565889E+02 -0.39012244610E+03  0.10393338416E+04  0.50400001928E-02 0.  1.
</event>
<event>
 5   0  0.2512839E-04  0.2147023E+04  0.7818609E-02  0.8540808E-01
       -2   -1    0    0    0  501  0.00000000000E+00  0.00000000000E+00  0.15548181519E+04  0.15548181520E+04  0.25500000920E-02 0.  1.
        2   -1    0    0  501    0  0.00000000000E+00  0.00000000000E+00 -0.74119716321E+03  0.74119716321E+03  0.25500000920E-02 0. -1.
    10030    2    1    2    0    0  0.00000000000E+00  0.00000000000E+00  0.81362098874E+03  0.22960153152E+04  0.21470228723E+04 0.  0.
        3    1    3    3  502    0  0.50002453090E+03  0.68914531281E+03 -0.29238161384E+03  0.90024041899E+03  0.10100000352E+00 0. -1.
       -3    1    3    3    0  502 -0.50002453090E+03 -0.68914531281E+03  0.11060026026E+04  0.13957748962E+04  0.10100000352E+00 0.  1.
</event>
<event>
 5   0  0.1186038E-04  0.2036585E+04  0.7818609E-02  0.8589704E-01
        1   -1    0    0  501    0  0.00000000000E+00  0.00000000000E+00  0.14632420333E+04  0.14632420333E+04  0.50400001928E-02 0. -1.
       -1   -1    0    0    0  501  0.00000000000E+00  0.00000000000E+00 -0.70864528405E+03  0.70864528406E+03  0.50400001928E-02 0.  1.
    10030    2    1    2    0    0  0.00000000000E+00  0.00000000000E+00  0.75459674924E+03  0.21718873174E+04  0.20365849517E+04 0.  0.
        4    1    3    3  502    0  0.57667285069E+03 -0.15871110248E+02  0.12721610582E+04  0.13968531919E+04  0.12699999809E+01 0. -1.
       -4    1    3    3    0  502 -0.57667285069E+03  0.15871110248E+02 -0.51756430893E+03  0.77503412547E+03  0.12699999809E+01 0.  1.
</event>
<event>
 5   0  0.1122711E-04  0.2108984E+04  0.7818609E-02  0.8557296E-01
       -1   -1    0    0    0  501  0.00000000000E+00  0.00000000000E+00  0.10536676267E+04  0.10536676267E+04  0.50400001928E-02 0.  1.
        1   -1    0    0  501    0  0.00000000000E+00  0.00000000000E+00 -0.10553167683E+04  0.10553167683E+04  0.50400001928E-02 0. -1.
    10030    2    1    2    0    0  0.00000000000E+00  0.00000000000E+00 -0.16491415740E+01  0.21089843951E+04  0.21089837503E+04 0.  0.
        1    1    3    3  502    0  0.14277649947E+03 -0.71398281065E+03  0.76193154211E+03  0.10538957527E+04  0.50400001928E-02 0.  1.
       -1    1    3    3    0  502 -0.14277649947E+03  0.71398281065E+03 -0.76358068368E+03  0.10550886424E+04  0.50400001928E-02 0. -1.
</event>
<event>
 5   0  0.1122711E-04  0.2117653E+04  0.7818609E-02  0.8553507E-01
       -1   -1    0    0    0  501  0.00000000000E+00  0.00000000000E+00  0.58737707765E+03  0.58737707767E+03  0.50400001928E-02 0.  1.
        1   -1    0    0  501    0  0.00000000000E+00  0.00000000000E+00 -0.19086780189E+04  0.19086780189E+04  0.50400001928E-02 0. -1.
    10030    2    1    2    0    0  0.00000000000E+00  0.00000000000E+00 -0.13213009413E+04  0.24960550966E+04  0.21176531510E+04 0.  0.
        1    1    3    3  502    0 -0.59021968444E+03  0.18746936536E+03  0.35165746630E+03  0.71215659267E+03  0.50400001928E-02 0.  1.
       -1    1    3    3    0  502  0.59021968444E+03 -0.18746936536E+03 -0.16729584076E+04  0.17838985039E+04  0.50400001928E-02 0. -1.
</event>
<event>
 5   0  0.2448804E-04  0.1326556E+04  0.7818609E-02  0.9008767E-01
       -2   -1    0    0    0  501  0.00000000000E+00  0.00000000000E+00  0.17791981356E+04  0.17791981356E+04  0.25500000920E-02 0.  1.
        2   -1    0    0  501    0  0.00000000000E+00  0.00000000000E+00 -0.24726726522E+03  0.24726726524E+03  0.25500000920E-02 0. -1.
    10030    2    1    2    0    0  0.00000000000E+00  0.00000000000E+00  0.15319308703E+04  0.20264654008E+04  0.13265556261E+04 0.  0.
        2    1    3    3  502    0 -0.64972102140E+03  0.73748452796E+02  0.93580714312E+03  0.11416265804E+04  0.25500000920E-02 0.  1.
       -2    1    3    3    0  502  0.64972102140E+03 -0.73748452796E+02  0.59612372721E+03  0.88483882040E+03  0.25500000920E-02 0. -1.
</event>
<event>
 5   0  0.2467483E-04  0.1918315E+04  0.7818609E-02  0.8645793E-01
        2   -1    0    0  501    0  0.00000000000E+00  0.00000000000E+00  0.23318118505E+04  0.23318118505E+04  0.25500000920E-02 0.  1.
       -2   -1    0    0    0  501  0.00000000000E+00  0.00000000000E+00 -0.39453572577E+03  0.39453572578E+03  0.25500000920E-02 0. -1.
    10030    2    1    2    0    0  0.00000000000E+00  0.00000000000E+00  0.19372761247E+04  0.27263475763E+04  0.19183149698E+04 0.  0.
        4    1    3    3  502    0 -0.44695117654E+03  0.83857720851E+03  0.11539663426E+04  0.14948635461E+04  0.12699999809E+01 0.  1.
       -4    1    3    3    0  502  0.44695117654E+03 -0.83857720851E+03  0.78330978213E+03  0.12314840301E+04  0.12699999809E+01 0. -1.
</event>
<event>
 5   0  0.2512839E-04  0.2102979E+04  0.7818609E-02  0.8559932E-01
        2   -1    0    0  501    0  0.00000000000E+00  0.00000000000E+00  0.16138496479E+04  0.16138496479E+04  0.25500000920E-02 0. -1.
       -2   -1    0    0    0  501  0.00000000000E+00  0.00000000000E+00 -0.68508889125E+03  0.68508889126E+03  0.25500000920E-02 0.  1.
    10030    2    1    2    0    0  0.00000000000E+00  0.00000000000E+00  0.92876075665E+03  0.22989385392E+04  0.21029792828E+04 0.  0.
        3    1    3    3  502    0 -0.90572886630E+03  0.43719065320E+03  0.79981087863E+03  0.12849816724E+04  0.10100000352E+00 0.  1.
       -3    1    3    3    0  502  0.90572886630E+03 -0.43719065320E+03  0.12894987801E+03  0.10139568668E+04  0.10100000352E+00 0. -1.
</event>
<event>
 5   0  0.1042395E-04  0.1936576E+04  0.7818609E-02  0.8636861E-01
       -1   -1    0    0    0  501  0.00000000000E+00  0.00000000000E+00  0.75172443526E+03  0.75172443528E+03  0.50400001928E-02 0. -1.
        1   -1    0    0  501    0  0.00000000000E+00  0.00000000000E+00 -0.12472410004E+04  0.12472410004E+04  0.50400001928E-02 0.  1.
    10030    2    1    2    0    0  0.00000000000E+00  0.00000000000E+00 -0.49551656510E+03  0.19989654356E+04  0.19365758820E+04 0.  0.
        3    1    3    3  502    0 -0.30261171621E+03  0.40164131952E+03  0.60636069054E+03  0.78775814661E+03  0.10100000352E+00 0. -1.
       -3    1    3    3    0  502  0.30261171621E+03 -0.40164131952E+03 -0.11018772556E+04  0.12112072890E+04  0.10100000352E+00 0.  1.
</event>
<event>
 5   0  0.2579241E-04  0.2096753E+04  0.7818609E-02  0.8562675E-01
        2   -1    0    0  501    0  0.00000000000E+00  0.00000000000E+00  0.17766877083E+04  0.17766877083E+04  0.25500000920E-02 0.  1.
       -2   -1    0    0    0  501  0.00000000000E+00  0.00000000000E+00 -0.61861954257E+03  0.61861954257E+03  0.25500000920E-02 0. -1.
    10030    2    1    2    0    0  0.00000000000E+00  0.00000000000E+00  0.11580681657E+04  0.23953072508E+04  0.20967534308E+04 0.  0.
        5    1    3    3  502    0  0.82494608613E+03 -0.50847201473E+03  0.12209032789E+03  0.97673331720E+03  0.46999998093E+01 0. -1.
       -5    1    3    3    0  502 -0.82494608613E+03  0.50847201473E+03  0.10359778378E+04  0.14185739336E+04  0.46999998093E+01 0.  1.
</event>
<event>
 5   0  0.2448804E-04  0.1652970E+04  0.7818609E-02  0.8788652E-01
        2   -1    0    0  501    0  0.00000000000E+00  0.00000000000E+00  0.14638646247E+04  0.14638646247E+04  0.25500000920E-02 0.  1.
       -2   -1    0    0    0  501  0.00000000000E+00  0.00000000000E+00 -0.46662591184E+03  0.46662591184E+03  0.25500000920E-02 0. -1.
    10030    2    1    2    0    0  0.00000000000E+00  0.00000000000E+00  0.99723871283E+03  0.19304905365E+04  0.16529696492E+04 0.  0.
        2    1    3    3  502    0  0.79814254836E+03  0.80925816631E+00  0.74922679380E+03  0.10947022293E+04  0.25500000920E-02 0.  1.
       -2    1    3    3    0  502 -0.79814254836E+03 -0.80925816631E+00  0.24801191903E+03  0.83578830716E+03  0.25500000920E-02 0. -1.
</event>
<event>
 5   0  0.1042395E-04  0.2108746E+04  0.7818609E-02  0.8557401E-01
       -1   -1    0    0    0  501  0.00000000000E+00  0.00000000000E+00  0.89336333874E+03  0.89336333875E+03  0.50400001928E-02 0.  1.
        1   -1    0    0  501    0  0.00000000000E+00  0.00000000000E+00 -0.12444010251E+04  0.12444010252E+04  0.50400001928E-02 0. -1.
    10030    2    1    2    0    0  0.00000000000E+00  0.00000000000E+00 -0.35103768641E+03  0.21377643639E+04  0.21087458401E+04 0.  0.
        3    1    3    3  502    0 -0.77457150680E+03 -0.50455426980E+03  0.33857517425E+03  0.98446390952E+03  0.10100000352E+00 0. -1.
       -3    1    3    3    0  502  0.77457150680E+03  0.50455426980E+03 -0.68961286066E+03  0.11533004544E+04  0.10100000352E+00 0.  1.
</event>
<event>
 5   0  0.2579241E-04  0.2319288E+04  0.7818609E-02  0.8470355E-01
       -2   -1    0    0    0  501  0.00000000000E+00  0.00000000000E+00  0.16572852262E+04  0.16572852262E+04  0.25500000920E-02 0.  1.
        2   -1    0    0  501    0  0.00000000000E+00  0.00000000000E+00 -0.81143180378E+03  0.81143180378E+03  0.25500000920E-02 0. -1.
    10030    2    1    2    0    0  0.00000000000E+00  0.00000000000E+00  0.84585342243E+03  0.24687170300E+04  0.23192877704E+04 0.  0.
        5    1    3    3  502    0 -0.33642471010E+03  0.78091435622E+03  0.12622362111E+04  0.15219300772E+04  0.46999998093E+01 0.  1.
       -5    1    3    3    0  502  0.33642471010E+03 -0.78091435622E+03 -0.41638278864E+03  0.94678695280E+03  0.46999998093E+01 0. -1.
</event>
<event>
 5   0  0.8698750E-05  0.1995633E+04  0.7818609E-02  0.8608665E-01
       -3   -1    0    0    0  501  0.00000000000E+00  0.00000000000E+00  0.16792277541E+04  0.16792277572E+04  0.10100000352E+00 0.  1.
        3   -1    0    0  501    0  0.00000000000E+00  0.00000000000E+00 -0.59291387713E+03  0.59291388573E+03  0.10100000352E+00 0. -1.
    10030    2    1    2    0    0  0.00000000000E+00  0.00000000000E+00  0.10863138770E+04  0.22721416429E+04  0.19956326831E+04 0.  0.
        2    1    3    3  502    0  0.52198625033E+02  0.56960664567E+03  0.14740350928E+04  0.15811248787E+04  0.25500000920E-02 0.  1.
       -2    1    3    3    0  502 -0.52198625033E+02 -0.56960664567E+03 -0.38772121578E+03  0.69101676421E+03  0.25500000920E-02 0. -1.
</event>
<event>
 5   0  0.2579241E-04  0.1966168E+04  0.7818609E-02  0.8622603E-01
        2   -1    0    0  501    0  0.00000000000E+00  0.00000000000E+00  0.17181059653E+04  0.17181059653E+04  0.25500000920E-02 0.  1.
       -2   -1    0    0    0  501  0.00000000000E+00  0.00000000000E+00 -0.56251157145E+03  0.56251157145E+03  0.25500000920E-02 0. -1.
    10030    2    1    2    0    0  0.00000000000E+00  0.00000000000E+00  0.11555943938E+04  0.22806175367E+04  0.19661683412E+04 0.  0.
        5    1    3    3  502    0 -0.72669501051E+03  0.63745188516E+03  0.78529777861E+03  0.12454498124E+04  0.46999998093E+01 0.  1.
       -5    1    3    3    0  502  0.72669501051E+03 -0.63745188516E+03  0.37029661522E+03  0.10351677243E+04  0.46999998093E+01 0. -1.
</event>
<event>
 5   0  0.2430898E-04  0.2056006E+04  0.7818609E-02  0.8580875E-01
        2   -1    0    0  501    0  0.00000000000E+00  0.00000000000E+00  0.18640713986E+04  0.18640713986E+04  0.25500000920E-02 0. -1.
       -2   -1    0    0    0  501  0.00000000000E+00  0.00000000000E+00 -0.56692556669E+03  0.56692556669E+03  0.25500000920E-02 0.  1.
    10030    2    1    2    0    0  0.00000000000E+00  0.00000000000E+00  0.12971458319E+04  0.24309969653E+04  0.20560055778E+04 0.  0.
        1    1    3    3  502    0  0.97658181380E+03 -0.24287984979E+03  0.89683806799E+03  0.13479692803E+04  0.50400001928E-02 0. -1.
       -1    1    3    3    0  502 -0.97658181380E+03  0.24287984979E+03  0.40030776388E+03  0.10830276849E+04  0.50400001928E-02 0.  1.
</event>
<event>
 5   0  0.2467483E-04  0.1618098E+04  0.7818609E-02  0.8809506E-01
       -2   -1    0    0    0  501  0.00000000000E+00  0.00000000000E+00  0.61025934686E+03  0.61025934687E+03  0.25500000920E-02 0.  1.
        2   -1    0    0  501    0  0.00000000000E+00  0.00000000000E+00 -0.10725930687E+04  0.10725930687E+04  0.25500000920E-02 0. -1.
    10030    2    1    2    0    0  0.00000000000E+00  0.00000000000E+00 -0.46233372183E+03  0.16828524156E+04  0.16180975812E+04 0.  0.
        4    1    3    3  502    0 -0.42172239128E+03  0.12847938499E+03 -0.93669670017E+03  0.10352579624E+04  0.12699999809E+01 0. -1.
       -4    1    3    3    0  502  0.42172239128E+03 -0.12847938499E+03  0.47436297834E+03  0.64759445318E+03  0.12699999809E+01 0.  1.
</event>
<event>
 5   0  0.1042395E-04  0.2076310E+04  0.7818609E-02  0.8571751E-01
       -1   -1    0    0    0  501  0.00000000000E+00  0.00000000000E+00  0.69138101429E+03  0.69138101431E+03  0.50400001928E-02 0.  1.
        1   -1    0    0  501    0  0.00000000000E+00  0.00000000000E+00 -0.15588592597E+04  0.15588592597E+04  0.50400001928E-02 0. -1.
    10030    2    1    2    0    0  0.00000000000E+00  0.00000000000E+00 -0.86747824540E+03  0.22502402740E+04  0.20763098961E+04 0.  0.
        3    1    3    3  502    0 -0.10268906310E+04  0.17778720139E+01 -0.26845757588E+03  0.10614033207E+04  0.10100000352E+00 0. -1.
       -3    1    3    3    0  502  0.10268906310E+04 -0.17778720139E+01 -0.59902066952E+03  0.11888369533E+04  0.10100000352E+00 0.  1.
</event>
<event>
 5   0  0.1186038E-04  0.2235037E+04  0.7818609E-02  0.8503985E-01
        1   -1    0    0  501    0  0.00000000000E+00  0.00000000000E+00  0.24905373753E+04  0.24905373753E+04  0.50400001928E-02 0. -1.
       -1   -1    0    0    0  501  0.00000000000E+00  0.00000000000E+00 -0.50143700462E+03  0.50143700465E+03  0.50400001928E-02 0.  1.
    10030    2    1    2    0    0  0.00000000000E+00  0.00000000000E+00  0.19891003707E+04  0.29919743800E+04  0.22350370032E+04 0.  0.
        4    1    3    3  502    0 -0.90460822758E+03 -0.65336454624E+03  0.10753675737E+04  0.15497155568E+04  0.12699999809E+01 0.  1.
       -4    1    3    3    0  502  0.90460822758E+03  0.65336454624E+03  0.91373279703E+03  0.14422588231E+04  0.12699999809E+01 0. -1.
</event>
<event>
 5   0  0.2430898E-04  0.2184918E+04  0.7818609E-02  0.8524732E-01
        2   -1    0    0  501    0  0.00000000000E+00  0.00000000000E+00  0.17960674555E+04  0.17960674555E+04  0.25500000920E-02 0. -1.
       -2   -1    0    0    0  501  0.00000000000E+00  0.00000000000E+00 -0.66448860470E+03  0.66448860471E+03  0.25500000920E-02 0.  1.
    10030    2    1    2    0    0  0.00000000000E+00  0.00000000000E+00  0.11315788508E+04  0.24605560602E+04  0.21849177170E+04 0.  0.
        1    1    3    3  502    0 -0.17146552860E+03 -0.72226285358E+03 -0.33682386029E+03  0.81517750830E+03  0.50400001928E-02 0.  1.
       -1    1    3    3    0  502  0.17146552860E+03  0.72226285358E+03  0.14684027111E+04  0.16453785519E+04  0.50400001928E-02 0. -1.
</event>
<event>
 5   0  0.1122711E-04  0.1914659E+04  0.7818609E-02  0.8647594E-01
       -1   -1    0    0    0  501  0.00000000000E+00  0.00000000000E+00  0.15136602623E+04  0.15136602623E+04  0.50400001928E-02 0.  1.
        1   -1    0    0  501    0  0.00000000000E+00  0.00000000000E+00 -0.60547257913E+03  0.60547257915E+03  0.50400001928E-02 0. -1.
    10030    2    1    2    0    0  0.00000000000E+00  0.00000000000E+00  0.90818768314E+03  0.21191328414E+04  0.19146590119E+04 0.  0.
        1    1    3    3  502    0 -0.19560732136E+02 -0.88004940487E+03  0.87059289487E+03  0.12380636356E+04  0.50400001928E-02 0.  1.
       -1    1    3    3    0  502  0.19560732136E+02  0.88004940487E+03  0.37594788265E+02  0.88106920578E+03  0.50400001928E-02 0. -1.
</event>
<event>
 5   0  0.2467483E-04  0.2008418E+04  0.7818609E-02  0.8602695E-01
       -2   -1    0    0    0  501  0.00000000000E+00  0.00000000000E+00  0.17133125658E+04  0.17133125658E+04  0.25500000920E-02 0.  1.
        2   -1    0    0  501    0  0.00000000000E+00  0.00000000000E+00 -0.58858828810E+03  0.58858828811E+03  0.25500000920E-02 0. -1.
    10030    2    1    2    0    0  0.00000000000E+00  0.00000000000E+00  0.11247242777E+04  0.23019008539E+04  0.20084179944E+04 0.  0.
        4    1    3    3  502    0  0.65406455295E+03 -0.26560114784E+03  0.13809320600E+04  0.15509092096E+04  0.12699999809E+01 0.  1.
       -4    1    3    3    0  502 -0.65406455295E+03  0.26560114784E+03 -0.25620778233E+03  0.75099164429E+03  0.12699999809E+01 0. -1.
</event>
<event>
 5   0  0.2579241E-04  0.2082128E+04  0.7818609E-02  0.8569157E-01
       -2   -1    0    0    0  501  0.00000000000E+00  0.00000000000E+00  0.93494166658E+03  0.93494166659E+03  0.25500000920E-02 0. -1.
        2   -1    0    0  501    0  0.00000000000E+00  0.00000000000E+00 -0.11592324991E+04  0.11592324991E+04  0.25500000920E-02 0.  1.
    10030    2    1    2    0    0  0.00000000000E+00  0.00000000000E+00 -0.22429083249E+03  0.20941741657E+04  0.20821284923E+04 0.  0.
        5    1    3    3  502    0 -0.58774475755E+03  0.63042117684E+03 -0.69940509337E+03  0.11099839345E+04  0.46999998093E+01 0.  1.
       -5    1    3    3    0  502  0.58774475755E+03 -0.63042117684E+03  0.47511426088E+03  0.98419023116E+03  0.46999998093E+01 0. -1.
</event>
<event>
 5   0  0.2579241E-04  0.2207007E+04  0.7818609E-02  0.8515517E-01
        2   -1    0    0  501    0  0.00000000000E+00  0.00000000000E+00  0.11230748721E+04  0.11230748721E+04  0.25500000920E-02 0.  1.
       -2   -1    0    0    0  501  0.00000000000E+00  0.00000000000E+00 -0.10842736658E+04  0.10842736658E+04  0.25500000920E-02 0. -1.
    10030    2    1    2    0    0  0.00000000000E+00  0.00000000000E+00  0.38801206317E+02  0.22073485379E+04  0.22070074839E+04 0.  0.
        5    1    3    3  502    0 -0.79391415658E+03  0.73320775258E+03  0.24260570223E+03  0.11075978120E+04  0.46999998093E+01 0.  1.
       -5    1    3    3    0  502  0.79391415658E+03 -0.73320775258E+03 -0.20380449592E+03  0.10997507259E+04  0.46999998093E+01 0. -1.
</event>
<event>
 5   0  0.1186038E-04  0.2114621E+04  0.7818609E-02  0.8554830E-01
        1   -1    0    0  501    0  0.00000000000E+00  0.00000000000E+00  0.22715330064E+04  0.22715330064E+04  0.50400001928E-02 0. -1.
       -1   -1    0    0    0  501  0.00000000000E+00  0.00000000000E+00 -0.49213684573E+03  0.49213684576E+03  0.50400001928E-02 0.  1.
    10030    2    1    2    0    0  0.00000000000E+00  0.00000000000E+00  0.17793961606E+04  0.27636698521E+04  0.21146206173E+04 0.  0.
        4    1    3    3  502    0  0.40920119936E+03 -0.29250774670E+03 -0.32574860149E+03  0.59926635790E+03  0.12699999809E+01 0.  1.
       -4    1    3    3    0  502 -0.40920119936E+03  0.29250774670E+03  0.21051447621E+04  0.21644034942E+04  0.12699999809E+01 0. -1.
</event>
<event>
 5   0  0.1186038E-04  0.2058213E+04  0.7818609E-02  0.8579877E-01
        1   -1    0    0  501    0  0.00000000000E+00  0.00000000000E+00  0.79925170910E+03  0.79925170911E+03  0.50400001928E-02 0. -1.
       -1   -1    0    0    0  501  0.00000000000E+00  0.00000000000E+00 -0.13250652012E+04  0.13250652012E+04  0.50400001928E-02 0.  1.
    10030    2    1    2    0    0  0.00000000000E+00  0.00000000000E+00 -0.52581349210E+03  0.21243169103E+04  0.20582134260E+04 0.  0.
        4    1    3    3  502    0  0.60313983850E+03 -0.71667646507E+03  0.17699329671E+03  0.95327386429E+03  0.12699999809E+01 0. -1.
       -4    1    3    3    0  502 -0.60313983850E+03  0.71667646507E+03 -0.70280678881E+03  0.11710430460E+04  0.12699999809E+01 0.  1.
</event>
<event>
 5   0  0.1122711E-04  0.1191658E+04  0.7818609E-02  0.9120190E-01
       -1   -1    0    0    0  501  0.00000000000E+00  0.00000000000E+00  0.22967022488E+03  0.22967022493E+03  0.50400001928E-02 0.  1.
        1   -1    0    0  501    0  0.00000000000E+00  0.00000000000E+00 -0.15457470891E+04  0.15457470891E+04  0.50400001928E-02 0. -1.
    10030    2    1    2    0    0  0.00000000000E+00  0.00000000000E+00 -0.13160768642E+04  0.17754173140E+04  0.11916578059E+04 0.  0.
        1    1    3    3  502    0  0.15498370520E+03  0.19116150500E+03 -0.14664904217E+04  0.14869959068E+04  0.50400001928E-02 0. -1.
       -1    1    3    3    0  502 -0.15498370520E+03 -0.19116150500E+03  0.15041355747E+03  0.28842140726E+03  0.50400001928E-02 0.  1.
</event>
<event>
 5   0  0.2579241E-04  0.2066612E+04  0.7818609E-02  0.8576095E-01
        2   -1    0    0  501    0  0.00000000000E+00  0.00000000000E+00  0.15638195200E+04  0.15638195200E+04  0.25500000920E-02 0. -1.
       -2   -1    0    0    0  501  0.00000000000E+00  0.00000000000E+00 -0.68276512520E+03  0.68276512520E+03  0.25500000920E-02 0.  1.
    10030    2    1    2    0    0  0.00000000000E+00  0.00000000000E+00  0.88105439477E+03  0.22465846452E+04  0.20666121362E+04 0.  0.
        5    1    3    3  502    0  0.77734829039E+03 -0.81060014597E+02  0.11753024938E+04  0.14114528446E+04  0.46999998093E+01 0. -1.
       -5    1    3    3    0  502 -0.77734829039E+03  0.81060014597E+02 -0.29424809906E+03  0.83513180058E+03  0.46999998093E+01 0.  1.
</event>
<event>
 5   0  0.2467483E-04  0.1269479E+04  0.7818609E-02  0.9054125E-01
       -2   -1    0    0    0  501  0.00000000000E+00  0.00000000000E+00  0.52368927846E+03  0.52368927847E+03  0.25500000920E-02 0.  1.
        2   -1    0    0  501    0  0.00000000000E+00  0.00000000000E+00 -0.76933815593E+03  0.76933815594E+03  0.25500000920E-02 0. -1.
    10030    2    1    2    0    0  0.00000000000E+00  0.00000000000E+00 -0.24564887747E+03  0.12930274344E+04  0.12694788597E+04 0.  0.
        4    1    3    3  502    0  0.45786477835E+03 -0.33489444014E+03  0.16723538472E+03  0.59140825839E+03  0.12699999809E+01 0.  1.
       -4    1    3    3    0  502 -0.45786477835E+03  0.33489444014E+03 -0.41288426219E+03  0.70161917602E+03  0.12699999809E+01 0. -1.
</event>
<event>
 5   0  0.2430898E-04  0.1253791E+04  0.7818609E-02  0.9067034E-01
       -2   -1    0    0    0  501  0.00000000000E+00  0.00000000000E+00  0.27082795086E+03  0.27082795088E+03  0.25500000920E-02 0.  1.
        2   -1    0    0  501    0  0.00000000000E+00  0.00000000000E+00 -0.14510984508E+04  0.14510984508E+04  0.25500000920E-02 0. -1.
    10030    2    1    2    0    0  0.00000000000E+00  0.00000000000E+00 -0.11802704999E+04  0.17219264017E+04  0.12537910830E+04 0.  0.
        1    1    3    3  502    0 -0.26540270018E+03  0.31596456355E+03  0.58013507260E+02  0.41669865098E+03  0.50400001928E-02 0.  1.
       -1    1    3    3    0  502  0.26540270018E+03 -0.31596456355E+03 -0.12382840072E+04  0.13052277507E+04  0.50400001928E-02 0. -1.
</event>
<event>
 5   0  0.2430898E-04  0.2219669E+04  0.7818609E-02  0.8510286E-01
       -2   -1    0    0    0  501  0.00000000000E+00  0.00000000000E+00  0.10103141955E+04  0.10103141955E+04  0.25500000920E-02 0.  1.
        2   -1    0    0  501    0  0.00000000000E+00  0.00000000000E+00 -0.12191584706E+04  0.12191584706E+04  0.25500000920E-02 0. -1.
    10030    2    1    2    0    0  0.00000000000E+00  0.00000000000E+00 -0.20884427505E+03  0.22294726661E+04  0.22196694434E+04 0.  0.
        1    1    3    3  502    0 -0.51632418590E+03  0.29728766463E+02 -0.10907257398E+04  0.12071276254E+04  0.50400001928E-02 0. -1.
       -1    1    3    3    0  502  0.51632418590E+03 -0.29728766463E+02  0.88188146473E+03  0.10223450408E+04  0.50400001928E-02 0.  1.
</event>
<event>
 5   0  0.1156733E-04  0.2126842E+04  0.7818609E-02  0.8549510E-01
       -1   -1    0    0    0  501  0.00000000000E+00  0.00000000000E+00  0.99159026527E+03  0.99159026528E+03  0.50400001928E-02 0. -1.
        1   -1    0    0  501    0  0.00000000000E+00  0.00000000000E+00 -0.11404553497E+04  0.11404553497E+04  0.50400001928E-02 0.  1.
    10030    2    1    2    0    0  0.00000000000E+00  0.00000000000E+00 -0.14886508446E+03  0.21320456150E+04  0.21268421876E+04 0.  0.
        2    1    3    3  502    0  0.32965130494E+03  0.98842398076E+03  0.13871992443E+03  0.10511399365E+04  0.25500000920E-02 0.  1.
       -2    1    3    3    0  502 -0.32965130494E+03 -0.98842398076E+03 -0.28758500889E+03  0.10809056786E+04  0.25500000920E-02 0. -1.
</event>
<event>
 5   0  0.1130848E-04  0.1962790E+04  0.7818609E-02  0.8624218E-01
       -1   -1    0    0    0  501  0.00000000000E+00  0.00000000000E+00  0.91807586954E+03  0.91807586955E+03  0.50400001928E-02 0. -1.
        1   -1    0    0  501    0  0.00000000000E+00  0.00000000000E+00 -0.10490814975E+04  0.10490814975E+04  0.50400001928E-02 0.  1.
    10030    2    1    2    0    0  0.00000000000E+00  0.00000000000E+00 -0.13100562797E+03  0.19671573671E+04  0.19627902670E+04 0.  0.
        5    1    3    3  502    0  0.14413819754E+03 -0.30174254485E+03 -0.99020941351E+03  0.10451608278E+04  0.46999998093E+01 0.  1.
       -5    1    3    3    0  502 -0.14413819754E+03  0.30174254485E+03  0.85920378554E+03  0.92199653928E+03  0.46999998093E+01 0. -1.
</event>
<event>
 5   0  0.2579241E-04  0.2086773E+04  0.7818609E-02  0.8567092E-01
        2   -1    0    0  501    0  0.00000000000E+00  0.00000000000E+00  0.14263133814E+04  0.14263133814E+04  0.25500000920E-02 0. -1.
       -2   -1    0    0    0  501  0.00000000000E+00  0.00000000000E+00 -0.76326531563E+03  0.76326531563E+03  0.25500000920E-02 0.  1.
    10030    2    1    2    0    0  0.00000000000E+00  0.00000000000E+00  0.66304806572E+03  0.21895786970E+04  0.20867731388E+04 0.  0.
        5    1    3    3  502    0 -0.46389183973E+03 -0.54280858926E+03  0.11297913006E+04  0.13365205859E+04  0.46999998093E+01 0.  1.
       -5    1    3    3    0  502  0.46389183973E+03  0.54280858926E+03 -0.46674323492E+03  0.85305811108E+03  0.46999998093E+01 0. -1.
</event>
<event>
 5   0  0.1186038E-04  0.2100052E+04  0.7818609E-02  0.8561221E-01
       -1   -1    0    0    0  501  0.00000000000E+00  0.00000000000E+00  0.11926290983E+04  0.11926290983E+04  0.50400001928E-02 0. -1.
        1   -1    0    0  501    0  0.00000000000E+00  0.00000000000E+00 -0.92447362451E+03  0.92447362452E+03  0.50400001928E-02 0.  1.
    10030    2    1    2    0    0  0.00000000000E+00  0.00000000000E+00  0.26815547380E+03  0.21171027228E+04  0.21000515663E+04 0.  0.
        4    1    3    3  502    0  0.55281186126E+03 -0.70288240178E+03  0.68891711641E+03  0.11288281671E+04  0.12699999809E+01 0. -1.
       -4    1    3    3    0  502 -0.55281186126E+03  0.70288240178E+03 -0.42076164262E+03  0.98827455572E+03  0.12699999809E+01 0.  1.
</event>
<event>
 5   0  0.2448804E-04  0.2128340E+04  0.7818609E-02  0.8548861E-01
       -2   -1    0    0    0  501  0.00000000000E+00  0.00000000000E+00  0.10721937914E+04  0.10721937914E+04  0.25500000920E-02 0. -1.
        2   -1    0    0  501    0  0.00000000000E+00  0.00000000000E+00 -0.10562063494E+04  0.10562063494E+04  0.25500000920E-02 0.  1.
    10030    2    1    2    0    0  0.00000000000E+00  0.00000000000E+00  0.15987442058E+02  0.21284001408E+04  0.21283400953E+04 0.  0.
        2    1    3    3  502    0 -0.92807811157E+03 -0.49840731895E+03 -0.14273894116E+03  0.10630678445E+04  0.25500000920E-02 0.  1.
       -2    1    3    3    0  502  0.92807811157E+03  0.49840731895E+03  0.15872638322E+03  0.10653322963E+04  0.25500000920E-02 0. -1.
</event>
<event>
 5   0  0.1122711E-04  0.2081106E+04  0.7818609E-02  0.8569612E-01
       -1   -1    0    0    0  501  0.00000000000E+00  0.00000000000E+00  0.33464034756E+03  0.33464034760E+03  0.50400001928E-02 0.  1.
        1   -1    0    0  501    0  0.00000000000E+00  0.00000000000E+00 -0.32355642222E+04  0.32355642223E+04  0.50400001928E-02 0. -1.
    10030    2    1    2    0    0  0.00000000000E+00  0.00000000000E+00 -0.29009238747E+04  0.35702045699E+04  0.20811057983E+04 0.  0.
        1    1    3    3  502    0  0.58862058688E+03  0.60018868340E+03 -0.25024760282E+04  0.26399028245E+04  0.50400001928E-02 0.  1.
       -1    1    3    3    0  502 -0.58862058688E+03 -0.60018868340E+03 -0.39844784644E+03  0.93030174532E+03  0.50400001928E-02 0. -1.
</event>
<event>
 5   0  0.2512839E-04  0.2040864E+04  0.7818609E-02  0.8587750E-01
       -2   -1    0    0    0  501  0.00000000000E+00  0.00000000000E+00  0.12661872567E+04  0.12661872567E+04  0.25500000920E-02 0.  1.
        2   -1    0    0  501    0  0.00000000000E+00  0.00000000000E+00 -0.82237584317E+03  0.82237584317E+03  0.25500000920E-02 0. -1.
    10030    2    1    2    0    0  0.00000000000E+00  0.00000000000E+00  0.44381141349E+03  0.20885630998E+04  0.20408643392E+04 0.  0.
        3    1    3    3  502    0  0.72919494317E+03  0.44175413201E+03  0.79573341825E+03  0.11662176733E+04  0.10100000352E+00 0.  1.
       -3    1    3    3    0  502 -0.72919494317E+03 -0.44175413201E+03 -0.35192200476E+03  0.92234542657E+03  0.10100000352E+00 0. -1.
</event>
<event>
 5   0  0.2579241E-04  0.2120542E+04  0.7818609E-02  0.8552248E-01
        2   -1    0    0  501    0  0.00000000000E+00  0.00000000000E+00  0.17444112453E+04  0.17444112453E+04  0.25500000920E-02 0. -1.
       -2   -1    0    0    0  501  0.00000000000E+00  0.00000000000E+00 -0.64444375149E+03  0.64444375150E+03  0.25500000920E-02 0.  1.
    10030    2    1    2    0    0  0.00000000000E+00  0.00000000000E+00  0.10999674938E+04  0.23888549968E+04  0.21205423147E+04 0.  0.
        5    1    3    3  502    0 -0.25815896289E+03  0.11264607789E+03 -0.60151400841E+03  0.66421109693E+03  0.46999998093E+01 0.  1.
       -5    1    3    3    0  502  0.25815896289E+03 -0.11264607789E+03  0.17014815022E+04  0.17246438999E+04  0.46999998093E+01 0. -1.
</event>
<event>
 5   0  0.1122711E-04  0.2086316E+04  0.7818609E-02  0.8567295E-01
        1   -1    0    0  501    0  0.00000000000E+00  0.00000000000E+00  0.69567936366E+03  0.69567936367E+03  0.50400001928E-02 0.  1.
       -1   -1    0    0    0  501  0.00000000000E+00  0.00000000000E+00 -0.15641962261E+04  0.15641962261E+04  0.50400001928E-02 0. -1.
    10030    2    1    2    0    0  0.00000000000E+00  0.00000000000E+00 -0.86851686243E+03  0.22598755898E+04  0.20863164048E+04 0.  0.
        1    1    3    3  502    0  0.35364000796E+03 -0.97754890905E+03 -0.34035203920E+03  0.10938476290E+04  0.50400001928E-02 0. -1.
       -1    1    3    3    0  502 -0.35364000796E+03  0.97754890905E+03 -0.52816482323E+03  0.11660279608E+04  0.50400001928E-02 0.  1.
</event>
<event>
 5   0  0.1186038E-04  0.2168261E+04  0.7818609E-02  0.8531756E-01
        1   -1    0    0  501    0  0.00000000000E+00  0.00000000000E+00  0.17068230241E+04  0.17068230241E+04  0.50400001928E-02 0.  1.
       -1   -1    0    0    0  501  0.00000000000E+00  0.00000000000E+00 -0.68861184881E+03  0.68861184883E+03  0.50400001928E-02 0. -1.
    10030    2    1    2    0    0  0.00000000000E+00  0.00000000000E+00  0.10182111753E+04  0.23954348729E+04  0.21682606469E+04 0.  0.
        4    1    3    3  502    0 -0.38145403506E+03  0.39384991164E+03 -0.52414443938E+03  0.75852088962E+03  0.12699999809E+01 0. -1.
       -4    1    3    3    0  502  0.38145403506E+03 -0.39384991164E+03  0.15423556147E+04  0.16369139833E+04  0.12699999809E+01 0.  1.
</event>
<event>
 5   0  0.8698750E-05  0.2082562E+04  0.7818609E-02  0.8568964E-01
        3   -1    0    0  501    0  0.00000000000E+00  0.00000000000E+00  0.53134426661E+03  0.53134427621E+03  0.10100000352E+00 0.  1.
       -3   -1    0    0    0  501  0.00000000000E+00  0.00000000000E+00 -0.20406086686E+04  0.20406086711E+04  0.10100000352E+00 0. -1.
    10030    2    1    2    0    0  0.00000000000E+00  0.00000000000E+00 -0.15092644020E+04  0.25719529473E+04  0.20825616265E+04 0.  0.
        2    1    3    3  502    0  0.26548323271E+03  0.12423424460E+03 -0.19886079371E+04  0.20100937843E+04  0.25500000920E-02 0. -1.
       -2    1    3    3    0  502 -0.26548323271E+03 -0.12423424460E+03  0.47934353509E+03  0.56185916298E+03  0.25500000920E-02 0.  1.
</event>
<event>
 5   0  0.1130848E-04  0.1740714E+04  0.7818609E-02  0.8738479E-01
       -1   -1    0    0    0  501  0.00000000000E+00  0.00000000000E+00  0.38283006258E+03  0.38283006261E+03  0.50400001928E-02 0. -1.
        1   -1    0    0  501    0  0.00000000000E+00  0.00000000000E+00 -0.19787393513E+04  0.19787393513E+04  0.50400001928E-02 0.  1.
    10030    2    1    2    0    0  0.00000000000E+00  0.00000000000E+00 -0.15959092887E+04  0.23615694139E+04  0.17407135430E+04 0.  0.
        5    1    3    3  502    0  0.57997479891E+01  0.71209868482E+03 -0.14768045856E+04  0.16395401941E+04  0.46999998093E+01 0.  1.
       -5    1    3    3    0  502 -0.57997479891E+01 -0.71209868482E+03 -0.11910470315E+03  0.72202921984E+03  0.46999998093E+01 0. -1.
</event>
<event>
 5   0  0.2579241E-04  0.2091107E+04  0.7818609E-02  0.8565171E-01
       -2   -1    0    0    0  501  0.00000000000E+00  0.00000000000E+00  0.96460510885E+03  0.96460510886E+03  0.25500000920E-02 0.  1.
        2   -1    0    0  501    0  0.00000000000E+00  0.00000000000E+00 -0.11332948191E+04  0.11332948191E+04  0.25500000920E-02 0. -1.
    10030    2    1    2    0    0  0.00000000000E+00  0.00000000000E+00 -0.16868971026E+03  0.20978999280E+04  0.20911068575E+04 0.  0.
        5    1    3    3  502    0  0.99583537063E+03 -0.18050393329E+03 -0.34766678821E+03  0.10701233765E+04  0.46999998093E+01 0.  1.
       -5    1    3    3    0  502 -0.99583537063E+03  0.18050393329E+03  0.17897707794E+03  0.10277765515E+04  0.46999998093E+01 0. -1.
</event>
<event>
 5   0  0.2579241E-04  0.2103289E+04  0.7818609E-02  0.8559796E-01
        2   -1    0    0  501    0  0.00000000000E+00  0.00000000000E+00  0.70017440353E+03  0.70017440354E+03  0.25500000920E-02 0. -1.
       -2   -1    0    0    0  501  0.00000000000E+00  0.00000000000E+00 -0.15795439078E+04  0.15795439078E+04  0.25500000920E-02 0.  1.
    10030    2    1    2    0    0  0.00000000000E+00  0.00000000000E+00 -0.87936950423E+03  0.22797183113E+04  0.21032890562E+04 0.  0.
        5    1    3    3  502    0  0.95143174388E+02  0.92186406014E+03 -0.97841751027E+03  0.13476677942E+04  0.46999998093E+01 0. -1.
       -5    1    3    3    0  502 -0.95143174388E+02 -0.92186406014E+03  0.99048006047E+02  0.93205051714E+03  0.46999998093E+01 0.  1.
</event>
<event>
 5   0  0.2512839E-04  0.2017296E+04  0.7818609E-02  0.8598577E-01
        2   -1    0    0  501    0  0.00000000000E+00  0.00000000000E+00  0.27023114600E+04  0.27023114600E+04  0.25500000920E-02 0.  1.
       -2   -1    0    0    0  501  0.00000000000E+00  0.00000000000E+00 -0.37648157324E+03  0.37648157325E+03  0.25500000920E-02 0. -1.
    10030    2    1    2    0    0  0.00000000000E+00  0.00000000000E+00  0.23258298868E+04  0.30787930332E+04  0.20172956847E+04 0.  0.
        3    1    3    3  502    0  0.27066122249E+03 -0.49677030128E+03  0.24373884293E+04  0.25021791692E+04  0.10100000352E+00 0.  1.
       -3    1    3    3    0  502 -0.27066122249E+03  0.49677030128E+03 -0.11155854250E+03  0.57661386403E+03  0.10100000352E+00 0. -1.
</event>
<event>
 5   0  0.2579241E-04  0.1992854E+04  0.7818609E-02  0.8609969E-01
       -2   -1    0    0    0  501  0.00000000000E+00  0.00000000000E+00  0.41855467732E+03  0.41855467733E+03  0.25500000920E-02 0. -1.
        2   -1    0    0  501    0  0.00000000000E+00  0.00000000000E+00 -0.23721317046E+04  0.23721317046E+04  0.25500000920E-02 0.  1.
    10030    2    1    2    0    0  0.00000000000E+00  0.00000000000E+00 -0.19535770273E+04  0.27906863819E+04  0.19928540541E+04 0.  0.
        5    1    3    3  502    0  0.31183202651E+02 -0.31447835616E+03 -0.23000795157E+04  0.23216926793E+04  0.46999998093E+01 0.  1.
       -5    1    3    3    0  502 -0.31183202651E+02  0.31447835616E+03  0.34650248842E+03  0.46899370262E+03  0.46999998093E+01 0. -1.
</event>
<event>
 5   0  0.1156733E-04  0.2109890E+04  0.7818609E-02  0.8556899E-01
        1   -1    0    0  501    0  0.00000000000E+00  0.00000000000E+00  0.57116858590E+03  0.57116858592E+03  0.50400001928E-02 0.  1.
       -1   -1    0    0    0  501  0.00000000000E+00  0.00000000000E+00 -0.19484766947E+04  0.19484766947E+04  0.50400001928E-02 0. -1.
    10030    2    1    2    0    0  0.00000000000E+00  0.00000000000E+00 -0.13773081088E+04  0.25196452806E+04  0.21098897397E+04 0.  0.
        2    1    3    3  502    0 -0.20458587138E+03 -0.87306194406E+03 -0.25018507551E+02  0.89706101391E+03  0.25500000920E-02 0.  1.
       -2    1    3    3    0  502  0.20458587138E+03  0.87306194406E+03 -0.13522896012E+04  0.16225842667E+04  0.25500000920E-02 0. -1.
</event>
<event>
 5   0  0.2512839E-04  0.2354910E+04  0.7818609E-02  0.8456580E-01
        2   -1    0    0  501    0  0.00000000000E+00  0.00000000000E+00  0.12984184552E+04  0.12984184552E+04  0.25500000920E-02 0. -1.
       -2   -1    0    0    0  501  0.00000000000E+00  0.00000000000E+00 -0.10677605476E+04  0.10677605476E+04  0.25500000920E-02 0.  1.
    10030    2    1    2    0    0  0.00000000000E+00  0.00000000000E+00  0.23065790759E+03  0.23661790029E+04  0.23549097654E+04 0.  0.
        3    1    3    3  502    0  0.10919726802E+04  0.18943842102E+03 -0.28420276698E+03  0.11441426802E+04  0.10100000352E+00 0.  1.
       -3    1    3    3    0  502 -0.10919726802E+04 -0.18943842102E+03  0.51486067458E+03  0.12220363227E+04  0.10100000352E+00 0. -1.
</event>
<event>
 5   0  0.2467483E-04  0.1981927E+04  0.7818609E-02  0.8615117E-01
       -2   -1    0    0    0  501  0.00000000000E+00  0.00000000000E+00  0.71021069130E+03  0.71021069130E+03  0.25500000920E-02 0.  1.
        2   -1    0    0  501    0  0.00000000000E+00  0.00000000000E+00 -0.13827004976E+04  0.13827004976E+04  0.25500000920E-02 0. -1.
    10030    2    1    2    0    0  0.00000000000E+00  0.00000000000E+00 -0.67248980629E+03  0.20929111889E+04  0.19819270181E+04 0.  0.
        4    1    3    3  502    0  0.77830467307E+03  0.12664830590E+03 -0.97002775635E+03  0.12501013633E+04  0.12699999809E+01 0. -1.
       -4    1    3    3    0  502 -0.77830467307E+03 -0.12664830590E+03  0.29753795005E+03  0.84280982561E+03  0.12699999809E+01 0.  1.
</event>
<event>
 5   0  0.2512839E-04  0.2263801E+04  0.7818609E-02  0.8492332E-01
       -2   -1    0    0    0  501  0.00000000000E+00  0.00000000000E+00  0.11756924961E+04  0.11756924961E+04  0.25500000920E-02 0.  1.
        2   -1    0    0  501    0  0.00000000000E+00  0.00000000000E+00 -0.10897395187E+04  0.10897395187E+04  0.25500000920E-02 0. -1.
    10030    2    1    2    0    0  0.00000000000E+00  0.00000000000E+00  0.85952977436E+02  0.22654320148E+04  0.22638008524E+04 0.  0.
        3    1    3    3  502    0 -0.10278596121E+04  0.38570674908E+03 -0.23278237709E+03  0.11222534133E+04  0.10100000352E+00 0. -1.
       -3    1    3    3    0  502  0.10278596121E+04 -0.38570674908E+03  0.31873535453E+03  0.11431786015E+04  0.10100000352E+00 0.  1.
</event>
<event>
 5   0  0.1156733E-04  0.2294998E+04  0.7818609E-02  0.8479896E-01
       -1   -1    0    0    0  501  0.00000000000E+00  0.00000000000E+00  0.13277632567E+04  0.13277632567E+04  0.50400001928E-02 0.  1.
        1   -1    0    0  501    0  0.00000000000E+00  0.00000000000E+00 -0.99170827396E+03  0.99170827397E+03  0.50400001928E-02 0. -1.
    10030    2    1    2    0    0  0.00000000000E+00  0.00000000000E+00  0.33605498276E+03  0.23194715307E+04  0.22949978715E+04 0.  0.
        2    1    3    3  502    0 -0.71350079227E+03 -0.19465190806E+03  0.10547553854E+04  0.12882087055E+04  0.25500000920E-02 0.  1.
       -2    1    3    3    0  502  0.71350079227E+03  0.19465190806E+03 -0.71870040264E+03  0.10312628252E+04  0.25500000920E-02 0. -1.
</event>
<event>
 5   0  0.2448804E-04  0.2122510E+04  0.7818609E-02  0.8551392E-01
        2   -1    0    0  501    0  0.00000000000E+00  0.00000000000E+00  0.14555185076E+04  0.14555185076E+04  0.25500000920E-02 0.  1.
       -2   -1    0    0    0  501  0.00000000000E+00  0.00000000000E+00 -0.77378795491E+03  0.77378795491E+03  0.25500000920E-02 0. -1.
    10030    2    1    2    0    0  0.00000000000E+00  0.00000000000E+00  0.68173055272E+03  0.22293064625E+04  0.21225104846E+04 0.  0.
        2    1    3    3  502    0 -0.47035841550E+03 -0.90641827060E+03  0.64424401153E+03  0.12074276238E+04  0.25500000920E-02 0.  1.
       -2    1    3    3    0  502  0.47035841550E+03  0.90641827060E+03  0.37486541193E+02  0.10218788387E+04  0.25500000920E-02 0. -1.
</event>
<event>
 5   0  0.1186038E-04  0.2088196E+04  0.7818609E-02  0.8566461E-01
        1   -1    0    0  501    0  0.00000000000E+00  0.00000000000E+00  0.10163369302E+04  0.10163369302E+04  0.50400001928E-02 0. -1.
       -1   -1    0    0    0  501  0.00000000000E+00  0.00000000000E+00 -0.10726177175E+04  0.10726177175E+04  0.50400001928E-02 0.  1.
    10030    2    1    2    0    0  0.00000000000E+00  0.00000000000E+00 -0.56280787297E+02  0.20889546477E+04  0.20881963493E+04 0.  0.
        4    1    3    3  502    0  0.13775475231E+03  0.14110030138E+03 -0.10538193651E+04  0.10721112507E+04  0.12699999809E+01 0.  1.
       -4    1    3    3    0  502 -0.13775475231E+03 -0.14110030138E+03  0.99753857779E+03  0.10168433969E+04  0.12699999809E+01 0. -1.
</event>
<event>
 5   0  0.1186038E-04  0.1979336E+04  0.7818609E-02  0.8616343E-01
        1   -1    0    0  501    0  0.00000000000E+00  0.00000000000E+00  0.12935656394E+04  0.12935656394E+04  0.50400001928E-02 0.  1.
       -1   -1    0    0    0  501  0.00000000000E+00  0.00000000000E+00 -0.75716475075E+03  0.75716475077E+03  0.50400001928E-02 0. -1.
    10030    2    1    2    0    0  0.00000000000E+00  0.00000000000E+00  0.53640088868E+03  0.20507303902E+04  0.19793355501E+04 0.  0.
        4    1    3    3  502    0  0.85481190487E+03 -0.35486476502E+03 -0.94880117302E+02  0.93039574576E+03  0.12699999809E+01 0. -1.
       -4    1    3    3    0  502 -0.85481190487E+03  0.35486476502E+03  0.63128100598E+03  0.11203346445E+04  0.12699999809E+01 0.  1.
</event>
<event>
 5   0  0.2467483E-04  0.2083098E+04  0.7818609E-02  0.8568725E-01
       -2   -1    0    0    0  501  0.00000000000E+00  0.00000000000E+00  0.52002031958E+03  0.52002031958E+03  0.25500000920E-02 0.  1.
        2   -1    0    0  501    0  0.00000000000E+00  0.00000000000E+00 -0.20861195273E+04  0.20861195273E+04  0.25500000920E-02 0. -1.
    10030    2    1    2    0    0  0.00000000000E+00  0.00000000000E+00 -0.15660992078E+04  0.26061398469E+04  0.20830982150E+04 0.  0.
        4    1    3    3  502    0 -0.19636866039E+02 -0.62240588833E+03 -0.18275759180E+04  0.19307537505E+04  0.12699999809E+01 0. -1.
       -4    1    3    3    0  502  0.19636866039E+02  0.62240588833E+03  0.26147671020E+03  0.67538609640E+03  0.12699999809E+01 0.  1.
</event>
<event>
 5   0  0.1042395E-04  0.2093130E+04  0.7818609E-02  0.8564276E-01
        1   -1    0    0  501    0  0.00000000000E+00  0.00000000000E+00  0.15201138003E+04  0.15201138003E+04  0.50400001928E-02 0. -1.
       -1   -1    0    0    0  501  0.00000000000E+00  0.00000000000E+00 -0.72053681915E+03  0.72053681916E+03  0.50400001928E-02 0.  1.
    10030    2    1    2    0    0  0.00000000000E+00  0.00000000000E+00  0.79957698116E+03  0.22406506195E+04  0.20931296782E+04 0.  0.
        3    1    3    3  502    0  0.27866914096E+03 -0.74887717896E+03  0.11233120370E+04  0.13785149481E+04  0.10100000352E+00 0. -1.
       -3    1    3    3    0  502 -0.27866914096E+03  0.74887717896E+03 -0.32373505588E+03  0.86213567140E+03  0.10100000352E+00 0.  1.
</event>
<event>
 5   0  0.1156733E-04  0.2099614E+04  0.7818609E-02  0.8561413E-01
        1   -1    0    0  501    0  0.00000000000E+00  0.00000000000E+00  0.23367599845E+04  0.23367599845E+04  0.50400001928E-02 0.  1.
       -1   -1    0    0    0  501  0.00000000000E+00  0.00000000000E+00 -0.47163379081E+03  0.47163379083E+03  0.50400001928E-02 0. -1.
    10030    2    1    2    0    0  0.00000000000E+00  0.00000000000E+00  0.18651261937E+04  0.28083937754E+04  0.20996142215E+04 0.  0.
        2    1    3    3  502    0 -0.16765650660E+03 -0.72416527513E+03 -0.59022861448E+02  0.74565927077E+03  0.25500000920E-02 0. -1.
       -2    1    3    3    0  502  0.16765650660E+03  0.72416527513E+03  0.19241490552E+04  0.20627345046E+04  0.25500000920E-02 0.  1.
</event>
<event>
 5   0  0.2512839E-04  0.1421336E+04  0.7818609E-02  0.8938517E-01
       -2   -1    0    0    0  501  0.00000000000E+00  0.00000000000E+00  0.97492944703E+03  0.97492944703E+03  0.25500000920E-02 0. -1.
        2   -1    0    0  501    0  0.00000000000E+00  0.00000000000E+00 -0.51803679051E+03  0.51803679051E+03  0.25500000920E-02 0.  1.
    10030    2    1    2    0    0  0.00000000000E+00  0.00000000000E+00  0.45689265652E+03  0.14929662375E+04  0.14213364439E+04 0.  0.
        3    1    3    3  502    0  0.47814141074E+03  0.90381804698E+02 -0.31559520056E+03  0.57999001725E+03  0.10100000352E+00 0.  1.
       -3    1    3    3    0  502 -0.47814141074E+03 -0.90381804698E+02  0.77248785709E+03  0.91297622030E+03  0.10100000352E+00 0. -1.
</event>
<event>
 5   0  0.2512839E-04  0.2064379E+04  0.7818609E-02  0.8577099E-01
        2   -1    0    0  501    0  0.00000000000E+00  0.00000000000E+00  0.17277649788E+04  0.17277649788E+04  0.25500000920E-02 0.  1.
       -2   -1    0    0    0  501  0.00000000000E+00  0.00000000000E+00 -0.61664385401E+03  0.61664385402E+03  0.25500000920E-02 0. -1.
    10030    2    1    2    0    0  0.00000000000E+00  0.00000000000E+00  0.11111211248E+04  0.23444088328E+04  0.20643794761E+04 0.  0.
        3    1    3    3  502    0  0.32981039893E+03  0.48166783765E+03 -0.41116682208E+03  0.71402869050E+03  0.10100000352E+00 0. -1.
       -3    1    3    3    0  502 -0.32981039893E+03 -0.48166783765E+03  0.15222879469E+04  0.16303801423E+04  0.10100000352E+00 0.  1.
</event>
<event>
 5   0  0.2467483E-04  0.2089778E+04  0.7818609E-02  0.8565760E-01
        2   -1    0    0  501    0  0.00000000000E+00  0.00000000000E+00  0.22924728788E+04  0.22924728788E+04  0.25500000920E-02 0. -1.
       -2   -1    0    0    0  501  0.00000000000E+00  0.00000000000E+00 -0.47625109681E+03  0.47625109682E+03  0.25500000920E-02 0.  1.
    10030    2    1    2    0    0  0.00000000000E+00  0.00000000000E+00  0.18162217820E+04  0.27687239756E+04  0.20897777135E+04 0.  0.
        4    1    3    3  502    0  0.34615918578E+03  0.98582850721E+03  0.89440084870E+03  0.13753685028E+04  0.12699999809E+01 0. -1.
       -4    1    3    3    0  502 -0.34615918578E+03 -0.98582850721E+03  0.92182093326E+03  0.13933554727E+04  0.12699999809E+01 0.  1.
</event>
<event>
 5   0  0.1122711E-04  0.2092445E+04  0.7818609E-02  0.8564579E-01
       -1   -1    0    0    0  501  0.00000000000E+00  0.00000000000E+00  0.11019851366E+04  0.11019851366E+04  0.50400001928E-02 0.  1.
        1   -1    0    0  501    0  0.00000000000E+00  0.00000000000E+00 -0.99328175661E+03  0.99328175662E+03  0.50400001928E-02 0. -1.
    10030    2    1    2    0    0  0.00000000000E+00  0.00000000000E+00  0.10870338002E+03  0.20952668933E+04  0.20924452034E+04 0.  0.
        1    1    3    3  502    0 -0.43617389611E+03  0.19716886738E+03 -0.87720305370E+03  0.99930397145E+03  0.50400001928E-02 0. -1.
       -1    1    3    3    0  502  0.43617389611E+03 -0.19716886738E+03  0.98590643372E+03  0.10959629218E+04  0.50400001928E-02 0.  1.
</event>
<event>
 5   0  0.2467483E-04  0.1930865E+04  0.7818609E-02  0.8639644E-01
       -2   -1    0    0    0  501  0.00000000000E+00  0.00000000000E+00  0.42976575826E+03  0.42976575827E+03  0.25500000920E-02 0. -1.
        2   -1    0    0  501    0  0.00000000000E+00  0.00000000000E+00 -0.21687617411E+04  0.21687617411E+04  0.25500000920E-02 0.  1.
    10030    2    1    2    0    0  0.00000000000E+00  0.00000000000E+00 -0.17389959829E+04  0.25985274994E+04  0.19308646086E+04 0.  0.
        4    1    3    3  502    0  0.69368107652E+03 -0.63403595945E+03 -0.57201300082E+03  0.11001797670E+04  0.12699999809E+01 0.  1.
       -4    1    3    3    0  502 -0.69368107652E+03  0.63403595945E+03 -0.11669829820E+04  0.14983477324E+04  0.12699999809E+01 0. -1.
</event>
<event>
 5   0  0.1042395E-04  0.1418144E+04  0.7818609E-02  0.8940789E-01
       -1   -1    0    0    0  501  0.00000000000E+00  0.00000000000E+00  0.10682499979E+04  0.10682499979E+04  0.50400001928E-02 0.  1.
        1   -1    0    0  501    0  0.00000000000E+00  0.00000000000E+00 -0.47066027514E+03  0.47066027517E+03  0.50400001928E-02 0. -1.
    10030    2    1    2    0    0  0.00000000000E+00  0.00000000000E+00  0.59758972273E+03  0.15389102730E+04  0.14181436288E+04 0.  0.
        3    1    3    3  502    0  0.24607768538E+03 -0.30837002435E+03  0.93815158799E+03  0.10177301761E+04  0.10100000352E+00 0.  1.
       -3    1    3    3    0  502 -0.24607768538E+03  0.30837002435E+03 -0.34056186526E+03  0.52118009692E+03  0.10100000352E+00 0. -1.
</event>
<event>
 5   0  0.2512839E-04  0.2143224E+04  0.7818609E-02  0.8542438E-01
       -2   -1    0    0    0  501  0.00000000000E+00  0.00000000000E+00  0.10528333976E+04  0.10528333976E+04  0.25500000920E-02 0. -1.
        2   -1    0    0  501    0  0.00000000000E+00  0.00000000000E+00 -0.10907258651E+04  0.10907258651E+04  0.25500000920E-02 0.  1.
    10030    2    1    2    0    0  0.00000000000E+00  0.00000000000E+00 -0.37892467470E+02  0.21435592627E+04  0.21432243171E+04 0.  0.
        3    1    3    3  502    0  0.86407436091E+03  0.65119959480E+02  0.61161839197E+03  0.10606329138E+04  0.10100000352E+00 0. -1.
       -3    1    3    3    0  502 -0.86407436091E+03 -0.65119959480E+02 -0.64951085944E+03  0.10829263489E+04  0.10100000352E+00 0.  1.
</event>
<event>
 5   0  0.2512839E-04  0.1963575E+04  0.7818609E-02  0.8623842E-01
        2   -1    0    0  501    0  0.00000000000E+00  0.00000000000E+00  0.14184879349E+04  0.14184879349E+04  0.25500000920E-02 0.  1.
       -2   -1    0    0    0  501  0.00000000000E+00  0.00000000000E+00 -0.67953139766E+03  0.67953139767E+03  0.25500000920E-02 0. -1.
    10030    2    1    2    0    0  0.00000000000E+00  0.00000000000E+00  0.73895653722E+03  0.20980193326E+04  0.19635754011E+04 0.  0.
        3    1    3    3  502    0  0.36340111773E+03  0.77208891679E+03 -0.14928008558E+03  0.86629453533E+03  0.10100000352E+00 0. -1.
       -3    1    3    3    0  502 -0.36340111773E+03 -0.77208891679E+03  0.88823662280E+03  0.12317247972E+04  0.10100000352E+00 0.  1.
</event>
<event>
 5   0  0.1122711E-04  0.2112431E+04  0.7818609E-02  0.8555787E-01
       -1   -1    0    0    0  501  0.00000000000E+00  0.00000000000E+00  0.28017141750E+04  0.28017141750E+04  0.50400001928E-02 0.  1.
        1   -1    0    0  501    0  0.00000000000E+00  0.00000000000E+00 -0.39818166999E+03  0.39818167002E+03  0.50400001928E-02 0. -1.
    10030    2    1    2    0    0  0.00000000000E+00  0.00000000000E+00  0.24035325050E+04  0.31998958450E+04  0.21124310441E+04 0.  0.
        1    1    3    3  502    0 -0.50752067186E+03  0.92560562039E+03  0.11478210677E+04  0.15594281645E+04  0.50400001928E-02 0.  1.
       -1    1    3    3    0  502  0.50752067186E+03 -0.92560562039E+03  0.12557114373E+04  0.16404676805E+04  0.50400001928E-02 0. -1.
</event>
<event>
 5   0  0.1122711E-04  0.2102932E+04  0.7818609E-02  0.8559953E-01
        1   -1    0    0  501    0  0.00000000000E+00  0.00000000000E+00  0.82033133390E+03  0.82033133391E+03  0.50400001928E-02 0.  1.
       -1   -1    0    0    0  501  0.00000000000E+00  0.00000000000E+00 -0.13477245967E+04  0.13477245967E+04  0.50400001928E-02 0. -1.
    10030    2    1    2    0    0  0.00000000000E+00  0.00000000000E+00 -0.52739326280E+03  0.21680559306E+04  0.21029319686E+04 0.  0.
        1    1    3    3  502    0  0.51333858067E+02  0.46697679450E+03 -0.12335074233E+04  0.13199405498E+04  0.50400001928E-02 0. -1.
       -1    1    3    3    0  502 -0.51333858067E+02 -0.46697679450E+03  0.70611416049E+03  0.84811538086E+03  0.50400001928E-02 0.  1.
</event>
<event>
 5   0  0.2430898E-04  0.1143614E+04  0.7818609E-02  0.9163696E-01
        2   -1    0    0  501    0  0.00000000000E+00  0.00000000000E+00  0.52454920903E+03  0.52454920903E+03  0.25500000920E-02 0.  1.
       -2   -1    0    0    0  501  0.00000000000E+00  0.00000000000E+00 -0.62332192111E+03  0.62332192111E+03  0.25500000920E-02 0. -1.
    10030    2    1    2    0    0  0.00000000000E+00  0.00000000000E+00 -0.98772712084E+02  0.11478711301E+04  0.11436136073E+04 0.  0.
        1    1    3    3  502    0 -0.17845087674E+03 -0.59166654695E+02  0.49264036093E+03  0.52729492097E+03  0.50400001928E-02 0.  1.
       -1    1    3    3    0  502  0.17845087674E+03  0.59166654695E+02 -0.59141307301E+03  0.62057620918E+03  0.50400001928E-02 0. -1.
</event>
<event>
 5   0  0.1186038E-04  0.2107673E+04  0.7818609E-02  0.8557871E-01
       -1   -1    0    0    0  501  0.00000000000E+00  0.00000000000E+00  0.10517167439E+04  0.10517167440E+04  0.50400001928E-02 0. -1.
        1   -1    0    0  501    0  0.00000000000E+00  0.00000000000E+00 -0.10559600838E+04  0.10559600838E+04  0.50400001928E-02 0.  1.
    10030    2    1    2    0    0  0.00000000000E+00  0.00000000000E+00 -0.42433398449E+01  0.21076768278E+04  0.21076725562E+04 0.  0.
        4    1    3    3  502    0  0.67960945488E+02 -0.98498354969E+03  0.36633260835E+03  0.10530966129E+04  0.12699999809E+01 0. -1.
       -4    1    3    3    0  502 -0.67960945488E+02  0.98498354969E+03 -0.37057594820E+03  0.10545802148E+04  0.12699999809E+01 0.  1.
</event>
<event>
 5   0  0.2579241E-04  0.2279963E+04  0.7818609E-02  0.8485863E-01
        2   -1    0    0  501    0  0.00000000000E+00  0.00000000000E+00  0.21193461493E+04  0.21193461493E+04  0.25500000920E-02 0.  1.
       -2   -1    0    0    0  501  0.00000000000E+00  0.00000000000E+00 -0.61318825758E+03  0.61318825759E+03  0.25500000920E-02 0. -1.
    10030    2    1    2    0    0  0.00000000000E+00  0.00000000000E+00  0.15061578917E+04  0.27325344068E+04  0.22799633089E+04 0.  0.
        5    1    3    3  502    0  0.24616548276E+03 -0.89458835199E+03  0.15468531941E+04  0.18037911904E+04  0.46999998093E+01 0.  1.
       -5    1    3    3    0  502 -0.24616548276E+03  0.89458835199E+03 -0.40695302469E+02  0.92874321642E+03  0.46999998093E+01 0. -1.
</event>
<event>
 5   0  0.1156733E-04  0.2075572E+04  0.7818609E-02  0.8572081E-01
        1   -1    0    0  501    0  0.00000000000E+00  0.00000000000E+00  0.11452370540E+04  0.11452370540E+04  0.50400001928E-02 0.  1.
       -1   -1    0    0    0  501  0.00000000000E+00  0.00000000000E+00 -0.94041628093E+03  0.94041628095E+03  0.50400001928E-02 0. -1.
    10030    2    1    2    0    0  0.00000000000E+00  0.00000000000E+00  0.20482077302E+03  0.20856533349E+04  0.20755717970E+04 0.  0.
        2    1    3    3  502    0 -0.25105686665E+03  0.56869125121E+03  0.93744631363E+03  0.11248310453E+04  0.25500000920E-02 0.  1.
       -2    1    3    3    0  502  0.25105686665E+03 -0.56869125121E+03 -0.73262554061E+03  0.96082228963E+03  0.25500000920E-02 0. -1.
</event>
<event>
 5   0  0.1130848E-04  0.2080761E+04  0.7818609E-02  0.8569766E-01
       -1   -1    0    0    0  501  0.00000000000E+00  0.00000000000E+00  0.11699725967E+04  0.11699725968E+04  0.50400001928E-02 0. -1.
        1   -1    0    0  501    0  0.00000000000E+00  0.00000000000E+00 -0.92514247673E+03  0.92514247675E+03  0.50400001928E-02 0.  1.
    10030    2    1    2    0    0  0.00000000000E+00  0.00000000000E+00  0.24483012002E+03  0.20951150735E+04  0.20807607704E+04 0.  0.
        5    1    3    3  502    0  0.62874935415E+03  0.74952607466E+03  0.47876921347E+03  0.10892002280E+04  0.46999998093E+01 0. -1.
       -5    1    3    3    0  502 -0.62874935415E+03 -0.74952607466E+03 -0.23393909346E+03  0.10059148455E+04  0.46999998093E+01 0.  1.
</event>
<event>
 5   0  0.1042395E-04  0.2125651E+04  0.7818609E-02  0.8550027E-01
        1   -1    0    0  501    0  0.00000000000E+00  0.00000000000E+00  0.21576720276E+04  0.21576720276E+04  0.50400001928E-02 0.  1.
       -1   -1    0    0    0  501  0.00000000000E+00  0.00000000000E+00 -0.52352653053E+03  0.52352653056E+03  0.50400001928E-02 0. -1.
    10030    2    1    2    0    0  0.00000000000E+00  0.00000000000E+00  0.16341454970E+04  0.26811985581E+04  0.21256514772E+04 0.  0.
        3    1    3    3  502    0  0.66390261967E+03 -0.29987326851E+03 -0.15907808632E+03  0.74565173729E+03  0.10100000352E+00 0. -1.
       -3    1    3    3    0  502 -0.66390261967E+03  0.29987326851E+03  0.17932235834E+04  0.19355468209E+04  0.10100000352E+00 0.  1.
</event>
<event>
 5   0  0.2579241E-04  0.2205424E+04  0.7818609E-02  0.8516174E-01
       -2   -1    0    0    0  501  0.00000000000E+00  0.00000000000E+00  0.10271007853E+04  0.10271007853E+04  0.25500000920E-02 0. -1.
        2   -1    0    0  501    0  0.00000000000E+00  0.00000000000E+00 -0.11838899100E+04  0.11838899100E+04  0.25500000920E-02 0.  1.
    10030    2    1    2    0    0  0.00000000000E+00  0.00000000000E+00 -0.15678912465E+03  0.22109906953E+04  0.22054244546E+04 0.  0.
        5    1    3    3  502    0  0.10409166713E+04  0.36367656421E+03 -0.91993689112E+02  0.11064597096E+04  0.46999998093E+01 0.  1.
       -5    1    3    3    0  502 -0.10409166713E+04 -0.36367656421E+03 -0.64795435541E+02  0.11045309858E+04  0.46999998093E+01 0. -1.
</event>
<event>
 5   0  0.1156733E-04  0.2024034E+04  0.7818609E-02  0.8595466E-01
       -1   -1    0    0    0  501  0.00000000000E+00  0.00000000000E+00  0.60050055355E+03  0.60050055357E+03  0.50400001928E-02 0.  1.
        1   -1    0    0  501    0  0.00000000000E+00  0.00000000000E+00 -0.17055417769E+04  0.17055417769E+04  0.50400001928E-02 0. -1.
    10030    2    1    2    0    0  0.00000000000E+00  0.00000000000E+00 -0.11050412234E+04  0.23060423305E+04  0.20240343684E+04 0.  0.
        2    1    3    3  502    0 -0.71581180037E+03  0.52848868806E+03 -0.31652640810E+01  0.88977348008E+03  0.25500000920E-02 0.  1.
       -2    1    3    3    0  502  0.71581180037E+03 -0.52848868806E+03 -0.11018759593E+04  0.14162688504E+04  0.25500000920E-02 0. -1.
</event>
<event>
 5   0  0.1042395E-04  0.2139133E+04  0.7818609E-02  0.8544198E-01
        1   -1    0    0  501    0  0.00000000000E+00  0.00000000000E+00  0.97855049695E+03  0.97855049696E+03  0.50400001928E-02 0. -1.
       -1   -1    0    0    0  501  0.00000000000E+00  0.00000000000E+00 -0.11690480275E+04  0.11690480276E+04  0.50400001928E-02 0.  1.
    10030    2    1    2    0    0  0.00000000000E+00  0.00000000000E+00 -0.19049753060E+03  0.21475985245E+04  0.21391330284E+04 0.  0.
        3    1    3    3  502    0  0.70623228306E+03 -0.36049528419E+03  0.62540223039E+03  0.10098756594E+04  0.10100000352E+00 0.  1.
       -3    1    3    3    0  502 -0.70623228306E+03  0.36049528419E+03 -0.81589976099E+03  0.11377228651E+04  0.10100000352E+00 0. -1.
</event>
<event>
 5   0  0.2512839E-04  0.2124348E+04  0.7818609E-02  0.8550593E-01
        2   -1    0    0  501    0  0.00000000000E+00  0.00000000000E+00  0.14717996936E+04  0.14717996936E+04  0.25500000920E-02 0. -1.
       -2   -1    0    0    0  501  0.00000000000E+00  0.00000000000E+00 -0.76655381118E+03  0.76655381119E+03  0.25500000920E-02 0.  1.
    10030    2    1    2    0    0  0.00000000000E+00  0.00000000000E+00  0.70524588237E+03  0.22383535047E+04  0.21243480547E+04 0.  0.
        3    1    3    3  502    0  0.34630524184E+03 -0.92950634106E+03 -0.47637465484E+02  0.99306530345E+03  0.10100000352E+00 0.  1.
       -3    1    3    3    0  502 -0.34630524184E+03  0.92950634106E+03  0.75288334786E+03  0.12452882013E+04  0.10100000352E+00 0. -1.
</event>
<event>
 5   0  0.2579241E-04  0.2121937E+04  0.7818609E-02  0.8551641E-01
        2   -1    0    0  501    0  0.00000000000E+00  0.00000000000E+00  0.96389802339E+03  0.96389802339E+03  0.25500000920E-02 0. -1.
       -2   -1    0    0    0  501  0.00000000000E+00  0.00000000000E+00 -0.11678145450E+04  0.11678145450E+04  0.25500000920E-02 0.  1.
    10030    2    1    2    0    0  0.00000000000E+00  0.00000000000E+00 -0.20391652158E+03  0.21317125684E+04  0.21219369751E+04 0.  0.
        5    1    3    3  502    0  0.61077993449E+03 -0.43017530000E+03 -0.85877415107E+03  0.11382521907E+04  0.46999998093E+01 0.  1.
       -5    1    3    3    0  502 -0.61077993449E+03  0.43017530000E+03  0.65485762949E+03  0.99346037767E+03  0.46999998093E+01 0. -1.
</event>
<event>
 5   0  0.2430898E-04  0.2084850E+04  0.7818609E-02  0.8567947E-01
        2   -1    0    0  501    0  0.00000000000E+00  0.00000000000E+00  0.17602611028E+04  0.17602611028E+04  0.25500000920E-02 0.  1.
       -2   -1    0    0    0  501  0.00000000000E+00  0.00000000000E+00 -0.61732304482E+03  0.61732304482E+03  0.25500000920E-02 0. -1.
    10030    2    1    2    0    0  0.00000000000E+00  0.00000000000E+00  0.11429380580E+04  0.23775841477E+04  0.20848498686E+04 0.  0.
        1    1    3    3  502    0 -0.19348953949E+02  0.98536413208E+03  0.18417777022E+03  0.10026157319E+04  0.50400001928E-02 0. -1.
       -1    1    3    3    0  502  0.19348953949E+02 -0.98536413208E+03  0.95876028781E+03  0.13749684158E+04  0.50400001928E-02 0.  1.
</event>
<event>
 5   0  0.1186038E-04  0.2118029E+04  0.7818609E-02  0.8553343E-01
        1   -1    0    0  501    0  0.00000000000E+00  0.00000000000E+00  0.84956058932E+03  0.84956058933E+03  0.50400001928E-02 0.  1.
       -1   -1    0    0    0  501  0.00000000000E+00  0.00000000000E+00 -0.13201078613E+04  0.13201078613E+04  0.50400001928E-02 0. -1.
    10030    2    1    2    0    0  0.00000000000E+00  0.00000000000E+00 -0.47054727202E+03  0.21696684507E+04  0.21180289069E+04 0.  0.
        4    1    3    3  502    0  0.38960030910E+03  0.52970903541E+03 -0.10856517008E+04  0.12692601354E+04  0.12699999809E+01 0. -1.
       -4    1    3    3    0  502 -0.38960030910E+03 -0.52970903541E+03  0.61510442875E+03  0.90040831527E+03  0.12699999809E+01 0.  1.
</event>
<event>
 5   0  0.1042395E-04  0.2135196E+04  0.7818609E-02  0.8545896E-01
       -1   -1    0    0    0  501  0.00000000000E+00  0.00000000000E+00  0.72231334257E+03  0.72231334259E+03  0.50400001928E-02 0.  1.
        1   -1    0    0  501    0  0.00000000000E+00  0.00000000000E+00 -0.15779383929E+04  0.15779383930E+04  0.50400001928E-02 0. -1.
    10030    2    1    2    0    0  0.00000000000E+00  0.00000000000E+00 -0.85562505037E+03  0.23002517355E+04  0.21351964359E+04 0.  0.
        3    1    3    3  502    0  0.45686823761E+02 -0.77687719320E+03  0.35953284790E+03  0.85725686822E+03  0.10100000352E+00 0.  1.
       -3    1    3    3    0  502 -0.45686823761E+02  0.77687719320E+03 -0.12151578983E+04  0.14429948673E+04  0.10100000352E+00 0. -1.
</event>
<event>
 5   0  0.1042395E-04  0.2424741E+04  0.7818609E-02  0.8430298E-01
       -1   -1    0    0    0  501  0.00000000000E+00  0.00000000000E+00  0.13372559121E+04  0.13372559121E+04  0.50400001928E-02 0.  1.
        1   -1    0    0  501    0  0.00000000000E+00  0.00000000000E+00 -0.10991483435E+04  0.10991483435E+04  0.50400001928E-02 0. -1.
    10030    2    1    2    0    0  0.00000000000E+00  0.00000000000E+00  0.23810756861E+03  0.24364042557E+04  0.24247413229E+04 0.  0.
        3    1    3    3  502    0  0.40336124468E+03  0.10084749333E+04 -0.42216546961E+03  0.11653092631E+04  0.10100000352E+00 0.  1.
       -3    1    3    3    0  502 -0.40336124468E+03 -0.10084749333E+04  0.66027303823E+03  0.12710949925E+04  0.10100000352E+00 0. -1.
</event>
<event>
 5   0  0.2448804E-04  0.2061054E+04  0.7818609E-02  0.8578596E-01
       -2   -1    0    0    0  501  0.00000000000E+00  0.00000000000E+00  0.93056684487E+03  0.93056684487E+03  0.25500000920E-02 0.  1.
        2   -1    0    0  501    0  0.00000000000E+00  0.00000000000E+00 -0.11412250082E+04  0.11412250082E+04  0.25500000920E-02 0. -1.
    10030    2    1    2    0    0  0.00000000000E+00  0.00000000000E+00 -0.21065816331E+03  0.20717918531E+04  0.20610542498E+04 0.  0.
        2    1    3    3  502    0 -0.30318664108E+03 -0.80328587903E+03  0.46754860685E+03  0.97764617452E+03  0.25500000920E-02 0.  1.
       -2    1    3    3    0  502  0.30318664108E+03  0.80328587903E+03 -0.67820677016E+03  0.10941456785E+04  0.25500000920E-02 0. -1.
</event>
<event>
 5   0  0.1042395E-04  0.1950787E+04  0.7818609E-02  0.8629981E-01
       -1   -1    0    0    0  501  0.00000000000E+00  0.00000000000E+00  0.10831653993E+04  0.10831653993E+04  0.50400001928E-02 0.  1.
        1   -1    0    0  501    0  0.00000000000E+00  0.00000000000E+00 -0.87834458964E+03  0.87834458966E+03  0.50400001928E-02 0. -1.
    10030    2    1    2    0    0  0.00000000000E+00  0.00000000000E+00  0.20482080962E+03  0.19615099889E+04  0.19507869880E+04 0.  0.
        3    1    3    3  502    0  0.61684246744E+03 -0.97266878698E+02  0.85582006147E+03  0.10594260065E+04  0.10100000352E+00 0.  1.
       -3    1    3    3    0  502 -0.61684246744E+03  0.97266878698E+02 -0.65099925185E+03  0.90208398248E+03  0.10100000352E+00 0. -1.
</event>
<event>
 5   0  0.1156733E-04  0.2128878E+04  0.7818609E-02  0.8548628E-01
        1   -1    0    0  501    0  0.00000000000E+00  0.00000000000E+00  0.15733164369E+04  0.15733164369E+04  0.50400001928E-02 0. -1.
       -1   -1    0    0    0  501  0.00000000000E+00  0.00000000000E+00 -0.72015430493E+03  0.72015430495E+03  0.50400001928E-02 0.  1.
    10030    2    1    2    0    0  0.00000000000E+00  0.00000000000E+00  0.85316213194E+03  0.22934707418E+04  0.21288782070E+04 0.  0.
        2    1    3    3  502    0 -0.13665624415E+03  0.11404093141E+03  0.15571710493E+04  0.15673104160E+04  0.25500000920E-02 0. -1.
       -2    1    3    3    0  502  0.13665624415E+03 -0.11404093141E+03 -0.70400891739E+03  0.72616032587E+03  0.25500000920E-02 0.  1.
</event>
<event>
 5   0  0.1186038E-04  0.2041657E+04  0.7818609E-02  0.8587388E-01
       -1   -1    0    0    0  501  0.00000000000E+00  0.00000000000E+00  0.54153499880E+03  0.54153499883E+03  0.50400001928E-02 0. -1.
        1   -1    0    0  501    0  0.00000000000E+00  0.00000000000E+00 -0.19243281921E+04  0.19243281922E+04  0.50400001928E-02 0.  1.
    10030    2    1    2    0    0  0.00000000000E+00  0.00000000000E+00 -0.13827931933E+04  0.24658631910E+04  0.20416572340E+04 0.  0.
        4    1    3    3  502    0 -0.12983889177E+03  0.10109279158E+04 -0.62247860991E+03  0.11942841461E+04  0.12699999809E+01 0. -1.
       -4    1    3    3    0  502  0.12983889177E+03 -0.10109279158E+04 -0.76031458344E+03  0.12715790449E+04  0.12699999809E+01 0.  1.
</event>
<event>
 5   0  0.2430898E-04  0.2044055E+04  0.7818609E-02  0.8586296E-01
       -2   -1    0    0    0  501  0.00000000000E+00  0.00000000000E+00  0.51790467397E+03  0.51790467398E+03  0.25500000920E-02 0. -1.
        2   -1    0    0  501    0  0.00000000000E+00  0.00000000000E+00 -0.20168584473E+04  0.20168584473E+04  0.25500000920E-02 0.  1.
    10030    2    1    2    0    0  0.00000000000E+00  0.00000000000E+00 -0.14989537733E+04  0.25347631212E+04  0.20440552014E+04 0.  0.
        1    1    3    3  502    0  0.16610250627E+03 -0.94858616225E+03 -0.32506505464E+03  0.10164020069E+04  0.50400001928E-02 0. -1.
       -1    1    3    3    0  502 -0.16610250627E+03  0.94858616225E+03 -0.11738887187E+04  0.15183611144E+04  0.50400001928E-02 0.  1.
</event>
<event>
 5   0  0.2512839E-04  0.2137390E+04  0.7818609E-02  0.8544949E-01
        2   -1    0    0  501    0  0.00000000000E+00  0.00000000000E+00  0.91554346672E+03  0.91554346672E+03  0.25500000920E-02 0.  1.
       -2   -1    0    0    0  501  0.00000000000E+00  0.00000000000E+00 -0.12474653696E+04  0.12474653696E+04  0.25500000920E-02 0. -1.
    10030    2    1    2    0    0  0.00000000000E+00  0.00000000000E+00 -0.33192190289E+03  0.21630088363E+04  0.21373897811E+04 0.  0.
        3    1    3    3  502    0 -0.73433516586E+03 -0.14288066957E+03  0.60636797418E+03  0.96298761771E+03  0.10100000352E+00 0.  1.
       -3    1    3    3    0  502  0.73433516586E+03  0.14288066957E+03 -0.93828987707E+03  0.12000212186E+04  0.10100000352E+00 0. -1.
</event>
<event>
 5   0  0.1156733E-04  0.2063636E+04  0.7818609E-02  0.8577433E-01
        1   -1    0    0  501    0  0.00000000000E+00  0.00000000000E+00  0.12633727497E+04  0.12633727497E+04  0.50400001928E-02 0.  1.
       -1   -1    0    0    0  501  0.00000000000E+00  0.00000000000E+00 -0.84270314580E+03  0.84270314582E+03  0.50400001928E-02 0. -1.
    10030    2    1    2    0    0  0.00000000000E+00  0.00000000000E+00  0.42066960387E+03  0.21060758955E+04  0.20636358114E+04 0.  0.
        2    1    3    3  502    0 -0.26358451874E+03  0.52982111049E+03 -0.65230644525E+03  0.88073316400E+03  0.25500000920E-02 0. -1.
       -2    1    3    3    0  502  0.26358451874E+03 -0.52982111049E+03  0.10729760491E+04  0.12253427315E+04  0.25500000920E-02 0.  1.
</event>
<event>
 5   0  0.1130848E-04  0.2061940E+04  0.7818609E-02  0.8578197E-01
       -1   -1    0    0    0  501  0.00000000000E+00  0.00000000000E+00  0.47847330227E+03  0.47847330230E+03  0.50400001928E-02 0.  1.
        1   -1    0    0  501    0  0.00000000000E+00  0.00000000000E+00 -0.22214389278E+04  0.22214389278E+04  0.50400001928E-02 0. -1.
    10030    2    1    2    0    0  0.00000000000E+00  0.00000000000E+00 -0.17429656255E+04  0.26999122301E+04  0.20619400763E+04 0.  0.
        5    1    3    3  502    0 -0.32956170279E+03 -0.97336423535E+03 -0.76328232080E+03  0.12801057932E+04  0.46999998093E+01 0.  1.
       -5    1    3    3    0  502  0.32956170279E+03  0.97336423535E+03 -0.97968330469E+03  0.14198064368E+04  0.46999998093E+01 0. -1.
</event>
<event>
 5   0  0.2579241E-04  0.2087840E+04  0.7818609E-02  0.8566619E-01
       -2   -1    0    0    0  501  0.00000000000E+00  0.00000000000E+00  0.73764491720E+03  0.73764491721E+03  0.25500000920E-02 0.  1.
        2   -1    0    0  501    0  0.00000000000E+00  0.00000000000E+00 -0.14773619824E+04  0.14773619824E+04  0.25500000920E-02 0. -1.
    10030    2    1    2    0    0  0.00000000000E+00  0.00000000000E+00 -0.73971706518E+03  0.22150068996E+04  0.20878396080E+04 0.  0.
        5    1    3    3  502    0 -0.69007020003E+03  0.76881957950E+03 -0.21084238833E+03  0.10543988949E+04  0.46999998093E+01 0.  1.
       -5    1    3    3    0  502  0.69007020003E+03 -0.76881957950E+03 -0.52887467685E+03  0.11606080047E+04  0.46999998093E+01 0. -1.
</event>
<event>
 5   0  0.2430898E-04  0.2180919E+04  0.7818609E-02  0.8526412E-01
       -2   -1    0    0    0  501  0.00000000000E+00  0.00000000000E+00  0.17241094437E+04  0.17241094437E+04  0.25500000920E-02 0. -1.
        2   -1    0    0  501    0  0.00000000000E+00  0.00000000000E+00 -0.68969081545E+03  0.68969081546E+03  0.25500000920E-02 0.  1.
    10030    2    1    2    0    0  0.00000000000E+00  0.00000000000E+00  0.10344186283E+04  0.24138002592E+04  0.21809194833E+04 0.  0.
        1    1    3    3  502    0  0.16027708400E+03 -0.22568443769E+03 -0.65015886264E+03  0.70663198043E+03  0.50400001928E-02 0.  1.
       -1    1    3    3    0  502 -0.16027708400E+03  0.22568443769E+03  0.16845774909E+04  0.17071682788E+04  0.50400001928E-02 0. -1.
</event>
<event>
 5   0  0.8698750E-05  0.2123199E+04  0.7818609E-02  0.8551092E-01
        3   -1    0    0  501    0  0.00000000000E+00  0.00000000000E+00  0.85916182519E+03  0.85916183112E+03  0.10100000352E+00 0.  1.
       -3   -1    0    0    0  501  0.00000000000E+00  0.00000000000E+00 -0.13117358045E+04  0.13117358084E+04  0.10100000352E+00 0. -1.
    10030    2    1    2    0    0  0.00000000000E+00  0.00000000000E+00 -0.45257397936E+03  0.21708976396E+04  0.21231988495E+04 0.  0.
        2    1    3    3  502    0 -0.73980566058E+03 -0.10874689435E+03 -0.99677771822E+03  0.12460754881E+04  0.25500000920E-02 0. -1.
       -2    1    3    3    0  502  0.73980566058E+03  0.10874689435E+03  0.54420373886E+03  0.92482215147E+03  0.25500000920E-02 0.  1.
</event>
<event>
 5   0  0.1186038E-04  0.2106618E+04  0.7818609E-02  0.8558334E-01
        1   -1    0    0  501    0  0.00000000000E+00  0.00000000000E+00  0.12128631675E+04  0.12128631675E+04  0.50400001928E-02 0.  1.
       -1   -1    0    0    0  501  0.00000000000E+00  0.00000000000E+00 -0.91474456883E+03  0.91474456884E+03  0.50400001928E-02 0. -1.
    10030    2    1    2    0    0  0.00000000000E+00  0.00000000000E+00  0.29811859866E+03  0.21276077363E+04  0.21066181384E+04 0.  0.
        4    1    3    3  502    0  0.72077255394E+03 -0.69752740544E+03 -0.17570459957E+03  0.10182982250E+04  0.12699999809E+01 0. -1.
       -4    1    3    3    0  502 -0.72077255394E+03  0.69752740544E+03  0.47382319822E+03  0.11093095113E+04  0.12699999809E+01 0.  1.
</event>
<event>
 5   0  0.2467483E-04  0.2178178E+04  0.7818609E-02  0.8527566E-01
        2   -1    0    0  501    0  0.00000000000E+00  0.00000000000E+00  0.13063687461E+04  0.13063687461E+04  0.25500000920E-02 0.  1.
       -2   -1    0    0    0  501  0.00000000000E+00  0.00000000000E+00 -0.90794811530E+03  0.90794811530E+03  0.25500000920E-02 0. -1.
    10030    2    1    2    0    0  0.00000000000E+00  0.00000000000E+00  0.39842063077E+03  0.22143168614E+04  0.21781781753E+04 0.  0.
        4    1    3    3  502    0  0.66631430553E+03 -0.83605254322E+03 -0.11973686591E+02  0.10691602269E+04  0.12699999809E+01 0.  1.
       -4    1    3    3    0  502 -0.66631430553E+03  0.83605254322E+03  0.41039431737E+03  0.11451566344E+04  0.12699999809E+01 0. -1.
</event>
<event>
 5   0  0.2512839E-04  0.2074626E+04  0.7818609E-02  0.8572504E-01
        2   -1    0    0  501    0  0.00000000000E+00  0.00000000000E+00  0.17905609055E+04  0.17905609055E+04  0.25500000920E-02 0.  1.
       -2   -1    0    0    0  501  0.00000000000E+00  0.00000000000E+00 -0.60093930361E+03  0.60093930361E+03  0.25500000920E-02 0. -1.
    10030    2    1    2    0    0  0.00000000000E+00  0.00000000000E+00  0.11896216019E+04  0.23915002091E+04  0.20746261578E+04 0.  0.
        3    1    3    3  502    0  0.32174083708E+03 -0.96549239847E+03  0.36332657601E+03  0.10806011978E+04  0.10100000352E+00 0. -1.
       -3    1    3    3    0  502 -0.32174083708E+03  0.96549239847E+03  0.82629502590E+03  0.13108990113E+04  0.10100000352E+00 0.  1.
</event>
<event>
 5   0  0.2579241E-04  0.2045477E+04  0.7818609E-02  0.8585649E-01
        2   -1    0    0  501    0  0.00000000000E+00  0.00000000000E+00  0.14799370678E+04  0.14799370678E+04  0.25500000920E-02 0. -1.
       -2   -1    0    0    0  501  0.00000000000E+00  0.00000000000E+00 -0.70678303772E+03  0.70678303772E+03  0.25500000920E-02 0.  1.
    10030    2    1    2    0    0  0.00000000000E+00  0.00000000000E+00  0.77315403011E+03  0.21867201056E+04  0.20454773687E+04 0.  0.
        5    1    3    3  502    0  0.37499630171E+02 -0.95927783057E+03  0.76356296526E+03  0.12266501826E+04  0.46999998093E+01 0. -1.
       -5    1    3    3    0  502 -0.37499630171E+02  0.95927783057E+03  0.95910648467E+01  0.96006992298E+03  0.46999998093E+01 0.  1.
</event>
<event>
 5   0  0.2579241E-04  0.2161764E+04  0.7818609E-02  0.8534514E-01
        2   -1    0    0  501    0  0.00000000000E+00  0.00000000000E+00  0.12859222456E+04  0.12859222456E+04  0.25500000920E-02 0.  1.
       -2   -1    0    0    0  501  0.00000000000E+00  0.00000000000E+00 -0.90853503192E+03  0.90853503192E+03  0.25500000920E-02 0. -1.
    10030    2    1    2    0    0  0.00000000000E+00  0.00000000000E+00  0.37738721372E+03  0.21944572776E+04  0.21617635472E+04 0.  0.
        5    1    3    3  502    0  0.13334288729E+02  0.68115676256E+01  0.12858065861E+04  0.12859023553E+04  0.46999998093E+01 0.  1.
       -5    1    3    3    0  502 -0.13334288729E+02 -0.68115676256E+01 -0.90841937233E+03  0.90855492224E+03  0.46999998093E+01 0. -1.
</event>
<event>
 5   0  0.2579241E-04  0.2051320E+04  0.7818609E-02  0.8582996E-01
        2   -1    0    0  501    0  0.00000000000E+00  0.00000000000E+00  0.24563771877E+04  0.24563771877E+04  0.25500000920E-02 0. -1.
       -2   -1    0    0    0  501  0.00000000000E+00  0.00000000000E+00 -0.42826435962E+03  0.42826435962E+03  0.25500000920E-02 0.  1.
    10030    2    1    2    0    0  0.00000000000E+00  0.00000000000E+00  0.20281128281E+04  0.28846415474E+04  0.20513203585E+04 0.  0.
        5    1    3    3  502    0 -0.34267863376E+03 -0.94218896105E+03  0.70981485292E+03  0.12284168266E+04  0.46999998093E+01 0.  1.
       -5    1    3    3    0  502  0.34267863376E+03  0.94218896105E+03  0.13182979752E+04  0.16562247208E+04  0.46999998093E+01 0. -1.
</event>
<event>
 5   0  0.1130848E-04  0.2020847E+04  0.7818609E-02  0.8596936E-01
        1   -1    0    0  501    0  0.00000000000E+00  0.00000000000E+00  0.10706631448E+04  0.10706631448E+04  0.50400001928E-02 0. -1.
       -1   -1    0    0    0  501  0.00000000000E+00  0.00000000000E+00 -0.95357285496E+03  0.95357285498E+03  0.50400001928E-02 0.  1.
    10030    2    1    2    0    0  0.00000000000E+00  0.00000000000E+00  0.11709028981E+03  0.20242359998E+04  0.20208466658E+04 0.  0.
        5    1    3    3  502    0 -0.21664755219E+03 -0.43329240589E+03 -0.82965210348E+03  0.96074095035E+03  0.46999998093E+01 0. -1.
       -5    1    3    3    0  502  0.21664755219E+03  0.43329240589E+03  0.94674239329E+03  0.10634950494E+04  0.46999998093E+01 0.  1.
</event>
<event>
 5   0  0.2430898E-04  0.2083855E+04  0.7818609E-02  0.8568389E-01
        2   -1    0    0  501    0  0.00000000000E+00  0.00000000000E+00  0.15349346576E+04  0.15349346576E+04  0.25500000920E-02 0. -1.
       -2   -1    0    0    0  501  0.00000000000E+00  0.00000000000E+00 -0.70726985385E+03  0.70726985385E+03  0.25500000920E-02 0.  1.
    10030    2    1    2    0    0  0.00000000000E+00  0.00000000000E+00  0.82766480375E+03  0.22422045115E+04  0.20838550918E+04 0.  0.
        1    1    3    3  502    0 -0.60182691310E+03 -0.63649471922E+03 -0.19321201031E+03  0.89702399181E+03  0.50400001928E-02 0.  1.
       -1    1    3    3    0  502  0.60182691310E+03  0.63649471922E+03  0.10208768141E+04  0.13451805196E+04  0.50400001928E-02 0. -1.
</event>
<event>
 5   0  0.1156733E-04  0.1932231E+04  0.7818609E-02  0.8638977E-01
        1   -1    0    0  501    0  0.00000000000E+00  0.00000000000E+00  0.10365369112E+04  0.10365369112E+04  0.50400001928E-02 0.  1.
       -1   -1    0    0    0  501  0.00000000000E+00  0.00000000000E+00 -0.90047837075E+03  0.90047837077E+03  0.50400001928E-02 0. -1.
    10030    2    1    2    0    0  0.00000000000E+00  0.00000000000E+00  0.13605854045E+03  0.19370152820E+04  0.19322309066E+04 0.  0.
        2    1    3    3  502    0 -0.23159852375E+03 -0.22533368404E+03 -0.84470080635E+03  0.90439626139E+03  0.25500000920E-02 0. -1.
       -2    1    3    3    0  502  0.23159852375E+03  0.22533368404E+03  0.98075934680E+03  0.10326190206E+04  0.25500000920E-02 0.  1.
</event>
<event>
 5   0  0.1186038E-04  0.2514374E+04  0.7818609E-02  0.8397882E-01
        1   -1    0    0  501    0  0.00000000000E+00  0.00000000000E+00  0.10331999095E+04  0.10331999095E+04  0.50400001928E-02 0. -1.
       -1   -1    0    0    0  501  0.00000000000E+00  0.00000000000E+00 -0.15297327023E+04  0.15297327023E+04  0.50400001928E-02 0.  1.
    10030    2    1    2    0    0  0.00000000000E+00  0.00000000000E+00 -0.49653279282E+03  0.25629326119E+04  0.25143744269E+04 0.  0.
        4    1    3    3  502    0  0.80800787177E+03  0.35789238483E+03  0.66318023517E+03  0.11048861105E+04  0.12699999809E+01 0. -1.
       -4    1    3    3    0  502 -0.80800787177E+03 -0.35789238483E+03 -0.11597130280E+04  0.14580465014E+04  0.12699999809E+01 0.  1.
</event>
<event>
 5   0  0.1042395E-04  0.2423354E+04  0.7818609E-02  0.8430812E-01
       -1   -1    0    0    0  501  0.00000000000E+00  0.00000000000E+00  0.72315889768E+03  0.72315889770E+03  0.50400001928E-02 0. -1.
        1   -1    0    0  501    0  0.00000000000E+00  0.00000000000E+00 -0.20302056371E+04  0.20302056372E+04  0.50400001928E-02 0.  1.
    10030    2    1    2    0    0  0.00000000000E+00  0.00000000000E+00 -0.13070467395E+04  0.27533645348E+04  0.24233540977E+04 0.  0.
        3    1    3    3  502    0 -0.39923775938E+03  0.20354532906E+03 -0.19325905889E+04  0.19838669018E+04  0.10100000352E+00 0.  1.
       -3    1    3    3    0  502  0.39923775938E+03 -0.20354532906E+03  0.62554384944E+03  0.76949763305E+03  0.10100000352E+00 0. -1.
</event>
<event>
 5   0  0.2430898E-04  0.2112080E+04  0.7818609E-02  0.8555941E-01
        2   -1    0    0  501    0  0.00000000000E+00  0.00000000000E+00  0.24423845323E+04  0.24423845323E+04  0.25500000920E-02 0.  1.
       -2   -1    0    0    0  501  0.00000000000E+00  0.00000000000E+00 -0.45661132636E+03  0.45661132637E+03  0.25500000920E-02 0. -1.
    10030    2    1    2    0    0  0.00000000000E+00  0.00000000000E+00  0.19857732059E+04  0.28989958586E+04  0.21120799613E+04 0.  0.
        1    1    3    3  502    0 -0.31670714458E+03 -0.86573797829E+03  0.28575574562E+03  0.96512279460E+03  0.50400001928E-02 0.  1.
       -1    1    3    3    0  502  0.31670714458E+03  0.86573797829E+03  0.17000174603E+04  0.19338730640E+04  0.50400001928E-02 0. -1.
</event>
<event>
 5   0  0.1186038E-04  0.2088059E+04  0.7818609E-02  0.8566522E-01
       -1   -1    0    0    0  501  0.00000000000E+00  0.00000000000E+00  0.91515496189E+03  0.91515496191E+03  0.50400001928E-02 0. -1.
        1   -1    0    0  501    0  0.00000000000E+00  0.00000000000E+00 -0.11910524919E+04  0.11910524920E+04  0.50400001928E-02 0.  1.
    10030    2    1    2    0    0  0.00000000000E+00  0.00000000000E+00 -0.27589753005E+03  0.21062074539E+04  0.20880590010E+04 0.  0.
        4    1    3    3  502    0  0.22344428665E+03 -0.98409264939E+03  0.13201578779E+03  0.10177403760E+04  0.12699999809E+01 0. -1.
       -4    1    3    3    0  502 -0.22344428665E+03  0.98409264939E+03 -0.40791331785E+03  0.10884670779E+04  0.12699999809E+01 0.  1.
</event>
<event>
 5   0  0.1186038E-04  0.1435782E+04  0.7818609E-02  0.8928317E-01
       -1   -1    0    0    0  501  0.00000000000E+00  0.00000000000E+00  0.91291646572E+03  0.91291646573E+03  0.50400001928E-02 0.  1.
        1   -1    0    0  501    0  0.00000000000E+00  0.00000000000E+00 -0.56452855939E+03  0.56452855941E+03  0.50400001928E-02 0. -1.
    10030    2    1    2    0    0  0.00000000000E+00  0.00000000000E+00  0.34838790633E+03  0.14774450251E+04  0.14357819016E+04 0.  0.
        4    1    3    3  502    0 -0.25211999572E+03  0.39599955192E+00 -0.51747220004E+03  0.57562465181E+03  0.12699999809E+01 0. -1.
       -4    1    3    3    0  502  0.25211999572E+03 -0.39599955192E+00  0.86586010637E+03  0.90182037333E+03  0.12699999809E+01 0.  1.
</event>
<event>
 5   0  0.1130848E-04  0.2094774E+04  0.7818609E-02  0.8563549E-01
        1   -1    0    0  501    0  0.00000000000E+00  0.00000000000E+00  0.71283280210E+03  0.71283280212E+03  0.50400001928E-02 0.  1.
       -1   -1    0    0    0  501  0.00000000000E+00  0.00000000000E+00 -0.15389580670E+04  0.15389580670E+04  0.50400001928E-02 0. -1.
    10030    2    1    2    0    0  0.00000000000E+00  0.00000000000E+00 -0.82612526494E+03  0.22517908692E+04  0.20947742516E+04 0.  0.
        5    1    3    3  502    0  0.34064431189E+03 -0.99016550301E+03 -0.38828189979E+03  0.11168040089E+04  0.46999998093E+01 0.  1.
       -5    1    3    3    0  502 -0.34064431189E+03  0.99016550301E+03 -0.43784336515E+03  0.11349868603E+04  0.46999998093E+01 0. -1.
</event>
<event>
 5   0  0.2448804E-04  0.2107584E+04  0.7818609E-02  0.8557910E-01
        2   -1    0    0  501    0  0.00000000000E+00  0.00000000000E+00  0.21970319972E+04  0.21970319972E+04  0.25500000920E-02 0. -1.
       -2   -1    0    0    0  501  0.00000000000E+00  0.00000000000E+00 -0.50544436394E+03  0.50544436395E+03  0.25500000920E-02 0.  1.
    10030    2    1    2    0    0  0.00000000000E+00  0.00000000000E+00  0.16915876333E+04  0.27024763612E+04  0.21075838682E+04 0.  0.
        2    1    3    3  502    0 -0.93517382125E+03  0.29865723485E+03  0.13369711343E+04  0.16586856345E+04  0.25500000920E-02 0. -1.
       -2    1    3    3    0  502  0.93517382125E+03 -0.29865723485E+03  0.35461649895E+03  0.10437907267E+04  0.25500000920E-02 0.  1.
</event>
<event>
 5   0  0.2467483E-04  0.2205290E+04  0.7818609E-02  0.8516230E-01
       -2   -1    0    0    0  501  0.00000000000E+00  0.00000000000E+00  0.11632005854E+04  0.11632005854E+04  0.25500000920E-02 0.  1.
        2   -1    0    0  501    0  0.00000000000E+00  0.00000000000E+00 -0.10452416353E+04  0.10452416353E+04  0.25500000920E-02 0. -1.
    10030    2    1    2    0    0  0.00000000000E+00  0.00000000000E+00  0.11795895013E+03  0.22084422208E+04  0.22052897153E+04 0.  0.
        4    1    3    3  502    0 -0.42558282927E+03 -0.30291614198E+03 -0.91346228675E+03  0.10522803314E+04  0.12699999809E+01 0. -1.
       -4    1    3    3    0  502  0.42558282927E+03  0.30291614198E+03  0.10314212369E+04  0.11561618894E+04  0.12699999809E+01 0.  1.
</event>
<event>
 5   0  0.2579241E-04  0.2123026E+04  0.7818609E-02  0.8551168E-01
       -2   -1    0    0    0  501  0.00000000000E+00  0.00000000000E+00  0.71557897388E+03  0.71557897388E+03  0.25500000920E-02 0.  1.
        2   -1    0    0  501    0  0.00000000000E+00  0.00000000000E+00 -0.15746821482E+04  0.15746821482E+04  0.25500000920E-02 0. -1.
    10030    2    1    2    0    0  0.00000000000E+00  0.00000000000E+00 -0.85910317430E+03  0.22902611221E+04  0.21230256106E+04 0.  0.
        5    1    3    3  502    0  0.44094478381E+03 -0.84885762433E+03 -0.92601633462E+03  0.13313601732E+04  0.46999998093E+01 0. -1.
       -5    1    3    3    0  502 -0.44094478381E+03  0.84885762433E+03  0.66913160317E+02  0.95890094888E+03  0.46999998093E+01 0.  1.
</event>
<event>
 5   0  0.2512839E-04  0.1217056E+04  0.7818609E-02  0.9098057E-01
        2   -1    0    0  501    0  0.00000000000E+00  0.00000000000E+00  0.82825153748E+03  0.82825153748E+03  0.25500000920E-02 0. -1.
       -2   -1    0    0    0  501  0.00000000000E+00  0.00000000000E+00 -0.44709378370E+03  0.44709378371E+03  0.25500000920E-02 0.  1.
    10030    2    1    2    0    0  0.00000000000E+00  0.00000000000E+00  0.38115775378E+03  0.12753453212E+04  0.12170556499E+04 0.  0.
        3    1    3    3  502    0 -0.10436177374E+03 -0.46513476996E+03  0.58693274326E+03  0.75612947923E+03  0.10100000352E+00 0. -1.
       -3    1    3    3    0  502  0.10436177374E+03  0.46513476996E+03 -0.20577498949E+03  0.51921584196E+03  0.10100000352E+00 0.  1.
</event>
<event>
 5   0  0.2579241E-04  0.2135088E+04  0.7818609E-02  0.8545942E-01
        2   -1    0    0  501    0  0.00000000000E+00  0.00000000000E+00  0.17526655110E+04  0.17526655110E+04  0.25500000920E-02 0. -1.
       -2   -1    0    0    0  501  0.00000000000E+00  0.00000000000E+00 -0.65023849712E+03  0.65023849712E+03  0.25500000920E-02 0.  1.
    10030    2    1    2    0    0  0.00000000000E+00  0.00000000000E+00  0.11024270138E+04  0.24029040081E+04  0.21350883708E+04 0.  0.
        5    1    3    3  502    0  0.43542281549E+03 -0.69543023670E+03  0.13198226449E+04  0.15540817695E+04  0.46999998093E+01 0. -1.
       -5    1    3    3    0  502 -0.43542281549E+03  0.69543023670E+03 -0.21739563101E+03  0.84882223860E+03  0.46999998093E+01 0.  1.
</event>
<event>
 5   0  0.2448804E-04  0.2155870E+04  0.7818609E-02  0.8537024E-01
        2   -1    0    0  501    0  0.00000000000E+00  0.00000000000E+00  0.89038138510E+03  0.89038138510E+03  0.25500000920E-02 0.  1.
       -2   -1    0    0    0  501  0.00000000000E+00  0.00000000000E+00 -0.13049952689E+04  0.13049952689E+04  0.25500000920E-02 0. -1.
    10030    2    1    2    0    0  0.00000000000E+00  0.00000000000E+00 -0.41461388377E+03  0.21953766540E+04  0.21558696575E+04 0.  0.
        2    1    3    3  502    0  0.54139694400E+02  0.13898823961E+03  0.87982134878E+03  0.89237572975E+03  0.25500000920E-02 0.  1.
       -2    1    3    3    0  502 -0.54139694400E+02 -0.13898823961E+03 -0.12944352326E+04  0.13030009242E+04  0.25500000920E-02 0. -1.
</event>
<event>
 5   0  0.1122711E-04  0.2081635E+04  0.7818609E-02  0.8569377E-01
        1   -1    0    0  501    0  0.00000000000E+00  0.00000000000E+00  0.74659154330E+03  0.74659154331E+03  0.50400001928E-02 0.  1.
       -1   -1    0    0    0  501  0.00000000000E+00  0.00000000000E+00 -0.14509961876E+04  0.14509961876E+04  0.50400001928E-02 0. -1.
    10030    2    1    2    0    0  0.00000000000E+00  0.00000000000E+00 -0.70440464426E+03  0.21975877309E+04  0.20816353984E+04 0.  0.
        1    1    3    3  502    0  0.22555764462E+03  0.98659501918E+03 -0.60875215315E+03  0.11810271660E+04  0.50400001928E-02 0.  1.
       -1    1    3    3    0  502 -0.22555764462E+03 -0.98659501918E+03 -0.95652491103E+02  0.10165605648E+04  0.50400001928E-02 0. -1.
</event>
<event>
 5   0  0.1186038E-04  0.2075528E+04  0.7818609E-02  0.8572101E-01
        1   -1    0    0  501    0  0.00000000000E+00  0.00000000000E+00  0.81521503963E+03  0.81521503965E+03  0.50400001928E-02 0.  1.
       -1   -1    0    0    0  501  0.00000000000E+00  0.00000000000E+00 -0.13210675574E+04  0.13210675574E+04  0.50400001928E-02 0. -1.
    10030    2    1    2    0    0  0.00000000000E+00  0.00000000000E+00 -0.50585251780E+03  0.21362825971E+04  0.20755280207E+04 0.  0.
        4    1    3    3  502    0  0.14372300235E+02  0.29146099180E+03  0.77211507330E+03  0.82542072428E+03  0.12699999809E+01 0.  1.
       -4    1    3    3    0  502 -0.14372300235E+02 -0.29146099180E+03 -0.12779675911E+04  0.13108618728E+04  0.12699999809E+01 0. -1.
</event>
<event>
 5   0  0.2467483E-04  0.1959092E+04  0.7818609E-02  0.8625989E-01
       -2   -1    0    0    0  501  0.00000000000E+00  0.00000000000E+00  0.14974875969E+04  0.14974875969E+04  0.25500000920E-02 0. -1.
        2   -1    0    0  501    0  0.00000000000E+00  0.00000000000E+00 -0.64074657696E+03  0.64074657697E+03  0.25500000920E-02 0.  1.
    10030    2    1    2    0    0  0.00000000000E+00  0.00000000000E+00  0.85674101993E+03  0.21382341739E+04  0.19590916791E+04 0.  0.
        4    1    3    3  502    0 -0.87384514721E+03  0.42510139351E+03  0.56289662266E+03  0.11230185915E+04  0.12699999809E+01 0.  1.
       -4    1    3    3    0  502  0.87384514721E+03 -0.42510139351E+03  0.29384439727E+03  0.10152155824E+04  0.12699999809E+01 0. -1.
</event>
<event>
 5   0  0.2467483E-04  0.2095995E+04  0.7818609E-02  0.8563010E-01
        2   -1    0    0  501    0  0.00000000000E+00  0.00000000000E+00  0.10090145413E+04  0.10090145413E+04  0.25500000920E-02 0.  1.
       -2   -1    0    0    0  501  0.00000000000E+00  0.00000000000E+00 -0.10884868801E+04  0.10884868801E+04  0.25500000920E-02 0. -1.
    10030    2    1    2    0    0  0.00000000000E+00  0.00000000000E+00 -0.79472338750E+02  0.20975014214E+04  0.20959953149E+04 0.  0.
        4    1    3    3  502    0 -0.69030699488E+03 -0.30383916497E+03  0.68842360725E+03  0.10211614276E+04  0.12699999809E+01 0.  1.
       -4    1    3    3    0  502  0.69030699488E+03  0.30383916497E+03 -0.76789594600E+03  0.10763399937E+04  0.12699999809E+01 0. -1.
</event>
<event>
 5   0  0.1156733E-04  0.2115288E+04  0.7818609E-02  0.8554539E-01
        1   -1    0    0  501    0  0.00000000000E+00  0.00000000000E+00  0.93403566613E+03  0.93403566615E+03  0.50400001928E-02 0. -1.
       -1   -1    0    0    0  501  0.00000000000E+00  0.00000000000E+00 -0.11976106755E+04  0.11976106755E+04  0.50400001928E-02 0.  1.
    10030    2    1    2    0    0  0.00000000000E+00  0.00000000000E+00 -0.26357500937E+03  0.21316463417E+04  0.21152882405E+04 0.  0.
        2    1    3    3  502    0  0.55706658517E+03 -0.59498252458E+03 -0.81100548708E+03  0.11498074991E+04  0.25500000920E-02 0. -1.
       -2    1    3    3    0  502 -0.55706658517E+03  0.59498252458E+03  0.54743047770E+03  0.98183884258E+03  0.25500000920E-02 0.  1.
</event>
<event>
 5   0  0.1156733E-04  0.2110844E+04  0.7818609E-02  0.8556481E-01
       -1   -1    0    0    0  501  0.00000000000E+00  0.00000000000E+00  0.87165290997E+03  0.87165290999E+03  0.50400001928E-02 0.  1.
        1   -1    0    0  501    0  0.00000000000E+00  0.00000000000E+00 -0.12779349897E+04  0.12779349897E+04  0.50400001928E-02 0. -1.
    10030    2    1    2    0    0  0.00000000000E+00  0.00000000000E+00 -0.40628207968E+03  0.21495878996E+04  0.21108441463E+04 0.  0.
        2    1    3    3  502    0 -0.43278553416E+03 -0.74809371805E+03 -0.82003890833E+03  0.11913905072E+04  0.25500000920E-02 0. -1.
       -2    1    3    3    0  502  0.43278553416E+03  0.74809371805E+03  0.41375682865E+03  0.95819739241E+03  0.25500000920E-02 0.  1.
</event>
<event>
 5   0  0.2448804E-04  0.2049953E+04  0.7818609E-02  0.8583616E-01
       -2   -1    0    0    0  501  0.00000000000E+00  0.00000000000E+00  0.10286888017E+04  0.10286888017E+04  0.25500000920E-02 0.  1.
        2   -1    0    0  501    0  0.00000000000E+00  0.00000000000E+00 -0.10212778980E+04  0.10212778980E+04  0.25500000920E-02 0. -1.
    10030    2    1    2    0    0  0.00000000000E+00  0.00000000000E+00  0.74109036705E+01  0.20499666997E+04  0.20499533040E+04 0.  0.
        2    1    3    3  502    0 -0.50187611484E+03 -0.86538140704E+03  0.22689410262E+03  0.10257902067E+04  0.25500000920E-02 0.  1.
       -2    1    3    3    0  502  0.50187611484E+03  0.86538140704E+03 -0.21948319895E+03  0.10241764931E+04  0.25500000920E-02 0. -1.
</event>
<event>
 5   0  0.2512839E-04  0.2085571E+04  0.7818609E-02  0.8567626E-01
        2   -1    0    0  501    0  0.00000000000E+00  0.00000000000E+00  0.16179805263E+04  0.16179805263E+04  0.25500000920E-02 0. -1.
       -2   -1    0    0    0  501  0.00000000000E+00  0.00000000000E+00 -0.67207332854E+03  0.67207332855E+03  0.25500000920E-02 0.  1.
    10030    2    1    2    0    0  0.00000000000E+00  0.00000000000E+00  0.94590719775E+03  0.22900538548E+04  0.20855709605E+04 0.  0.
        3    1    3    3  502    0  0.66425586900E+03 -0.79845502326E+03  0.37091639876E+03  0.11028804417E+04  0.10100000352E+00 0. -1.
       -3    1    3    3    0  502 -0.66425586900E+03  0.79845502326E+03  0.57499079899E+03  0.11871734131E+04  0.10100000352E+00 0.  1.
</event>
<event>
 5   0  0.2448804E-04  0.2109699E+04  0.7818609E-02  0.8556983E-01
        2   -1    0    0  501    0  0.00000000000E+00  0.00000000000E+00  0.13790138933E+04  0.13790138933E+04  0.25500000920E-02 0.  1.
       -2   -1    0    0    0  501  0.00000000000E+00  0.00000000000E+00 -0.80688616165E+03  0.80688616166E+03  0.25500000920E-02 0. -1.
    10030    2    1    2    0    0  0.00000000000E+00  0.00000000000E+00  0.57212773166E+03  0.21859000550E+04  0.21096987721E+04 0.  0.
        2    1    3    3  502    0  0.21431979768E+03 -0.64916216112E+03 -0.54629727130E+03  0.87509153564E+03  0.25500000920E-02 0. -1.
       -2    1    3    3    0  502 -0.21431979768E+03  0.64916216112E+03  0.11184250030E+04  0.13108085193E+04  0.25500000920E-02 0.  1.
</event>
<event>
 5   0  0.2430898E-04  0.2127782E+04  0.7818609E-02  0.8549103E-01
        2   -1    0    0  501    0  0.00000000000E+00  0.00000000000E+00  0.16482633745E+04  0.16482633745E+04  0.25500000920E-02 0. -1.
       -2   -1    0    0    0  501  0.00000000000E+00  0.00000000000E+00 -0.68670099752E+03  0.68670099753E+03  0.25500000920E-02 0.  1.
    10030    2    1    2    0    0  0.00000000000E+00  0.00000000000E+00  0.96156237699E+03  0.23349643720E+04  0.21277820410E+04 0.  0.
        1    1    3    3  502    0  0.10248281192E+04 -0.25251177833E+03  0.62730878601E+03  0.12278237598E+04  0.50400001928E-02 0. -1.
       -1    1    3    3    0  502 -0.10248281192E+04  0.25251177833E+03  0.33425359098E+03  0.11071406122E+04  0.50400001928E-02 0.  1.
</event>
<event>
 5   0  0.1130848E-04  0.1665407E+04  0.7818609E-02  0.8781344E-01
       -1   -1    0    0    0  501  0.00000000000E+00  0.00000000000E+00  0.70561477362E+03  0.70561477364E+03  0.50400001928E-02 0.  1.
        1   -1    0    0  501    0  0.00000000000E+00  0.00000000000E+00 -0.98268217321E+03  0.98268217322E+03  0.50400001928E-02 0. -1.
    10030    2    1    2    0    0  0.00000000000E+00  0.00000000000E+00 -0.27706739959E+03  0.16882969469E+04  0.16654069283E+04 0.  0.
        5    1    3    3  502    0 -0.97295662933E+02 -0.14583541136E+03  0.68668074049E+03  0.70872204889E+03  0.46999998093E+01 0.  1.
       -5    1    3    3    0  502  0.97295662933E+02  0.14583541136E+03 -0.96374814008E+03  0.97957489797E+03  0.46999998093E+01 0. -1.
</event>
<event>
 5   0  0.2579241E-04  0.2114426E+04  0.7818609E-02  0.8554915E-01
        2   -1    0    0  501    0  0.00000000000E+00  0.00000000000E+00  0.19527310699E+04  0.19527310699E+04  0.25500000920E-02 0. -1.
       -2   -1    0    0    0  501  0.00000000000E+00  0.00000000000E+00 -0.57237761353E+03  0.57237761353E+03  0.25500000920E-02 0.  1.
    10030    2    1    2    0    0  0.00000000000E+00  0.00000000000E+00  0.13803534564E+04  0.25251086835E+04  0.21144262103E+04 0.  0.
        5    1    3    3  502    0 -0.17717669900E+03  0.78499014195E+03 -0.12861179117E+03  0.81496269145E+03  0.46999998093E+01 0.  1.
       -5    1    3    3    0  502  0.17717669900E+03 -0.78499014195E+03  0.15089652476E+04  0.17101459920E+04  0.46999998093E+01 0. -1.
</event>
<event>
 5   0  0.2467483E-04  0.2065214E+04  0.7818609E-02  0.8576724E-01
        2   -1    0    0  501    0  0.00000000000E+00  0.00000000000E+00  0.24810063865E+04  0.24810063865E+04  0.25500000920E-02 0. -1.
       -2   -1    0    0    0  501  0.00000000000E+00  0.00000000000E+00 -0.42977608926E+03  0.42977608927E+03  0.25500000920E-02 0.  1.
    10030    2    1    2    0    0  0.00000000000E+00  0.00000000000E+00  0.20512302973E+04  0.29107824758E+04  0.20652140056E+04 0.  0.
        4    1    3    3  502    0  0.20791910950E+03 -0.99548143249E+03  0.77324394600E+03  0.12775450878E+04  0.12699999809E+01 0.  1.
       -4    1    3    3    0  502 -0.20791910950E+03  0.99548143249E+03  0.12779863513E+04  0.16332373880E+04  0.12699999809E+01 0. -1.
</event>
<event>
 5   0  0.2448804E-04  0.2208481E+04  0.7818609E-02  0.8514907E-01
        2   -1    0    0  501    0  0.00000000000E+00  0.00000000000E+00  0.70167185397E+03  0.70167185398E+03  0.25500000920E-02 0. -1.
       -2   -1    0    0    0  501  0.00000000000E+00  0.00000000000E+00 -0.17377732095E+04  0.17377732095E+04  0.25500000920E-02 0.  1.
    10030    2    1    2    0    0  0.00000000000E+00  0.00000000000E+00 -0.10361013555E+04  0.24394450635E+04  0.22084805181E+04 0.  0.
        2    1    3    3  502    0  0.76604135416E+03  0.28365036770E+02 -0.13959822814E+04  0.15926049296E+04  0.25500000920E-02 0.  1.
       -2    1    3    3    0  502 -0.76604135416E+03 -0.28365036770E+02  0.35988092589E+03  0.84684013392E+03  0.25500000920E-02 0. -1.
</event>
<event>
 5   0  0.1042395E-04  0.2206328E+04  0.7818609E-02  0.8515799E-01
       -1   -1    0    0    0  501  0.00000000000E+00  0.00000000000E+00  0.85408400836E+03  0.85408400837E+03  0.50400001928E-02 0.  1.
        1   -1    0    0  501    0  0.00000000000E+00  0.00000000000E+00 -0.14248841215E+04  0.14248841215E+04  0.50400001928E-02 0. -1.
    10030    2    1    2    0    0  0.00000000000E+00  0.00000000000E+00 -0.57080011311E+03  0.22789681298E+04  0.22063279375E+04 0.  0.
        3    1    3    3  502    0  0.62829312046E+03  0.53477201807E+03  0.47099159689E+03  0.95003497361E+03  0.10100000352E+00 0.  1.
       -3    1    3    3    0  502 -0.62829312046E+03 -0.53477201807E+03 -0.10417917100E+04  0.13289331562E+04  0.10100000352E+00 0. -1.
</event>
<event>
 5   0  0.1130848E-04  0.2054521E+04  0.7818609E-02  0.8581546E-01
       -1   -1    0    0    0  501  0.00000000000E+00  0.00000000000E+00  0.63791502974E+03  0.63791502976E+03  0.50400001928E-02 0. -1.
        1   -1    0    0  501    0  0.00000000000E+00  0.00000000000E+00 -0.16542392986E+04  0.16542392986E+04  0.50400001928E-02 0.  1.
    10030    2    1    2    0    0  0.00000000000E+00  0.00000000000E+00 -0.10163242689E+04  0.22921543284E+04  0.20545209772E+04 0.  0.
        5    1    3    3  502    0  0.62726163135E+03  0.73398502476E+03 -0.11680290056E+03  0.97255137567E+03  0.46999998093E+01 0. -1.
       -5    1    3    3    0  502 -0.62726163135E+03 -0.73398502476E+03 -0.89952136831E+03  0.13196029527E+04  0.46999998093E+01 0.  1.
</event>
<event>
 5   0  0.2430898E-04  0.2254376E+04  0.7818609E-02  0.8496131E-01
        2   -1    0    0  501    0  0.00000000000E+00  0.00000000000E+00  0.13702419393E+04  0.13702419393E+04  0.25500000920E-02 0.  1.
       -2   -1    0    0    0  501  0.00000000000E+00  0.00000000000E+00 -0.92724667929E+03  0.92724667929E+03  0.25500000920E-02 0. -1.
    10030    2    1    2    0    0  0.00000000000E+00  0.00000000000E+00  0.44299526003E+03  0.22974886186E+04  0.22543755570E+04 0.  0.
        1    1    3    3  502    0 -0.44462536168E+03 -0.10343532640E+04  0.27707402370E+03  0.11594603924E+04  0.50400001928E-02 0.  1.
       -1    1    3    3    0  502  0.44462536168E+03  0.10343532640E+04  0.16592123632E+03  0.11380282262E+04  0.50400001928E-02 0. -1.
</event>
<event>
 5   0  0.2579241E-04  0.2089220E+04  0.7818609E-02  0.8566007E-01
       -2   -1    0    0    0  501  0.00000000000E+00  0.00000000000E+00  0.59433111835E+03  0.59433111836E+03  0.25500000920E-02 0.  1.
        2   -1    0    0  501    0  0.00000000000E+00  0.00000000000E+00 -0.18360299382E+04  0.18360299382E+04  0.25500000920E-02 0. -1.
    10030    2    1    2    0    0  0.00000000000E+00  0.00000000000E+00 -0.12416988199E+04  0.24303610566E+04  0.20892196883E+04 0.  0.
        5    1    3    3  502    0  0.83388638950E+02  0.29302109831E+02 -0.18316598701E+04  0.18337972212E+04  0.46999998093E+01 0. -1.
       -5    1    3    3    0  502 -0.83388638950E+02 -0.29302109831E+02  0.58996105029E+03  0.59656383532E+03  0.46999998093E+01 0.  1.
</event>
<event>
 5   0  0.2579241E-04  0.1408425E+04  0.7818609E-02  0.8947742E-01
       -2   -1    0    0    0  501  0.00000000000E+00  0.00000000000E+00  0.59752374510E+03  0.59752374511E+03  0.25500000920E-02 0. -1.
        2   -1    0    0  501    0  0.00000000000E+00  0.00000000000E+00 -0.82995092417E+03  0.82995092417E+03  0.25500000920E-02 0.  1.
    10030    2    1    2    0    0  0.00000000000E+00  0.00000000000E+00 -0.23242717907E+03  0.14274746693E+04  0.14084251978E+04 0.  0.
        5    1    3    3  502    0 -0.21900511066E+03  0.53071567260E+03 -0.52949206625E+03  0.78102900193E+03  0.46999998093E+01 0.  1.
       -5    1    3    3    0  502  0.21900511066E+03 -0.53071567260E+03  0.29706488718E+03  0.64644566735E+03  0.46999998093E+01 0. -1.
</event>
<event>
 5   0  0.1186038E-04  0.2069230E+04  0.7818609E-02  0.8574920E-01
       -1   -1    0    0    0  501  0.00000000000E+00  0.00000000000E+00  0.88398852491E+03  0.88398852493E+03  0.50400001928E-02 0. -1.
        1   -1    0    0  501    0  0.00000000000E+00  0.00000000000E+00 -0.12109068059E+04  0.12109068059E+04  0.50400001928E-02 0.  1.
    10030    2    1    2    0    0  0.00000000000E+00  0.00000000000E+00 -0.32691828098E+03  0.20948953308E+04  0.20692295389E+04 0.  0.
        4    1    3    3  502    0  0.85442213238E+03  0.12400098641E+03 -0.74062922636E+03  0.11375177751E+04  0.12699999809E+01 0.  1.
       -4    1    3    3    0  502 -0.85442213238E+03 -0.12400098641E+03  0.41371094537E+03  0.95737755569E+03  0.12699999809E+01 0. -1.
</event>
<event>
 5   0  0.1186038E-04  0.2102969E+04  0.7818609E-02  0.8559936E-01
       -1   -1    0    0    0  501  0.00000000000E+00  0.00000000000E+00  0.10166126088E+04  0.10166126088E+04  0.50400001928E-02 0. -1.
        1   -1    0    0  501    0  0.00000000000E+00  0.00000000000E+00 -0.10875530654E+04  0.10875530654E+04  0.50400001928E-02 0.  1.
    10030    2    1    2    0    0  0.00000000000E+00  0.00000000000E+00 -0.70940456654E+02  0.21041656742E+04  0.21029694806E+04 0.  0.
        4    1    3    3  502    0  0.86021887530E+03 -0.39856777369E+03 -0.49046591374E+03  0.10674226947E+04  0.12699999809E+01 0.  1.
       -4    1    3    3    0  502 -0.86021887530E+03  0.39856777369E+03  0.41952545709E+03  0.10367429796E+04  0.12699999809E+01 0. -1.
</event>
<event>
 5   0  0.1156733E-04  0.2118950E+04  0.7818609E-02  0.8552941E-01
        1   -1    0    0  501    0  0.00000000000E+00  0.00000000000E+00  0.93825461457E+03  0.93825461458E+03  0.50400001928E-02 0.  1.
       -1   -1    0    0    0  501  0.00000000000E+00  0.00000000000E+00 -0.11963572150E+04  0.11963572150E+04  0.50400001928E-02 0. -1.
    10030    2    1    2    0    0  0.00000000000E+00  0.00000000000E+00 -0.25810260045E+03  0.21346118296E+04  0.21189503795E+04 0.  0.
        2    1    3    3  502    0  0.70729232712E+03 -0.72985246391E+03 -0.43049636640E+03  0.11037545817E+04  0.25500000920E-02 0. -1.
       -2    1    3    3    0  502 -0.70729232712E+03  0.72985246391E+03  0.17239376594E+03  0.10308572479E+04  0.25500000920E-02 0.  1.
</event>
<event>
 5   0  0.2430898E-04  0.2062792E+04  0.7818609E-02  0.8577813E-01
       -2   -1    0    0    0  501  0.00000000000E+00  0.00000000000E+00  0.43655904542E+03  0.43655904543E+03  0.25500000920E-02 0.  1.
        2   -1    0    0  501    0  0.00000000000E+00  0.00000000000E+00 -0.24367319117E+04  0.24367319117E+04  0.25500000920E-02 0. -1.
    10030    2    1    2    0    0  0.00000000000E+00  0.00000000000E+00 -0.20001728663E+04  0.28732909571E+04  0.20627916592E+04 0.  0.
        1    1    3    3  502    0  0.80880507183E+03  0.62303811820E+03 -0.12040197463E+04  0.15786087832E+04  0.50400001928E-02 0. -1.
       -1    1    3    3    0  502 -0.80880507183E+03 -0.62303811820E+03 -0.79615312000E+03  0.12946821739E+04  0.50400001928E-02 0.  1.
</event>
<event>
 5   0  0.2579241E-04  0.2077462E+04  0.7818609E-02  0.8571237E-01
       -2   -1    0    0    0  501  0.00000000000E+00  0.00000000000E+00  0.74118618882E+03  0.74118618883E+03  0.25500000920E-02 0. -1.
        2   -1    0    0  501    0  0.00000000000E+00  0.00000000000E+00 -0.14557228034E+04  0.14557228034E+04  0.25500000920E-02 0.  1.
    10030    2    1    2    0    0  0.00000000000E+00  0.00000000000E+00 -0.71453661460E+03  0.21969089922E+04  0.20774615632E+04 0.  0.
        5    1    3    3  502    0  0.44695694943E+03  0.59422143122E+03 -0.11242779173E+04  0.13479215665E+04  0.46999998093E+01 0.  1.
       -5    1    3    3    0  502 -0.44695694943E+03 -0.59422143122E+03  0.40974130273E+03  0.84898742578E+03  0.46999998093E+01 0. -1.
</event>
<event>
 5   0  0.2512839E-04  0.2106751E+04  0.7818609E-02  0.8558275E-01
        2   -1    0    0  501    0  0.00000000000E+00  0.00000000000E+00  0.13240143614E+04  0.13240143614E+04  0.25500000920E-02 0. -1.
       -2   -1    0    0    0  501  0.00000000000E+00  0.00000000000E+00 -0.83805739244E+03  0.83805739245E+03  0.25500000920E-02 0.  1.
    10030    2    1    2    0    0  0.00000000000E+00  0.00000000000E+00  0.48595696891E+03  0.21620717538E+04  0.21067510752E+04 0.  0.
        3    1    3    3  502    0  0.72749843936E+03 -0.75322713566E+03  0.12598986534E+03  0.10547409888E+04  0.10100000352E+00 0.  1.
       -3    1    3    3    0  502 -0.72749843936E+03  0.75322713566E+03  0.35996710358E+03  0.11073307650E+04  0.10100000352E+00 0. -1.
</event>
<event>
 5   0  0.1122711E-04  0.2272954E+04  0.7818609E-02  0.8488662E-01
        1   -1    0    0  501    0  0.00000000000E+00  0.00000000000E+00  0.16611218052E+04  0.16611218052E+04  0.50400001928E-02 0. -1.
       -1   -1    0    0    0  501  0.00000000000E+00  0.00000000000E+00 -0.77753497444E+03  0.77753497445E+03  0.50400001928E-02 0.  1.
    10030    2    1    2    0    0  0.00000000000E+00  0.00000000000E+00  0.88358683074E+03  0.24386567796E+04  0.22729542893E+04 0.  0.
        1    1    3    3  502    0 -0.56729974800E+03  0.98049561843E+03  0.54000723944E+03  0.12549137343E+04  0.50400001928E-02 0. -1.
       -1    1    3    3    0  502  0.56729974800E+03 -0.98049561843E+03  0.34357959131E+03  0.11837430454E+04  0.50400001928E-02 0.  1.
</event>
<event>
 5   0  0.2430898E-04  0.1096344E+04  0.7818609E-02  0.9208762E-01
        2   -1    0    0  501    0  0.00000000000E+00  0.00000000000E+00  0.67467028190E+03  0.67467028190E+03  0.25500000920E-02 0. -1.
       -2   -1    0    0    0  501  0.00000000000E+00  0.00000000000E+00 -0.44539196302E+03  0.44539196303E+03  0.25500000920E-02 0.  1.
    10030    2    1    2    0    0  0.00000000000E+00  0.00000000000E+00  0.22927831888E+03  0.11200622449E+04  0.10963443278E+04 0.  0.
        1    1    3    3  502    0 -0.28383827842E+03  0.43422975501E+03  0.29559546159E+03  0.59707313235E+03  0.50400001928E-02 0.  1.
       -1    1    3    3    0  502  0.28383827842E+03 -0.43422975501E+03 -0.66317142709E+02  0.52298911258E+03  0.50400001928E-02 0. -1.
</event>
<event>
 5   0  0.1186038E-04  0.2125381E+04  0.7818609E-02  0.8550145E-01
       -1   -1    0    0    0  501  0.00000000000E+00  0.00000000000E+00  0.13473875988E+04  0.13473875988E+04  0.50400001928E-02 0. -1.
        1   -1    0    0  501    0  0.00000000000E+00  0.00000000000E+00 -0.83814851619E+03  0.83814851620E+03  0.50400001928E-02 0.  1.
    10030    2    1    2    0    0  0.00000000000E+00  0.00000000000E+00  0.50923908265E+03  0.21855361151E+04  0.21253808287E+04 0.  0.
        4    1    3    3  502    0 -0.55235169034E+02 -0.99847734047E+03 -0.11514291181E+03  0.10066118549E+04  0.12699999809E+01 0.  1.
       -4    1    3    3    0  502  0.55235169034E+02  0.99847734047E+03  0.62438199446E+03  0.11789242602E+04  0.12699999809E+01 0. -1.
</event>
<event>
 5   0  0.2512839E-04  0.2132412E+04  0.7818609E-02  0.8547098E-01
       -2   -1    0    0    0  501  0.00000000000E+00  0.00000000000E+00  0.56569338036E+03  0.56569338037E+03  0.25500000920E-02 0.  1.
        2   -1    0    0  501    0  0.00000000000E+00  0.00000000000E+00 -0.20095616210E+04  0.20095616210E+04  0.25500000920E-02 0. -1.
    10030    2    1    2    0    0  0.00000000000E+00  0.00000000000E+00 -0.14438682406E+04  0.25752550014E+04  0.21324124427E+04 0.  0.
        3    1    3    3  502    0  0.61874569953E+03 -0.51040884843E+03 -0.15702601687E+04  0.17632584725E+04  0.10100000352E+00 0. -1.
       -3    1    3    3    0  502 -0.61874569953E+03  0.51040884843E+03  0.12639192805E+03  0.81199652888E+03  0.10100000352E+00 0.  1.
</event>
<event>
 5   0  0.2467483E-04  0.2354071E+04  0.7818609E-02  0.8456902E-01
        2   -1    0    0  501    0  0.00000000000E+00  0.00000000000E+00  0.13739867765E+04  0.13739867765E+04  0.25500000920E-02 0.  1.
       -2   -1    0    0    0  501  0.00000000000E+00  0.00000000000E+00 -0.10083153799E+04  0.10083153799E+04  0.25500000920E-02 0. -1.
    10030    2    1    2    0    0  0.00000000000E+00  0.00000000000E+00  0.36567139656E+03  0.23823021564E+04  0.23540705160E+04 0.  0.
        4    1    3    3  502    0 -0.47863405915E-01  0.84423402024E+03  0.10128420359E+04  0.13185528756E+04  0.12699999809E+01 0.  1.
       -4    1    3    3    0  502  0.47863405915E-01 -0.84423402024E+03 -0.64717063932E+03  0.10637492808E+04  0.12699999809E+01 0. -1.
</event>
<event>
 5   0  0.1122711E-04  0.2137798E+04  0.7818609E-02  0.8544774E-01
        1   -1    0    0  501    0  0.00000000000E+00  0.00000000000E+00  0.79026364910E+03  0.79026364911E+03  0.50400001928E-02 0.  1.
       -1   -1    0    0    0  501  0.00000000000E+00  0.00000000000E+00 -0.14457767069E+04  0.14457767069E+04  0.50400001928E-02 0. -1.
    10030    2    1    2    0    0  0.00000000000E+00  0.00000000000E+00 -0.65551305782E+03  0.22360403560E+04  0.21377977231E+04 0.  0.
        1    1    3    3  502    0  0.58777907638E+03  0.87533304677E+03 -0.51147754841E+03  0.11718794597E+04  0.50400001928E-02 0. -1.
       -1    1    3    3    0  502 -0.58777907638E+03 -0.87533304677E+03 -0.14403550941E+03  0.10641608964E+04  0.50400001928E-02 0.  1.
</event>
<event>
 5   0  0.2430898E-04  0.2105815E+04  0.7818609E-02  0.8558686E-01
        2   -1    0    0  501    0  0.00000000000E+00  0.00000000000E+00  0.12214738708E+04  0.12214738708E+04  0.25500000920E-02 0. -1.
       -2   -1    0    0    0  501  0.00000000000E+00  0.00000000000E+00 -0.90760384026E+03  0.90760384026E+03  0.25500000920E-02 0.  1.
    10030    2    1    2    0    0  0.00000000000E+00  0.00000000000E+00  0.31387003052E+03  0.21290777110E+04  0.21058151637E+04 0.  0.
        1    1    3    3  502    0 -0.39063719387E+03  0.73284306410E+03 -0.49748490357E+03  0.96806384250E+03  0.50400001928E-02 0.  1.
       -1    1    3    3    0  502  0.39063719387E+03 -0.73284306410E+03  0.81135493410E+03  0.11610138685E+04  0.50400001928E-02 0. -1.
</event>
<event>
 5   0  0.1130848E-04  0.1394335E+04  0.7818609E-02  0.8957929E-01
        1   -1    0    0  501    0  0.00000000000E+00  0.00000000000E+00  0.69951014658E+03  0.69951014660E+03  0.50400001928E-02 0. -1.
       -1   -1    0    0    0  501  0.00000000000E+00  0.00000000000E+00 -0.69483316420E+03  0.69483316422E+03  0.50400001928E-02 0.  1.
    10030    2    1    2    0    0  0.00000000000E+00  0.00000000000E+00  0.46769823801E+01  0.13943433108E+04  0.13943354669E+04 0.  0.
        5    1    3    3  502    0  0.65312791362E+03 -0.81801437615E+02  0.23202045686E+03  0.69794206719E+03  0.46999998093E+01 0. -1.
       -5    1    3    3    0  502 -0.65312791362E+03  0.81801437615E+02 -0.22734347448E+03  0.69640124364E+03  0.46999998093E+01 0.  1.
</event>
<event>
 5   0  0.1130848E-04  0.1994499E+04  0.7818609E-02  0.8609197E-01
       -1   -1    0    0    0  501  0.00000000000E+00  0.00000000000E+00  0.11491543653E+04  0.11491543653E+04  0.50400001928E-02 0.  1.
        1   -1    0    0  501    0  0.00000000000E+00  0.00000000000E+00 -0.86542442511E+03  0.86542442513E+03  0.50400001928E-02 0. -1.
    10030    2    1    2    0    0  0.00000000000E+00  0.00000000000E+00  0.28372994021E+03  0.20145787905E+04  0.19944986899E+04 0.  0.
        5    1    3    3  502    0  0.62932537237E+03  0.34906896071E+02  0.92244232259E+03  0.11172246167E+04  0.46999998093E+01 0.  1.
       -5    1    3    3    0  502 -0.62932537237E+03 -0.34906896071E+02 -0.63871238238E+03  0.89735417373E+03  0.46999998093E+01 0. -1.
</event>
<event>
 5   0  0.1122711E-04  0.2062506E+04  0.7818609E-02  0.8577942E-01
        1   -1    0    0  501    0  0.00000000000E+00  0.00000000000E+00  0.14700606995E+04  0.14700606995E+04  0.50400001928E-02 0. -1.
       -1   -1    0    0    0  501  0.00000000000E+00  0.00000000000E+00 -0.72342797392E+03  0.72342797394E+03  0.50400001928E-02 0.  1.
    10030    2    1    2    0    0  0.00000000000E+00  0.00000000000E+00  0.74663272556E+03  0.21934886734E+04  0.20625062748E+04 0.  0.
        1    1    3    3  502    0 -0.10593641436E+03  0.41819380083E+03 -0.62285169142E+03  0.75766272739E+03  0.50400001928E-02 0.  1.
       -1    1    3    3    0  502  0.10593641436E+03 -0.41819380083E+03  0.13694844170E+04  0.14358259460E+04  0.50400001928E-02 0. -1.
</event>
<event>
 5   0  0.1042395E-04  0.2108234E+04  0.7818609E-02  0.8557625E-01
        1   -1    0    0  501    0  0.00000000000E+00  0.00000000000E+00  0.11820198206E+04  0.11820198206E+04  0.50400001928E-02 0. -1.
       -1   -1    0    0    0  501  0.00000000000E+00  0.00000000000E+00 -0.94005448508E+03  0.94005448509E+03  0.50400001928E-02 0.  1.
    10030    2    1    2    0    0  0.00000000000E+00  0.00000000000E+00  0.24196533550E+03  0.21220743057E+04  0.21082343644E+04 0.  0.
        3    1    3    3  502    0  0.34495861278E+03 -0.58575920607E+03  0.93190953561E+03  0.11535014889E+04  0.10100000352E+00 0. -1.
       -3    1    3    3    0  502 -0.34495861278E+03  0.58575920607E+03 -0.68994420011E+03  0.96857281683E+03  0.10100000352E+00 0.  1.
</event>
<event>
 5   0  0.1042395E-04  0.2124904E+04  0.7818609E-02  0.8550351E-01
        1   -1    0    0  501    0  0.00000000000E+00  0.00000000000E+00  0.14151051166E+04  0.14151051166E+04  0.50400001928E-02 0. -1.
       -1   -1    0    0    0  501  0.00000000000E+00  0.00000000000E+00 -0.79768257620E+03  0.79768257622E+03  0.50400001928E-02 0.  1.
    10030    2    1    2    0    0  0.00000000000E+00  0.00000000000E+00  0.61742254039E+03  0.22127876928E+04  0.21249044167E+04 0.  0.
        3    1    3    3  502    0  0.33553461589E+03 -0.80472188917E+03 -0.32356060905E+03  0.92997434120E+03  0.10100000352E+00 0.  1.
       -3    1    3    3    0  502 -0.33553461589E+03  0.80472188917E+03  0.94098314944E+03  0.12828133516E+04  0.10100000352E+00 0. -1.
</event>
<event>
 5   0  0.1186038E-04  0.2059000E+04  0.7818609E-02  0.8579523E-01
       -1   -1    0    0    0  501  0.00000000000E+00  0.00000000000E+00  0.13430123402E+04  0.13430123402E+04  0.50400001928E-02 0. -1.
        1   -1    0    0  501    0  0.00000000000E+00  0.00000000000E+00 -0.78917361466E+03  0.78917361467E+03  0.50400001928E-02 0.  1.
    10030    2    1    2    0    0  0.00000000000E+00  0.00000000000E+00  0.55383872552E+03  0.21321859549E+04  0.20589996630E+04 0.  0.
        4    1    3    3  502    0 -0.76555653008E+03 -0.21637686611E+03 -0.39973794401E+03  0.89033015546E+03  0.12699999809E+01 0.  1.
       -4    1    3    3    0  502  0.76555653008E+03  0.21637686611E+03  0.95357666953E+03  0.12418557994E+04  0.12699999809E+01 0. -1.
</event>
<event>
 5   0  0.1042395E-04  0.1708410E+04  0.7818609E-02  0.8756582E-01
        1   -1    0    0  501    0  0.00000000000E+00  0.00000000000E+00  0.24559432863E+04  0.24559432863E+04  0.50400001928E-02 0. -1.
       -1   -1    0    0    0  501  0.00000000000E+00  0.00000000000E+00 -0.29710228753E+03  0.29710228757E+03  0.50400001928E-02 0.  1.
    10030    2    1    2    0    0  0.00000000000E+00  0.00000000000E+00  0.21588409988E+04  0.27530455739E+04  0.17084102183E+04 0.  0.
        3    1    3    3  502    0 -0.79991036676E+03  0.20854405512E+03  0.73260261362E+03  0.11045604635E+04  0.10100000352E+00 0.  1.
       -3    1    3    3    0  502  0.79991036676E+03 -0.20854405512E+03  0.14262383851E+04  0.16484851104E+04  0.10100000352E+00 0. -1.
</event>
<event>
 5   0  0.1122711E-04  0.2113596E+04  0.7818609E-02  0.8555278E-01
        1   -1    0    0  501    0  0.00000000000E+00  0.00000000000E+00  0.11728354593E+04  0.11728354593E+04  0.50400001928E-02 0.  1.
       -1   -1    0    0    0  501  0.00000000000E+00  0.00000000000E+00 -0.95224138662E+03  0.95224138664E+03  0.50400001928E-02 0. -1.
    10030    2    1    2    0    0  0.00000000000E+00  0.00000000000E+00  0.22059407268E+03  0.21250768460E+04  0.21135964270E+04 0.  0.
        1    1    3    3  502    0  0.28149286055E+03  0.23311316366E+02 -0.91358635482E+03  0.95625398078E+03  0.50400001928E-02 0. -1.
       -1    1    3    3    0  502 -0.28149286055E+03 -0.23311316366E+02  0.11341804275E+04  0.11688228652E+04  0.50400001928E-02 0.  1.
</event>
<event>
 5   0  0.1130848E-04  0.2112942E+04  0.7818609E-02  0.8555564E-01
        1   -1    0    0  501    0  0.00000000000E+00  0.00000000000E+00  0.14693435154E+04  0.14693435154E+04  0.50400001928E-02 0.  1.
       -1   -1    0    0    0  501  0.00000000000E+00  0.00000000000E+00 -0.75961208939E+03  0.75961208941E+03  0.50400001928E-02 0. -1.
    10030    2    1    2    0    0  0.00000000000E+00  0.00000000000E+00  0.70973142599E+03  0.22289556048E+04  0.21129421173E+04 0.  0.
        5    1    3    3  502    0  0.48810392723E+03 -0.91800444737E+03  0.15714073384E+03  0.10515193338E+04  0.46999998093E+01 0. -1.
       -5    1    3    3    0  502 -0.48810392723E+03  0.91800444737E+03  0.55259069215E+03  0.11774362710E+04  0.46999998093E+01 0.  1.
</event>
<event>
 5   0  0.2512839E-04  0.1753659E+04  0.7818609E-02  0.8731339E-01
       -2   -1    0    0    0  501  0.00000000000E+00  0.00000000000E+00  0.99382553143E+03  0.99382553143E+03  0.25500000920E-02 0.  1.
        2   -1    0    0  501    0  0.00000000000E+00  0.00000000000E+00 -0.77360656648E+03  0.77360656648E+03  0.25500000920E-02 0. -1.
    10030    2    1    2    0    0  0.00000000000E+00  0.00000000000E+00  0.22021896495E+03  0.17674320979E+04  0.17536589829E+04 0.  0.
        3    1    3    3  502    0 -0.24645665265E+03 -0.67925742750E+03 -0.39047890529E+03  0.82134360662E+03  0.10100000352E+00 0. -1.
       -3    1    3    3    0  502  0.24645665265E+03  0.67925742750E+03  0.61069787024E+03  0.94608849130E+03  0.10100000352E+00 0.  1.
</event>
<event>
 5   0  0.2448804E-04  0.1981696E+04  0.7818609E-02  0.8615226E-01
       -2   -1    0    0    0  501  0.00000000000E+00  0.00000000000E+00  0.83249729977E+03  0.83249729978E+03  0.25500000920E-02 0. -1.
        2   -1    0    0  501    0  0.00000000000E+00  0.00000000000E+00 -0.11793194345E+04  0.11793194345E+04  0.25500000920E-02 0.  1.
    10030    2    1    2    0    0  0.00000000000E+00  0.00000000000E+00 -0.34682213468E+03  0.20118167342E+04  0.19816964901E+04 0.  0.
        2    1    3    3  502    0 -0.83728586070E+03 -0.67095232974E+01 -0.71126320729E+03  0.10986300471E+04  0.25500000920E-02 0.  1.
       -2    1    3    3    0  502  0.83728586070E+03  0.67095232974E+01  0.36444107261E+03  0.91318668718E+03  0.25500000920E-02 0. -1.
</event>
<event>
 5   0  0.1130848E-04  0.2127980E+04  0.7818609E-02  0.8549017E-01
        1   -1    0    0  501    0  0.00000000000E+00  0.00000000000E+00  0.15574176081E+04  0.15574176081E+04  0.50400001928E-02 0.  1.
       -1   -1    0    0    0  501  0.00000000000E+00  0.00000000000E+00 -0.72689207497E+03  0.72689207499E+03  0.50400001928E-02 0. -1.
    10030    2    1    2    0    0  0.00000000000E+00  0.00000000000E+00  0.83052553315E+03  0.22843096831E+04  0.21279798089E+04 0.  0.
        5    1    3    3  502    0 -0.88624984604E+03 -0.50842254098E+03  0.96604558982E+02  0.10262976179E+04  0.46999998093E+01 0. -1.
       -5    1    3    3    0  502  0.88624984604E+03  0.50842254098E+03  0.73392097417E+03  0.12580120652E+04  0.46999998093E+01 0.  1.
</event>
<event>
 5   0  0.2512839E-04  0.2114645E+04  0.7818609E-02  0.8554819E-01
       -2   -1    0    0    0  501  0.00000000000E+00  0.00000000000E+00  0.10831000827E+04  0.10831000827E+04  0.25500000920E-02 0. -1.
        2   -1    0    0  501    0  0.00000000000E+00  0.00000000000E+00 -0.10321586061E+04  0.10321586061E+04  0.25500000920E-02 0.  1.
    10030    2    1    2    0    0  0.00000000000E+00  0.00000000000E+00  0.50941476618E+02  0.21152586888E+04  0.21146451917E+04 0.  0.
        3    1    3    3  502    0  0.46606778388E+03  0.84931819494E+03  0.44911513926E+03  0.10678319128E+04  0.10100000352E+00 0. -1.
       -3    1    3    3    0  502 -0.46606778388E+03 -0.84931819494E+03 -0.39817366264E+03  0.10474267761E+04  0.10100000352E+00 0.  1.
</event>
<event>
 5   0  0.2430898E-04  0.2083838E+04  0.7818609E-02  0.8568396E-01
        2   -1    0    0  501    0  0.00000000000E+00  0.00000000000E+00  0.17142486441E+04  0.17142486441E+04  0.25500000920E-02 0. -1.
       -2   -1    0    0    0  501  0.00000000000E+00  0.00000000000E+00 -0.63327781213E+03  0.63327781213E+03  0.25500000920E-02 0.  1.
    10030    2    1    2    0    0  0.00000000000E+00  0.00000000000E+00  0.10809708319E+04  0.23475264562E+04  0.20838384110E+04 0.  0.
        1    1    3    3  502    0 -0.92860858974E+03 -0.23461470479E+03  0.78415106656E+02  0.96099266470E+03  0.50400001928E-02 0.  1.
       -1    1    3    3    0  502  0.92860858974E+03  0.23461470479E+03  0.10025557253E+04  0.13865337915E+04  0.50400001928E-02 0. -1.
</event>
<event>
 5   0  0.2467483E-04  0.2099781E+04  0.7818609E-02  0.8561340E-01
        2   -1    0    0  501    0  0.00000000000E+00  0.00000000000E+00  0.11174871470E+04  0.11174871470E+04  0.25500000920E-02 0. -1.
       -2   -1    0    0    0  501  0.00000000000E+00  0.00000000000E+00 -0.98638312400E+03  0.98638312400E+03  0.25500000920E-02 0.  1.
    10030    2    1    2    0    0  0.00000000000E+00  0.00000000000E+00  0.13110402298E+03  0.21038702710E+04  0.20997813820E+04 0.  0.
        4    1    3    3  502    0 -0.60097105712E+02  0.68139262652E+03 -0.73246694582E+03  0.10022060732E+04  0.12699999809E+01 0.  1.
       -4    1    3    3    0  502  0.60097105712E+02 -0.68139262652E+03  0.86357096880E+03  0.11016641978E+04  0.12699999809E+01 0. -1.
</event>
<event>
 5   0  0.2448804E-04  0.2102910E+04  0.7818609E-02  0.8559963E-01
       -2   -1    0    0    0  501  0.00000000000E+00  0.00000000000E+00  0.91480389633E+03  0.91480389633E+03  0.25500000920E-02 0. -1.
        2   -1    0    0  501    0  0.00000000000E+00  0.00000000000E+00 -0.12085185966E+04  0.12085185966E+04  0.25500000920E-02 0.  1.
    10030    2    1    2    0    0  0.00000000000E+00  0.00000000000E+00 -0.29371470028E+03  0.21233224929E+04  0.21029099086E+04 0.  0.
        2    1    3    3  502    0  0.94663807399E+03 -0.80156146270E+02  0.30808126366E+03  0.99873055222E+03  0.25500000920E-02 0. -1.
       -2    1    3    3    0  502 -0.94663807399E+03  0.80156146270E+02 -0.60179596394E+03  0.11245919407E+04  0.25500000920E-02 0.  1.
</event>
<event>
 5   0  0.1130848E-04  0.2111083E+04  0.7818609E-02  0.8556377E-01
        1   -1    0    0  501    0  0.00000000000E+00  0.00000000000E+00  0.86935220541E+03  0.86935220542E+03  0.50400001928E-02 0.  1.
       -1   -1    0    0    0  501  0.00000000000E+00  0.00000000000E+00 -0.12816066470E+04  0.12816066470E+04  0.50400001928E-02 0. -1.
    10030    2    1    2    0    0  0.00000000000E+00  0.00000000000E+00 -0.41225444162E+03  0.21509588525E+04  0.21110827223E+04 0.  0.
        5    1    3    3  502    0 -0.59303779832E+03 -0.32874602900E+03 -0.10303433221E+04  0.12334493233E+04  0.46999998093E+01 0. -1.
       -5    1    3    3    0  502  0.59303779832E+03  0.32874602900E+03  0.61808888050E+03  0.91750952912E+03  0.46999998093E+01 0.  1.
</event>
<event>
 5   0  0.2448804E-04  0.1919963E+04  0.7818609E-02  0.8644983E-01
       -2   -1    0    0    0  501  0.00000000000E+00  0.00000000000E+00  0.12292766513E+04  0.12292766513E+04  0.25500000920E-02 0. -1.
        2   -1    0    0  501    0  0.00000000000E+00  0.00000000000E+00 -0.74968031965E+03  0.74968031965E+03  0.25500000920E-02 0.  1.
    10030    2    1    2    0    0  0.00000000000E+00  0.00000000000E+00  0.47959633167E+03  0.19789569710E+04  0.19199630339E+04 0.  0.
        2    1    3    3  502    0 -0.50514678406E+03 -0.43543768241E+03 -0.47191483055E+03  0.81699623990E+03  0.25500000920E-02 0.  1.
       -2    1    3    3    0  502  0.50514678406E+03  0.43543768241E+03  0.95151116222E+03  0.11619607311E+04  0.25500000920E-02 0. -1.
</event>
<event>
 5   0  0.1130848E-04  0.2052510E+04  0.7818609E-02  0.8582456E-01
        1   -1    0    0  501    0  0.00000000000E+00  0.00000000000E+00  0.64700422781E+03  0.64700422783E+03  0.50400001928E-02 0. -1.
       -1   -1    0    0    0  501  0.00000000000E+00  0.00000000000E+00 -0.16278093991E+04  0.16278093991E+04  0.50400001928E-02 0.  1.
    10030    2    1    2    0    0  0.00000000000E+00  0.00000000000E+00 -0.98080517125E+03  0.22748136269E+04  0.20525102322E+04 0.  0.
        5    1    3    3  502    0 -0.55556001615E+02 -0.86595348024E+03 -0.10976659751E+04  0.13992335696E+04  0.46999998093E+01 0.  1.
       -5    1    3    3    0  502  0.55556001615E+02  0.86595348024E+03  0.11686080390E+03  0.87558005730E+03  0.46999998093E+01 0. -1.
</event>
<event>
 5   0  0.1186038E-04  0.2135343E+04  0.7818609E-02  0.8545832E-01
        1   -1    0    0  501    0  0.00000000000E+00  0.00000000000E+00  0.16179745475E+04  0.16179745475E+04  0.50400001928E-02 0. -1.
       -1   -1    0    0    0  501  0.00000000000E+00  0.00000000000E+00 -0.70453701239E+03  0.70453701241E+03  0.50400001928E-02 0.  1.
    10030    2    1    2    0    0  0.00000000000E+00  0.00000000000E+00  0.91343753510E+03  0.23225115599E+04  0.21353434889E+04 0.  0.
        4    1    3    3  502    0 -0.61160933716E+03  0.90922217908E+02 -0.48996913809E+03  0.78892597891E+03  0.12699999809E+01 0.  1.
       -4    1    3    3    0  502  0.61160933716E+03 -0.90922217908E+02  0.14034066732E+04  0.15335855810E+04  0.12699999809E+01 0. -1.
</event>
<event>
 5   0  0.1156733E-04  0.2223164E+04  0.7818609E-02  0.8508848E-01
        1   -1    0    0  501    0  0.00000000000E+00  0.00000000000E+00  0.14207987400E+04  0.14207987401E+04  0.50400001928E-02 0. -1.
       -1   -1    0    0    0  501  0.00000000000E+00  0.00000000000E+00 -0.86966227277E+03  0.86966227278E+03  0.50400001928E-02 0.  1.
    10030    2    1    2    0    0  0.00000000000E+00  0.00000000000E+00  0.55113646727E+03  0.22904610128E+04  0.22231644666E+04 0.  0.
        2    1    3    3  502    0 -0.22091293446E+03 -0.64823255033E+03 -0.62649655187E+03  0.92817341776E+03  0.25500000920E-02 0.  1.
       -2    1    3    3    0  502  0.22091293446E+03  0.64823255033E+03  0.11776330191E+04  0.13622875951E+04  0.25500000920E-02 0. -1.
</event>
<event>
 5   0  0.1186038E-04  0.1290768E+04  0.7818609E-02  0.9036918E-01
       -1   -1    0    0    0  501  0.00000000000E+00  0.00000000000E+00  0.37723586490E+03  0.37723586494E+03  0.50400001928E-02 0.  1.
        1   -1    0    0  501    0  0.00000000000E+00  0.00000000000E+00 -0.11041384399E+04  0.11041384399E+04  0.50400001928E-02 0. -1.
    10030    2    1    2    0    0  0.00000000000E+00  0.00000000000E+00 -0.72690257495E+03  0.14813743048E+04  0.12907681734E+04 0.  0.
        4    1    3    3  502    0 -0.27703359659E+03 -0.31541479244E+03  0.19912289810E+03  0.46463496035E+03  0.12699999809E+01 0.  1.
       -4    1    3    3    0  502  0.27703359659E+03  0.31541479244E+03 -0.92602547304E+03  0.10167393445E+04  0.12699999809E+01 0. -1.
</event>
<event>
 5   0  0.2430898E-04  0.2158143E+04  0.7818609E-02  0.8536055E-01
        2   -1    0    0  501    0  0.00000000000E+00  0.00000000000E+00  0.14066310960E+04  0.14066310960E+04  0.25500000920E-02 0. -1.
       -2   -1    0    0    0  501  0.00000000000E+00  0.00000000000E+00 -0.82779002212E+03  0.82779002212E+03  0.25500000920E-02 0.  1.
    10030    2    1    2    0    0  0.00000000000E+00  0.00000000000E+00  0.57884107391E+03  0.22344211182E+04  0.21581428925E+04 0.  0.
        1    1    3    3  502    0 -0.33714758423E+03  0.83885628331E+03 -0.32050788438E+03  0.95920470264E+03  0.50400001928E-02 0.  1.
       -1    1    3    3    0  502  0.33714758423E+03 -0.83885628331E+03  0.89934895829E+03  0.12752164155E+04  0.50400001928E-02 0. -1.
</event>
<event>
 5   0  0.2467483E-04  0.2119356E+04  0.7818609E-02  0.8552765E-01
       -2   -1    0    0    0  501  0.00000000000E+00  0.00000000000E+00  0.83086324731E+03  0.83086324732E+03  0.25500000920E-02 0. -1.
        2   -1    0    0  501    0  0.00000000000E+00  0.00000000000E+00 -0.13515069707E+04  0.13515069707E+04  0.25500000920E-02 0.  1.
    10030    2    1    2    0    0  0.00000000000E+00  0.00000000000E+00 -0.52064372339E+03  0.21823702180E+04  0.21193560064E+04 0.  0.
        4    1    3    3  502    0 -0.46152049909E+03 -0.92695101987E+03 -0.28514198698E+02  0.10358832158E+04  0.12699999809E+01 0. -1.
       -4    1    3    3    0  502  0.46152049909E+03  0.92695101987E+03 -0.49212952470E+03  0.11464870022E+04  0.12699999809E+01 0.  1.
</event>
<event>
 5   0  0.1042395E-04  0.1114535E+04  0.7818609E-02  0.9191139E-01
        1   -1    0    0  501    0  0.00000000000E+00  0.00000000000E+00  0.12498074330E+04  0.12498074330E+04  0.50400001928E-02 0.  1.
       -1   -1    0    0    0  501  0.00000000000E+00  0.00000000000E+00 -0.24847612918E+03  0.24847612923E+03  0.50400001928E-02 0. -1.
    10030    2    1    2    0    0  0.00000000000E+00  0.00000000000E+00  0.10013313038E+04  0.14982835622E+04  0.11145354426E+04 0.  0.
        3    1    3    3  502    0  0.16617068715E+03 -0.27537847206E+03  0.11124403997E+04  0.11580024409E+04  0.10100000352E+00 0.  1.
       -3    1    3    3    0  502 -0.16617068715E+03  0.27537847206E+03 -0.11110909586E+03  0.34028112131E+03  0.10100000352E+00 0. -1.
</event>
<event>
 5   0  0.2512839E-04  0.1890140E+04  0.7818609E-02  0.8659780E-01
       -2   -1    0    0    0  501  0.00000000000E+00  0.00000000000E+00  0.57717814136E+03  0.57717814136E+03  0.25500000920E-02 0.  1.
        2   -1    0    0  501    0  0.00000000000E+00  0.00000000000E+00 -0.15474555777E+04  0.15474555777E+04  0.25500000920E-02 0. -1.
    10030    2    1    2    0    0  0.00000000000E+00  0.00000000000E+00 -0.97027743631E+03  0.21246337190E+04  0.18901402426E+04 0.  0.
        3    1    3    3  502    0  0.40403338804E+03  0.23987894399E+03 -0.14068503254E+04  0.14832439903E+04  0.10100000352E+00 0. -1.
       -3    1    3    3    0  502 -0.40403338804E+03 -0.23987894399E+03  0.43657288911E+03  0.64138972874E+03  0.10100000352E+00 0.  1.
</event>
<event>
 5   0  0.1042395E-04  0.1797983E+04  0.7818609E-02  0.8707373E-01
        1   -1    0    0  501    0  0.00000000000E+00  0.00000000000E+00  0.88813609871E+03  0.88813609872E+03  0.50400001928E-02 0. -1.
       -1   -1    0    0    0  501  0.00000000000E+00  0.00000000000E+00 -0.90997998593E+03  0.90997998594E+03  0.50400001928E-02 0.  1.
    10030    2    1    2    0    0  0.00000000000E+00  0.00000000000E+00 -0.21843887218E+02  0.17981160847E+04  0.17979833977E+04 0.  0.
        3    1    3    3  502    0 -0.42413906504E+03  0.43945410222E+02  0.78056612969E+03  0.88944288102E+03  0.10100000352E+00 0. -1.
       -3    1    3    3    0  502  0.42413906504E+03 -0.43945410222E+02 -0.80241001691E+03  0.90867320364E+03  0.10100000352E+00 0.  1.
</event>
<event>
 5   0  0.1156733E-04  0.2038476E+04  0.7818609E-02  0.8588840E-01
        1   -1    0    0  501    0  0.00000000000E+00  0.00000000000E+00  0.10625269091E+04  0.10625269091E+04  0.50400001928E-02 0. -1.
       -1   -1    0    0    0  501  0.00000000000E+00  0.00000000000E+00 -0.97771264018E+03  0.97771264019E+03  0.50400001928E-02 0.  1.
    10030    2    1    2    0    0  0.00000000000E+00  0.00000000000E+00  0.84814268928E+02  0.20402395493E+04  0.20384758910E+04 0.  0.
        2    1    3    3  502    0  0.69446568662E+03 -0.33815506401E+03 -0.62316035121E+03  0.99245164140E+03  0.25500000920E-02 0.  1.
       -2    1    3    3    0  502 -0.69446568662E+03  0.33815506401E+03  0.70797462014E+03  0.10477879079E+04  0.25500000920E-02 0. -1.
</event>
<event>
 5   0  0.2448804E-04  0.2047827E+04  0.7818609E-02  0.8584581E-01
        2   -1    0    0  501    0  0.00000000000E+00  0.00000000000E+00  0.15554810590E+04  0.15554810590E+04  0.25500000920E-02 0. -1.
       -2   -1    0    0    0  501  0.00000000000E+00  0.00000000000E+00 -0.67400292445E+03  0.67400292446E+03  0.25500000920E-02 0.  1.
    10030    2    1    2    0    0  0.00000000000E+00  0.00000000000E+00  0.88147813455E+03  0.22294839835E+04  0.20478269289E+04 0.  0.
        2    1    3    3  502    0 -0.14230896465E+03 -0.82795632976E+03  0.10780144347E+04  0.13667035695E+04  0.25500000920E-02 0. -1.
       -2    1    3    3    0  502  0.14230896465E+03  0.82795632976E+03 -0.19653630018E+03  0.86278041395E+03  0.25500000920E-02 0.  1.
</event>
<event>
 5   0  0.1130848E-04  0.2109089E+04  0.7818609E-02  0.8557250E-01
        1   -1    0    0  501    0  0.00000000000E+00  0.00000000000E+00  0.24480079497E+04  0.24480079497E+04  0.50400001928E-02 0. -1.
       -1   -1    0    0    0  501  0.00000000000E+00  0.00000000000E+00 -0.45427321923E+03  0.45427321926E+03  0.50400001928E-02 0.  1.
    10030    2    1    2    0    0  0.00000000000E+00  0.00000000000E+00  0.19937347305E+04  0.29022811689E+04  0.21090893315E+04 0.  0.
        5    1    3    3  502    0 -0.88336086489E+03 -0.57205988709E+03  0.90493278994E+03  0.13879857263E+04  0.46999998093E+01 0.  1.
       -5    1    3    3    0  502  0.88336086489E+03  0.57205988709E+03  0.10888019405E+04  0.15142954427E+04  0.46999998093E+01 0. -1.
</event>
<event>
 5   0  0.1122711E-04  0.2264379E+04  0.7818609E-02  0.8492100E-01
        1   -1    0    0  501    0  0.00000000000E+00  0.00000000000E+00  0.23278159509E+04  0.23278159509E+04  0.50400001928E-02 0.  1.
       -1   -1    0    0    0  501  0.00000000000E+00  0.00000000000E+00 -0.55066780776E+03  0.55066780778E+03  0.50400001928E-02 0. -1.
    10030    2    1    2    0    0  0.00000000000E+00  0.00000000000E+00  0.17771481431E+04  0.28784837586E+04  0.22643792143E+04 0.  0.
        1    1    3    3  502    0 -0.19002050002E+03  0.10557963941E+04  0.42840680634E+03  0.11551390427E+04  0.50400001928E-02 0. -1.
       -1    1    3    3    0  502  0.19002050002E+03 -0.10557963941E+04  0.13487413368E+04  0.17233447159E+04  0.50400001928E-02 0.  1.
</event>
<event>
 5   0  0.2467483E-04  0.2224035E+04  0.7818609E-02  0.8508490E-01
       -2   -1    0    0    0  501  0.00000000000E+00  0.00000000000E+00  0.94102280523E+03  0.94102280523E+03  0.25500000920E-02 0. -1.
        2   -1    0    0  501    0  0.00000000000E+00  0.00000000000E+00 -0.13140844811E+04  0.13140844811E+04  0.25500000920E-02 0.  1.
    10030    2    1    2    0    0  0.00000000000E+00  0.00000000000E+00 -0.37306167592E+03  0.22551072864E+04  0.22240354896E+04 0.  0.
        4    1    3    3  502    0 -0.50888828210E+03  0.65428015877E+03  0.56513014089E+03  0.10032066083E+04  0.12699999809E+01 0. -1.
       -4    1    3    3    0  502  0.50888828210E+03 -0.65428015877E+03 -0.93819181681E+03  0.12519006781E+04  0.12699999809E+01 0.  1.
</event>
<event>
 5   0  0.1122711E-04  0.2081870E+04  0.7818609E-02  0.8569272E-01
        1   -1    0    0  501    0  0.00000000000E+00  0.00000000000E+00  0.12687435454E+04  0.12687435454E+04  0.50400001928E-02 0. -1.
       -1   -1    0    0    0  501  0.00000000000E+00  0.00000000000E+00 -0.85403037431E+03  0.85403037433E+03  0.50400001928E-02 0.  1.
    10030    2    1    2    0    0  0.00000000000E+00  0.00000000000E+00  0.41471317111E+03  0.21227739198E+04  0.20818698567E+04 0.  0.
        1    1    3    3  502    0 -0.46383395041E+03  0.32584400584E+03  0.10975676312E+04  0.12353019690E+04  0.50400001928E-02 0. -1.
       -1    1    3    3    0  502  0.46383395041E+03 -0.32584400584E+03 -0.68285446005E+03  0.88747195073E+03  0.50400001928E-02 0.  1.
</event>
<event>
 5   0  0.2467483E-04  0.1952432E+04  0.7818609E-02  0.8629189E-01
        2   -1    0    0  501    0  0.00000000000E+00  0.00000000000E+00  0.11810679921E+04  0.11810679921E+04  0.25500000920E-02 0. -1.
       -2   -1    0    0    0  501  0.00000000000E+00  0.00000000000E+00 -0.80689487972E+03  0.80689487973E+03  0.25500000920E-02 0.  1.
    10030    2    1    2    0    0  0.00000000000E+00  0.00000000000E+00  0.37417311240E+03  0.19879628718E+04  0.19524320377E+04 0.  0.
        4    1    3    3  502    0  0.81884505344E+03  0.52196697414E+03  0.85066552731E+02  0.97477929550E+03  0.12699999809E+01 0.  1.
       -4    1    3    3    0  502 -0.81884505344E+03 -0.52196697414E+03  0.28910655967E+03  0.10131835763E+04  0.12699999809E+01 0. -1.
</event>
<event>
 5   0  0.2579241E-04  0.2225338E+04  0.7818609E-02  0.8507955E-01
        2   -1    0    0  501    0  0.00000000000E+00  0.00000000000E+00  0.15778752542E+04  0.15778752542E+04  0.25500000920E-02 0.  1.
       -2   -1    0    0    0  501  0.00000000000E+00  0.00000000000E+00 -0.78461998528E+03  0.78461998528E+03  0.25500000920E-02 0. -1.
    10030    2    1    2    0    0  0.00000000000E+00  0.00000000000E+00  0.79325526890E+03  0.23624952395E+04  0.22253381394E+04 0.  0.
        5    1    3    3  502    0 -0.10391476821E+04 -0.30672062497E+03  0.66542228275E+03  0.12715008264E+04  0.46999998093E+01 0.  1.
       -5    1    3    3    0  502  0.10391476821E+04  0.30672062497E+03  0.12783298615E+03  0.10909944131E+04  0.46999998093E+01 0. -1.
</event>
<event>
 5   0  0.1186038E-04  0.2105022E+04  0.7818609E-02  0.8559034E-01
       -1   -1    0    0    0  501  0.00000000000E+00  0.00000000000E+00  0.11956573633E+04  0.11956573633E+04  0.50400001928E-02 0. -1.
        1   -1    0    0  501    0  0.00000000000E+00  0.00000000000E+00 -0.92650276675E+03  0.92650276676E+03  0.50400001928E-02 0.  1.
    10030    2    1    2    0    0  0.00000000000E+00  0.00000000000E+00  0.26915459654E+03  0.21221601301E+04  0.21050224276E+04 0.  0.
        4    1    3    3  502    0  0.22219297169E+03  0.43018469852E+03  0.10767174204E+04  0.11805721528E+04  0.12699999809E+01 0. -1.
       -4    1    3    3    0  502 -0.22219297169E+03 -0.43018469852E+03 -0.80756282390E+03  0.94158797728E+03  0.12699999809E+01 0.  1.
</event>
<event>
 5   0  0.2579241E-04  0.1895492E+04  0.7818609E-02  0.8657104E-01
       -2   -1    0    0    0  501  0.00000000000E+00  0.00000000000E+00  0.62253490014E+03  0.62253490015E+03  0.25500000920E-02 0. -1.
        2   -1    0    0  501    0  0.00000000000E+00  0.00000000000E+00 -0.14428464244E+04  0.14428464244E+04  0.25500000920E-02 0.  1.
    10030    2    1    2    0    0  0.00000000000E+00  0.00000000000E+00 -0.82031152429E+03  0.20653813246E+04  0.18954917618E+04 0.  0.
        5    1    3    3  502    0 -0.43819063859E+03 -0.27635293966E+03 -0.12748965446E+04  0.13761414435E+04  0.46999998093E+01 0.  1.
       -5    1    3    3    0  502  0.43819063859E+03  0.27635293966E+03  0.45458502032E+03  0.68923988110E+03  0.46999998093E+01 0. -1.
</event>
<event>
 5   0  0.1156733E-04  0.2141246E+04  0.7818609E-02  0.8543289E-01
        1   -1    0    0  501    0  0.00000000000E+00  0.00000000000E+00  0.58018831129E+03  0.58018831131E+03  0.50400001928E-02 0.  1.
       -1   -1    0    0    0  501  0.00000000000E+00  0.00000000000E+00 -0.19756230999E+04  0.19756230999E+04  0.50400001928E-02 0. -1.
    10030    2    1    2    0    0  0.00000000000E+00  0.00000000000E+00 -0.13954347886E+04  0.25558114112E+04  0.21412458337E+04 0.  0.
        2    1    3    3  502    0 -0.44353664807E+03  0.79634066440E+03 -0.27433411176E+02  0.91194068010E+03  0.25500000920E-02 0.  1.
       -2    1    3    3    0  502  0.44353664807E+03 -0.79634066440E+03 -0.13680013775E+04  0.16438707311E+04  0.25500000920E-02 0. -1.
</event>
<event>
 5   0  0.2448804E-04  0.2082330E+04  0.7818609E-02  0.8569067E-01
        2   -1    0    0  501    0  0.00000000000E+00  0.00000000000E+00  0.21528600717E+04  0.21528600717E+04  0.25500000920E-02 0. -1.
       -2   -1    0    0    0  501  0.00000000000E+00  0.00000000000E+00 -0.50352752805E+03  0.50352752806E+03  0.25500000920E-02 0.  1.
    10030    2    1    2    0    0  0.00000000000E+00  0.00000000000E+00  0.16493325437E+04  0.26563875998E+04  0.20823297627E+04 0.  0.
        2    1    3    3  502    0  0.87545928586E+03  0.44650201321E+02  0.15413237063E+04  0.17731614053E+04  0.25500000920E-02 0. -1.
       -2    1    3    3    0  502 -0.87545928586E+03 -0.44650201321E+02  0.10800883740E+03  0.88322619449E+03  0.25500000920E-02 0.  1.
</event>
<event>
 5   0  0.1130848E-04  0.2074739E+04  0.7818609E-02  0.8572453E-01
        1   -1    0    0  501    0  0.00000000000E+00  0.00000000000E+00  0.14924556984E+04  0.14924556984E+04  0.50400001928E-02 0. -1.
       -1   -1    0    0    0  501  0.00000000000E+00  0.00000000000E+00 -0.72105032691E+03  0.72105032693E+03  0.50400001928E-02 0.  1.
    10030    2    1    2    0    0  0.00000000000E+00  0.00000000000E+00  0.77140537151E+03  0.22135060254E+04  0.20747391829E+04 0.  0.
        5    1    3    3  502    0 -0.30024590834E+03 -0.31451334996E+02  0.14445423396E+04  0.14757579249E+04  0.46999998093E+01 0. -1.
       -5    1    3    3    0  502  0.30024590834E+03  0.31451334996E+02 -0.67313696809E+03  0.73774810047E+03  0.46999998093E+01 0.  1.
</event>
</LesHouchesEvents>
