<LesHouchesEvents version="3.0">
<header>
<!--
#*********************************************************************
#                                                                    *
#                        MadGraph5_aMC@NLO                           *
#                                                                    *
#                           Going Beyond                             *
#                                                                    *
#                   http://madgraph.hep.uiuc.edu                     *
#                   http://madgraph.phys.ucl.ac.be                   *
#                   http://amcatnlo.cern.ch                          *
#                                                                    *
#                     The MadGraph5_aMC@NLO team                     *
#                                                                    *
#....................................................................*
#                                                                    *
# This file contains all the information necessary to reproduce      *
# the events generated:                                              *
#                                                                    *
# 1. software version                                                *
# 2. proc_card          : code generation info including model       *
# 3. param_card         : model primary parameters in the LH format  *
# 4. run_card           : running parameters (collider and cuts)     *
# 5. pythia_card        : present only if pythia has been run        *
# 6. pgs_card           : present only if pgs has been run           *
# 7. delphes_cards      : present only if delphes has been run       *
#                                                                    *
#                                                                    *
#*********************************************************************
-->
<MGVersion>
#5.2.2.3
</MGVersion>
<MG5ProcCard>
#************************************************************
#*                     MadGraph5_aMC@NLO                    *
#*                                                          *
#*                *                       *                 *
#*                  *        * *        *                   *
#*                    * * * * 5 * * * *                     *
#*                  *        * *        *                   *
#*                *                       *                 *
#*                                                          *
#*                                                          *
#*         VERSION 2.2.3                 2015-02-10         *
#*                                                          *
#*    The MadGraph5_aMC@NLO Development Team - Find us at   *
#*    https://server06.fynu.ucl.ac.be/projects/madgraph     *
#*                                                          *
#************************************************************
#*                                                          *
#*               Command File for MadGraph5_aMC@NLO         *
#*                                                          *
#*     run as ./bin/mg5_aMC  filename                       *
#*                                                          *
#************************************************************
set group_subprocesses Auto
set ignore_six_quark_processes False
set loop_optimized_output True
set gauge unitary
set complex_mass_scheme False
import model sm
define p = g u c d s u~ c~ d~ s~
define j = g u c d s u~ c~ d~ s~
define l+ = e+ mu+
define l- = e- mu-
define vl = ve vm vt
define vl~ = ve~ vm~ vt~
import model Zprime_UFO
generate p p > zph, zph > j j
add process p p > zph, zph > b b~
output Dijet_signal
</MG5ProcCard>
<MGProcCard>
#*********************************************************************
#                        MadGraph/MadEvent                           *
#                   http://madgraph.hep.uiuc.edu                     *
#                                                                    *
#                          proc_card.dat                             *
#*********************************************************************
#                                                                    *
#            This Files is generated by MADGRAPH 5                   *
#                                                                    *
# WARNING: This Files is generated for MADEVENT (compatibility issue)*
#          This files is NOT a valid MG4 proc_card.dat               *
#          Running this in MG4 will NEVER reproduce the result of MG5*
#                                                                    *
#*********************************************************************
#*********************************************************************
# Process(es) requested : mg2 input                                  *
#*********************************************************************
# Begin PROCESS # This is TAG. Do not modify this line
p p > zph , zph > j j           #Process
# Be carefull the coupling are here in MG5 convention
          
end_coup           # End the couplings input

done               # this tells MG there are no more procs
# End PROCESS  # This is TAG. Do not modify this line
#*********************************************************************
# Model information                                                  *
#*********************************************************************
# Begin MODEL  # This is TAG. Do not modify this line
Zprime_UFO
# End   MODEL  # This is TAG. Do not modify this line
#*********************************************************************
# Start multiparticle definitions                                    *
#*********************************************************************
# Begin MULTIPARTICLES # This is TAG. Do not modify this line

# End  MULTIPARTICLES # This is TAG. Do not modify this line
</MGProcCard>
<MGRunCard>
#*********************************************************************
#                       MadGraph5_aMC@NLO                            *
#                                                                    *
#                     run_card.dat MadEvent                          *
#                                                                    *
#  This file is used to set the parameters of the run.               *
#                                                                    *
#  Some notation/conventions:                                        *
#                                                                    *
#   Lines starting with a '# ' are info or comments                  *
#                                                                    *
#   mind the format:   value    = variable     ! comment             *
#*********************************************************************
#
#*******************                                                 
# Running parameters
#*******************                                                 
#                                                                    
#*********************************************************************
# Tag name for the run (one word)                                    *
#*********************************************************************
  tag_1     = run_tag ! name of the run 
#*********************************************************************
# Run to generate the grid pack                                      *
#*********************************************************************
  .false.     = gridpack  !True = setting up the grid pack
#*********************************************************************
# Number of events and rnd seed                                      *
# Warning: Do not generate more than 1M events in a single run       *
# If you want to run Pythia, avoid more than 50k events in a run.    *
#*********************************************************************
  2000 = nevents ! Number of unweighted events requested 
 2586 = iseed   ! rnd seed (0=assigned automatically=default))
#*********************************************************************
# Collider type and energy                                           *
# lpp: 0=No PDF, 1=proton, -1=antiproton, 2=photon from proton,      *
#                                         3=photon from electron     *
#*********************************************************************
        1     = lpp1    ! beam 1 type 
        1     = lpp2    ! beam 2 type
     4000     = ebeam1  ! beam 1 total energy in GeV
     4000     = ebeam2  ! beam 2 total energy in GeV
#*********************************************************************
# Beam polarization from -100 (left-handed) to 100 (right-handed)    *
#*********************************************************************
        0     = polbeam1 ! beam polarization for beam 1
        0     = polbeam2 ! beam polarization for beam 2
#*********************************************************************
# PDF CHOICE: this automatically fixes also alpha_s and its evol.    *
#*********************************************************************
 'nn23lo1'    = pdlabel     ! PDF set                                     
 230000    = lhaid     ! if pdlabel=lhapdf, this is the lhapdf number
#*********************************************************************
# Renormalization and factorization scales                           *
#*********************************************************************
 F        = fixed_ren_scale  ! if .true. use fixed ren scale
 F        = fixed_fac_scale  ! if .true. use fixed fac scale
 91.1880  = scale            ! fixed ren scale
 91.1880  = dsqrt_q2fact1    ! fixed fact scale for pdf1
 91.1880  = dsqrt_q2fact2    ! fixed fact scale for pdf2
 1        = scalefact        ! scale factor for event-by-event scales
#*********************************************************************
# Matching - Warning! ickkw > 1 is still beta
#*********************************************************************
 0        = ickkw            ! 0 no matching, 1 MLM, 2 CKKW matching
 1        = highestmult      ! for ickkw=2, highest mult group
 1        = ktscheme         ! for ickkw=1, 1 Durham kT, 2 Pythia pTE
 1        = alpsfact         ! scale factor for QCD emission vx
 F        = chcluster        ! cluster only according to channel diag
 T        = pdfwgt           ! for ickkw=1, perform pdf reweighting
 5        = asrwgtflavor     ! highest quark flavor for a_s reweight
 T        = clusinfo         ! include clustering tag in output
 3.0      = lhe_version       ! Change the way clustering information pass to shower.        
#*********************************************************************
#**********************************************************
#
#**********************************************************
# Automatic ptj and mjj cuts if xqcut > 0
# (turn off for VBF and single top processes)
#**********************************************************
   T  = auto_ptj_mjj  ! Automatic setting of ptj and mjj
#**********************************************************
#                                                                    
#**********************************
# BW cutoff (M+/-bwcutoff*Gamma)
#**********************************
  15  = bwcutoff      ! (M+/-bwcutoff*Gamma)
#**********************************************************
# Apply pt/E/eta/dr/mij cuts on decay products or not
# (note that etmiss/ptll/ptheavy/ht/sorted cuts always apply)
#**********************************************************
   T  = cut_decays    ! Cut decay products 
#*************************************************************
# Number of helicities to sum per event (0 = all helicities)
# 0 gives more stable result, but longer run time (needed for
# long decay chains e.g.).
# Use >=2 if most helicities contribute, e.g. pure QCD.
#*************************************************************
   0  = nhel          ! Number of helicities used per event
#*******************                                                 
# Standard Cuts
#*******************                                                 
#                                                                    
#*********************************************************************
# Minimum and maximum pt's (for max, -1 means no cut)                *
#*********************************************************************
 20  = ptj       ! minimum pt for the jets 
  0  = ptb       ! minimum pt for the b 
 10  = pta       ! minimum pt for the photons 
 10  = ptl       ! minimum pt for the charged leptons 
  0  = misset    ! minimum missing Et (sum of neutrino's momenta)
  0  = ptheavy   ! minimum pt for one heavy final state
 1.0 = ptonium   ! minimum pt for the quarkonium states
 -1  = ptjmax    ! maximum pt for the jets
 -1  = ptbmax    ! maximum pt for the b
 -1  = ptamax    ! maximum pt for the photons
 -1  = ptlmax    ! maximum pt for the charged leptons
 -1  = missetmax ! maximum missing Et (sum of neutrino's momenta)
#*********************************************************************
# Minimum and maximum E's (in the center of mass frame)              *
#*********************************************************************
  0  = ej     ! minimum E for the jets 
  0  = eb     ! minimum E for the b 
  0  = ea     ! minimum E for the photons 
  0  = el     ! minimum E for the charged leptons 
 -1   = ejmax ! maximum E for the jets
 -1   = ebmax ! maximum E for the b
 -1   = eamax ! maximum E for the photons
 -1   = elmax ! maximum E for the charged leptons
#*********************************************************************
# Maximum and minimum absolute rapidity (for max, -1 means no cut)   *
#*********************************************************************
   5  = etaj    ! max rap for the jets 
  -1  = etab    ! max rap for the b
 2.5  = etaa    ! max rap for the photons 
 2.5  = etal    ! max rap for the charged leptons 
 0.6  = etaonium ! max rap for the quarkonium states
   0  = etajmin ! min rap for the jets
   0  = etabmin ! min rap for the b
   0  = etaamin ! min rap for the photons
   0  = etalmin ! main rap for the charged leptons
#*********************************************************************
# Minimum and maximum DeltaR distance                                *
#*********************************************************************
 0.4 = drjj    ! min distance between jets 
 0   = drbb    ! min distance between b's 
 0.4 = drll    ! min distance between leptons 
 0.4 = draa    ! min distance between gammas 
 0   = drbj    ! min distance between b and jet 
 0.4 = draj    ! min distance between gamma and jet 
 0.4 = drjl    ! min distance between jet and lepton 
 0   = drab    ! min distance between gamma and b 
 0   = drbl    ! min distance between b and lepton 
 0.4 = dral    ! min distance between gamma and lepton 
 -1  = drjjmax ! max distance between jets
 -1  = drbbmax ! max distance between b's
 -1  = drllmax ! max distance between leptons
 -1  = draamax ! max distance between gammas
 -1  = drbjmax ! max distance between b and jet
 -1  = drajmax ! max distance between gamma and jet
 -1  = drjlmax ! max distance between jet and lepton
 -1  = drabmax ! max distance between gamma and b
 -1  = drblmax ! max distance between b and lepton
 -1  = dralmax ! maxdistance between gamma and lepton
#*********************************************************************
# Minimum and maximum invariant mass for pairs                       *
# WARNING: for four lepton final state mmll cut require to have      *
#          different lepton masses for each flavor!                  *           
#*********************************************************************
 0   = mmjj    ! min invariant mass of a jet pair 
 0   = mmbb    ! min invariant mass of a b pair 
 0   = mmaa    ! min invariant mass of gamma gamma pair
 0   = mmll    ! min invariant mass of l+l- (same flavour) lepton pair
 -1  = mmjjmax ! max invariant mass of a jet pair
 -1  = mmbbmax ! max invariant mass of a b pair
 -1  = mmaamax ! max invariant mass of gamma gamma pair
 -1  = mmllmax ! max invariant mass of l+l- (same flavour) lepton pair
#*********************************************************************
# Minimum and maximum invariant mass for all letpons                 *
#*********************************************************************
 0   = mmnl    ! min invariant mass for all letpons (l+- and vl) 
 -1  = mmnlmax ! max invariant mass for all letpons (l+- and vl) 
#*********************************************************************
# Minimum and maximum pt for 4-momenta sum of leptons                *
#*********************************************************************
 0   = ptllmin  ! Minimum pt for 4-momenta sum of leptons(l and vl)
 -1  = ptllmax  ! Maximum pt for 4-momenta sum of leptons(l and vl)
#*********************************************************************
# Inclusive cuts                                                     *
#*********************************************************************
 0  = xptj ! minimum pt for at least one jet  
 0  = xptb ! minimum pt for at least one b 
 0  = xpta ! minimum pt for at least one photon 
 0  = xptl ! minimum pt for at least one charged lepton 
#*********************************************************************
# Control the pt's of the jets sorted by pt                          *
#*********************************************************************
 0   = ptj1min ! minimum pt for the leading jet in pt
 0   = ptj2min ! minimum pt for the second jet in pt
 0   = ptj3min ! minimum pt for the third jet in pt
 0   = ptj4min ! minimum pt for the fourth jet in pt
 -1  = ptj1max ! maximum pt for the leading jet in pt 
 -1  = ptj2max ! maximum pt for the second jet in pt
 -1  = ptj3max ! maximum pt for the third jet in pt
 -1  = ptj4max ! maximum pt for the fourth jet in pt
 0   = cutuse  ! reject event if fails any (0) / all (1) jet pt cuts
#*********************************************************************
# Control the pt's of leptons sorted by pt                           *
#*********************************************************************
 0   = ptl1min ! minimum pt for the leading lepton in pt
 0   = ptl2min ! minimum pt for the second lepton in pt
 0   = ptl3min ! minimum pt for the third lepton in pt
 0   = ptl4min ! minimum pt for the fourth lepton in pt
 -1  = ptl1max ! maximum pt for the leading lepton in pt 
 -1  = ptl2max ! maximum pt for the second lepton in pt
 -1  = ptl3max ! maximum pt for the third lepton in pt
 -1  = ptl4max ! maximum pt for the fourth lepton in pt
#*********************************************************************
# Control the Ht(k)=Sum of k leading jets                            *
#*********************************************************************
 0   = htjmin ! minimum jet HT=Sum(jet pt)
 -1  = htjmax ! maximum jet HT=Sum(jet pt)
 0   = ihtmin  !inclusive Ht for all partons (including b)
 -1  = ihtmax  !inclusive Ht for all partons (including b)
 0   = ht2min ! minimum Ht for the two leading jets
 0   = ht3min ! minimum Ht for the three leading jets
 0   = ht4min ! minimum Ht for the four leading jets
 -1  = ht2max ! maximum Ht for the two leading jets
 -1  = ht3max ! maximum Ht for the three leading jets
 -1  = ht4max ! maximum Ht for the four leading jets
#***********************************************************************
# Photon-isolation cuts, according to hep-ph/9801442                   *
# When ptgmin=0, all the other parameters are ignored                  *
# When ptgmin>0, pta and draj are not going to be used                 *
#***********************************************************************
   0 = ptgmin ! Min photon transverse momentum
 0.4 = R0gamma ! Radius of isolation code
 1.0 = xn ! n parameter of eq.(3.4) in hep-ph/9801442
 1.0 = epsgamma ! epsilon_gamma parameter of eq.(3.4) in hep-ph/9801442
 .true. = isoEM ! isolate photons from EM energy (photons and leptons)
#*********************************************************************
# WBF cuts                                                           *
#*********************************************************************
 0   = xetamin ! minimum rapidity for two jets in the WBF case  
 0   = deltaeta ! minimum rapidity for two jets in the WBF case 
#*********************************************************************
# KT DURHAM CUT                                                      *
#*********************************************************************
 -1    =  ktdurham        
 0.4  =  dparameter 
#*********************************************************************
# maximal pdg code for quark to be considered as a light jet         *
# (otherwise b cuts are applied)                                     *
#*********************************************************************
 4 = maxjetflavor    ! Maximum jet pdg code
#*********************************************************************
# Jet measure cuts                                                   *
#*********************************************************************
 0   = xqcut   ! minimum kt jet measure between partons
#*********************************************************************
#
#*********************************************************************
# Store info for systematics studies                                 *
# WARNING: If use_syst is T, matched Pythia output is                *
#          meaningful ONLY if plotted taking matchscale              *
#          reweighting into account!                                 *
#*********************************************************************
   F  = use_syst      ! Enable systematics studies
#
#**************************************
# Parameter of the systematics study
#  will be used by SysCalc (if installed)
#**************************************                                  
#
0.5 1 2 = sys_scalefact  # factorization/renormalization scale factor
0.5 1 2 = sys_alpsfact  # \alpha_s emission scale factors
30 50 = sys_matchscale # variation of merging scale
# PDF sets and number of members (0 or none for all members).
CT10nlo.LHgrid = sys_pdf # matching scales
# MSTW2008nlo68cl.LHgrid 1  = sys_pdf
</MGRunCard>
<slha>
######################################################################
## PARAM_CARD AUTOMATICALY GENERATED BY MG5 FOLLOWING UFO MODEL   ####
######################################################################
##                                                                  ##
##  Width set on Auto will be computed following the information    ##
##        present in the decay.py files of the model.               ##
##        See  arXiv:1402.1178 for more details.                    ##
##                                                                  ##
######################################################################

###################################
## INFORMATION FOR CKMBLOCK
###################################
Block ckmblock 
    1 2.277360e-01 # cabi 

###################################
## INFORMATION FOR FRBLOCK
###################################
Block frblock 
    1 1.400000e+00 # gz 

###################################
## INFORMATION FOR MASS
###################################
Block mass 
    1 5.040000e-03 # MD 
    2 2.550000e-03 # MU 
    3 1.010000e-01 # MS 
    4 1.270000e+00 # MC 
    5 4.700000e+00 # MB 
    6 1.720000e+02 # MT 
   11 5.110000e-04 # Me 
   13 1.056600e-01 # MM 
   15 1.777000e+00 # MTA 
   23 9.118760e+01 # MZ 
   25 1.200000e+02 # MH 
  10030 2.100000e+03 # MZph 
  10031 3.000000e+02 # MZpl 
## Dependent parameters, given by model restrictions.
## Those values should be edited following the 
## analytical expression. MG5 ignores those values 
## but they are important for interfacing the output of MG5
## to external program such as Pythia.
  12 0.000000 # ve : 0.0 
  14 0.000000 # vm : 0.0 
  16 0.000000 # vt : 0.0 
  21 0.000000 # g : 0.0 
  22 0.000000 # a : 0.0 
  24 79.824360 # w+ : cmath.sqrt(MZ__exp__2/2. + cmath.sqrt(MZ__exp__4/4. - (aEW*cmath.pi*MZ__exp__2)/(Gf*sqrt__2))) 

###################################
## INFORMATION FOR SMINPUTS
###################################
Block sminputs 
    1 1.279000e+02 # aEWM1 
    2 1.166370e-05 # Gf 
    3 1.184000e-01 # aS 

###################################
## INFORMATION FOR YUKAWA
###################################
Block yukawa 
    1 5.040000e-03 # ymdo 
    2 2.550000e-03 # ymup 
    3 1.010000e-01 # yms 
    4 1.270000e+00 # ymc 
    5 4.700000e+00 # ymb 
    6 1.720000e+02 # ymt 
   11 5.110000e-04 # yme 
   13 1.056600e-01 # ymm 
   15 1.777000e+00 # ymtau 

###################################
## INFORMATION FOR DECAY
###################################
DECAY   6 1.508336e+00 # WT 
DECAY  23 2.495200e+00 # WZ 
DECAY  24 2.085000e+00 # WW 
DECAY  25 5.753088e-03 # WH 
## Dependent parameters, given by model restrictions.
## Those values should be edited following the 
## analytical expression. MG5 ignores those values 
## but they are important for interfacing the output of MG5
## to external program such as Pythia.
DECAY  1 0.000000 # d : 0.0 
DECAY  2 0.000000 # u : 0.0 
DECAY  3 0.000000 # s : 0.0 
DECAY  4 0.000000 # c : 0.0 
DECAY  5 0.000000 # b : 0.0 
DECAY  11 0.000000 # e- : 0.0 
DECAY  12 0.000000 # ve : 0.0 
DECAY  13 0.000000 # mu- : 0.0 
DECAY  14 0.000000 # vm : 0.0 
DECAY  15 0.000000 # ta- : 0.0 
DECAY  16 0.000000 # vt : 0.0 
DECAY  21 0.000000 # g : 0.0 
DECAY  22 0.000000 # a : 0.0 
DECAY  10030 0.308725 # zph : (gz__exp__2*MZph*(5 + cmath.sqrt(1 - (4*MT__exp__2)/MZph__exp__2)))/(144.*cmath.pi) 
DECAY  10031 0.132629 # zpl : (5*gz__exp__2*MZpl)/(144.*cmath.pi) 
#===========================================================
# QUANTUM NUMBERS OF NEW STATE(S) (NON SM PDG CODE)
#===========================================================

Block QNUMBERS 10030  # zph 
        1 0  # 3 times electric charge
        2 3  # number of spin states (2S+1)
        3 1  # colour rep (1: singlet, 3: triplet, 8: octet)
        4 0  # Particle/Antiparticle distinction (0=own anti)
Block QNUMBERS 10031  # zpl 
        1 0  # 3 times electric charge
        2 3  # number of spin states (2S+1)
        3 1  # colour rep (1: singlet, 3: triplet, 8: octet)
        4 0  # Particle/Antiparticle distinction (0=own anti)
</slha>
## END BANNER##
<MGGenerationInfo>
#  Number of Events        :         3924
#  Integrated weight (pb)  :  0.51529E-01
#  Max wgt                 :  0.19217E-04
#  Average wgt             :  0.13132E-04
</MGGenerationInfo>
</header>
<init>
     2212     2212  0.40000000000E+04  0.40000000000E+04 0 0  247000  247000 2   1
  0.51554223910E-01  0.11841793829E-03  0.19216870000E-04   0
</init>
<event>
 5   0  0.1810875E-04  0.2134108E+04  0.7818609E-02  0.8546365E-01
       -2   -1    0    0    0  501  0.00000000000E+00  0.00000000000E+00  0.88019243516E+03  0.88019243516E+03  0.25500000920E-02 0.  1.
        2   -1    0    0  501    0  0.00000000000E+00  0.00000000000E+00 -0.12935860380E+04  0.12935860380E+04  0.25500000920E-02 0. -1.
    10030    2    1    2    0    0  0.00000000000E+00  0.00000000000E+00 -0.41339360282E+03  0.21737784731E+04  0.21341083804E+04 0.  0.
        1    1    3    3  502    0 -0.46516793713E+03  0.78782370655E+03  0.35265326513E+03  0.98051605177E+03  0.50400001928E-02 0.  1.
       -1    1    3    3    0  502  0.46516793713E+03 -0.78782370655E+03 -0.76604686795E+03  0.11932624214E+04  0.50400001928E-02 0. -1.
</event>
<event>
 5   0  0.1810875E-04  0.1288690E+04  0.7818609E-02  0.9038582E-01
        2   -1    0    0  501    0  0.00000000000E+00  0.00000000000E+00  0.13180930742E+04  0.13180930742E+04  0.25500000920E-02 0.  1.
       -2   -1    0    0    0  501  0.00000000000E+00  0.00000000000E+00 -0.31498577661E+03  0.31498577662E+03  0.25500000920E-02 0. -1.
    10030    2    1    2    0    0  0.00000000000E+00  0.00000000000E+00  0.10031072976E+04  0.16330788508E+04  0.12886901422E+04 0.  0.
        1    1    3    3  502    0 -0.31976946081E+03  0.33469765156E+03 -0.66454556414E+02  0.46764434576E+03  0.50400001928E-02 0. -1.
       -1    1    3    3    0  502  0.31976946081E+03 -0.33469765156E+03  0.10695618540E+04  0.11654345051E+04  0.50400001928E-02 0.  1.
</event>
<event>
 5   0  0.1815400E-04  0.2094438E+04  0.7818609E-02  0.8563697E-01
        2   -1    0    0  501    0  0.00000000000E+00  0.00000000000E+00  0.12014475391E+04  0.12014475391E+04  0.25500000920E-02 0.  1.
       -2   -1    0    0    0  501  0.00000000000E+00  0.00000000000E+00 -0.91278896431E+03  0.91278896431E+03  0.25500000920E-02 0. -1.
    10030    2    1    2    0    0  0.00000000000E+00  0.00000000000E+00  0.28865857478E+03  0.21142365034E+04  0.20944384019E+04 0.  0.
        3    1    3    3  502    0 -0.19603085561E+03  0.43279253077E+03 -0.79772893175E+03  0.92849821205E+03  0.10100000352E+00 0. -1.
       -3    1    3    3    0  502  0.19603085561E+03 -0.43279253077E+03  0.10863875065E+04  0.11857382913E+04  0.10100000352E+00 0.  1.
</event>
<event>
 5   0  0.1810875E-04  0.2105927E+04  0.7818609E-02  0.8558637E-01
       -2   -1    0    0    0  501  0.00000000000E+00  0.00000000000E+00  0.99520862129E+03  0.99520862129E+03  0.25500000920E-02 0.  1.
        2   -1    0    0  501    0  0.00000000000E+00  0.00000000000E+00 -0.11140699200E+04  0.11140699200E+04  0.25500000920E-02 0. -1.
    10030    2    1    2    0    0  0.00000000000E+00  0.00000000000E+00 -0.11886129874E+03  0.21092785413E+04  0.21059268640E+04 0.  0.
        1    1    3    3  502    0 -0.35187296456E+03  0.98965863580E+03  0.14803370764E+02  0.10504560621E+04  0.50400001928E-02 0. -1.
       -1    1    3    3    0  502  0.35187296456E+03 -0.98965863580E+03 -0.13366466951E+03  0.10588224792E+04  0.50400001928E-02 0.  1.
</event>
<event>
 5   0  0.1815400E-04  0.2097846E+04  0.7818609E-02  0.8562193E-01
        2   -1    0    0  501    0  0.00000000000E+00  0.00000000000E+00  0.17822545796E+04  0.17822545796E+04  0.25500000920E-02 0.  1.
       -2   -1    0    0    0  501  0.00000000000E+00  0.00000000000E+00 -0.61733003828E+03  0.61733003828E+03  0.25500000920E-02 0. -1.
    10030    2    1    2    0    0  0.00000000000E+00  0.00000000000E+00  0.11649245413E+04  0.23995846178E+04  0.20978458359E+04 0.  0.
        3    1    3    3  502    0  0.65791065895E+03  0.78588429756E+03  0.32726011846E+03  0.10758995119E+04  0.10100000352E+00 0.  1.
       -3    1    3    3    0  502 -0.65791065895E+03 -0.78588429756E+03  0.83766442282E+03  0.13236851060E+04  0.10100000352E+00 0. -1.
</event>
<event>
 5   0  0.8237966E-05  0.2097023E+04  0.7818609E-02  0.8562556E-01
       -1   -1    0    0    0  501  0.00000000000E+00  0.00000000000E+00  0.14314241049E+04  0.14314241049E+04  0.50400001928E-02 0. -1.
        1   -1    0    0  501    0  0.00000000000E+00  0.00000000000E+00 -0.76803009065E+03  0.76803009067E+03  0.50400001928E-02 0.  1.
    10030    2    1    2    0    0  0.00000000000E+00  0.00000000000E+00  0.66339401423E+03  0.21994541956E+04  0.20970234000E+04 0.  0.
        1    1    3    3  502    0  0.56696421715E+03  0.87692170253E+03  0.43084866284E+03  0.11296329785E+04  0.50400001928E-02 0. -1.
       -1    1    3    3    0  502 -0.56696421715E+03 -0.87692170253E+03  0.23254535139E+03  0.10698212170E+04  0.50400001928E-02 0.  1.
</event>
<event>
 5   0  0.8755004E-05  0.2092647E+04  0.7818609E-02  0.8564489E-01
        1   -1    0    0  501    0  0.00000000000E+00  0.00000000000E+00  0.17962209970E+04  0.17962209970E+04  0.50400001928E-02 0. -1.
       -1   -1    0    0    0  501  0.00000000000E+00  0.00000000000E+00 -0.60949811638E+03  0.60949811640E+03  0.50400001928E-02 0.  1.
    10030    2    1    2    0    0  0.00000000000E+00  0.00000000000E+00  0.11867228806E+04  0.24057191134E+04  0.20926474278E+04 0.  0.
        3    1    3    3  502    0 -0.86500573997E+03  0.41398807164E+03  0.10745125695E+04  0.14402077371E+04  0.10100000352E+00 0. -1.
       -3    1    3    3    0  502  0.86500573997E+03 -0.41398807164E+03  0.11221031104E+03  0.96551137629E+03  0.10100000352E+00 0.  1.
</event>
<event>
 5   0  0.1810875E-04  0.2109599E+04  0.7818609E-02  0.8557027E-01
       -2   -1    0    0    0  501  0.00000000000E+00  0.00000000000E+00  0.94947899882E+03  0.94947899882E+03  0.25500000920E-02 0. -1.
        2   -1    0    0  501    0  0.00000000000E+00  0.00000000000E+00 -0.11718021357E+04  0.11718021357E+04  0.25500000920E-02 0.  1.
    10030    2    1    2    0    0  0.00000000000E+00  0.00000000000E+00 -0.22232313692E+03  0.21212811346E+04  0.21095985577E+04 0.  0.
        1    1    3    3  502    0 -0.71831839802E+03  0.20324092648E+03 -0.86048179632E+03  0.11391738748E+04  0.50400001928E-02 0.  1.
       -1    1    3    3    0  502  0.71831839802E+03 -0.20324092648E+03  0.63815865941E+03  0.98210725979E+03  0.50400001928E-02 0. -1.
</event>
<event>
 5   0  0.8271069E-05  0.2097093E+04  0.7818609E-02  0.8562525E-01
        1   -1    0    0  501    0  0.00000000000E+00  0.00000000000E+00  0.11871076432E+04  0.11871076433E+04  0.50400001928E-02 0.  1.
       -1   -1    0    0    0  501  0.00000000000E+00  0.00000000000E+00 -0.92615833190E+03  0.92615833191E+03  0.50400001928E-02 0. -1.
    10030    2    1    2    0    0  0.00000000000E+00  0.00000000000E+00  0.26094931134E+03  0.21132659752E+04  0.20970928779E+04 0.  0.
        2    1    3    3  502    0 -0.50473094301E+03 -0.84862347629E+02 -0.79173045979E+03  0.94275769095E+03  0.25500000920E-02 0. -1.
       -2    1    3    3    0  502  0.50473094301E+03  0.84862347629E+02  0.10526797711E+04  0.11705082842E+04  0.25500000920E-02 0.  1.
</event>
<event>
 5   0  0.1810875E-04  0.2091248E+04  0.7818609E-02  0.8565109E-01
        2   -1    0    0  501    0  0.00000000000E+00  0.00000000000E+00  0.14424372116E+04  0.14424372116E+04  0.25500000920E-02 0. -1.
       -2   -1    0    0    0  501  0.00000000000E+00  0.00000000000E+00 -0.75797355802E+03  0.75797355802E+03  0.25500000920E-02 0.  1.
    10030    2    1    2    0    0  0.00000000000E+00  0.00000000000E+00  0.68446365361E+03  0.22004107697E+04  0.20912477285E+04 0.  0.
        1    1    3    3  502    0  0.58064983285E+03 -0.38502466243E+03 -0.47816777538E+03  0.84501043811E+03  0.50400001928E-02 0.  1.
       -1    1    3    3    0  502 -0.58064983285E+03  0.38502466243E+03  0.11626314290E+04  0.13554003316E+04  0.50400001928E-02 0. -1.
</event>
<event>
 5   0  0.8271069E-05  0.2109577E+04  0.7818609E-02  0.8557036E-01
       -1   -1    0    0    0  501  0.00000000000E+00  0.00000000000E+00  0.97693096816E+03  0.97693096818E+03  0.50400001928E-02 0.  1.
        1   -1    0    0  501    0  0.00000000000E+00  0.00000000000E+00 -0.11388507408E+04  0.11388507408E+04  0.50400001928E-02 0. -1.
    10030    2    1    2    0    0  0.00000000000E+00  0.00000000000E+00 -0.16191977262E+03  0.21157817090E+04  0.21095767887E+04 0.  0.
        2    1    3    3  502    0 -0.26219023359E+03  0.67303079664E+03  0.68997806706E+03  0.99889133786E+03  0.25500000920E-02 0.  1.
       -2    1    3    3    0  502  0.26219023359E+03 -0.67303079664E+03 -0.85189783968E+03  0.11168903711E+04  0.25500000920E-02 0. -1.
</event>
<event>
 5   0  0.1921687E-04  0.2178916E+04  0.7818609E-02  0.8527255E-01
        2   -1    0    0  501    0  0.00000000000E+00  0.00000000000E+00  0.70920992385E+03  0.70920992385E+03  0.25500000920E-02 0. -1.
       -2   -1    0    0    0  501  0.00000000000E+00  0.00000000000E+00 -0.16735783236E+04  0.16735783236E+04  0.25500000920E-02 0.  1.
    10030    2    1    2    0    0  0.00000000000E+00  0.00000000000E+00 -0.96436839980E+03  0.23827882475E+04  0.21789156528E+04 0.  0.
        5    1    3    3  502    0 -0.39868282789E+03  0.12095467424E+03  0.61863997807E+03  0.74586563330E+03  0.46999998093E+01 0. -1.
       -5    1    3    3    0  502  0.39868282789E+03 -0.12095467424E+03 -0.15830083779E+04  0.16369226142E+04  0.46999998093E+01 0.  1.
</event>
<event>
 5   0  0.8486612E-05  0.2121353E+04  0.7818609E-02  0.8551895E-01
       -1   -1    0    0    0  501  0.00000000000E+00  0.00000000000E+00  0.84443565099E+03  0.84443565101E+03  0.50400001928E-02 0. -1.
        1   -1    0    0  501    0  0.00000000000E+00  0.00000000000E+00 -0.13322917749E+04  0.13322917749E+04  0.50400001928E-02 0.  1.
    10030    2    1    2    0    0  0.00000000000E+00  0.00000000000E+00 -0.48785612386E+03  0.21767274259E+04  0.21213530326E+04 0.  0.
        5    1    3    3  502    0 -0.50107300187E+03 -0.87526812773E+03  0.93040483275E+02  0.10128410883E+04  0.46999998093E+01 0.  1.
       -5    1    3    3    0  502  0.50107300187E+03  0.87526812773E+03 -0.58089660714E+03  0.11638863376E+04  0.46999998093E+01 0. -1.
</event>
<event>
 5   0  0.8237966E-05  0.2138704E+04  0.7818609E-02  0.8544383E-01
       -1   -1    0    0    0  501  0.00000000000E+00  0.00000000000E+00  0.83651563732E+03  0.83651563734E+03  0.50400001928E-02 0.  1.
        1   -1    0    0  501    0  0.00000000000E+00  0.00000000000E+00 -0.13669958393E+04  0.13669958393E+04  0.50400001928E-02 0. -1.
    10030    2    1    2    0    0  0.00000000000E+00  0.00000000000E+00 -0.53048020202E+03  0.22035114767E+04  0.21387037156E+04 0.  0.
        1    1    3    3  502    0  0.67339557104E+03  0.75652944862E+03 -0.61873291152E+03  0.11868566963E+04  0.50400001928E-02 0.  1.
       -1    1    3    3    0  502 -0.67339557104E+03 -0.75652944862E+03  0.88252709504E+02  0.10166547804E+04  0.50400001928E-02 0. -1.
</event>
<event>
 5   0  0.8755004E-05  0.2083021E+04  0.7818609E-02  0.8568760E-01
       -1   -1    0    0    0  501  0.00000000000E+00  0.00000000000E+00  0.92498960280E+03  0.92498960281E+03  0.50400001928E-02 0. -1.
        1   -1    0    0  501    0  0.00000000000E+00  0.00000000000E+00 -0.11727093043E+04  0.11727093043E+04  0.50400001928E-02 0.  1.
    10030    2    1    2    0    0  0.00000000000E+00  0.00000000000E+00 -0.24771970148E+03  0.20976989071E+04  0.20830208003E+04 0.  0.
        3    1    3    3  502    0  0.99508001327E+03  0.18158585147E+03 -0.37377433228E+03  0.10783621451E+04  0.10100000352E+00 0.  1.
       -3    1    3    3    0  502 -0.99508001327E+03 -0.18158585147E+03  0.12605463081E+03  0.10193367620E+04  0.10100000352E+00 0. -1.
</event>
<event>
 5   0  0.8755004E-05  0.2124006E+04  0.7818609E-02  0.8550741E-01
       -1   -1    0    0    0  501  0.00000000000E+00  0.00000000000E+00  0.56994082565E+03  0.56994082567E+03  0.50400001928E-02 0. -1.
        1   -1    0    0  501    0  0.00000000000E+00  0.00000000000E+00 -0.19788910026E+04  0.19788910026E+04  0.50400001928E-02 0.  1.
    10030    2    1    2    0    0  0.00000000000E+00  0.00000000000E+00 -0.14089501769E+04  0.25488318283E+04  0.21240063766E+04 0.  0.
        3    1    3    3  502    0 -0.19745301725E+03  0.69355438700E+03  0.23110705773E+03  0.75724227568E+03  0.10100000352E+00 0. -1.
       -3    1    3    3    0  502  0.19745301725E+03 -0.69355438700E+03 -0.16400572347E+04  0.17915895526E+04  0.10100000352E+00 0.  1.
</event>
<event>
 5   0  0.1810875E-04  0.2074102E+04  0.7818609E-02  0.8572738E-01
       -2   -1    0    0    0  501  0.00000000000E+00  0.00000000000E+00  0.60611900296E+03  0.60611900296E+03  0.25500000920E-02 0.  1.
        2   -1    0    0  501    0  0.00000000000E+00  0.00000000000E+00 -0.17743624929E+04  0.17743624929E+04  0.25500000920E-02 0. -1.
    10030    2    1    2    0    0  0.00000000000E+00  0.00000000000E+00 -0.11682434899E+04  0.23804814959E+04  0.20741020468E+04 0.  0.
        1    1    3    3  502    0 -0.63063628510E+03 -0.45722390671E+03 -0.13698836490E+04  0.15758607288E+04  0.50400001928E-02 0. -1.
       -1    1    3    3    0  502  0.63063628510E+03  0.45722390671E+03  0.20164015905E+03  0.80462076701E+03  0.50400001928E-02 0.  1.
</event>
<event>
 5   0  0.8525278E-05  0.1944505E+04  0.7818609E-02  0.8633015E-01
       -1   -1    0    0    0  501  0.00000000000E+00  0.00000000000E+00  0.54332563677E+03  0.54332563679E+03  0.50400001928E-02 0. -1.
        1   -1    0    0  501    0  0.00000000000E+00  0.00000000000E+00 -0.17397953102E+04  0.17397953102E+04  0.50400001928E-02 0.  1.
    10030    2    1    2    0    0  0.00000000000E+00  0.00000000000E+00 -0.11964696734E+04  0.22831209470E+04  0.19445054845E+04 0.  0.
        4    1    3    3  502    0 -0.77843233797E+03 -0.56870872754E+03 -0.74622888553E+03  0.12191167639E+04  0.12699999809E+01 0.  1.
       -4    1    3    3    0  502  0.77843233797E+03  0.56870872754E+03 -0.45024078786E+03  0.10640041830E+04  0.12699999809E+01 0. -1.
</event>
<event>
 5   0  0.8237966E-05  0.2119871E+04  0.7818609E-02  0.8552540E-01
       -1   -1    0    0    0  501  0.00000000000E+00  0.00000000000E+00  0.12491257616E+04  0.12491257616E+04  0.50400001928E-02 0.  1.
        1   -1    0    0  501    0  0.00000000000E+00  0.00000000000E+00 -0.89939981213E+03  0.89939981214E+03  0.50400001928E-02 0. -1.
    10030    2    1    2    0    0  0.00000000000E+00  0.00000000000E+00  0.34972594945E+03  0.21485255737E+04  0.21198711992E+04 0.  0.
        1    1    3    3  502    0 -0.10381656270E+04  0.13504147797E+03  0.69754598993E+01  0.10469349201E+04  0.50400001928E-02 0. -1.
       -1    1    3    3    0  502  0.10381656270E+04 -0.13504147797E+03  0.34275048955E+03  0.11015906536E+04  0.50400001928E-02 0.  1.
</event>
<event>
 5   0  0.1886323E-04  0.2102424E+04  0.7818609E-02  0.8560176E-01
        2   -1    0    0  501    0  0.00000000000E+00  0.00000000000E+00  0.11502989128E+04  0.11502989128E+04  0.25500000920E-02 0. -1.
       -2   -1    0    0    0  501  0.00000000000E+00  0.00000000000E+00 -0.96066012036E+03  0.96066012036E+03  0.25500000920E-02 0.  1.
    10030    2    1    2    0    0  0.00000000000E+00  0.00000000000E+00  0.18963879247E+03  0.21109590332E+04  0.21024236415E+04 0.  0.
        2    1    3    3  502    0  0.45449253948E+03  0.34341110907E+03 -0.79225571059E+03  0.97578879336E+03  0.25500000920E-02 0.  1.
       -2    1    3    3    0  502 -0.45449253948E+03 -0.34341110907E+03  0.98189450306E+03  0.11351702398E+04  0.25500000920E-02 0. -1.
</event>
<event>
 5   0  0.8755004E-05  0.2121634E+04  0.7818609E-02  0.8551773E-01
       -1   -1    0    0    0  501  0.00000000000E+00  0.00000000000E+00  0.14824332115E+04  0.14824332115E+04  0.50400001928E-02 0. -1.
        1   -1    0    0  501    0  0.00000000000E+00  0.00000000000E+00 -0.75911157226E+03  0.75911157228E+03  0.50400001928E-02 0.  1.
    10030    2    1    2    0    0  0.00000000000E+00  0.00000000000E+00  0.72332163927E+03  0.22415447838E+04  0.21216335273E+04 0.  0.
        3    1    3    3  502    0 -0.16031078479E+01  0.14225431256E+03  0.14723090537E+04  0.14791662581E+04  0.10100000352E+00 0. -1.
       -3    1    3    3    0  502  0.16031078479E+01 -0.14225431256E+03 -0.74898741438E+03  0.76237852573E+03  0.10100000352E+00 0.  1.
</event>
<event>
 5   0  0.1815400E-04  0.1814653E+04  0.7818609E-02  0.8698546E-01
        2   -1    0    0  501    0  0.00000000000E+00  0.00000000000E+00  0.80191897992E+03  0.80191897992E+03  0.25500000920E-02 0. -1.
       -2   -1    0    0    0  501  0.00000000000E+00  0.00000000000E+00 -0.10265893175E+04  0.10265893175E+04  0.25500000920E-02 0.  1.
    10030    2    1    2    0    0  0.00000000000E+00  0.00000000000E+00 -0.22467033762E+03  0.18285082975E+04  0.18146530890E+04 0.  0.
        3    1    3    3  502    0  0.40655331139E+02 -0.52673762705E+03  0.63095275810E+03  0.82292574201E+03  0.10100000352E+00 0. -1.
       -3    1    3    3    0  502 -0.40655331139E+02  0.52673762705E+03 -0.85562309572E+03  0.10055825554E+04  0.10100000352E+00 0.  1.
</event>
<event>
 5   0  0.8237966E-05  0.2120232E+04  0.7818609E-02  0.8552383E-01
        1   -1    0    0  501    0  0.00000000000E+00  0.00000000000E+00  0.44462502861E+03  0.44462502864E+03  0.50400001928E-02 0.  1.
       -1   -1    0    0    0  501  0.00000000000E+00  0.00000000000E+00 -0.25276260564E+04  0.25276260564E+04  0.50400001928E-02 0. -1.
    10030    2    1    2    0    0  0.00000000000E+00  0.00000000000E+00 -0.20830010278E+04  0.29722510850E+04  0.21202318814E+04 0.  0.
        1    1    3    3  502    0  0.60445859499E+03 -0.77087449781E+03 -0.16096019650E+04  0.18842601121E+04  0.50400001928E-02 0. -1.
       -1    1    3    3    0  502 -0.60445859499E+03  0.77087449781E+03 -0.47339906278E+03  0.10879909729E+04  0.50400001928E-02 0.  1.
</event>
<event>
 5   0  0.1886323E-04  0.1927153E+04  0.7818609E-02  0.8641457E-01
        2   -1    0    0  501    0  0.00000000000E+00  0.00000000000E+00  0.94282057304E+03  0.94282057304E+03  0.25500000920E-02 0.  1.
       -2   -1    0    0    0  501  0.00000000000E+00  0.00000000000E+00 -0.98478937739E+03  0.98478937740E+03  0.25500000920E-02 0. -1.
    10030    2    1    2    0    0  0.00000000000E+00  0.00000000000E+00 -0.41968804353E+02  0.19276099504E+04  0.19271530143E+04 0.  0.
        2    1    3    3  502    0  0.28412070474E+02 -0.92517207474E+03  0.24690193576E+03  0.95797243150E+03  0.25500000920E-02 0.  1.
       -2    1    3    3    0  502 -0.28412070474E+02  0.92517207474E+03 -0.28887074012E+03  0.96963751894E+03  0.25500000920E-02 0. -1.
</event>
<event>
 5   0  0.8271069E-05  0.2087377E+04  0.7818609E-02  0.8566824E-01
        1   -1    0    0  501    0  0.00000000000E+00  0.00000000000E+00  0.11290918487E+04  0.11290918487E+04  0.50400001928E-02 0. -1.
       -1   -1    0    0    0  501  0.00000000000E+00  0.00000000000E+00 -0.96474522411E+03  0.96474522413E+03  0.50400001928E-02 0.  1.
    10030    2    1    2    0    0  0.00000000000E+00  0.00000000000E+00  0.16434662460E+03  0.20938370729E+04  0.20873772718E+04 0.  0.
        2    1    3    3  502    0 -0.38283277503E+03  0.33060031505E+03 -0.83357494266E+03  0.97504086426E+03  0.25500000920E-02 0.  1.
       -2    1    3    3    0  502  0.38283277503E+03 -0.33060031505E+03  0.99792156726E+03  0.11187962086E+04  0.25500000920E-02 0. -1.
</event>
<event>
 5   0  0.1815400E-04  0.2116143E+04  0.7818609E-02  0.8554166E-01
        2   -1    0    0  501    0  0.00000000000E+00  0.00000000000E+00  0.11502841084E+04  0.11502841084E+04  0.25500000920E-02 0. -1.
       -2   -1    0    0    0  501  0.00000000000E+00  0.00000000000E+00 -0.97325077910E+03  0.97325077911E+03  0.25500000920E-02 0.  1.
    10030    2    1    2    0    0  0.00000000000E+00  0.00000000000E+00  0.17703332927E+03  0.21235348875E+04  0.21161426272E+04 0.  0.
        3    1    3    3  502    0 -0.42782596367E+03  0.89910907410E+03 -0.27061998129E+03  0.10318271981E+04  0.10100000352E+00 0.  1.
       -3    1    3    3    0  502  0.42782596367E+03 -0.89910907410E+03  0.44765331056E+03  0.10917076894E+04  0.10100000352E+00 0. -1.
</event>
<event>
 5   0  0.1921687E-04  0.2095062E+04  0.7818609E-02  0.8563422E-01
       -2   -1    0    0    0  501  0.00000000000E+00  0.00000000000E+00  0.51439720140E+03  0.51439720140E+03  0.25500000920E-02 0.  1.
        2   -1    0    0  501    0  0.00000000000E+00  0.00000000000E+00 -0.21332173384E+04  0.21332173384E+04  0.25500000920E-02 0. -1.
    10030    2    1    2    0    0  0.00000000000E+00  0.00000000000E+00 -0.16188201370E+04  0.26476145398E+04  0.20950618405E+04 0.  0.
        5    1    3    3  502    0 -0.41084583317E+03  0.51336814651E+03 -0.18399265657E+04  0.19538917600E+04  0.46999998093E+01 0. -1.
       -5    1    3    3    0  502  0.41084583317E+03 -0.51336814651E+03  0.22110642868E+03  0.69372277985E+03  0.46999998093E+01 0.  1.
</event>
<event>
 5   0  0.8271069E-05  0.2066973E+04  0.7818609E-02  0.8575933E-01
        1   -1    0    0  501    0  0.00000000000E+00  0.00000000000E+00  0.15301046799E+04  0.15301046799E+04  0.50400001928E-02 0. -1.
       -1   -1    0    0    0  501  0.00000000000E+00  0.00000000000E+00 -0.69805330076E+03  0.69805330077E+03  0.50400001928E-02 0.  1.
    10030    2    1    2    0    0  0.00000000000E+00  0.00000000000E+00  0.83205137913E+03  0.22281579807E+04  0.20669732677E+04 0.  0.
        2    1    3    3  502    0  0.93387337483E+02  0.80146015384E+03 -0.28011560766E+03  0.85412196240E+03  0.25500000920E-02 0.  1.
       -2    1    3    3    0  502 -0.93387337483E+02 -0.80146015384E+03  0.11121669868E+04  0.13740360183E+04  0.25500000920E-02 0. -1.
</event>
<event>
 5   0  0.1815400E-04  0.2116603E+04  0.7818609E-02  0.8553965E-01
        2   -1    0    0  501    0  0.00000000000E+00  0.00000000000E+00  0.23531532178E+04  0.23531532178E+04  0.25500000920E-02 0.  1.
       -2   -1    0    0    0  501  0.00000000000E+00  0.00000000000E+00 -0.47595795755E+03  0.47595795756E+03  0.25500000920E-02 0. -1.
    10030    2    1    2    0    0  0.00000000000E+00  0.00000000000E+00  0.18771952603E+04  0.28291111754E+04  0.21166029381E+04 0.  0.
        3    1    3    3  502    0 -0.41137858140E+02 -0.10548963961E+04  0.10377539977E+04  0.14803486413E+04  0.10100000352E+00 0.  1.
       -3    1    3    3    0  502  0.41137858140E+02  0.10548963961E+04  0.83944126254E+03  0.13487625341E+04  0.10100000352E+00 0. -1.
</event>
<event>
 5   0  0.1810875E-04  0.2067844E+04  0.7818609E-02  0.8575542E-01
        2   -1    0    0  501    0  0.00000000000E+00  0.00000000000E+00  0.74241248348E+03  0.74241248348E+03  0.25500000920E-02 0.  1.
       -2   -1    0    0    0  501  0.00000000000E+00  0.00000000000E+00 -0.14398938491E+04  0.14398938491E+04  0.25500000920E-02 0. -1.
    10030    2    1    2    0    0  0.00000000000E+00  0.00000000000E+00 -0.69748136565E+03  0.21823063326E+04  0.20678444511E+04 0.  0.
        1    1    3    3  502    0 -0.47142256094E+02 -0.31600986858E+03 -0.13864865036E+04  0.14228244635E+04  0.50400001928E-02 0. -1.
       -1    1    3    3    0  502  0.47142256094E+02  0.31600986858E+03  0.68900513793E+03  0.75948186909E+03  0.50400001928E-02 0.  1.
</event>
<event>
 5   0  0.8486612E-05  0.2076794E+04  0.7818609E-02  0.8571535E-01
       -1   -1    0    0    0  501  0.00000000000E+00  0.00000000000E+00  0.11114775784E+04  0.11114775784E+04  0.50400001928E-02 0.  1.
        1   -1    0    0  501    0  0.00000000000E+00  0.00000000000E+00 -0.97012124997E+03  0.97012124998E+03  0.50400001928E-02 0. -1.
    10030    2    1    2    0    0  0.00000000000E+00  0.00000000000E+00  0.14135632845E+03  0.20815988284E+04  0.20767936996E+04 0.  0.
        5    1    3    3  502    0  0.70580894413E+03 -0.25745154761E+03  0.78913393123E+03  0.10895880031E+04  0.46999998093E+01 0.  1.
       -5    1    3    3    0  502 -0.70580894413E+03  0.25745154761E+03 -0.64777760277E+03  0.99201082536E+03  0.46999998093E+01 0. -1.
</event>
<event>
 5   0  0.1815400E-04  0.2097594E+04  0.7818609E-02  0.8562304E-01
       -2   -1    0    0    0  501  0.00000000000E+00  0.00000000000E+00  0.11750639878E+04  0.11750639878E+04  0.25500000920E-02 0. -1.
        2   -1    0    0  501    0  0.00000000000E+00  0.00000000000E+00 -0.93609852141E+03  0.93609852142E+03  0.25500000920E-02 0.  1.
    10030    2    1    2    0    0  0.00000000000E+00  0.00000000000E+00  0.23896546635E+03  0.21111625092E+04  0.20975944904E+04 0.  0.
        3    1    3    3  502    0  0.43074990803E+03 -0.57577448661E+03  0.88790924506E+03  0.11425605368E+04  0.10100000352E+00 0. -1.
       -3    1    3    3    0  502 -0.43074990803E+03  0.57577448661E+03 -0.64894377871E+03  0.96860197234E+03  0.10100000352E+00 0.  1.
</event>
<event>
 5   0  0.8525278E-05  0.1340850E+04  0.7818609E-02  0.8997783E-01
        1   -1    0    0  501    0  0.00000000000E+00  0.00000000000E+00  0.37413555722E+03  0.37413555725E+03  0.50400001928E-02 0. -1.
       -1   -1    0    0    0  501  0.00000000000E+00  0.00000000000E+00 -0.12013554538E+04  0.12013554539E+04  0.50400001928E-02 0.  1.
    10030    2    1    2    0    0  0.00000000000E+00  0.00000000000E+00 -0.82721989662E+03  0.15754910111E+04  0.13408501664E+04 0.  0.
        4    1    3    3  502    0  0.68540805308E+02  0.59348782581E+03 -0.77105260735E+03  0.97542266612E+03  0.12699999809E+01 0.  1.
       -4    1    3    3    0  502 -0.68540805308E+02 -0.59348782581E+03 -0.56167289272E+02  0.60006834499E+03  0.12699999809E+01 0. -1.
</event>
<event>
 5   0  0.8237966E-05  0.2082798E+04  0.7818609E-02  0.8568859E-01
        1   -1    0    0  501    0  0.00000000000E+00  0.00000000000E+00  0.13010607252E+04  0.13010607252E+04  0.50400001928E-02 0. -1.
       -1   -1    0    0    0  501  0.00000000000E+00  0.00000000000E+00 -0.83355956859E+03  0.83355956860E+03  0.50400001928E-02 0.  1.
    10030    2    1    2    0    0  0.00000000000E+00  0.00000000000E+00  0.46750115663E+03  0.21346202938E+04  0.20827977500E+04 0.  0.
        1    1    3    3  502    0 -0.15566955200E+03  0.10137944707E+04  0.48989255564E+02  0.10268457457E+04  0.50400001928E-02 0.  1.
       -1    1    3    3    0  502  0.15566955200E+03 -0.10137944707E+04  0.41851190107E+03  0.11077745482E+04  0.50400001928E-02 0. -1.
</event>
<event>
 5   0  0.8755004E-05  0.2094314E+04  0.7818609E-02  0.8563752E-01
       -1   -1    0    0    0  501  0.00000000000E+00  0.00000000000E+00  0.61295668386E+03  0.61295668389E+03  0.50400001928E-02 0. -1.
        1   -1    0    0  501    0  0.00000000000E+00  0.00000000000E+00 -0.17889326277E+04  0.17889326277E+04  0.50400001928E-02 0.  1.
    10030    2    1    2    0    0  0.00000000000E+00  0.00000000000E+00 -0.11759759439E+04  0.24018893116E+04  0.20943144092E+04 0.  0.
        3    1    3    3  502    0 -0.13427059805E+03  0.44410477093E+03  0.48864630872E+03  0.67381960960E+03  0.10100000352E+00 0. -1.
       -3    1    3    3    0  502  0.13427059805E+03 -0.44410477093E+03 -0.16646222526E+04  0.17280697020E+04  0.10100000352E+00 0.  1.
</event>
<event>
 5   0  0.1777590E-04  0.2118955E+04  0.7818609E-02  0.8552939E-01
       -2   -1    0    0    0  501  0.00000000000E+00  0.00000000000E+00  0.59599027809E+03  0.59599027810E+03  0.25500000920E-02 0. -1.
        2   -1    0    0  501    0  0.00000000000E+00  0.00000000000E+00 -0.18834067835E+04  0.18834067835E+04  0.25500000920E-02 0.  1.
    10030    2    1    2    0    0  0.00000000000E+00  0.00000000000E+00 -0.12874165054E+04  0.24793970616E+04  0.21189545844E+04 0.  0.
        4    1    3    3  502    0 -0.28677213246E+03 -0.29040154620E+03  0.50031546233E+03  0.64566902414E+03  0.12699999809E+01 0. -1.
       -4    1    3    3    0  502  0.28677213246E+03  0.29040154620E+03 -0.17877319678E+04  0.18337280375E+04  0.12699999809E+01 0.  1.
</event>
<event>
 5   0  0.1777590E-04  0.2115770E+04  0.7818609E-02  0.8554328E-01
       -2   -1    0    0    0  501  0.00000000000E+00  0.00000000000E+00  0.61127778467E+03  0.61127778467E+03  0.25500000920E-02 0.  1.
        2   -1    0    0  501    0  0.00000000000E+00  0.00000000000E+00 -0.18307885133E+04  0.18307885133E+04  0.25500000920E-02 0. -1.
    10030    2    1    2    0    0  0.00000000000E+00  0.00000000000E+00 -0.12195107287E+04  0.24420662980E+04  0.21157696913E+04 0.  0.
        4    1    3    3  502    0 -0.97892057120E+02 -0.10187796648E+03 -0.18198487191E+04  0.18253254363E+04  0.12699999809E+01 0. -1.
       -4    1    3    3    0  502  0.97892057120E+02  0.10187796648E+03  0.60033799044E+03  0.61674086176E+03  0.12699999809E+01 0.  1.
</event>
<event>
 5   0  0.8271069E-05  0.1716760E+04  0.7818609E-02  0.8751863E-01
       -1   -1    0    0    0  501  0.00000000000E+00  0.00000000000E+00  0.12168554831E+04  0.12168554831E+04  0.50400001928E-02 0.  1.
        1   -1    0    0  501    0  0.00000000000E+00  0.00000000000E+00 -0.60550833151E+03  0.60550833153E+03  0.50400001928E-02 0. -1.
    10030    2    1    2    0    0  0.00000000000E+00  0.00000000000E+00  0.61134715157E+03  0.18223638146E+04  0.17167598938E+04 0.  0.
        2    1    3    3  502    0 -0.47802517721E+03  0.70795631054E+03  0.39515561076E+03  0.94120038483E+03  0.25500000920E-02 0. -1.
       -2    1    3    3    0  502  0.47802517721E+03 -0.70795631054E+03  0.21619154081E+03  0.88116342979E+03  0.25500000920E-02 0.  1.
</event>
<event>
 5   0  0.8486612E-05  0.2253149E+04  0.7818609E-02  0.8496626E-01
        1   -1    0    0  501    0  0.00000000000E+00  0.00000000000E+00  0.14617168973E+04  0.14617168973E+04  0.50400001928E-02 0. -1.
       -1   -1    0    0    0  501  0.00000000000E+00  0.00000000000E+00 -0.86827364921E+03  0.86827364922E+03  0.50400001928E-02 0.  1.
    10030    2    1    2    0    0  0.00000000000E+00  0.00000000000E+00  0.59344324811E+03  0.23299905466E+04  0.22531491425E+04 0.  0.
        5    1    3    3  502    0  0.40815315865E+03  0.29558561690E+03 -0.74520593334E+03  0.89961871419E+03  0.46999998093E+01 0.  1.
       -5    1    3    3    0  502 -0.40815315865E+03 -0.29558561690E+03  0.13386491814E+04  0.14303718324E+04  0.46999998093E+01 0. -1.
</event>
<event>
 5   0  0.8486612E-05  0.2099619E+04  0.7818609E-02  0.8561411E-01
       -1   -1    0    0    0  501  0.00000000000E+00  0.00000000000E+00  0.86449796871E+03  0.86449796872E+03  0.50400001928E-02 0.  1.
        1   -1    0    0  501    0  0.00000000000E+00  0.00000000000E+00 -0.12748439386E+04  0.12748439386E+04  0.50400001928E-02 0. -1.
    10030    2    1    2    0    0  0.00000000000E+00  0.00000000000E+00 -0.41034596993E+03  0.21393419074E+04  0.20996190087E+04 0.  0.
        5    1    3    3  502    0 -0.49898165951E+03 -0.15870695319E+03 -0.11322814827E+04  0.12474991140E+04  0.46999998093E+01 0. -1.
       -5    1    3    3    0  502  0.49898165951E+03  0.15870695319E+03  0.72193551273E+03  0.89184279335E+03  0.46999998093E+01 0.  1.
</event>
<event>
 5   0  0.1886323E-04  0.2161412E+04  0.7818609E-02  0.8534663E-01
       -2   -1    0    0    0  501  0.00000000000E+00  0.00000000000E+00  0.13634488260E+04  0.13634488260E+04  0.25500000920E-02 0.  1.
        2   -1    0    0  501    0  0.00000000000E+00  0.00000000000E+00 -0.85659621109E+03  0.85659621109E+03  0.25500000920E-02 0. -1.
    10030    2    1    2    0    0  0.00000000000E+00  0.00000000000E+00  0.50685261486E+03  0.22200450370E+04  0.21614116668E+04 0.  0.
        2    1    3    3  502    0 -0.55443972035E+03  0.90620032461E+03  0.45710508206E+03  0.11565238812E+04  0.25500000920E-02 0.  1.
       -2    1    3    3    0  502  0.55443972035E+03 -0.90620032461E+03  0.49747532805E+02  0.10635211558E+04  0.25500000920E-02 0. -1.
</event>
<event>
 5   0  0.1815400E-04  0.2045222E+04  0.7818609E-02  0.8585765E-01
       -2   -1    0    0    0  501  0.00000000000E+00  0.00000000000E+00  0.61616657789E+03  0.61616657790E+03  0.25500000920E-02 0. -1.
        2   -1    0    0  501    0  0.00000000000E+00  0.00000000000E+00 -0.16971594392E+04  0.16971594392E+04  0.25500000920E-02 0.  1.
    10030    2    1    2    0    0  0.00000000000E+00  0.00000000000E+00 -0.10809928613E+04  0.23133260171E+04  0.20452216738E+04 0.  0.
        3    1    3    3  502    0  0.15154859242E+03 -0.94842344508E+03 -0.14339119680E+03  0.97109991894E+03  0.10100000352E+00 0. -1.
       -3    1    3    3    0  502 -0.15154859242E+03  0.94842344508E+03 -0.93760166446E+03  0.13422260981E+04  0.10100000352E+00 0.  1.
</event>
<event>
 5   0  0.1810875E-04  0.2167362E+04  0.7818609E-02  0.8532137E-01
       -2   -1    0    0    0  501  0.00000000000E+00  0.00000000000E+00  0.74138620042E+03  0.74138620042E+03  0.25500000920E-02 0.  1.
        2   -1    0    0  501    0  0.00000000000E+00  0.00000000000E+00 -0.15840116442E+04  0.15840116442E+04  0.25500000920E-02 0. -1.
    10030    2    1    2    0    0  0.00000000000E+00  0.00000000000E+00 -0.84262544376E+03  0.23253978446E+04  0.21673618750E+04 0.  0.
        1    1    3    3  502    0 -0.12836350167E+03 -0.64866672380E+03 -0.13424715970E+04  0.14964877867E+04  0.50400001928E-02 0. -1.
       -1    1    3    3    0  502  0.12836350167E+03  0.64866672380E+03  0.49984615322E+03  0.82891005787E+03  0.50400001928E-02 0.  1.
</event>
<event>
 5   0  0.1886323E-04  0.2043097E+04  0.7818609E-02  0.8586732E-01
       -2   -1    0    0    0  501  0.00000000000E+00  0.00000000000E+00  0.75531035367E+03  0.75531035367E+03  0.25500000920E-02 0.  1.
        2   -1    0    0  501    0  0.00000000000E+00  0.00000000000E+00 -0.13816328882E+04  0.13816328882E+04  0.25500000920E-02 0. -1.
    10030    2    1    2    0    0  0.00000000000E+00  0.00000000000E+00 -0.62632253457E+03  0.21369432419E+04  0.20430972815E+04 0.  0.
        2    1    3    3  502    0 -0.75439809470E+03  0.53972657271E+03 -0.76076735159E+03  0.11996617114E+04  0.25500000920E-02 0. -1.
       -2    1    3    3    0  502  0.75439809470E+03 -0.53972657271E+03  0.13444481702E+03  0.93728153050E+03  0.25500000920E-02 0.  1.
</event>
<event>
 5   0  0.1815400E-04  0.1982448E+04  0.7818609E-02  0.8614871E-01
        2   -1    0    0  501    0  0.00000000000E+00  0.00000000000E+00  0.43717359255E+03  0.43717359256E+03  0.25500000920E-02 0.  1.
       -2   -1    0    0    0  501  0.00000000000E+00  0.00000000000E+00 -0.22474484324E+04  0.22474484324E+04  0.25500000920E-02 0. -1.
    10030    2    1    2    0    0  0.00000000000E+00  0.00000000000E+00 -0.18102748398E+04  0.26846220249E+04  0.19824480879E+04 0.  0.
        3    1    3    3  502    0  0.10981228953E+03  0.96487058841E+03 -0.63602672278E+03  0.11608462403E+04  0.10100000352E+00 0.  1.
       -3    1    3    3    0  502 -0.10981228953E+03 -0.96487058841E+03 -0.11742481171E+04  0.15237757847E+04  0.10100000352E+00 0. -1.
</event>
<event>
 5   0  0.8755004E-05  0.2108600E+04  0.7818609E-02  0.8557464E-01
        1   -1    0    0  501    0  0.00000000000E+00  0.00000000000E+00  0.14580151926E+04  0.14580151926E+04  0.50400001928E-02 0. -1.
       -1   -1    0    0    0  501  0.00000000000E+00  0.00000000000E+00 -0.76237120316E+03  0.76237120318E+03  0.50400001928E-02 0.  1.
    10030    2    1    2    0    0  0.00000000000E+00  0.00000000000E+00  0.69564398941E+03  0.22203863957E+04  0.21086002908E+04 0.  0.
        3    1    3    3  502    0  0.40692838283E+03 -0.96955818350E+03  0.42880835983E+03  0.11355661142E+04  0.10100000352E+00 0. -1.
       -3    1    3    3    0  502 -0.40692838283E+03  0.96955818350E+03  0.26683562958E+03  0.10848202816E+04  0.10100000352E+00 0.  1.
</event>
<event>
 5   0  0.1921687E-04  0.2104906E+04  0.7818609E-02  0.8559085E-01
        2   -1    0    0  501    0  0.00000000000E+00  0.00000000000E+00  0.12040281778E+04  0.12040281778E+04  0.25500000920E-02 0. -1.
       -2   -1    0    0    0  501  0.00000000000E+00  0.00000000000E+00 -0.91995959292E+03  0.91995959292E+03  0.25500000920E-02 0.  1.
    10030    2    1    2    0    0  0.00000000000E+00  0.00000000000E+00  0.28406858485E+03  0.21239877707E+04  0.21049059573E+04 0.  0.
        5    1    3    3  502    0 -0.35931624320E+03 -0.98474928931E+03  0.23667073166E+03  0.10746508506E+04  0.46999998093E+01 0. -1.
       -5    1    3    3    0  502  0.35931624320E+03  0.98474928931E+03  0.47397853190E+02  0.10493369201E+04  0.46999998093E+01 0.  1.
</event>
<event>
 5   0  0.8486612E-05  0.2036211E+04  0.7818609E-02  0.8589876E-01
        1   -1    0    0  501    0  0.00000000000E+00  0.00000000000E+00  0.12695695501E+04  0.12695695501E+04  0.50400001928E-02 0. -1.
       -1   -1    0    0    0  501  0.00000000000E+00  0.00000000000E+00 -0.81644903497E+03  0.81644903499E+03  0.50400001928E-02 0.  1.
    10030    2    1    2    0    0  0.00000000000E+00  0.00000000000E+00  0.45312051512E+03  0.20860185851E+04  0.20362110245E+04 0.  0.
        5    1    3    3  502    0 -0.16263010964E+03 -0.59393444006E+03 -0.60401795100E+03  0.86259286270E+03  0.46999998093E+01 0.  1.
       -5    1    3    3    0  502  0.16263010964E+03  0.59393444006E+03  0.10571384661E+04  0.12234257224E+04  0.46999998093E+01 0. -1.
</event>
<event>
 5   0  0.8755004E-05  0.2084970E+04  0.7818609E-02  0.8567893E-01
        1   -1    0    0  501    0  0.00000000000E+00  0.00000000000E+00  0.10400728212E+04  0.10400728212E+04  0.50400001928E-02 0.  1.
       -1   -1    0    0    0  501  0.00000000000E+00  0.00000000000E+00 -0.10449029168E+04  0.10449029168E+04  0.50400001928E-02 0. -1.
    10030    2    1    2    0    0  0.00000000000E+00  0.00000000000E+00 -0.48300956363E+01  0.20849757380E+04  0.20849701433E+04 0.  0.
        3    1    3    3  502    0  0.47955031502E+03  0.11697701426E+03 -0.92063479968E+03  0.10446150349E+04  0.10100000352E+00 0. -1.
       -3    1    3    3    0  502 -0.47955031502E+03 -0.11697701426E+03  0.91580470404E+03  0.10403607031E+04  0.10100000352E+00 0.  1.
</event>
<event>
 5   0  0.1815400E-04  0.2041695E+04  0.7818609E-02  0.8587371E-01
        2   -1    0    0  501    0  0.00000000000E+00  0.00000000000E+00  0.26028035412E+04  0.26028035412E+04  0.25500000920E-02 0. -1.
       -2   -1    0    0    0  501  0.00000000000E+00  0.00000000000E+00 -0.40038730858E+03  0.40038730859E+03  0.25500000920E-02 0.  1.
    10030    2    1    2    0    0  0.00000000000E+00  0.00000000000E+00  0.22024162326E+04  0.30031908498E+04  0.20416948887E+04 0.  0.
        3    1    3    3  502    0 -0.27103612139E+03  0.39834948689E+03  0.24250344262E+04  0.24724350085E+04  0.10100000352E+00 0. -1.
       -3    1    3    3    0  502  0.27103612139E+03 -0.39834948689E+03 -0.22261819355E+03  0.53075584133E+03  0.10100000352E+00 0.  1.
</event>
<event>
 5   0  0.8237966E-05  0.2073094E+04  0.7818609E-02  0.8573189E-01
       -1   -1    0    0    0  501  0.00000000000E+00  0.00000000000E+00  0.74766338960E+03  0.74766338961E+03  0.50400001928E-02 0.  1.
        1   -1    0    0  501    0  0.00000000000E+00  0.00000000000E+00 -0.14370501591E+04  0.14370501591E+04  0.50400001928E-02 0. -1.
    10030    2    1    2    0    0  0.00000000000E+00  0.00000000000E+00 -0.68938676951E+03  0.21847135487E+04  0.20730941059E+04 0.  0.
        1    1    3    3  502    0 -0.72583608900E+03 -0.51471687923E+03  0.21558820954E+03  0.91555981234E+03  0.50400001928E-02 0.  1.
       -1    1    3    3    0  502  0.72583608900E+03  0.51471687923E+03 -0.90497497905E+03  0.12691537364E+04  0.50400001928E-02 0. -1.
</event>
<event>
 5   0  0.8755004E-05  0.2132145E+04  0.7818609E-02  0.8547214E-01
       -1   -1    0    0    0  501  0.00000000000E+00  0.00000000000E+00  0.11038095528E+04  0.11038095528E+04  0.50400001928E-02 0. -1.
        1   -1    0    0  501    0  0.00000000000E+00  0.00000000000E+00 -0.10296255521E+04  0.10296255521E+04  0.50400001928E-02 0.  1.
    10030    2    1    2    0    0  0.00000000000E+00  0.00000000000E+00  0.74184000628E+02  0.21334351049E+04  0.21321449484E+04 0.  0.
        3    1    3    3  502    0  0.90087821551E+03  0.45676406828E+03  0.37831966587E+03  0.10785827521E+04  0.10100000352E+00 0.  1.
       -3    1    3    3    0  502 -0.90087821551E+03 -0.45676406828E+03 -0.30413566524E+03  0.10548523529E+04  0.10100000352E+00 0. -1.
</event>
<event>
 5   0  0.8525278E-05  0.2122253E+04  0.7818609E-02  0.8551504E-01
        1   -1    0    0  501    0  0.00000000000E+00  0.00000000000E+00  0.75606936441E+03  0.75606936443E+03  0.50400001928E-02 0.  1.
       -1   -1    0    0    0  501  0.00000000000E+00  0.00000000000E+00 -0.14892670598E+04  0.14892670598E+04  0.50400001928E-02 0. -1.
    10030    2    1    2    0    0  0.00000000000E+00  0.00000000000E+00 -0.73319769543E+03  0.22453364243E+04  0.21222527648E+04 0.  0.
        4    1    3    3  502    0  0.10239887336E+02 -0.59768125919E+03  0.56098122526E+03  0.81977392669E+03  0.12699999809E+01 0.  1.
       -4    1    3    3    0  502 -0.10239887336E+02  0.59768125919E+03 -0.12941789207E+04  0.14255624976E+04  0.12699999809E+01 0. -1.
</event>
<event>
 5   0  0.8486612E-05  0.2051994E+04  0.7818609E-02  0.8582690E-01
       -1   -1    0    0    0  501  0.00000000000E+00  0.00000000000E+00  0.61226482085E+03  0.61226482087E+03  0.50400001928E-02 0. -1.
        1   -1    0    0  501    0  0.00000000000E+00  0.00000000000E+00 -0.17193055674E+04  0.17193055674E+04  0.50400001928E-02 0.  1.
    10030    2    1    2    0    0  0.00000000000E+00  0.00000000000E+00 -0.11070407465E+04  0.23315703883E+04  0.20519944593E+04 0.  0.
        5    1    3    3  502    0  0.10408386564E+02  0.81935109853E+03 -0.12550578602E+04  0.14988785406E+04  0.46999998093E+01 0.  1.
       -5    1    3    3    0  502 -0.10408386564E+02 -0.81935109853E+03  0.14801711365E+03  0.83269184762E+03  0.46999998093E+01 0. -1.
</event>
<event>
 5   0  0.1777590E-04  0.2101468E+04  0.7818609E-02  0.8560597E-01
       -2   -1    0    0    0  501  0.00000000000E+00  0.00000000000E+00  0.11384828475E+04  0.11384828475E+04  0.25500000920E-02 0.  1.
        2   -1    0    0  501    0  0.00000000000E+00  0.00000000000E+00 -0.96974836764E+03  0.96974836765E+03  0.25500000920E-02 0. -1.
    10030    2    1    2    0    0  0.00000000000E+00  0.00000000000E+00  0.16873447984E+03  0.21082312151E+04  0.21014679469E+04 0.  0.
        4    1    3    3  502    0 -0.50919075059E+03  0.68883090440E+03  0.69482955266E+03  0.11029745942E+04  0.12699999809E+01 0.  1.
       -4    1    3    3    0  502  0.50919075059E+03 -0.68883090440E+03 -0.52609507282E+03  0.10052566209E+04  0.12699999809E+01 0. -1.
</event>
<event>
 5   0  0.1810875E-04  0.2110350E+04  0.7818609E-02  0.8556698E-01
        2   -1    0    0  501    0  0.00000000000E+00  0.00000000000E+00  0.24385664255E+04  0.24385664255E+04  0.25500000920E-02 0. -1.
       -2   -1    0    0    0  501  0.00000000000E+00  0.00000000000E+00 -0.45657739959E+03  0.45657739960E+03  0.25500000920E-02 0.  1.
    10030    2    1    2    0    0  0.00000000000E+00  0.00000000000E+00  0.19819890259E+04  0.28951438251E+04  0.21103500348E+04 0.  0.
        1    1    3    3  502    0 -0.81524092769E+03  0.15369805242E+02  0.72204237199E+02  0.81857647962E+03  0.50400001928E-02 0.  1.
       -1    1    3    3    0  502  0.81524092769E+03 -0.15369805242E+02  0.19097847887E+04  0.20765673455E+04  0.50400001928E-02 0. -1.
</event>
<event>
 5   0  0.8525278E-05  0.2064204E+04  0.7818609E-02  0.8577178E-01
        1   -1    0    0  501    0  0.00000000000E+00  0.00000000000E+00  0.98611831209E+03  0.98611831210E+03  0.50400001928E-02 0. -1.
       -1   -1    0    0    0  501  0.00000000000E+00  0.00000000000E+00 -0.10802295396E+04  0.10802295396E+04  0.50400001928E-02 0.  1.
    10030    2    1    2    0    0  0.00000000000E+00  0.00000000000E+00 -0.94111227501E+02  0.20663478517E+04  0.20642036046E+04 0.  0.
        4    1    3    3  502    0  0.30250820048E+03  0.87427406538E+03  0.41098517049E+03  0.10123125881E+04  0.12699999809E+01 0. -1.
       -4    1    3    3    0  502 -0.30250820048E+03 -0.87427406538E+03 -0.50509639799E+03  0.10540352636E+04  0.12699999809E+01 0.  1.
</event>
<event>
 5   0  0.1886323E-04  0.2246463E+04  0.7818609E-02  0.8499334E-01
        2   -1    0    0  501    0  0.00000000000E+00  0.00000000000E+00  0.24093851006E+04  0.24093851006E+04  0.25500000920E-02 0. -1.
       -2   -1    0    0    0  501  0.00000000000E+00  0.00000000000E+00 -0.52363937378E+03  0.52363937378E+03  0.25500000920E-02 0.  1.
    10030    2    1    2    0    0  0.00000000000E+00  0.00000000000E+00  0.18857457269E+04  0.29330244744E+04  0.22464629134E+04 0.  0.
        2    1    3    3  502    0  0.79934594859E+03 -0.70580914931E+03  0.14036072700E+04  0.17627347700E+04  0.25500000920E-02 0. -1.
       -2    1    3    3    0  502 -0.79934594859E+03  0.70580914931E+03  0.48213845683E+03  0.11702897044E+04  0.25500000920E-02 0.  1.
</event>
<event>
 5   0  0.8486612E-05  0.2199509E+04  0.7818609E-02  0.8518632E-01
       -1   -1    0    0    0  501  0.00000000000E+00  0.00000000000E+00  0.89471761899E+03  0.89471761900E+03  0.50400001928E-02 0.  1.
        1   -1    0    0  501    0  0.00000000000E+00  0.00000000000E+00 -0.13517788510E+04  0.13517788510E+04  0.50400001928E-02 0. -1.
    10030    2    1    2    0    0  0.00000000000E+00  0.00000000000E+00 -0.45706123201E+03  0.22464964700E+04  0.21995093589E+04 0.  0.
        5    1    3    3  502    0  0.81759313687E+02  0.65571328832E+03 -0.11263970384E+04  0.13059237650E+04  0.46999998093E+01 0. -1.
       -5    1    3    3    0  502 -0.81759313687E+02 -0.65571328832E+03  0.66933580635E+03  0.94057270506E+03  0.46999998093E+01 0.  1.
</event>
<event>
 5   0  0.1886323E-04  0.1996157E+04  0.7818609E-02  0.8608419E-01
       -2   -1    0    0    0  501  0.00000000000E+00  0.00000000000E+00  0.70701610677E+03  0.70701610678E+03  0.25500000920E-02 0. -1.
        2   -1    0    0  501    0  0.00000000000E+00  0.00000000000E+00 -0.14089647941E+04  0.14089647941E+04  0.25500000920E-02 0.  1.
    10030    2    1    2    0    0  0.00000000000E+00  0.00000000000E+00 -0.70194868732E+03  0.21159809009E+04  0.19961571114E+04 0.  0.
        2    1    3    3  502    0  0.27134577018E+03 -0.29287156260E+03 -0.13206290188E+04  0.13796605686E+04  0.25500000920E-02 0.  1.
       -2    1    3    3    0  502 -0.27134577018E+03  0.29287156260E+03  0.61868033148E+03  0.73632033229E+03  0.25500000920E-02 0. -1.
</event>
<event>
 5   0  0.8525278E-05  0.2114267E+04  0.7818609E-02  0.8554985E-01
       -1   -1    0    0    0  501  0.00000000000E+00  0.00000000000E+00  0.74879851811E+03  0.74879851812E+03  0.50400001928E-02 0.  1.
        1   -1    0    0  501    0  0.00000000000E+00  0.00000000000E+00 -0.14924318889E+04  0.14924318889E+04  0.50400001928E-02 0. -1.
    10030    2    1    2    0    0  0.00000000000E+00  0.00000000000E+00 -0.74363337080E+03  0.22412304070E+04  0.21142665743E+04 0.  0.
        4    1    3    3  502    0  0.82809957918E+02  0.91155630960E+03  0.18884586373E+03  0.93458909037E+03  0.12699999809E+01 0.  1.
       -4    1    3    3    0  502 -0.82809957918E+02 -0.91155630960E+03 -0.93247923453E+03  0.13066413167E+04  0.12699999809E+01 0. -1.
</event>
<event>
 5   0  0.8525278E-05  0.2121899E+04  0.7818609E-02  0.8551658E-01
        1   -1    0    0  501    0  0.00000000000E+00  0.00000000000E+00  0.14675532827E+04  0.14675532827E+04  0.50400001928E-02 0. -1.
       -1   -1    0    0    0  501  0.00000000000E+00  0.00000000000E+00 -0.76700020644E+03  0.76700020646E+03  0.50400001928E-02 0.  1.
    10030    2    1    2    0    0  0.00000000000E+00  0.00000000000E+00  0.70055307628E+03  0.22345534892E+04  0.21218988391E+04 0.  0.
        4    1    3    3  502    0 -0.69706123648E+03 -0.55859906643E+02  0.11905071439E+04  0.13806967694E+04  0.12699999809E+01 0. -1.
       -4    1    3    3    0  502  0.69706123648E+03  0.55859906643E+02 -0.48995406762E+03  0.85385671974E+03  0.12699999809E+01 0.  1.
</event>
<event>
 5   0  0.8271069E-05  0.1861209E+04  0.7818609E-02  0.8674410E-01
       -1   -1    0    0    0  501  0.00000000000E+00  0.00000000000E+00  0.36946994548E+03  0.36946994552E+03  0.50400001928E-02 0.  1.
        1   -1    0    0  501    0  0.00000000000E+00  0.00000000000E+00 -0.23439654347E+04  0.23439654347E+04  0.50400001928E-02 0. -1.
    10030    2    1    2    0    0  0.00000000000E+00  0.00000000000E+00 -0.19744954892E+04  0.27134353802E+04  0.18612090494E+04 0.  0.
        2    1    3    3  502    0  0.16885361282E+03  0.11334788626E+02 -0.23213430462E+04  0.23275037181E+04  0.25500000920E-02 0. -1.
       -2    1    3    3    0  502 -0.16885361282E+03 -0.11334788626E+02  0.34684755697E+03  0.38593166206E+03  0.25500000920E-02 0.  1.
</event>
<event>
 5   0  0.1777590E-04  0.2074288E+04  0.7818609E-02  0.8572655E-01
       -2   -1    0    0    0  501  0.00000000000E+00  0.00000000000E+00  0.52051654153E+03  0.52051654154E+03  0.25500000920E-02 0. -1.
        2   -1    0    0  501    0  0.00000000000E+00  0.00000000000E+00 -0.20665397649E+04  0.20665397649E+04  0.25500000920E-02 0.  1.
    10030    2    1    2    0    0  0.00000000000E+00  0.00000000000E+00 -0.15460232233E+04  0.25870563064E+04  0.20742884383E+04 0.  0.
        4    1    3    3  502    0  0.10558543841E+03  0.69323389708E+03  0.18005379349E+03  0.72397686587E+03  0.12699999809E+01 0. -1.
       -4    1    3    3    0  502 -0.10558543841E+03 -0.69323389708E+03 -0.17260770168E+04  0.18630794405E+04  0.12699999809E+01 0.  1.
</event>
<event>
 5   0  0.6441125E-05  0.1678383E+04  0.7818609E-02  0.8773790E-01
        3   -1    0    0  501    0  0.00000000000E+00  0.00000000000E+00  0.11791764913E+04  0.11791764956E+04  0.10100000352E+00 0. -1.
       -3   -1    0    0    0  501  0.00000000000E+00  0.00000000000E+00 -0.59723247573E+03  0.59723248427E+03  0.10100000352E+00 0.  1.
    10030    2    1    2    0    0  0.00000000000E+00  0.00000000000E+00  0.58194401553E+03  0.17764089799E+04  0.16783831584E+04 0.  0.
        4    1    3    3  502    0  0.54756569479E+03  0.16097118790E+03  0.94212846438E+03  0.11015205716E+04  0.12699999809E+01 0. -1.
       -4    1    3    3    0  502 -0.54756569479E+03 -0.16097118790E+03 -0.36018444885E+03  0.67488840821E+03  0.12699999809E+01 0.  1.
</event>
<event>
 5   0  0.1921687E-04  0.2106953E+04  0.7818609E-02  0.8558187E-01
       -2   -1    0    0    0  501  0.00000000000E+00  0.00000000000E+00  0.10473156901E+04  0.10473156901E+04  0.25500000920E-02 0. -1.
        2   -1    0    0  501    0  0.00000000000E+00  0.00000000000E+00 -0.10596733896E+04  0.10596733896E+04  0.25500000920E-02 0.  1.
    10030    2    1    2    0    0  0.00000000000E+00  0.00000000000E+00 -0.12357699571E+02  0.21069890797E+04  0.21069528398E+04 0.  0.
        5    1    3    3  502    0  0.79084303857E+03  0.38493967293E+03  0.57364075888E+03  0.10500938404E+04  0.46999998093E+01 0. -1.
       -5    1    3    3    0  502 -0.79084303857E+03 -0.38493967293E+03 -0.58599845845E+03  0.10568952393E+04  0.46999998093E+01 0.  1.
</event>
<event>
 5   0  0.1921687E-04  0.2051470E+04  0.7818609E-02  0.8582928E-01
        2   -1    0    0  501    0  0.00000000000E+00  0.00000000000E+00  0.11453975193E+04  0.11453975193E+04  0.25500000920E-02 0.  1.
       -2   -1    0    0    0  501  0.00000000000E+00  0.00000000000E+00 -0.91857409898E+03  0.91857409898E+03  0.25500000920E-02 0. -1.
    10030    2    1    2    0    0  0.00000000000E+00  0.00000000000E+00  0.22682342035E+03  0.20639716183E+04  0.20514701990E+04 0.  0.
        5    1    3    3  502    0  0.37635686095E+03 -0.55440646203E+03  0.89473892907E+03  0.11178509977E+04  0.46999998093E+01 0.  1.
       -5    1    3    3    0  502 -0.37635686095E+03  0.55440646203E+03 -0.66791550872E+03  0.94612062059E+03  0.46999998093E+01 0. -1.
</event>
<event>
 5   0  0.1777590E-04  0.2118262E+04  0.7818609E-02  0.8553241E-01
       -2   -1    0    0    0  501  0.00000000000E+00  0.00000000000E+00  0.51469340057E+03  0.51469340057E+03  0.25500000920E-02 0. -1.
        2   -1    0    0  501    0  0.00000000000E+00  0.00000000000E+00 -0.21794687322E+04  0.21794687322E+04  0.25500000920E-02 0.  1.
    10030    2    1    2    0    0  0.00000000000E+00  0.00000000000E+00 -0.16647753316E+04  0.26941621327E+04  0.21182617149E+04 0.  0.
        4    1    3    3  502    0  0.10954465117E+03 -0.45055821417E+03 -0.20435122198E+04  0.20954585514E+04  0.12699999809E+01 0.  1.
       -4    1    3    3    0  502 -0.10954465117E+03  0.45055821417E+03  0.37873688823E+03  0.59870358138E+03  0.12699999809E+01 0. -1.
</event>
<event>
 5   0  0.8525278E-05  0.2089221E+04  0.7818609E-02  0.8566007E-01
       -1   -1    0    0    0  501  0.00000000000E+00  0.00000000000E+00  0.13204741168E+04  0.13204741168E+04  0.50400001928E-02 0. -1.
        1   -1    0    0  501    0  0.00000000000E+00  0.00000000000E+00 -0.82637815459E+03  0.82637815461E+03  0.50400001928E-02 0.  1.
    10030    2    1    2    0    0  0.00000000000E+00  0.00000000000E+00  0.49409596217E+03  0.21468522714E+04  0.20892208728E+04 0.  0.
        4    1    3    3  502    0 -0.96362815959E+03  0.31662386166E+03 -0.96004298345E+01  0.10143587535E+04  0.12699999809E+01 0.  1.
       -4    1    3    3    0  502  0.96362815959E+03 -0.31662386166E+03  0.50369639201E+03  0.11324935178E+04  0.12699999809E+01 0. -1.
</event>
<event>
 5   0  0.8271069E-05  0.1704474E+04  0.7818609E-02  0.8758817E-01
        1   -1    0    0  501    0  0.00000000000E+00  0.00000000000E+00  0.17212846556E+04  0.17212846556E+04  0.50400001928E-02 0.  1.
       -1   -1    0    0    0  501  0.00000000000E+00  0.00000000000E+00 -0.42195663951E+03  0.42195663954E+03  0.50400001928E-02 0. -1.
    10030    2    1    2    0    0  0.00000000000E+00  0.00000000000E+00  0.12993280161E+04  0.21432412951E+04  0.17044735128E+04 0.  0.
        2    1    3    3  502    0 -0.32608691972E+03 -0.40625149085E+03  0.14977800254E+04  0.15857862269E+04  0.25500000920E-02 0.  1.
       -2    1    3    3    0  502  0.32608691972E+03  0.40625149085E+03 -0.19845200934E+03  0.55745506819E+03  0.25500000920E-02 0. -1.
</event>
<event>
 5   0  0.1886323E-04  0.2105615E+04  0.7818609E-02  0.8558774E-01
        2   -1    0    0  501    0  0.00000000000E+00  0.00000000000E+00  0.11729756562E+04  0.11729756562E+04  0.25500000920E-02 0. -1.
       -2   -1    0    0    0  501  0.00000000000E+00  0.00000000000E+00 -0.94494988253E+03  0.94494988254E+03  0.25500000920E-02 0.  1.
    10030    2    1    2    0    0  0.00000000000E+00  0.00000000000E+00  0.22802577364E+03  0.21179255387E+04  0.21056145977E+04 0.  0.
        2    1    3    3  502    0  0.27281387217E+03  0.19020833052E+03  0.11187508507E+04  0.11671375599E+04  0.25500000920E-02 0. -1.
       -2    1    3    3    0  502 -0.27281387217E+03 -0.19020833052E+03 -0.89072507702E+03  0.95078797883E+03  0.25500000920E-02 0.  1.
</event>
<event>
 5   0  0.8271069E-05  0.2087045E+04  0.7818609E-02  0.8566972E-01
        1   -1    0    0  501    0  0.00000000000E+00  0.00000000000E+00  0.96675534478E+03  0.96675534479E+03  0.50400001928E-02 0.  1.
       -1   -1    0    0    0  501  0.00000000000E+00  0.00000000000E+00 -0.11263854630E+04  0.11263854630E+04  0.50400001928E-02 0. -1.
    10030    2    1    2    0    0  0.00000000000E+00  0.00000000000E+00 -0.15963011821E+03  0.20931408078E+04  0.20870449604E+04 0.  0.
        2    1    3    3  502    0 -0.76653973098E+03  0.50150288077E+03  0.42149575261E+03  0.10083387169E+04  0.25500000920E-02 0.  1.
       -2    1    3    3    0  502  0.76653973098E+03 -0.50150288077E+03 -0.58112587082E+03  0.10848020909E+04  0.25500000920E-02 0. -1.
</event>
<event>
 5   0  0.1815400E-04  0.2058195E+04  0.7818609E-02  0.8579886E-01
        2   -1    0    0  501    0  0.00000000000E+00  0.00000000000E+00  0.16304333392E+04  0.16304333392E+04  0.25500000920E-02 0.  1.
       -2   -1    0    0    0  501  0.00000000000E+00  0.00000000000E+00 -0.64954642703E+03  0.64954642704E+03  0.25500000920E-02 0. -1.
    10030    2    1    2    0    0  0.00000000000E+00  0.00000000000E+00  0.98088691219E+03  0.22799797663E+04  0.20581954718E+04 0.  0.
        3    1    3    3  502    0 -0.17452718195E+03  0.16948500146E+03  0.15981210519E+04  0.16165320318E+04  0.10100000352E+00 0.  1.
       -3    1    3    3    0  502  0.17452718195E+03 -0.16948500146E+03 -0.61723413973E+03  0.66344773449E+03  0.10100000352E+00 0. -1.
</event>
<event>
 5   0  0.1921687E-04  0.2065864E+04  0.7818609E-02  0.8576431E-01
       -2   -1    0    0    0  501  0.00000000000E+00  0.00000000000E+00  0.77821477705E+03  0.77821477706E+03  0.25500000920E-02 0.  1.
        2   -1    0    0  501    0  0.00000000000E+00  0.00000000000E+00 -0.13710207476E+04  0.13710207476E+04  0.25500000920E-02 0. -1.
    10030    2    1    2    0    0  0.00000000000E+00  0.00000000000E+00 -0.59280597058E+03  0.21492355247E+04  0.20658640860E+04 0.  0.
        5    1    3    3  502    0 -0.71590243813E+03  0.44727694548E+03  0.32289641266E+03  0.90380149933E+03  0.46999998093E+01 0.  1.
       -5    1    3    3    0  502  0.71590243813E+03 -0.44727694548E+03 -0.91570238324E+03  0.12454340254E+04  0.46999998093E+01 0. -1.
</event>
<event>
 5   0  0.8486612E-05  0.2079694E+04  0.7818609E-02  0.8570241E-01
        1   -1    0    0  501    0  0.00000000000E+00  0.00000000000E+00  0.77501120362E+03  0.77501120363E+03  0.50400001928E-02 0. -1.
       -1   -1    0    0    0  501  0.00000000000E+00  0.00000000000E+00 -0.13951827158E+04  0.13951827158E+04  0.50400001928E-02 0.  1.
    10030    2    1    2    0    0  0.00000000000E+00  0.00000000000E+00 -0.62017151217E+03  0.21701939194E+04  0.20796944351E+04 0.  0.
        5    1    3    3  502    0  0.45459376388E+03 -0.93517696813E+03 -0.31736752046E+03  0.10871778534E+04  0.46999998093E+01 0. -1.
       -5    1    3    3    0  502 -0.45459376388E+03  0.93517696813E+03 -0.30280399170E+03  0.10830160660E+04  0.46999998093E+01 0.  1.
</event>
<event>
 5   0  0.8755004E-05  0.2092716E+04  0.7818609E-02  0.8564459E-01
       -1   -1    0    0    0  501  0.00000000000E+00  0.00000000000E+00  0.66302152525E+03  0.66302152527E+03  0.50400001928E-02 0. -1.
        1   -1    0    0  501    0  0.00000000000E+00  0.00000000000E+00 -0.16513262055E+04  0.16513262055E+04  0.50400001928E-02 0.  1.
    10030    2    1    2    0    0  0.00000000000E+00  0.00000000000E+00 -0.98830468021E+03  0.23143477307E+04  0.20927157661E+04 0.  0.
        3    1    3    3  502    0  0.90128150087E+03  0.50878484537E+03 -0.32392016409E+03  0.10844789743E+04  0.10100000352E+00 0.  1.
       -3    1    3    3    0  502 -0.90128150087E+03 -0.50878484537E+03 -0.66438451611E+03  0.12298687565E+04  0.10100000352E+00 0. -1.
</event>
<event>
 5   0  0.1815400E-04  0.2115122E+04  0.7818609E-02  0.8554611E-01
        2   -1    0    0  501    0  0.00000000000E+00  0.00000000000E+00  0.15926478587E+04  0.15926478587E+04  0.25500000920E-02 0. -1.
       -2   -1    0    0    0  501  0.00000000000E+00  0.00000000000E+00 -0.70224897671E+03  0.70224897671E+03  0.25500000920E-02 0.  1.
    10030    2    1    2    0    0  0.00000000000E+00  0.00000000000E+00  0.89039888196E+03  0.22948968354E+04  0.21151220570E+04 0.  0.
        3    1    3    3  502    0  0.56977363538E+03  0.19579549220E+03  0.13882451355E+04  0.15133414805E+04  0.10100000352E+00 0. -1.
       -3    1    3    3    0  502 -0.56977363538E+03 -0.19579549220E+03 -0.49784625352E+03  0.78155535484E+03  0.10100000352E+00 0.  1.
</event>
<event>
 5   0  0.1810875E-04  0.2128889E+04  0.7818609E-02  0.8548623E-01
       -2   -1    0    0    0  501  0.00000000000E+00  0.00000000000E+00  0.59800150295E+03  0.59800150295E+03  0.25500000920E-02 0. -1.
        2   -1    0    0  501    0  0.00000000000E+00  0.00000000000E+00 -0.18947153395E+04  0.18947153395E+04  0.25500000920E-02 0.  1.
    10030    2    1    2    0    0  0.00000000000E+00  0.00000000000E+00 -0.12967138366E+04  0.24927168425E+04  0.21288894952E+04 0.  0.
        1    1    3    3  502    0 -0.98657460199E+03  0.38447939789E+03 -0.52068709571E+03  0.11799444497E+04  0.50400001928E-02 0.  1.
       -1    1    3    3    0  502  0.98657460199E+03 -0.38447939789E+03 -0.77602674088E+03  0.13127723928E+04  0.50400001928E-02 0. -1.
</event>
<event>
 5   0  0.1810875E-04  0.1814674E+04  0.7818609E-02  0.8698535E-01
        2   -1    0    0  501    0  0.00000000000E+00  0.00000000000E+00  0.19849883765E+04  0.19849883765E+04  0.25500000920E-02 0.  1.
       -2   -1    0    0    0  501  0.00000000000E+00  0.00000000000E+00 -0.41474311406E+03  0.41474311407E+03  0.25500000920E-02 0. -1.
    10030    2    1    2    0    0  0.00000000000E+00  0.00000000000E+00  0.15702452625E+04  0.23997314906E+04  0.18146738117E+04 0.  0.
        1    1    3    3  502    0  0.76673754895E+03 -0.21645170755E+03  0.13592993992E+04  0.15755737582E+04  0.50400001928E-02 0.  1.
       -1    1    3    3    0  502 -0.76673754895E+03  0.21645170755E+03  0.21094586323E+03  0.82415773242E+03  0.50400001928E-02 0. -1.
</event>
<event>
 5   0  0.1886323E-04  0.2095254E+04  0.7818609E-02  0.8563337E-01
       -2   -1    0    0    0  501  0.00000000000E+00  0.00000000000E+00  0.95323365027E+03  0.95323365027E+03  0.25500000920E-02 0. -1.
        2   -1    0    0  501    0  0.00000000000E+00  0.00000000000E+00 -0.11513673691E+04  0.11513673691E+04  0.25500000920E-02 0.  1.
    10030    2    1    2    0    0  0.00000000000E+00  0.00000000000E+00 -0.19813371882E+03  0.21046010194E+04  0.20952537985E+04 0.  0.
        2    1    3    3  502    0  0.92377501247E+03 -0.36226758627E+03 -0.43660771568E+03  0.10840776610E+04  0.25500000920E-02 0.  1.
       -2    1    3    3    0  502 -0.92377501247E+03  0.36226758627E+03  0.23847399686E+03  0.10205233583E+04  0.25500000920E-02 0. -1.
</event>
<event>
 5   0  0.8237966E-05  0.1925323E+04  0.7818609E-02  0.8642353E-01
       -1   -1    0    0    0  501  0.00000000000E+00  0.00000000000E+00  0.67515369353E+03  0.67515369355E+03  0.50400001928E-02 0. -1.
        1   -1    0    0  501    0  0.00000000000E+00  0.00000000000E+00 -0.13726014668E+04  0.13726014668E+04  0.50400001928E-02 0.  1.
    10030    2    1    2    0    0  0.00000000000E+00  0.00000000000E+00 -0.69744777327E+03  0.20477551604E+04  0.19253227782E+04 0.  0.
        1    1    3    3  502    0 -0.32097836584E+03 -0.13804987059E+03 -0.13027783106E+04  0.13488203011E+04  0.50400001928E-02 0.  1.
       -1    1    3    3    0  502  0.32097836584E+03  0.13804987059E+03  0.60533053730E+03  0.69893485928E+03  0.50400001928E-02 0. -1.
</event>
<event>
 5   0  0.1810875E-04  0.2104495E+04  0.7818609E-02  0.8559266E-01
        2   -1    0    0  501    0  0.00000000000E+00  0.00000000000E+00  0.93785864855E+03  0.93785864855E+03  0.25500000920E-02 0. -1.
       -2   -1    0    0    0  501  0.00000000000E+00  0.00000000000E+00 -0.11805881733E+04  0.11805881733E+04  0.25500000920E-02 0.  1.
    10030    2    1    2    0    0  0.00000000000E+00  0.00000000000E+00 -0.24272952479E+03  0.21184468219E+04  0.21044950261E+04 0.  0.
        1    1    3    3  502    0 -0.46874387915E+03 -0.25028605684E+03  0.79287481998E+03  0.95447075108E+03  0.50400001928E-02 0. -1.
       -1    1    3    3    0  502  0.46874387915E+03  0.25028605684E+03 -0.10356043448E+04  0.11639760708E+04  0.50400001928E-02 0.  1.
</event>
<event>
 5   0  0.1777590E-04  0.1968759E+04  0.7818609E-02  0.8621368E-01
        2   -1    0    0  501    0  0.00000000000E+00  0.00000000000E+00  0.20163617868E+04  0.20163617868E+04  0.25500000920E-02 0. -1.
       -2   -1    0    0    0  501  0.00000000000E+00  0.00000000000E+00 -0.48056976909E+03  0.48056976909E+03  0.25500000920E-02 0.  1.
    10030    2    1    2    0    0  0.00000000000E+00  0.00000000000E+00  0.15357920177E+04  0.24969315559E+04  0.19687585106E+04 0.  0.
        4    1    3    3  502    0 -0.26445798984E+03 -0.33810066683E+03  0.18914141194E+04  0.19395100086E+04  0.12699999809E+01 0. -1.
       -4    1    3    3    0  502  0.26445798984E+03  0.33810066683E+03 -0.35562210170E+03  0.55742154733E+03  0.12699999809E+01 0.  1.
</event>
<event>
 5   0  0.1815400E-04  0.2125655E+04  0.7818609E-02  0.8550026E-01
       -2   -1    0    0    0  501  0.00000000000E+00  0.00000000000E+00  0.73508695808E+03  0.73508695809E+03  0.25500000920E-02 0.  1.
        2   -1    0    0  501    0  0.00000000000E+00  0.00000000000E+00 -0.15366920033E+04  0.15366920033E+04  0.25500000920E-02 0. -1.
    10030    2    1    2    0    0  0.00000000000E+00  0.00000000000E+00 -0.80160504522E+03  0.22717789614E+04  0.21256549581E+04 0.  0.
        3    1    3    3  502    0 -0.91356727590E+03 -0.25088123673E+02  0.17905106677E+03  0.93128614092E+03  0.10100000352E+00 0.  1.
       -3    1    3    3    0  502  0.91356727590E+03  0.25088123673E+02 -0.98065611199E+03  0.13404928205E+04  0.10100000352E+00 0. -1.
</event>
<event>
 5   0  0.8486612E-05  0.2066656E+04  0.7818609E-02  0.8576076E-01
        1   -1    0    0  501    0  0.00000000000E+00  0.00000000000E+00  0.10624655029E+04  0.10624655029E+04  0.50400001928E-02 0. -1.
       -1   -1    0    0    0  501  0.00000000000E+00  0.00000000000E+00 -0.10049891373E+04  0.10049891373E+04  0.50400001928E-02 0.  1.
    10030    2    1    2    0    0  0.00000000000E+00  0.00000000000E+00  0.57476365573E+02  0.20674546402E+04  0.20666555486E+04 0.  0.
        5    1    3    3  502    0  0.37558904952E+02  0.10273015013E+04  0.13358879014E+03  0.10366422241E+04  0.46999998093E+01 0. -1.
       -5    1    3    3    0  502 -0.37558904952E+02 -0.10273015013E+04 -0.76112424566E+02  0.10308124161E+04  0.46999998093E+01 0.  1.
</event>
<event>
 5   0  0.8271069E-05  0.2045637E+04  0.7818609E-02  0.8585576E-01
       -1   -1    0    0    0  501  0.00000000000E+00  0.00000000000E+00  0.81325087800E+03  0.81325087801E+03  0.50400001928E-02 0. -1.
        1   -1    0    0  501    0  0.00000000000E+00  0.00000000000E+00 -0.12863903369E+04  0.12863903369E+04  0.50400001928E-02 0.  1.
    10030    2    1    2    0    0  0.00000000000E+00  0.00000000000E+00 -0.47313945888E+03  0.20996412149E+04  0.20456373784E+04 0.  0.
        2    1    3    3  502    0  0.98701500032E+03 -0.26646223449E+03 -0.20481203171E+03  0.10426642324E+04  0.25500000920E-02 0. -1.
       -2    1    3    3    0  502 -0.98701500032E+03  0.26646223449E+03 -0.26832742717E+03  0.10569769825E+04  0.25500000920E-02 0.  1.
</event>
<event>
 5   0  0.1810875E-04  0.2085946E+04  0.7818609E-02  0.8567460E-01
       -2   -1    0    0    0  501  0.00000000000E+00  0.00000000000E+00  0.24131486353E+04  0.24131486353E+04  0.25500000920E-02 0. -1.
        2   -1    0    0  501    0  0.00000000000E+00  0.00000000000E+00 -0.45077714613E+03  0.45077714614E+03  0.25500000920E-02 0.  1.
    10030    2    1    2    0    0  0.00000000000E+00  0.00000000000E+00  0.19623714892E+04  0.28639257814E+04  0.20859455938E+04 0.  0.
        1    1    3    3  502    0 -0.98388249949E+03 -0.22379261511E+03  0.61875385651E+03  0.11836233532E+04  0.50400001928E-02 0. -1.
       -1    1    3    3    0  502  0.98388249949E+03  0.22379261511E+03  0.13436176327E+04  0.16803024282E+04  0.50400001928E-02 0.  1.
</event>
<event>
 5   0  0.1777590E-04  0.2122638E+04  0.7818609E-02  0.8551336E-01
        2   -1    0    0  501    0  0.00000000000E+00  0.00000000000E+00  0.13164191885E+04  0.13164191886E+04  0.25500000920E-02 0. -1.
       -2   -1    0    0    0  501  0.00000000000E+00  0.00000000000E+00 -0.85565268530E+03  0.85565268530E+03  0.25500000920E-02 0.  1.
    10030    2    1    2    0    0  0.00000000000E+00  0.00000000000E+00  0.46076650325E+03  0.21720718739E+04  0.21226376174E+04 0.  0.
        4    1    3    3  502    0 -0.15434269875E+03 -0.41994397583E+03 -0.75443420551E+03  0.87712438961E+03  0.12699999809E+01 0.  1.
       -4    1    3    3    0  502  0.15434269875E+03  0.41994397583E+03  0.12152007088E+04  0.12949474843E+04  0.12699999809E+01 0. -1.
</event>
<event>
 5   0  0.1815400E-04  0.2193978E+04  0.7818609E-02  0.8520939E-01
       -2   -1    0    0    0  501  0.00000000000E+00  0.00000000000E+00  0.10643165612E+04  0.10643165612E+04  0.25500000920E-02 0. -1.
        2   -1    0    0  501    0  0.00000000000E+00  0.00000000000E+00 -0.11306639838E+04  0.11306639838E+04  0.25500000920E-02 0.  1.
    10030    2    1    2    0    0  0.00000000000E+00  0.00000000000E+00 -0.66347422544E+02  0.21949805450E+04  0.21939775780E+04 0.  0.
        3    1    3    3  502    0  0.83742456156E+03  0.41910929591E+03 -0.60479459526E+03  0.11147685907E+04  0.10100000352E+00 0.  1.
       -3    1    3    3    0  502 -0.83742456156E+03 -0.41910929591E+03  0.53844717272E+03  0.10802119543E+04  0.10100000352E+00 0. -1.
</event>
<event>
 5   0  0.8237966E-05  0.2091087E+04  0.7818609E-02  0.8565180E-01
       -1   -1    0    0    0  501  0.00000000000E+00  0.00000000000E+00  0.78444131242E+03  0.78444131243E+03  0.50400001928E-02 0.  1.
        1   -1    0    0  501    0  0.00000000000E+00  0.00000000000E+00 -0.13935533946E+04  0.13935533946E+04  0.50400001928E-02 0. -1.
    10030    2    1    2    0    0  0.00000000000E+00  0.00000000000E+00 -0.60911208218E+03  0.21779947070E+04  0.20910866590E+04 0.  0.
        1    1    3    3  502    0  0.56643256793E+03  0.47521276230E+01 -0.12198817783E+04  0.13449832675E+04  0.50400001928E-02 0. -1.
       -1    1    3    3    0  502 -0.56643256793E+03 -0.47521276230E+01  0.61076969612E+03  0.83301143957E+03  0.50400001928E-02 0.  1.
</event>
<event>
 5   0  0.1886323E-04  0.2141348E+04  0.7818609E-02  0.8543245E-01
        2   -1    0    0  501    0  0.00000000000E+00  0.00000000000E+00  0.79609169216E+03  0.79609169217E+03  0.25500000920E-02 0. -1.
       -2   -1    0    0    0  501  0.00000000000E+00  0.00000000000E+00 -0.14399635645E+04  0.14399635645E+04  0.25500000920E-02 0.  1.
    10030    2    1    2    0    0  0.00000000000E+00  0.00000000000E+00 -0.64387187232E+03  0.22360552567E+04  0.21413482021E+04 0.  0.
        2    1    3    3  502    0 -0.29377390332E+03 -0.76505218077E+03 -0.10414195427E+04  0.13252028560E+04  0.25500000920E-02 0. -1.
       -2    1    3    3    0  502  0.29377390332E+03  0.76505218077E+03  0.39754767039E+03  0.91085240067E+03  0.25500000920E-02 0.  1.
</event>
<event>
 5   0  0.8237966E-05  0.2015720E+04  0.7818609E-02  0.8599306E-01
        1   -1    0    0  501    0  0.00000000000E+00  0.00000000000E+00  0.93385547621E+03  0.93385547623E+03  0.50400001928E-02 0. -1.
       -1   -1    0    0    0  501  0.00000000000E+00  0.00000000000E+00 -0.10877293679E+04  0.10877293679E+04  0.50400001928E-02 0.  1.
    10030    2    1    2    0    0  0.00000000000E+00  0.00000000000E+00 -0.15387389166E+03  0.20215848441E+04  0.20157202453E+04 0.  0.
        1    1    3    3  502    0  0.72840299533E+03  0.67575477572E+03 -0.24644521450E+03  0.10236946245E+04  0.50400001928E-02 0. -1.
       -1    1    3    3    0  502 -0.72840299533E+03 -0.67575477572E+03  0.92571322839E+02  0.99789021959E+03  0.50400001928E-02 0.  1.
</event>
<event>
 5   0  0.8271069E-05  0.2070067E+04  0.7818609E-02  0.8574545E-01
       -1   -1    0    0    0  501  0.00000000000E+00  0.00000000000E+00  0.42403103998E+03  0.42403104001E+03  0.50400001928E-02 0.  1.
        1   -1    0    0  501    0  0.00000000000E+00  0.00000000000E+00 -0.25264534695E+04  0.25264534695E+04  0.50400001928E-02 0. -1.
    10030    2    1    2    0    0  0.00000000000E+00  0.00000000000E+00 -0.21024224296E+04  0.29504845095E+04  0.20700673344E+04 0.  0.
        2    1    3    3  502    0  0.46899182916E+02  0.82426481264E+03 -0.16146854871E+03  0.84123962516E+03  0.25500000920E-02 0.  1.
       -2    1    3    3    0  502 -0.46899182916E+02 -0.82426481264E+03 -0.19409538809E+04  0.21092448844E+04  0.25500000920E-02 0. -1.
</event>
<event>
 5   0  0.1921687E-04  0.2001311E+04  0.7818609E-02  0.8606008E-01
       -2   -1    0    0    0  501  0.00000000000E+00  0.00000000000E+00  0.54731696005E+03  0.54731696005E+03  0.25500000920E-02 0.  1.
        2   -1    0    0  501    0  0.00000000000E+00  0.00000000000E+00 -0.18294908043E+04  0.18294908043E+04  0.25500000920E-02 0. -1.
    10030    2    1    2    0    0  0.00000000000E+00  0.00000000000E+00 -0.12821738443E+04  0.23768077644E+04  0.20013109159E+04 0.  0.
        5    1    3    3  502    0 -0.93409137929E+03  0.20391035902E+03 -0.29041928491E+03  0.99923550298E+03  0.46999998093E+01 0.  1.
       -5    1    3    3    0  502  0.93409137929E+03 -0.20391035902E+03 -0.99175455938E+03  0.13775722614E+04  0.46999998093E+01 0. -1.
</event>
<event>
 5   0  0.8237966E-05  0.2214556E+04  0.7818609E-02  0.8512394E-01
        1   -1    0    0  501    0  0.00000000000E+00  0.00000000000E+00  0.14171938908E+04  0.14171938908E+04  0.50400001928E-02 0.  1.
       -1   -1    0    0    0  501  0.00000000000E+00  0.00000000000E+00 -0.86513571483E+03  0.86513571485E+03  0.50400001928E-02 0. -1.
    10030    2    1    2    0    0  0.00000000000E+00  0.00000000000E+00  0.55205817598E+03  0.22823296057E+04  0.22145564340E+04 0.  0.
        1    1    3    3  502    0 -0.74093039221E+03 -0.20396623057E+03  0.10975984916E+04  0.13398889947E+04  0.50400001928E-02 0.  1.
       -1    1    3    3    0  502  0.74093039221E+03  0.20396623057E+03 -0.54554031559E+03  0.94244061100E+03  0.50400001928E-02 0. -1.
</event>
<event>
 5   0  0.1777590E-04  0.2136963E+04  0.7818609E-02  0.8545133E-01
        2   -1    0    0  501    0  0.00000000000E+00  0.00000000000E+00  0.55887531154E+03  0.55887531155E+03  0.25500000920E-02 0.  1.
       -2   -1    0    0    0  501  0.00000000000E+00  0.00000000000E+00 -0.20427690203E+04  0.20427690203E+04  0.25500000920E-02 0. -1.
    10030    2    1    2    0    0  0.00000000000E+00  0.00000000000E+00 -0.14838937088E+04  0.26016443319E+04  0.21369634275E+04 0.  0.
        4    1    3    3  502    0  0.17665877523E+03  0.58302189750E+03  0.32672715087E+03  0.69128510750E+03  0.12699999809E+01 0.  1.
       -4    1    3    3    0  502 -0.17665877523E+03 -0.58302189750E+03 -0.18106208596E+04  0.19103592244E+04  0.12699999809E+01 0. -1.
</event>
<event>
 5   0  0.6441125E-05  0.2097169E+04  0.7818609E-02  0.8562492E-01
        3   -1    0    0  501    0  0.00000000000E+00  0.00000000000E+00  0.18601884422E+04  0.18601884450E+04  0.10100000352E+00 0.  1.
       -3   -1    0    0    0  501  0.00000000000E+00  0.00000000000E+00 -0.59108484458E+03  0.59108485321E+03  0.10100000352E+00 0. -1.
    10030    2    1    2    0    0  0.00000000000E+00  0.00000000000E+00  0.12691035976E+04  0.24512732982E+04  0.20971687678E+04 0.  0.
        4    1    3    3  502    0 -0.92756257538E+03  0.92560908959E+02  0.11958277874E+04  0.15162274114E+04  0.12699999809E+01 0. -1.
       -4    1    3    3    0  502  0.92756257538E+03 -0.92560908959E+02  0.73275810280E+02  0.93504588678E+03  0.12699999809E+01 0.  1.
</event>
<event>
 5   0  0.1815400E-04  0.2087226E+04  0.7818609E-02  0.8566891E-01
        2   -1    0    0  501    0  0.00000000000E+00  0.00000000000E+00  0.99249045405E+03  0.99249045405E+03  0.25500000920E-02 0. -1.
       -2   -1    0    0    0  501  0.00000000000E+00  0.00000000000E+00 -0.10973693603E+04  0.10973693603E+04  0.25500000920E-02 0.  1.
    10030    2    1    2    0    0  0.00000000000E+00  0.00000000000E+00 -0.10487890623E+03  0.20898598143E+04  0.20872264991E+04 0.  0.
        3    1    3    3  502    0  0.46662061906E+03 -0.25928183060E+03  0.84544536260E+03  0.99986986211E+03  0.10100000352E+00 0. -1.
       -3    1    3    3    0  502 -0.46662061906E+03  0.25928183060E+03 -0.95032426884E+03  0.10899899522E+04  0.10100000352E+00 0.  1.
</event>
<event>
 5   0  0.1815400E-04  0.2108482E+04  0.7818609E-02  0.8557516E-01
       -2   -1    0    0    0  501  0.00000000000E+00  0.00000000000E+00  0.71040476331E+03  0.71040476331E+03  0.25500000920E-02 0. -1.
        2   -1    0    0  501    0  0.00000000000E+00  0.00000000000E+00 -0.15644938313E+04  0.15644938313E+04  0.25500000920E-02 0.  1.
    10030    2    1    2    0    0  0.00000000000E+00  0.00000000000E+00 -0.85408906801E+03  0.22748985946E+04  0.21084817950E+04 0.  0.
        3    1    3    3  502    0  0.89384643880E+03  0.39119853419E+03 -0.85784078196E+03  0.12991876565E+04  0.10100000352E+00 0.  1.
       -3    1    3    3    0  502 -0.89384643880E+03 -0.39119853419E+03  0.37517139466E+01  0.97571093817E+03  0.10100000352E+00 0. -1.
</event>
<event>
 5   0  0.8755004E-05  0.2107208E+04  0.7818609E-02  0.8558075E-01
        1   -1    0    0  501    0  0.00000000000E+00  0.00000000000E+00  0.16339862385E+04  0.16339862385E+04  0.50400001928E-02 0. -1.
       -1   -1    0    0    0  501  0.00000000000E+00  0.00000000000E+00 -0.67936979808E+03  0.67936979810E+03  0.50400001928E-02 0.  1.
    10030    2    1    2    0    0  0.00000000000E+00  0.00000000000E+00  0.95461644038E+03  0.23133560366E+04  0.21072075369E+04 0.  0.
        3    1    3    3  502    0 -0.71325512124E+02 -0.74025190422E+03 -0.34204436182E+03  0.81856860802E+03  0.10100000352E+00 0.  1.
       -3    1    3    3    0  502  0.71325512124E+02  0.74025190422E+03  0.12966608022E+04  0.14947874286E+04  0.10100000352E+00 0. -1.
</event>
<event>
 5   0  0.1886323E-04  0.2164286E+04  0.7818609E-02  0.8533442E-01
        2   -1    0    0  501    0  0.00000000000E+00  0.00000000000E+00  0.26384204784E+04  0.26384204784E+04  0.25500000920E-02 0. -1.
       -2   -1    0    0    0  501  0.00000000000E+00  0.00000000000E+00 -0.44383865517E+03  0.44383865517E+03  0.25500000920E-02 0.  1.
    10030    2    1    2    0    0  0.00000000000E+00  0.00000000000E+00  0.21945818232E+04  0.30822591336E+04  0.21642855606E+04 0.  0.
        2    1    3    3  502    0 -0.22940802421E+03  0.10169438870E+04  0.68396921056E+03  0.12468427294E+04  0.25500000920E-02 0.  1.
       -2    1    3    3    0  502  0.22940802421E+03 -0.10169438870E+04  0.15106126127E+04  0.18354164041E+04  0.25500000920E-02 0. -1.
</event>
<event>
 5   0  0.1777590E-04  0.2099610E+04  0.7818609E-02  0.8561415E-01
        2   -1    0    0  501    0  0.00000000000E+00  0.00000000000E+00  0.75821575635E+03  0.75821575635E+03  0.25500000920E-02 0.  1.
       -2   -1    0    0    0  501  0.00000000000E+00  0.00000000000E+00 -0.14535316803E+04  0.14535316803E+04  0.25500000920E-02 0. -1.
    10030    2    1    2    0    0  0.00000000000E+00  0.00000000000E+00 -0.69531592399E+03  0.22117474367E+04  0.20996100804E+04 0.  0.
        4    1    3    3  502    0 -0.56415728656E+02 -0.77686182605E+03 -0.10890900342E+04  0.13389606964E+04  0.12699999809E+01 0. -1.
       -4    1    3    3    0  502  0.56415728656E+02  0.77686182605E+03  0.39377411017E+03  0.87278674025E+03  0.12699999809E+01 0.  1.
</event>
<event>
 5   0  0.1777590E-04  0.2066664E+04  0.7818609E-02  0.8576072E-01
       -2   -1    0    0    0  501  0.00000000000E+00  0.00000000000E+00  0.13926689398E+04  0.13926689398E+04  0.25500000920E-02 0.  1.
        2   -1    0    0  501    0  0.00000000000E+00  0.00000000000E+00 -0.76671107299E+03  0.76671107299E+03  0.25500000920E-02 0. -1.
    10030    2    1    2    0    0  0.00000000000E+00  0.00000000000E+00  0.62595786680E+03  0.21593800128E+04  0.20666636854E+04 0.  0.
        4    1    3    3  502    0 -0.33255675372E+02 -0.10307221637E+04  0.38132738271E+03  0.10995027532E+04  0.12699999809E+01 0.  1.
       -4    1    3    3    0  502  0.33255675372E+02  0.10307221637E+04  0.24463048409E+03  0.10598772595E+04  0.12699999809E+01 0. -1.
</event>
<event>
 5   0  0.8525278E-05  0.2100936E+04  0.7818609E-02  0.8560831E-01
        1   -1    0    0  501    0  0.00000000000E+00  0.00000000000E+00  0.89177991517E+03  0.89177991518E+03  0.50400001928E-02 0.  1.
       -1   -1    0    0    0  501  0.00000000000E+00  0.00000000000E+00 -0.12373936420E+04  0.12373936421E+04  0.50400001928E-02 0. -1.
    10030    2    1    2    0    0  0.00000000000E+00  0.00000000000E+00 -0.34561372688E+03  0.21291735572E+04  0.21009357888E+04 0.  0.
        4    1    3    3  502    0  0.70373679536E+03  0.67699468157E+03 -0.56519805333E+03  0.11282808730E+04  0.12699999809E+01 0. -1.
       -4    1    3    3    0  502 -0.70373679536E+03 -0.67699468157E+03  0.21958432645E+03  0.10008926842E+04  0.12699999809E+01 0.  1.
</event>
<event>
 5   0  0.8486612E-05  0.2032859E+04  0.7818609E-02  0.8591410E-01
       -1   -1    0    0    0  501  0.00000000000E+00  0.00000000000E+00  0.49690979042E+03  0.49690979045E+03  0.50400001928E-02 0. -1.
        1   -1    0    0  501    0  0.00000000000E+00  0.00000000000E+00 -0.20791072207E+04  0.20791072207E+04  0.50400001928E-02 0.  1.
    10030    2    1    2    0    0  0.00000000000E+00  0.00000000000E+00 -0.15821974303E+04  0.25760170111E+04  0.20328588080E+04 0.  0.
        5    1    3    3  502    0 -0.53979048965E+03 -0.81193550390E+03 -0.11550570425E+04  0.15115528097E+04  0.46999998093E+01 0.  1.
       -5    1    3    3    0  502  0.53979048965E+03  0.81193550390E+03 -0.42714038777E+03  0.10644642014E+04  0.46999998093E+01 0. -1.
</event>
<event>
 5   0  0.8237966E-05  0.2109935E+04  0.7818609E-02  0.8556880E-01
       -1   -1    0    0    0  501  0.00000000000E+00  0.00000000000E+00  0.73074481734E+03  0.73074481736E+03  0.50400001928E-02 0.  1.
        1   -1    0    0  501    0  0.00000000000E+00  0.00000000000E+00 -0.15230438727E+04  0.15230438727E+04  0.50400001928E-02 0. -1.
    10030    2    1    2    0    0  0.00000000000E+00  0.00000000000E+00 -0.79229905534E+03  0.22537886901E+04  0.21099349910E+04 0.  0.
        1    1    3    3  502    0  0.31747183972E+03  0.41293011894E+03 -0.13761169305E+04  0.14713930334E+04  0.50400001928E-02 0. -1.
       -1    1    3    3    0  502 -0.31747183972E+03 -0.41293011894E+03  0.58381787520E+03  0.78239565667E+03  0.50400001928E-02 0.  1.
</event>
<event>
 5   0  0.8525278E-05  0.2110379E+04  0.7818609E-02  0.8556685E-01
       -1   -1    0    0    0  501  0.00000000000E+00  0.00000000000E+00  0.67402499921E+03  0.67402499923E+03  0.50400001928E-02 0.  1.
        1   -1    0    0  501    0  0.00000000000E+00  0.00000000000E+00 -0.16519049710E+04  0.16519049710E+04  0.50400001928E-02 0. -1.
    10030    2    1    2    0    0  0.00000000000E+00  0.00000000000E+00 -0.97787997181E+03  0.23259299702E+04  0.21103793468E+04 0.  0.
        4    1    3    3  502    0 -0.16031436779E+03 -0.10213164719E+04 -0.72179028645E+03  0.12608611592E+04  0.12699999809E+01 0. -1.
       -4    1    3    3    0  502  0.16031436779E+03  0.10213164719E+04 -0.25608968536E+03  0.10650688110E+04  0.12699999809E+01 0.  1.
</event>
<event>
 5   0  0.8237966E-05  0.2098465E+04  0.7818609E-02  0.8561920E-01
       -1   -1    0    0    0  501  0.00000000000E+00  0.00000000000E+00  0.10263453616E+04  0.10263453616E+04  0.50400001928E-02 0. -1.
        1   -1    0    0  501    0  0.00000000000E+00  0.00000000000E+00 -0.10726304991E+04  0.10726304991E+04  0.50400001928E-02 0.  1.
    10030    2    1    2    0    0  0.00000000000E+00  0.00000000000E+00 -0.46285137465E+02  0.20989758607E+04  0.20984654750E+04 0.  0.
        1    1    3    3  502    0  0.31687535109E+03 -0.65859285356E+03 -0.77614357593E+03  0.10660925782E+04  0.50400001928E-02 0.  1.
       -1    1    3    3    0  502 -0.31687535109E+03  0.65859285356E+03  0.72985843846E+03  0.10328832824E+04  0.50400001928E-02 0. -1.
</event>
<event>
 5   0  0.1886323E-04  0.2117521E+04  0.7818609E-02  0.8553564E-01
       -2   -1    0    0    0  501  0.00000000000E+00  0.00000000000E+00  0.57799215563E+03  0.57799215564E+03  0.25500000920E-02 0.  1.
        2   -1    0    0  501    0  0.00000000000E+00  0.00000000000E+00 -0.19394279655E+04  0.19394279655E+04  0.25500000920E-02 0. -1.
    10030    2    1    2    0    0  0.00000000000E+00  0.00000000000E+00 -0.13614358099E+04  0.25174201211E+04  0.21175213345E+04 0.  0.
        2    1    3    3  502    0 -0.10423445832E+04 -0.56639307452E+02 -0.89099327833E+03  0.13724282361E+04  0.25500000920E-02 0. -1.
       -2    1    3    3    0  502  0.10423445832E+04  0.56639307452E+02 -0.47044253152E+03  0.11449918850E+04  0.25500000920E-02 0.  1.
</event>
<event>
 5   0  0.8525278E-05  0.1993309E+04  0.7818609E-02  0.8609755E-01
        1   -1    0    0  501    0  0.00000000000E+00  0.00000000000E+00  0.97306591965E+03  0.97306591967E+03  0.50400001928E-02 0. -1.
       -1   -1    0    0    0  501  0.00000000000E+00  0.00000000000E+00 -0.10208149124E+04  0.10208149124E+04  0.50400001928E-02 0.  1.
    10030    2    1    2    0    0  0.00000000000E+00  0.00000000000E+00 -0.47748992762E+02  0.19938808321E+04  0.19933090092E+04 0.  0.
        4    1    3    3  502    0  0.80897165672E+03  0.39283765562E+03 -0.45360456264E+03  0.10072314914E+04  0.12699999809E+01 0.  1.
       -4    1    3    3    0  502 -0.80897165672E+03 -0.39283765562E+03  0.40585556988E+03  0.98664934073E+03  0.12699999809E+01 0. -1.
</event>
<event>
 5   0  0.1777590E-04  0.2090702E+04  0.7818609E-02  0.8565350E-01
        2   -1    0    0  501    0  0.00000000000E+00  0.00000000000E+00  0.13877311014E+04  0.13877311014E+04  0.25500000920E-02 0. -1.
       -2   -1    0    0    0  501  0.00000000000E+00  0.00000000000E+00 -0.78744291480E+03  0.78744291480E+03  0.25500000920E-02 0.  1.
    10030    2    1    2    0    0  0.00000000000E+00  0.00000000000E+00  0.60028818660E+03  0.21751740162E+04  0.20907022968E+04 0.  0.
        4    1    3    3  502    0  0.75708710488E+03  0.59164601231E+03  0.72852197725E+03  0.12058075188E+04  0.12699999809E+01 0. -1.
       -4    1    3    3    0  502 -0.75708710488E+03 -0.59164601231E+03 -0.12823379065E+03  0.96936649737E+03  0.12699999809E+01 0.  1.
</event>
<event>
 5   0  0.8237966E-05  0.2036937E+04  0.7818609E-02  0.8589543E-01
        1   -1    0    0  501    0  0.00000000000E+00  0.00000000000E+00  0.66419399262E+03  0.66419399263E+03  0.50400001928E-02 0.  1.
       -1   -1    0    0    0  501  0.00000000000E+00  0.00000000000E+00 -0.15617098343E+04  0.15617098343E+04  0.50400001928E-02 0. -1.
    10030    2    1    2    0    0  0.00000000000E+00  0.00000000000E+00 -0.89751584172E+03  0.22259038270E+04  0.20369372010E+04 0.  0.
        1    1    3    3  502    0 -0.36908507348E+02 -0.36318815458E+03  0.59024190237E+03  0.69401251926E+03  0.50400001928E-02 0.  1.
       -1    1    3    3    0  502  0.36908507348E+02  0.36318815458E+03 -0.14877577441E+04  0.15318913077E+04  0.50400001928E-02 0. -1.
</event>
<event>
 5   0  0.8755004E-05  0.2091539E+04  0.7818609E-02  0.8564979E-01
       -1   -1    0    0    0  501  0.00000000000E+00  0.00000000000E+00  0.55394009954E+03  0.55394009956E+03  0.50400001928E-02 0. -1.
        1   -1    0    0  501    0  0.00000000000E+00  0.00000000000E+00 -0.19742826692E+04  0.19742826692E+04  0.50400001928E-02 0.  1.
    10030    2    1    2    0    0  0.00000000000E+00  0.00000000000E+00 -0.14203425696E+04  0.25282227687E+04  0.20915394697E+04 0.  0.
        3    1    3    3  502    0 -0.76255195788E+02 -0.10362584245E+04 -0.56720740564E+03  0.11837950111E+04  0.10100000352E+00 0. -1.
       -3    1    3    3    0  502  0.76255195788E+02  0.10362584245E+04 -0.85313516399E+03  0.13444277576E+04  0.10100000352E+00 0.  1.
</event>
<event>
 5   0  0.1886323E-04  0.2017680E+04  0.7818609E-02  0.8598399E-01
        2   -1    0    0  501    0  0.00000000000E+00  0.00000000000E+00  0.10606590909E+04  0.10606590909E+04  0.25500000920E-02 0.  1.
       -2   -1    0    0    0  501  0.00000000000E+00  0.00000000000E+00 -0.95955217550E+03  0.95955217550E+03  0.25500000920E-02 0. -1.
    10030    2    1    2    0    0  0.00000000000E+00  0.00000000000E+00  0.10110691542E+03  0.20202112664E+04  0.20176795961E+04 0.  0.
        2    1    3    3  502    0 -0.78802246469E+03  0.39811408620E+03  0.53930886910E+03  0.10345667145E+04  0.25500000920E-02 0.  1.
       -2    1    3    3    0  502  0.78802246469E+03 -0.39811408620E+03 -0.43820195368E+03  0.98564455191E+03  0.25500000920E-02 0. -1.
</event>
<event>
 5   0  0.1815400E-04  0.2101138E+04  0.7818609E-02  0.8560742E-01
        2   -1    0    0  501    0  0.00000000000E+00  0.00000000000E+00  0.20312139230E+04  0.20312139230E+04  0.25500000920E-02 0. -1.
       -2   -1    0    0    0  501  0.00000000000E+00  0.00000000000E+00 -0.54336749187E+03  0.54336749187E+03  0.25500000920E-02 0.  1.
    10030    2    1    2    0    0  0.00000000000E+00  0.00000000000E+00  0.14878464312E+04  0.25745814149E+04  0.21011383722E+04 0.  0.
        3    1    3    3  502    0 -0.53815811724E+03 -0.10320652516E+03  0.18422357996E+04  0.19220037715E+04  0.10100000352E+00 0. -1.
       -3    1    3    3    0  502  0.53815811724E+03  0.10320652516E+03 -0.35438936847E+03  0.65257764341E+03  0.10100000352E+00 0.  1.
</event>
<event>
 5   0  0.1921687E-04  0.2114826E+04  0.7818609E-02  0.8554740E-01
       -2   -1    0    0    0  501  0.00000000000E+00  0.00000000000E+00  0.10442360352E+04  0.10442360352E+04  0.25500000920E-02 0.  1.
        2   -1    0    0  501    0  0.00000000000E+00  0.00000000000E+00 -0.10707566710E+04  0.10707566710E+04  0.25500000920E-02 0. -1.
    10030    2    1    2    0    0  0.00000000000E+00  0.00000000000E+00 -0.26520635785E+02  0.21149927062E+04  0.21148264239E+04 0.  0.
        5    1    3    3  502    0 -0.54291954868E+03 -0.11924948780E+03 -0.91284120704E+03  0.10687765136E+04  0.46999998093E+01 0. -1.
       -5    1    3    3    0  502  0.54291954868E+03  0.11924948780E+03  0.88632057126E+03  0.10462161926E+04  0.46999998093E+01 0.  1.
</event>
<event>
 5   0  0.8525278E-05  0.2094118E+04  0.7818609E-02  0.8563839E-01
       -1   -1    0    0    0  501  0.00000000000E+00  0.00000000000E+00  0.67393236685E+03  0.67393236687E+03  0.50400001928E-02 0. -1.
        1   -1    0    0  501    0  0.00000000000E+00  0.00000000000E+00 -0.16267696533E+04  0.16267696533E+04  0.50400001928E-02 0.  1.
    10030    2    1    2    0    0  0.00000000000E+00  0.00000000000E+00 -0.95283728641E+03  0.23007020201E+04  0.20941181655E+04 0.  0.
        4    1    3    3  502    0  0.46863884793E+03 -0.34530274163E+03 -0.14326066053E+04  0.15463568966E+04  0.12699999809E+01 0.  1.
       -4    1    3    3    0  502 -0.46863884793E+03  0.34530274163E+03  0.47976931890E+03  0.75434512355E+03  0.12699999809E+01 0. -1.
</event>
<event>
 5   0  0.8237966E-05  0.1884857E+04  0.7818609E-02  0.8662431E-01
        1   -1    0    0  501    0  0.00000000000E+00  0.00000000000E+00  0.14326550550E+04  0.14326550551E+04  0.50400001928E-02 0.  1.
       -1   -1    0    0    0  501  0.00000000000E+00  0.00000000000E+00 -0.61994777083E+03  0.61994777085E+03  0.50400001928E-02 0. -1.
    10030    2    1    2    0    0  0.00000000000E+00  0.00000000000E+00  0.81270728422E+03  0.20526028259E+04  0.18848568198E+04 0.  0.
        1    1    3    3  502    0 -0.90081245111E+03 -0.25110027411E+03  0.27909056166E+03  0.97591288616E+03  0.50400001928E-02 0.  1.
       -1    1    3    3    0  502  0.90081245111E+03  0.25110027411E+03  0.53361672255E+03  0.10766899397E+04  0.50400001928E-02 0. -1.
</event>
<event>
 5   0  0.8755004E-05  0.1819651E+04  0.7818609E-02  0.8695918E-01
       -1   -1    0    0    0  501  0.00000000000E+00  0.00000000000E+00  0.96656094150E+03  0.96656094151E+03  0.50400001928E-02 0.  1.
        1   -1    0    0  501    0  0.00000000000E+00  0.00000000000E+00 -0.85642044403E+03  0.85642044404E+03  0.50400001928E-02 0. -1.
    10030    2    1    2    0    0  0.00000000000E+00  0.00000000000E+00  0.11014049747E+03  0.18229813856E+04  0.18196511212E+04 0.  0.
        3    1    3    3  502    0  0.15851550611E+02 -0.90608855812E+03  0.13605626679E+03  0.91638368861E+03  0.10100000352E+00 0.  1.
       -3    1    3    3    0  502 -0.15851550611E+02  0.90608855812E+03 -0.25915769322E+02  0.90659769695E+03  0.10100000352E+00 0. -1.
</event>
<event>
 5   0  0.1815400E-04  0.2118321E+04  0.7818609E-02  0.8553216E-01
       -2   -1    0    0    0  501  0.00000000000E+00  0.00000000000E+00  0.10022671286E+04  0.10022671286E+04  0.25500000920E-02 0.  1.
        2   -1    0    0  501    0  0.00000000000E+00  0.00000000000E+00 -0.11192829678E+04  0.11192829678E+04  0.25500000920E-02 0. -1.
    10030    2    1    2    0    0  0.00000000000E+00  0.00000000000E+00 -0.11701583917E+03  0.21215500964E+04  0.21183205860E+04 0.  0.
        3    1    3    3  502    0  0.39127965351E+03 -0.69963701432E+03 -0.75182684948E+03  0.10990156236E+04  0.10100000352E+00 0. -1.
       -3    1    3    3    0  502 -0.39127965351E+03  0.69963701432E+03  0.63481101031E+03  0.10225344728E+04  0.10100000352E+00 0.  1.
</event>
<event>
 5   0  0.1886323E-04  0.2074441E+04  0.7818609E-02  0.8572587E-01
        2   -1    0    0  501    0  0.00000000000E+00  0.00000000000E+00  0.96940871697E+03  0.96940871697E+03  0.25500000920E-02 0.  1.
       -2   -1    0    0    0  501  0.00000000000E+00  0.00000000000E+00 -0.11097759257E+04  0.11097759257E+04  0.25500000920E-02 0. -1.
    10030    2    1    2    0    0  0.00000000000E+00  0.00000000000E+00 -0.14036720870E+03  0.20791846426E+04  0.20744410874E+04 0.  0.
        2    1    3    3  502    0  0.27926575064E+03  0.88623605081E+03  0.39176374093E+03  0.10084059331E+04  0.25500000920E-02 0.  1.
       -2    1    3    3    0  502 -0.27926575064E+03 -0.88623605081E+03 -0.53213094963E+03  0.10707787095E+04  0.25500000920E-02 0. -1.
</event>
<event>
 5   0  0.8271069E-05  0.2054405E+04  0.7818609E-02  0.8581598E-01
        1   -1    0    0  501    0  0.00000000000E+00  0.00000000000E+00  0.15174323041E+04  0.15174323041E+04  0.50400001928E-02 0.  1.
       -1   -1    0    0    0  501  0.00000000000E+00  0.00000000000E+00 -0.69534923278E+03  0.69534923280E+03  0.50400001928E-02 0. -1.
    10030    2    1    2    0    0  0.00000000000E+00  0.00000000000E+00  0.82208307135E+03  0.22127815369E+04  0.20544054016E+04 0.  0.
        2    1    3    3  502    0  0.54115910463E+03  0.10416814156E+03  0.13447254897E+04  0.14532690119E+04  0.25500000920E-02 0.  1.
       -2    1    3    3    0  502 -0.54115910463E+03 -0.10416814156E+03 -0.52264241836E+03  0.75951252506E+03  0.25500000920E-02 0. -1.
</event>
<event>
 5   0  0.8271069E-05  0.2074065E+04  0.7818609E-02  0.8572755E-01
       -1   -1    0    0    0  501  0.00000000000E+00  0.00000000000E+00  0.49626140587E+03  0.49626140589E+03  0.50400001928E-02 0.  1.
        1   -1    0    0  501    0  0.00000000000E+00  0.00000000000E+00 -0.21670766570E+04  0.21670766570E+04  0.50400001928E-02 0. -1.
    10030    2    1    2    0    0  0.00000000000E+00  0.00000000000E+00 -0.16708152511E+04  0.26633380629E+04  0.20740650987E+04 0.  0.
        2    1    3    3  502    0  0.36103154552E+03  0.34112485205E+03  0.33357900178E+03  0.59831838680E+03  0.25500000920E-02 0.  1.
       -2    1    3    3    0  502 -0.36103154552E+03 -0.34112485205E+03 -0.20043942529E+04  0.20650196761E+04  0.25500000920E-02 0. -1.
</event>
<event>
 5   0  0.1810875E-04  0.2061486E+04  0.7818609E-02  0.8578401E-01
       -2   -1    0    0    0  501  0.00000000000E+00  0.00000000000E+00  0.10700812123E+04  0.10700812123E+04  0.25500000920E-02 0. -1.
        2   -1    0    0  501    0  0.00000000000E+00  0.00000000000E+00 -0.99285131978E+03  0.99285131978E+03  0.25500000920E-02 0.  1.
    10030    2    1    2    0    0  0.00000000000E+00  0.00000000000E+00  0.77229892492E+02  0.20629325321E+04  0.20614863996E+04 0.  0.
        1    1    3    3  502    0 -0.91014386892E+03  0.13178346443E+03  0.50445498409E+03  0.10489058941E+04  0.50400001928E-02 0. -1.
       -1    1    3    3    0  502  0.91014386892E+03 -0.13178346443E+03 -0.42722509160E+03  0.10140266380E+04  0.50400001928E-02 0.  1.
</event>
<event>
 5   0  0.8755004E-05  0.2175583E+04  0.7818609E-02  0.8528660E-01
       -1   -1    0    0    0  501  0.00000000000E+00  0.00000000000E+00  0.12388246871E+04  0.12388246871E+04  0.50400001928E-02 0. -1.
        1   -1    0    0  501    0  0.00000000000E+00  0.00000000000E+00 -0.95517160019E+03  0.95517160020E+03  0.50400001928E-02 0.  1.
    10030    2    1    2    0    0  0.00000000000E+00  0.00000000000E+00  0.28365308693E+03  0.21939962873E+04  0.21755828265E+04 0.  0.
        3    1    3    3  502    0  0.67349680920E+03  0.57976372789E+03 -0.49083170142E+03  0.10152042659E+04  0.10100000352E+00 0.  1.
       -3    1    3    3    0  502 -0.67349680920E+03 -0.57976372789E+03  0.77448478836E+03  0.11787920214E+04  0.10100000352E+00 0. -1.
</event>
<event>
 5   0  0.1810875E-04  0.2038825E+04  0.7818609E-02  0.8588681E-01
        2   -1    0    0  501    0  0.00000000000E+00  0.00000000000E+00  0.94622361690E+03  0.94622361691E+03  0.25500000920E-02 0.  1.
       -2   -1    0    0    0  501  0.00000000000E+00  0.00000000000E+00 -0.10982623053E+04  0.10982623053E+04  0.25500000920E-02 0. -1.
    10030    2    1    2    0    0  0.00000000000E+00  0.00000000000E+00 -0.15203868839E+03  0.20444859222E+04  0.20388248878E+04 0.  0.
        1    1    3    3  502    0 -0.81672443757E+03  0.15275319239E+03 -0.66827706353E+03  0.10662863491E+04  0.50400001928E-02 0. -1.
       -1    1    3    3    0  502  0.81672443757E+03 -0.15275319239E+03  0.51623837514E+03  0.97819957305E+03  0.50400001928E-02 0.  1.
</event>
<event>
 5   0  0.8271069E-05  0.2056218E+04  0.7818609E-02  0.8580779E-01
        1   -1    0    0  501    0  0.00000000000E+00  0.00000000000E+00  0.92702439242E+03  0.92702439243E+03  0.50400001928E-02 0. -1.
       -1   -1    0    0    0  501  0.00000000000E+00  0.00000000000E+00 -0.11402161996E+04  0.11402161997E+04  0.50400001928E-02 0.  1.
    10030    2    1    2    0    0  0.00000000000E+00  0.00000000000E+00 -0.21319180723E+03  0.20672405921E+04  0.20562181107E+04 0.  0.
        2    1    3    3  502    0  0.19501240164E+02 -0.92736384698E+03  0.33920439794E+03  0.98764549644E+03  0.25500000920E-02 0. -1.
       -2    1    3    3    0  502 -0.19501240164E+02  0.92736384698E+03 -0.55239620517E+03  0.10795950956E+04  0.25500000920E-02 0.  1.
</event>
<event>
 5   0  0.8525278E-05  0.2106976E+04  0.7818609E-02  0.8558177E-01
        1   -1    0    0  501    0  0.00000000000E+00  0.00000000000E+00  0.10425081789E+04  0.10425081789E+04  0.50400001928E-02 0. -1.
       -1   -1    0    0    0  501  0.00000000000E+00  0.00000000000E+00 -0.10645830810E+04  0.10645830811E+04  0.50400001928E-02 0.  1.
    10030    2    1    2    0    0  0.00000000000E+00  0.00000000000E+00 -0.22074902107E+02  0.21070912600E+04  0.21069756232E+04 0.  0.
        4    1    3    3  502    0 -0.81176103772E+03 -0.56989349285E+03  0.34408819233E+03  0.10498251629E+04  0.12699999809E+01 0. -1.
       -4    1    3    3    0  502  0.81176103772E+03  0.56989349285E+03 -0.36616309444E+03  0.10572660971E+04  0.12699999809E+01 0.  1.
</event>
<event>
 5   0  0.1777590E-04  0.2205925E+04  0.7818609E-02  0.8515966E-01
        2   -1    0    0  501    0  0.00000000000E+00  0.00000000000E+00  0.19695765611E+04  0.19695765611E+04  0.25500000920E-02 0. -1.
       -2   -1    0    0    0  501  0.00000000000E+00  0.00000000000E+00 -0.61765874074E+03  0.61765874074E+03  0.25500000920E-02 0.  1.
    10030    2    1    2    0    0  0.00000000000E+00  0.00000000000E+00  0.13519178204E+04  0.25872353019E+04  0.22059249113E+04 0.  0.
        4    1    3    3  502    0  0.10028994731E+04  0.36670535306E+03  0.35210498222E+03  0.11243930365E+04  0.12699999809E+01 0. -1.
       -4    1    3    3    0  502 -0.10028994731E+04 -0.36670535306E+03  0.99981283816E+03  0.14628422654E+04  0.12699999809E+01 0.  1.
</event>
<event>
 5   0  0.1886323E-04  0.2178573E+04  0.7818609E-02  0.8527400E-01
       -2   -1    0    0    0  501  0.00000000000E+00  0.00000000000E+00  0.76315771688E+03  0.76315771688E+03  0.25500000920E-02 0. -1.
        2   -1    0    0  501    0  0.00000000000E+00  0.00000000000E+00 -0.15547838975E+04  0.15547838975E+04  0.25500000920E-02 0.  1.
    10030    2    1    2    0    0  0.00000000000E+00  0.00000000000E+00 -0.79162618058E+03  0.23179416143E+04  0.21785732298E+04 0.  0.
        2    1    3    3  502    0 -0.44085388288E+03 -0.83760018827E+03  0.17776481353E+03  0.96308179838E+03  0.25500000920E-02 0.  1.
       -2    1    3    3    0  502  0.44085388288E+03  0.83760018827E+03 -0.96939099411E+03  0.13548598160E+04  0.25500000920E-02 0. -1.
</event>
<event>
 5   0  0.8486612E-05  0.2098103E+04  0.7818609E-02  0.8562079E-01
        1   -1    0    0  501    0  0.00000000000E+00  0.00000000000E+00  0.22339935600E+04  0.22339935600E+04  0.50400001928E-02 0.  1.
       -1   -1    0    0    0  501  0.00000000000E+00  0.00000000000E+00 -0.49261959936E+03  0.49261959938E+03  0.50400001928E-02 0. -1.
    10030    2    1    2    0    0  0.00000000000E+00  0.00000000000E+00  0.17413739606E+04  0.27266131594E+04  0.20981029646E+04 0.  0.
        5    1    3    3  502    0  0.96592226558E+03  0.33816682003E+03  0.57115489901E+03  0.11720079479E+04  0.46999998093E+01 0. -1.
       -5    1    3    3    0  502 -0.96592226558E+03 -0.33816682003E+03  0.11702190616E+04  0.15546052115E+04  0.46999998093E+01 0.  1.
</event>
<event>
 5   0  0.1921687E-04  0.2115765E+04  0.7818609E-02  0.8554330E-01
       -2   -1    0    0    0  501  0.00000000000E+00  0.00000000000E+00  0.90061192044E+03  0.90061192044E+03  0.25500000920E-02 0. -1.
        2   -1    0    0  501    0  0.00000000000E+00  0.00000000000E+00 -0.12426164399E+04  0.12426164399E+04  0.25500000920E-02 0.  1.
    10030    2    1    2    0    0  0.00000000000E+00  0.00000000000E+00 -0.34200451947E+03  0.21432283604E+04  0.21157648058E+04 0.  0.
        5    1    3    3  502    0 -0.53379539597E+02 -0.25694958723E+03 -0.12091073721E+04  0.12372692483E+04  0.46999998093E+01 0.  1.
       -5    1    3    3    0  502  0.53379539597E+02  0.25694958723E+03  0.86710285262E+03  0.90595911202E+03  0.46999998093E+01 0. -1.
</event>
<event>
 5   0  0.1886323E-04  0.1869138E+04  0.7818609E-02  0.8670373E-01
        2   -1    0    0  501    0  0.00000000000E+00  0.00000000000E+00  0.14036027691E+04  0.14036027691E+04  0.25500000920E-02 0.  1.
       -2   -1    0    0    0  501  0.00000000000E+00  0.00000000000E+00 -0.62226976169E+03  0.62226976169E+03  0.25500000920E-02 0. -1.
    10030    2    1    2    0    0  0.00000000000E+00  0.00000000000E+00  0.78133300742E+03  0.20258725308E+04  0.18691383690E+04 0.  0.
        2    1    3    3  502    0 -0.11061568781E+02 -0.92796350334E+03  0.51028849944E+03  0.10590717513E+04  0.25500000920E-02 0. -1.
       -2    1    3    3    0  502  0.11061568781E+02  0.92796350334E+03  0.27104450798E+03  0.96680077945E+03  0.25500000920E-02 0.  1.
</event>
<event>
 5   0  0.6441125E-05  0.1994484E+04  0.7818609E-02  0.8609204E-01
        4   -1    0    0  501    0  0.00000000000E+00  0.00000000000E+00  0.65452901360E+03  0.65453024571E+03  0.12699999809E+01 0. -1.
       -4   -1    0    0    0  501  0.00000000000E+00  0.00000000000E+00 -0.15193977121E+04  0.15193982428E+04  0.12699999809E+01 0.  1.
    10030    2    1    2    0    0  0.00000000000E+00  0.00000000000E+00 -0.86486869847E+03  0.21739284886E+04  0.19944841959E+04 0.  0.
        5    1    3    3  502    0  0.39021829484E+03 -0.17107336323E+03  0.55031352044E+03  0.69599100139E+03  0.46999998093E+01 0. -1.
       -5    1    3    3    0  502 -0.39021829484E+03  0.17107336323E+03 -0.14151822189E+04  0.14779374872E+04  0.46999998093E+01 0.  1.
</event>
<event>
 5   0  0.8755004E-05  0.2079728E+04  0.7818609E-02  0.8570226E-01
        1   -1    0    0  501    0  0.00000000000E+00  0.00000000000E+00  0.17167381206E+04  0.17167381206E+04  0.50400001928E-02 0.  1.
       -1   -1    0    0    0  501  0.00000000000E+00  0.00000000000E+00 -0.62986754968E+03  0.62986754970E+03  0.50400001928E-02 0. -1.
    10030    2    1    2    0    0  0.00000000000E+00  0.00000000000E+00  0.10868705709E+04  0.23466056703E+04  0.20797284760E+04 0.  0.
        3    1    3    3  502    0  0.24698592640E+03  0.56566150744E+03  0.14876891267E+04  0.16106501596E+04  0.10100000352E+00 0.  1.
       -3    1    3    3    0  502 -0.24698592640E+03 -0.56566150744E+03 -0.40081855577E+03  0.73595551067E+03  0.10100000352E+00 0. -1.
</event>
<event>
 5   0  0.1810875E-04  0.2107317E+04  0.7818609E-02  0.8558027E-01
       -2   -1    0    0    0  501  0.00000000000E+00  0.00000000000E+00  0.52162981954E+03  0.52162981955E+03  0.25500000920E-02 0.  1.
        2   -1    0    0  501    0  0.00000000000E+00  0.00000000000E+00 -0.21283216374E+04  0.21283216374E+04  0.25500000920E-02 0. -1.
    10030    2    1    2    0    0  0.00000000000E+00  0.00000000000E+00 -0.16066918179E+04  0.26499514570E+04  0.21073168074E+04 0.  0.
        1    1    3    3  502    0 -0.59417026040E+02 -0.80038722664E+03  0.55118807577E+02  0.80448006720E+03  0.50400001928E-02 0.  1.
       -1    1    3    3    0  502  0.59417026040E+02  0.80038722664E+03 -0.16618106254E+04  0.18454713898E+04  0.50400001928E-02 0. -1.
</event>
<event>
 5   0  0.8755004E-05  0.2115181E+04  0.7818609E-02  0.8554585E-01
        1   -1    0    0  501    0  0.00000000000E+00  0.00000000000E+00  0.24268582723E+04  0.24268582724E+04  0.50400001928E-02 0. -1.
       -1   -1    0    0    0  501  0.00000000000E+00  0.00000000000E+00 -0.46088284966E+03  0.46088284968E+03  0.50400001928E-02 0.  1.
    10030    2    1    2    0    0  0.00000000000E+00  0.00000000000E+00  0.19659754227E+04  0.28877411220E+04  0.21151807075E+04 0.  0.
        3    1    3    3  502    0 -0.73269790186E+03 -0.37856450895E+03  0.18868793183E+04  0.20592403636E+04  0.10100000352E+00 0. -1.
       -3    1    3    3    0  502  0.73269790186E+03  0.37856450895E+03  0.79096104347E+02  0.82850075845E+03  0.10100000352E+00 0.  1.
</event>
<event>
 5   0  0.1886323E-04  0.2210843E+04  0.7818609E-02  0.8513929E-01
       -2   -1    0    0    0  501  0.00000000000E+00  0.00000000000E+00  0.11130422358E+04  0.11130422358E+04  0.25500000920E-02 0.  1.
        2   -1    0    0  501    0  0.00000000000E+00  0.00000000000E+00 -0.10978524626E+04  0.10978524626E+04  0.25500000920E-02 0. -1.
    10030    2    1    2    0    0  0.00000000000E+00  0.00000000000E+00  0.15189773158E+02  0.22108946984E+04  0.22108425177E+04 0.  0.
        2    1    3    3  502    0  0.66472693984E+03 -0.61007745253E+03 -0.63109049115E+03  0.11010593130E+04  0.25500000920E-02 0. -1.
       -2    1    3    3    0  502 -0.66472693984E+03  0.61007745253E+03  0.64628026431E+03  0.11098353854E+04  0.25500000920E-02 0.  1.
</event>
<event>
 5   0  0.1815400E-04  0.1862293E+04  0.7818609E-02  0.8673857E-01
       -2   -1    0    0    0  501  0.00000000000E+00  0.00000000000E+00  0.41808824655E+03  0.41808824656E+03  0.25500000920E-02 0. -1.
        2   -1    0    0  501    0  0.00000000000E+00  0.00000000000E+00 -0.20738053086E+04  0.20738053086E+04  0.25500000920E-02 0.  1.
    10030    2    1    2    0    0  0.00000000000E+00  0.00000000000E+00 -0.16557170620E+04  0.24918935552E+04  0.18622928075E+04 0.  0.
        3    1    3    3  502    0  0.77282298573E+02  0.17917457714E+03  0.39042300432E+03  0.43647017684E+03  0.10100000352E+00 0. -1.
       -3    1    3    3    0  502 -0.77282298573E+02 -0.17917457714E+03 -0.20461400664E+04  0.20554233783E+04  0.10100000352E+00 0.  1.
</event>
<event>
 5   0  0.1810875E-04  0.2086706E+04  0.7818609E-02  0.8567122E-01
        2   -1    0    0  501    0  0.00000000000E+00  0.00000000000E+00  0.20426344645E+04  0.20426344645E+04  0.25500000920E-02 0. -1.
       -2   -1    0    0    0  501  0.00000000000E+00  0.00000000000E+00 -0.53293209660E+03  0.53293209661E+03  0.25500000920E-02 0.  1.
    10030    2    1    2    0    0  0.00000000000E+00  0.00000000000E+00  0.15097023679E+04  0.25755665612E+04  0.20867059858E+04 0.  0.
        1    1    3    3  502    0  0.72708496668E+03  0.36296135807E+03 -0.52812910320E+02  0.81436030093E+03  0.50400001928E-02 0.  1.
       -1    1    3    3    0  502 -0.72708496668E+03 -0.36296135807E+03  0.15625152783E+04  0.17612062602E+04  0.50400001928E-02 0. -1.
</event>
<event>
 5   0  0.1921687E-04  0.2148907E+04  0.7818609E-02  0.8540000E-01
        2   -1    0    0  501    0  0.00000000000E+00  0.00000000000E+00  0.16567244776E+04  0.16567244776E+04  0.25500000920E-02 0. -1.
       -2   -1    0    0    0  501  0.00000000000E+00  0.00000000000E+00 -0.69682672113E+03  0.69682672114E+03  0.25500000920E-02 0.  1.
    10030    2    1    2    0    0  0.00000000000E+00  0.00000000000E+00  0.95989775645E+03  0.23535511987E+04  0.21489065922E+04 0.  0.
        5    1    3    3  502    0 -0.78473613273E+03 -0.37171539450E+03 -0.21312154718E+03  0.89410626684E+03  0.46999998093E+01 0.  1.
       -5    1    3    3    0  502  0.78473613273E+03  0.37171539450E+03  0.11730193036E+04  0.14594449319E+04  0.46999998093E+01 0. -1.
</event>
<event>
 5   0  0.8525278E-05  0.1831912E+04  0.7818609E-02  0.8689511E-01
        1   -1    0    0  501    0  0.00000000000E+00  0.00000000000E+00  0.13795463212E+04  0.13795463212E+04  0.50400001928E-02 0. -1.
       -1   -1    0    0    0  501  0.00000000000E+00  0.00000000000E+00 -0.60815288613E+03  0.60815288615E+03  0.50400001928E-02 0.  1.
    10030    2    1    2    0    0  0.00000000000E+00  0.00000000000E+00  0.77139343508E+03  0.19876992074E+04  0.18319116538E+04 0.  0.
        4    1    3    3  502    0 -0.52295308443E+03 -0.73308519050E+03  0.56751682001E+03  0.10644110009E+04  0.12699999809E+01 0. -1.
       -4    1    3    3    0  502  0.52295308443E+03  0.73308519050E+03  0.20387661506E+03  0.92328820642E+03  0.12699999809E+01 0.  1.
</event>
<event>
 5   0  0.8486612E-05  0.2066273E+04  0.7818609E-02  0.8576248E-01
        1   -1    0    0  501    0  0.00000000000E+00  0.00000000000E+00  0.79767377917E+03  0.79767377918E+03  0.50400001928E-02 0. -1.
       -1   -1    0    0    0  501  0.00000000000E+00  0.00000000000E+00 -0.13381048890E+04  0.13381048890E+04  0.50400001928E-02 0.  1.
    10030    2    1    2    0    0  0.00000000000E+00  0.00000000000E+00 -0.54043110983E+03  0.21357786682E+04  0.20662731511E+04 0.  0.
        5    1    3    3  502    0 -0.89061996399E+03 -0.26981331785E+03 -0.73402539459E+03  0.11852504025E+04  0.46999998093E+01 0. -1.
       -5    1    3    3    0  502  0.89061996399E+03  0.26981331785E+03  0.19359428477E+03  0.95052826567E+03  0.46999998093E+01 0.  1.
</event>
<event>
 5   0  0.1777590E-04  0.2106911E+04  0.7818609E-02  0.8558205E-01
        2   -1    0    0  501    0  0.00000000000E+00  0.00000000000E+00  0.85175971824E+03  0.85175971824E+03  0.25500000920E-02 0. -1.
       -2   -1    0    0    0  501  0.00000000000E+00  0.00000000000E+00 -0.13029124317E+04  0.13029124317E+04  0.25500000920E-02 0.  1.
    10030    2    1    2    0    0  0.00000000000E+00  0.00000000000E+00 -0.45115271345E+03  0.21546721499E+04  0.21069108436E+04 0.  0.
        4    1    3    3  502    0  0.36351521700E+02 -0.95762493187E+03  0.22183370351E+03  0.98365580779E+03  0.12699999809E+01 0.  1.
       -4    1    3    3    0  502 -0.36351521700E+02  0.95762493187E+03 -0.67298641696E+03  0.11710163422E+04  0.12699999809E+01 0. -1.
</event>
<event>
 5   0  0.8525278E-05  0.2110779E+04  0.7818609E-02  0.8556510E-01
        1   -1    0    0  501    0  0.00000000000E+00  0.00000000000E+00  0.10606018425E+04  0.10606018425E+04  0.50400001928E-02 0. -1.
       -1   -1    0    0    0  501  0.00000000000E+00  0.00000000000E+00 -0.10502029837E+04  0.10502029837E+04  0.50400001928E-02 0.  1.
    10030    2    1    2    0    0  0.00000000000E+00  0.00000000000E+00  0.10398858756E+02  0.21108048262E+04  0.21107792111E+04 0.  0.
        4    1    3    3  502    0 -0.83982116591E+03  0.43035787765E+03 -0.46739292525E+03  0.10530741916E+04  0.12699999809E+01 0.  1.
       -4    1    3    3    0  502  0.83982116591E+03 -0.43035787765E+03  0.47779178400E+03  0.10577306346E+04  0.12699999809E+01 0. -1.
</event>
<event>
 5   0  0.8237966E-05  0.2109431E+04  0.7818609E-02  0.8557100E-01
       -1   -1    0    0    0  501  0.00000000000E+00  0.00000000000E+00  0.12924399756E+04  0.12924399756E+04  0.50400001928E-02 0.  1.
        1   -1    0    0  501    0  0.00000000000E+00  0.00000000000E+00 -0.86071652033E+03  0.86071652034E+03  0.50400001928E-02 0. -1.
    10030    2    1    2    0    0  0.00000000000E+00  0.00000000000E+00  0.43172345529E+03  0.21531564960E+04  0.21094306706E+04 0.  0.
        1    1    3    3  502    0 -0.95536954530E+03 -0.29665637596E+03  0.55698747596E+03  0.11449764285E+04  0.50400001928E-02 0.  1.
       -1    1    3    3    0  502  0.95536954530E+03  0.29665637596E+03 -0.12526402067E+03  0.10081800674E+04  0.50400001928E-02 0. -1.
</event>
<event>
 5   0  0.1810875E-04  0.2094490E+04  0.7818609E-02  0.8563675E-01
       -2   -1    0    0    0  501  0.00000000000E+00  0.00000000000E+00  0.11125977370E+04  0.11125977370E+04  0.25500000920E-02 0. -1.
        2   -1    0    0  501    0  0.00000000000E+00  0.00000000000E+00 -0.98573077628E+03  0.98573077628E+03  0.25500000920E-02 0.  1.
    10030    2    1    2    0    0  0.00000000000E+00  0.00000000000E+00  0.12686696074E+03  0.20983285133E+04  0.20944897527E+04 0.  0.
        1    1    3    3  502    0  0.71524393402E+03  0.65438124939E+03 -0.33344043473E+03  0.10251688779E+04  0.50400001928E-02 0.  1.
       -1    1    3    3    0  502 -0.71524393402E+03 -0.65438124939E+03  0.46030739546E+03  0.10731596354E+04  0.50400001928E-02 0. -1.
</event>
<event>
 5   0  0.8486612E-05  0.1561740E+04  0.7818609E-02  0.8844404E-01
        1   -1    0    0  501    0  0.00000000000E+00  0.00000000000E+00  0.50051659279E+03  0.50051659282E+03  0.50400001928E-02 0. -1.
       -1   -1    0    0    0  501  0.00000000000E+00  0.00000000000E+00 -0.12182571298E+04  0.12182571298E+04  0.50400001928E-02 0.  1.
    10030    2    1    2    0    0  0.00000000000E+00  0.00000000000E+00 -0.71774053702E+03  0.17187737226E+04  0.15617399371E+04 0.  0.
        5    1    3    3  502    0  0.34842199178E+03 -0.19007687954E+03 -0.10989516049E+04  0.11684364871E+04  0.46999998093E+01 0.  1.
       -5    1    3    3    0  502 -0.34842199178E+03  0.19007687954E+03  0.38121106791E+03  0.55033723551E+03  0.46999998093E+01 0. -1.
</event>
<event>
 5   0  0.1777590E-04  0.1705579E+04  0.7818609E-02  0.8758189E-01
        2   -1    0    0  501    0  0.00000000000E+00  0.00000000000E+00  0.45731019994E+03  0.45731019995E+03  0.25500000920E-02 0. -1.
       -2   -1    0    0    0  501  0.00000000000E+00  0.00000000000E+00 -0.15902763238E+04  0.15902763238E+04  0.25500000920E-02 0.  1.
    10030    2    1    2    0    0  0.00000000000E+00  0.00000000000E+00 -0.11329661239E+04  0.20475865238E+04  0.17055785923E+04 0.  0.
        4    1    3    3  502    0 -0.21180490020E+03 -0.43278719981E+03  0.27822968610E+03  0.55639864054E+03  0.12699999809E+01 0. -1.
       -4    1    3    3    0  502  0.21180490020E+03  0.43278719981E+03 -0.14111958100E+04  0.14911878832E+04  0.12699999809E+01 0.  1.
</event>
<event>
 5   0  0.1810875E-04  0.2118366E+04  0.7818609E-02  0.8553196E-01
       -2   -1    0    0    0  501  0.00000000000E+00  0.00000000000E+00  0.10240177854E+04  0.10240177854E+04  0.25500000920E-02 0.  1.
        2   -1    0    0  501    0  0.00000000000E+00  0.00000000000E+00 -0.10955553018E+04  0.10955553018E+04  0.25500000920E-02 0. -1.
    10030    2    1    2    0    0  0.00000000000E+00  0.00000000000E+00 -0.71537516332E+02  0.21195730872E+04  0.21183655151E+04 0.  0.
        1    1    3    3  502    0  0.24954855392E+03  0.55010915859E+03  0.83476947576E+03  0.10304050877E+04  0.50400001928E-02 0.  1.
       -1    1    3    3    0  502 -0.24954855392E+03 -0.55010915859E+03 -0.90630699209E+03  0.10891679995E+04  0.50400001928E-02 0. -1.
</event>
<event>
 5   0  0.1815400E-04  0.2133774E+04  0.7818609E-02  0.8546510E-01
       -2   -1    0    0    0  501  0.00000000000E+00  0.00000000000E+00  0.66856853953E+03  0.66856853954E+03  0.25500000920E-02 0.  1.
        2   -1    0    0  501    0  0.00000000000E+00  0.00000000000E+00 -0.17025144044E+04  0.17025144044E+04  0.25500000920E-02 0. -1.
    10030    2    1    2    0    0  0.00000000000E+00  0.00000000000E+00 -0.10339458649E+04  0.23710829440E+04  0.21337737171E+04 0.  0.
        3    1    3    3  502    0  0.97029120966E+03  0.44285748578E+03 -0.48843016170E+03  0.11730949737E+04  0.10100000352E+00 0.  1.
       -3    1    3    3    0  502 -0.97029120966E+03 -0.44285748578E+03 -0.54551570319E+03  0.11979879703E+04  0.10100000352E+00 0. -1.
</event>
<event>
 5   0  0.1886323E-04  0.1896405E+04  0.7818609E-02  0.8656648E-01
       -2   -1    0    0    0  501  0.00000000000E+00  0.00000000000E+00  0.75384910219E+03  0.75384910220E+03  0.25500000920E-02 0.  1.
        2   -1    0    0  501    0  0.00000000000E+00  0.00000000000E+00 -0.11926626706E+04  0.11926626706E+04  0.25500000920E-02 0. -1.
    10030    2    1    2    0    0  0.00000000000E+00  0.00000000000E+00 -0.43881356836E+03  0.19465117728E+04  0.18964046862E+04 0.  0.
        2    1    3    3  502    0  0.43606295850E+03 -0.12806873124E+02  0.64472409585E+03  0.77844979257E+03  0.25500000920E-02 0.  1.
       -2    1    3    3    0  502 -0.43606295850E+03  0.12806873124E+02 -0.10835376642E+04  0.11680619802E+04  0.25500000920E-02 0. -1.
</event>
<event>
 5   0  0.1810875E-04  0.2298272E+04  0.7818609E-02  0.8478603E-01
       -2   -1    0    0    0  501  0.00000000000E+00  0.00000000000E+00  0.48255079801E+03  0.48255079802E+03  0.25500000920E-02 0. -1.
        2   -1    0    0  501    0  0.00000000000E+00  0.00000000000E+00 -0.27365282672E+04  0.27365282672E+04  0.25500000920E-02 0.  1.
    10030    2    1    2    0    0  0.00000000000E+00  0.00000000000E+00 -0.22539774692E+04  0.32190790652E+04  0.22982723069E+04 0.  0.
        1    1    3    3  502    0  0.60162347503E+03  0.97516827986E+03 -0.10048030893E+04  0.15239859672E+04  0.50400001928E-02 0. -1.
       -1    1    3    3    0  502 -0.60162347503E+03 -0.97516827986E+03 -0.12491743798E+04  0.16950930980E+04  0.50400001928E-02 0.  1.
</event>
<event>
 5   0  0.1921687E-04  0.2107074E+04  0.7818609E-02  0.8558134E-01
       -2   -1    0    0    0  501  0.00000000000E+00  0.00000000000E+00  0.10417589324E+04  0.10417589324E+04  0.25500000920E-02 0.  1.
        2   -1    0    0  501    0  0.00000000000E+00  0.00000000000E+00 -0.10654479118E+04  0.10654479118E+04  0.25500000920E-02 0. -1.
    10030    2    1    2    0    0  0.00000000000E+00  0.00000000000E+00 -0.23688979416E+02  0.21072068443E+04  0.21070736857E+04 0.  0.
        5    1    3    3  502    0 -0.53702654582E+03  0.80395181669E+03  0.40672915612E+03  0.10488978649E+04  0.46999998093E+01 0. -1.
       -5    1    3    3    0  502  0.53702654582E+03 -0.80395181669E+03 -0.43041813554E+03  0.10583089794E+04  0.46999998093E+01 0.  1.
</event>
<event>
 5   0  0.1886323E-04  0.1995851E+04  0.7818609E-02  0.8608563E-01
        2   -1    0    0  501    0  0.00000000000E+00  0.00000000000E+00  0.10736751020E+04  0.10736751020E+04  0.25500000920E-02 0.  1.
       -2   -1    0    0    0  501  0.00000000000E+00  0.00000000000E+00 -0.92752014511E+03  0.92752014511E+03  0.25500000920E-02 0. -1.
    10030    2    1    2    0    0  0.00000000000E+00  0.00000000000E+00  0.14615495694E+03  0.20011952472E+04  0.19958509829E+04 0.  0.
        2    1    3    3  502    0 -0.38902164885E+03  0.34585671675E+03 -0.78061326526E+03  0.93824931745E+03  0.25500000920E-02 0. -1.
       -2    1    3    3    0  502  0.38902164885E+03 -0.34585671675E+03  0.92676822219E+03  0.10629459297E+04  0.25500000920E-02 0.  1.
</event>
<event>
 5   0  0.8755004E-05  0.2107660E+04  0.7818609E-02  0.8557877E-01
       -1   -1    0    0    0  501  0.00000000000E+00  0.00000000000E+00  0.87375270588E+03  0.87375270589E+03  0.50400001928E-02 0.  1.
        1   -1    0    0  501    0  0.00000000000E+00  0.00000000000E+00 -0.12710201441E+04  0.12710201441E+04  0.50400001928E-02 0. -1.
    10030    2    1    2    0    0  0.00000000000E+00  0.00000000000E+00 -0.39726743819E+03  0.21447728500E+04  0.21076596406E+04 0.  0.
        3    1    3    3  502    0 -0.98923488877E+03  0.35333134990E+03 -0.28455131029E+03  0.10883005864E+04  0.10100000352E+00 0. -1.
       -3    1    3    3    0  502  0.98923488877E+03 -0.35333134990E+03 -0.11271612790E+03  0.10564722636E+04  0.10100000352E+00 0.  1.
</event>
<event>
 5   0  0.8237966E-05  0.2089062E+04  0.7818609E-02  0.8566077E-01
        1   -1    0    0  501    0  0.00000000000E+00  0.00000000000E+00  0.16693508097E+04  0.16693508097E+04  0.50400001928E-02 0. -1.
       -1   -1    0    0    0  501  0.00000000000E+00  0.00000000000E+00 -0.65357439586E+03  0.65357439588E+03  0.50400001928E-02 0.  1.
    10030    2    1    2    0    0  0.00000000000E+00  0.00000000000E+00  0.10157764138E+04  0.23229252055E+04  0.20890619397E+04 0.  0.
        1    1    3    3  502    0 -0.74876168029E+03  0.57067572481E+03  0.47645136907E+01  0.94145501080E+03  0.50400001928E-02 0.  1.
       -1    1    3    3    0  502  0.74876168029E+03 -0.57067572481E+03  0.10110119001E+04  0.13814701947E+04  0.50400001928E-02 0. -1.
</event>
<event>
 5   0  0.1777590E-04  0.2064461E+04  0.7818609E-02  0.8577062E-01
       -2   -1    0    0    0  501  0.00000000000E+00  0.00000000000E+00  0.53929995342E+03  0.53929995343E+03  0.25500000920E-02 0. -1.
        2   -1    0    0  501    0  0.00000000000E+00  0.00000000000E+00 -0.19757082307E+04  0.19757082307E+04  0.25500000920E-02 0.  1.
    10030    2    1    2    0    0  0.00000000000E+00  0.00000000000E+00 -0.14364082773E+04  0.25150081842E+04  0.20644605657E+04 0.  0.
        4    1    3    3  502    0  0.53360075478E+03  0.28764775090E+03  0.29961085444E+03  0.67619469911E+03  0.12699999809E+01 0. -1.
       -4    1    3    3    0  502 -0.53360075478E+03 -0.28764775090E+03 -0.17360191318E+04  0.18388134851E+04  0.12699999809E+01 0.  1.
</event>
<event>
 5   0  0.1921687E-04  0.1859003E+04  0.7818609E-02  0.8675537E-01
        2   -1    0    0  501    0  0.00000000000E+00  0.00000000000E+00  0.16952603061E+04  0.16952603061E+04  0.25500000920E-02 0. -1.
       -2   -1    0    0    0  501  0.00000000000E+00  0.00000000000E+00 -0.50964051625E+03  0.50964051626E+03  0.25500000920E-02 0.  1.
    10030    2    1    2    0    0  0.00000000000E+00  0.00000000000E+00  0.11856197898E+04  0.22049008223E+04  0.18590033218E+04 0.  0.
        5    1    3    3  502    0  0.61233247680E+03 -0.36250764672E+02 -0.23547371561E+03  0.65706555291E+03  0.46999998093E+01 0.  1.
       -5    1    3    3    0  502 -0.61233247680E+03  0.36250764672E+02  0.14210935054E+04  0.15478352694E+04  0.46999998093E+01 0. -1.
</event>
<event>
 5   0  0.1921687E-04  0.1587400E+04  0.7818609E-02  0.8828326E-01
       -2   -1    0    0    0  501  0.00000000000E+00  0.00000000000E+00  0.97284325427E+03  0.97284325428E+03  0.25500000920E-02 0. -1.
        2   -1    0    0  501    0  0.00000000000E+00  0.00000000000E+00 -0.64754475110E+03  0.64754475111E+03  0.25500000920E-02 0.  1.
    10030    2    1    2    0    0  0.00000000000E+00  0.00000000000E+00  0.32529850317E+03  0.16203880054E+04  0.15873998147E+04 0.  0.
        5    1    3    3  502    0  0.70932237884E+03  0.22813671041E+03  0.44174074071E+03  0.86622258557E+03  0.46999998093E+01 0.  1.
       -5    1    3    3    0  502 -0.70932237884E+03 -0.22813671041E+03 -0.11644223754E+03  0.75416541981E+03  0.46999998093E+01 0. -1.
</event>
<event>
 5   0  0.8525278E-05  0.2037982E+04  0.7818609E-02  0.8589066E-01
        1   -1    0    0  501    0  0.00000000000E+00  0.00000000000E+00  0.17840316302E+04  0.17840316302E+04  0.50400001928E-02 0. -1.
       -1   -1    0    0    0  501  0.00000000000E+00  0.00000000000E+00 -0.58202057422E+03  0.58202057424E+03  0.50400001928E-02 0.  1.
    10030    2    1    2    0    0  0.00000000000E+00  0.00000000000E+00  0.12020110559E+04  0.23660522044E+04  0.20379824473E+04 0.  0.
        4    1    3    3  502    0 -0.40018495507E+02  0.10096700621E+04  0.44827456666E+03  0.11054351244E+04  0.12699999809E+01 0.  1.
       -4    1    3    3    0  502  0.40018495507E+02 -0.10096700621E+04  0.75373648927E+03  0.12606170800E+04  0.12699999809E+01 0. -1.
</event>
<event>
 5   0  0.8486612E-05  0.2131940E+04  0.7818609E-02  0.8547303E-01
        1   -1    0    0  501    0  0.00000000000E+00  0.00000000000E+00  0.14272162369E+04  0.14272162369E+04  0.50400001928E-02 0.  1.
       -1   -1    0    0    0  501  0.00000000000E+00  0.00000000000E+00 -0.79615975507E+03  0.79615975509E+03  0.50400001928E-02 0. -1.
    10030    2    1    2    0    0  0.00000000000E+00  0.00000000000E+00  0.63105648184E+03  0.22233759920E+04  0.21319400833E+04 0.  0.
        5    1    3    3  502    0  0.92452057565E+03  0.27417016744E+03  0.78928265498E+03  0.12461527896E+04  0.46999998093E+01 0.  1.
       -5    1    3    3    0  502 -0.92452057565E+03 -0.27417016744E+03 -0.15822617314E+03  0.97722320243E+03  0.46999998093E+01 0. -1.
</event>
<event>
 5   0  0.1810875E-04  0.2122229E+04  0.7818609E-02  0.8551514E-01
        2   -1    0    0  501    0  0.00000000000E+00  0.00000000000E+00  0.13261874363E+04  0.13261874363E+04  0.25500000920E-02 0.  1.
       -2   -1    0    0    0  501  0.00000000000E+00  0.00000000000E+00 -0.84902359696E+03  0.84902359696E+03  0.25500000920E-02 0. -1.
    10030    2    1    2    0    0  0.00000000000E+00  0.00000000000E+00  0.47716383935E+03  0.21752110333E+04  0.21222294197E+04 0.  0.
        1    1    3    3  502    0 -0.10086814452E+04  0.28065045671E+03  0.41540396369E+03  0.11263939763E+04  0.50400001928E-02 0. -1.
       -1    1    3    3    0  502  0.10086814452E+04 -0.28065045671E+03  0.61759875663E+02  0.10488170570E+04  0.50400001928E-02 0.  1.
</event>
<event>
 5   0  0.1777590E-04  0.2109768E+04  0.7818609E-02  0.8556953E-01
       -2   -1    0    0    0  501  0.00000000000E+00  0.00000000000E+00  0.54185653633E+03  0.54185653634E+03  0.25500000920E-02 0. -1.
        2   -1    0    0  501    0  0.00000000000E+00  0.00000000000E+00 -0.20536441955E+04  0.20536441955E+04  0.25500000920E-02 0.  1.
    10030    2    1    2    0    0  0.00000000000E+00  0.00000000000E+00 -0.15117876592E+04  0.25955007319E+04  0.21097682628E+04 0.  0.
        4    1    3    3  502    0 -0.27935732529E+03  0.80107328753E+03 -0.15271412442E+04  0.17469747908E+04  0.12699999809E+01 0.  1.
       -4    1    3    3    0  502  0.27935732529E+03 -0.80107328753E+03  0.15353584964E+02  0.84852594107E+03  0.12699999809E+01 0. -1.
</event>
<event>
 5   0  0.1886323E-04  0.2064267E+04  0.7818609E-02  0.8577149E-01
       -2   -1    0    0    0  501  0.00000000000E+00  0.00000000000E+00  0.63931051707E+03  0.63931051707E+03  0.25500000920E-02 0.  1.
        2   -1    0    0  501    0  0.00000000000E+00  0.00000000000E+00 -0.16663259597E+04  0.16663259597E+04  0.25500000920E-02 0. -1.
    10030    2    1    2    0    0  0.00000000000E+00  0.00000000000E+00 -0.10270154427E+04  0.23056364768E+04  0.20642671445E+04 0.  0.
        2    1    3    3  502    0 -0.23033845384E+03  0.10628675701E+03 -0.16309638517E+04  0.16505743738E+04  0.25500000920E-02 0. -1.
       -2    1    3    3    0  502  0.23033845384E+03 -0.10628675701E+03  0.60394840900E+03  0.65506210300E+03  0.25500000920E-02 0.  1.
</event>
<event>
 5   0  0.1886323E-04  0.2084480E+04  0.7818609E-02  0.8568111E-01
        2   -1    0    0  501    0  0.00000000000E+00  0.00000000000E+00  0.13707007060E+04  0.13707007060E+04  0.25500000920E-02 0.  1.
       -2   -1    0    0    0  501  0.00000000000E+00  0.00000000000E+00 -0.79248789467E+03  0.79248789468E+03  0.25500000920E-02 0. -1.
    10030    2    1    2    0    0  0.00000000000E+00  0.00000000000E+00  0.57821281134E+03  0.21631886007E+04  0.20844795194E+04 0.  0.
        2    1    3    3  502    0  0.86616678474E+03 -0.18389033775E+02 -0.31215027401E+03  0.92088047494E+03  0.25500000920E-02 0. -1.
       -2    1    3    3    0  502 -0.86616678474E+03  0.18389033775E+02  0.89036308535E+03  0.12423081258E+04  0.25500000920E-02 0.  1.
</event>
<event>
 5   0  0.8271069E-05  0.2084380E+04  0.7818609E-02  0.8568156E-01
        1   -1    0    0  501    0  0.00000000000E+00  0.00000000000E+00  0.22635255770E+04  0.22635255770E+04  0.50400001928E-02 0.  1.
       -1   -1    0    0    0  501  0.00000000000E+00  0.00000000000E+00 -0.47985315314E+03  0.47985315316E+03  0.50400001928E-02 0. -1.
    10030    2    1    2    0    0  0.00000000000E+00  0.00000000000E+00  0.17836724238E+04  0.27433787301E+04  0.20843798937E+04 0.  0.
        2    1    3    3  502    0  0.90599671163E+02 -0.69688443692E+03  0.19047701037E+04  0.20302722396E+04  0.25500000920E-02 0.  1.
       -2    1    3    3    0  502 -0.90599671163E+02  0.69688443692E+03 -0.12109767985E+03  0.71310649058E+03  0.25500000920E-02 0. -1.
</event>
<event>
 5   0  0.8755004E-05  0.2076266E+04  0.7818609E-02  0.8571771E-01
        1   -1    0    0  501    0  0.00000000000E+00  0.00000000000E+00  0.15219615202E+04  0.15219615202E+04  0.50400001928E-02 0. -1.
       -1   -1    0    0    0  501  0.00000000000E+00  0.00000000000E+00 -0.70811280170E+03  0.70811280172E+03  0.50400001928E-02 0.  1.
    10030    2    1    2    0    0  0.00000000000E+00  0.00000000000E+00  0.81384871847E+03  0.22300743219E+04  0.20762662991E+04 0.  0.
        3    1    3    3  502    0  0.10294865317E+04 -0.47843616167E+02  0.27281967283E+03  0.10660966722E+04  0.10100000352E+00 0.  1.
       -3    1    3    3    0  502 -0.10294865317E+04  0.47843616167E+02  0.54102904564E+03  0.11639776497E+04  0.10100000352E+00 0. -1.
</event>
<event>
 5   0  0.1921687E-04  0.2161142E+04  0.7818609E-02  0.8534778E-01
        2   -1    0    0  501    0  0.00000000000E+00  0.00000000000E+00  0.13668000302E+04  0.13668000302E+04  0.25500000920E-02 0.  1.
       -2   -1    0    0    0  501  0.00000000000E+00  0.00000000000E+00 -0.85428243596E+03  0.85428243596E+03  0.25500000920E-02 0. -1.
    10030    2    1    2    0    0  0.00000000000E+00  0.00000000000E+00  0.51251759427E+03  0.22210824662E+04  0.21611416051E+04 0.  0.
        5    1    3    3  502    0  0.24474981621E+03 -0.11944899535E+03  0.13309385431E+04  0.13585249466E+04  0.46999998093E+01 0.  1.
       -5    1    3    3    0  502 -0.24474981621E+03  0.11944899535E+03 -0.81842094886E+03  0.86255751956E+03  0.46999998093E+01 0. -1.
</event>
<event>
 5   0  0.1810875E-04  0.2125837E+04  0.7818609E-02  0.8549947E-01
       -2   -1    0    0    0  501  0.00000000000E+00  0.00000000000E+00  0.71425354978E+03  0.71425354979E+03  0.25500000920E-02 0.  1.
        2   -1    0    0  501    0  0.00000000000E+00  0.00000000000E+00 -0.15817853272E+04  0.15817853272E+04  0.25500000920E-02 0. -1.
    10030    2    1    2    0    0  0.00000000000E+00  0.00000000000E+00 -0.86753177742E+03  0.22960388770E+04  0.21258370445E+04 0.  0.
        1    1    3    3  502    0  0.49227239499E+03 -0.90100323044E+03 -0.13668589754E+03  0.10357711942E+04  0.50400001928E-02 0.  1.
       -1    1    3    3    0  502 -0.49227239499E+03  0.90100323044E+03 -0.73084587988E+03  0.12602676828E+04  0.50400001928E-02 0. -1.
</event>
<event>
 5   0  0.8525278E-05  0.2089060E+04  0.7818609E-02  0.8566078E-01
        1   -1    0    0  501    0  0.00000000000E+00  0.00000000000E+00  0.96075606860E+03  0.96075606861E+03  0.50400001928E-02 0.  1.
       -1   -1    0    0    0  501  0.00000000000E+00  0.00000000000E+00 -0.11356090308E+04  0.11356090308E+04  0.50400001928E-02 0. -1.
    10030    2    1    2    0    0  0.00000000000E+00  0.00000000000E+00 -0.17485296220E+03  0.20963650994E+04  0.20890603322E+04 0.  0.
        4    1    3    3  502    0 -0.67396947698E+03  0.61324622764E+03  0.42498201712E+03  0.10054437425E+04  0.12699999809E+01 0.  1.
       -4    1    3    3    0  502  0.67396947698E+03 -0.61324622764E+03 -0.59983497932E+03  0.10909213569E+04  0.12699999809E+01 0. -1.
</event>
<event>
 5   0  0.8755004E-05  0.2103905E+04  0.7818609E-02  0.8559525E-01
       -1   -1    0    0    0  501  0.00000000000E+00  0.00000000000E+00  0.78699022021E+03  0.78699022023E+03  0.50400001928E-02 0. -1.
        1   -1    0    0  501    0  0.00000000000E+00  0.00000000000E+00 -0.14061219875E+04  0.14061219875E+04  0.50400001928E-02 0.  1.
    10030    2    1    2    0    0  0.00000000000E+00  0.00000000000E+00 -0.61913176730E+03  0.21931122078E+04  0.21039051810E+04 0.  0.
        3    1    3    3  502    0 -0.71933502462E+03  0.69184201007E+03  0.36969243313E+02  0.99872667918E+03  0.10100000352E+00 0. -1.
       -3    1    3    3    0  502  0.71933502462E+03 -0.69184201007E+03 -0.65610101061E+03  0.11943855286E+04  0.10100000352E+00 0.  1.
</event>
<event>
 5   0  0.1921687E-04  0.2092492E+04  0.7818609E-02  0.8564558E-01
       -2   -1    0    0    0  501  0.00000000000E+00  0.00000000000E+00  0.74051442538E+03  0.74051442538E+03  0.25500000920E-02 0.  1.
        2   -1    0    0  501    0  0.00000000000E+00  0.00000000000E+00 -0.14782031083E+04  0.14782031083E+04  0.25500000920E-02 0. -1.
    10030    2    1    2    0    0  0.00000000000E+00  0.00000000000E+00 -0.73768868288E+03  0.22187175336E+04  0.20924920313E+04 0.  0.
        5    1    3    3  502    0 -0.46910405908E+03 -0.46866726055E+03 -0.12269208939E+04  0.13946557243E+04  0.46999998093E+01 0. -1.
       -5    1    3    3    0  502  0.46910405908E+03  0.46866726055E+03  0.48923221102E+03  0.82406180937E+03  0.46999998093E+01 0.  1.
</event>
<event>
 5   0  0.6441125E-05  0.2128233E+04  0.7818609E-02  0.8548907E-01
       -4   -1    0    0    0  501  0.00000000000E+00  0.00000000000E+00  0.15650781844E+04  0.15650786997E+04  0.12699999809E+01 0. -1.
        4   -1    0    0  501    0  0.00000000000E+00  0.00000000000E+00 -0.72350523736E+03  0.72350635200E+03  0.12699999809E+01 0.  1.
    10030    2    1    2    0    0  0.00000000000E+00  0.00000000000E+00  0.84157294709E+03  0.22885850517E+04  0.21282331906E+04 0.  0.
        1    1    3    3  502    0  0.27526463725E+03 -0.47019284328E+03 -0.56213550098E+03  0.78284625047E+03  0.50400001928E-02 0.  1.
       -1    1    3    3    0  502 -0.27526463725E+03  0.47019284328E+03  0.14037084481E+04  0.15057388013E+04  0.50400001928E-02 0. -1.
</event>
<event>
 5   0  0.1886323E-04  0.2112060E+04  0.7818609E-02  0.8555949E-01
        2   -1    0    0  501    0  0.00000000000E+00  0.00000000000E+00  0.17809730797E+04  0.17809730797E+04  0.25500000920E-02 0. -1.
       -2   -1    0    0    0  501  0.00000000000E+00  0.00000000000E+00 -0.62617421189E+03  0.62617421190E+03  0.25500000920E-02 0.  1.
    10030    2    1    2    0    0  0.00000000000E+00  0.00000000000E+00  0.11547988678E+04  0.24071472916E+04  0.21120600508E+04 0.  0.
        2    1    3    3  502    0 -0.91610802532E+03 -0.49182182177E+03  0.78772801801E+03  0.13044761588E+04  0.25500000920E-02 0.  1.
       -2    1    3    3    0  502  0.91610802532E+03  0.49182182177E+03  0.36707084980E+03  0.11026711328E+04  0.25500000920E-02 0. -1.
</event>
<event>
 5   0  0.1777590E-04  0.2124223E+04  0.7818609E-02  0.8550648E-01
       -2   -1    0    0    0  501  0.00000000000E+00  0.00000000000E+00  0.76052432376E+03  0.76052432377E+03  0.25500000920E-02 0. -1.
        2   -1    0    0  501    0  0.00000000000E+00  0.00000000000E+00 -0.14832930661E+04  0.14832930661E+04  0.25500000920E-02 0.  1.
    10030    2    1    2    0    0  0.00000000000E+00  0.00000000000E+00 -0.72276874229E+03  0.22438173898E+04  0.21242226399E+04 0.  0.
        4    1    3    3  502    0  0.66125773150E+03 -0.22877893759E+03 -0.12054188561E+04  0.13937854287E+04  0.12699999809E+01 0.  1.
       -4    1    3    3    0  502 -0.66125773150E+03  0.22877893759E+03  0.48265011377E+03  0.85003196115E+03  0.12699999809E+01 0. -1.
</event>
<event>
 5   0  0.8237966E-05  0.2098501E+04  0.7818609E-02  0.8561904E-01
        1   -1    0    0  501    0  0.00000000000E+00  0.00000000000E+00  0.10176534599E+04  0.10176534599E+04  0.50400001928E-02 0. -1.
       -1   -1    0    0    0  501  0.00000000000E+00  0.00000000000E+00 -0.10818286040E+04  0.10818286040E+04  0.50400001928E-02 0.  1.
    10030    2    1    2    0    0  0.00000000000E+00  0.00000000000E+00 -0.64175144167E+02  0.20994820639E+04  0.20985010097E+04 0.  0.
        1    1    3    3  502    0 -0.12421994893E+02 -0.93006638193E+03 -0.51785430512E+03  0.10645895275E+04  0.50400001928E-02 0.  1.
       -1    1    3    3    0  502  0.12421994893E+02  0.93006638193E+03  0.45367916095E+03  0.10348925364E+04  0.50400001928E-02 0. -1.
</event>
<event>
 5   0  0.8237966E-05  0.2057680E+04  0.7818609E-02  0.8580118E-01
       -1   -1    0    0    0  501  0.00000000000E+00  0.00000000000E+00  0.76240919012E+03  0.76240919013E+03  0.50400001928E-02 0. -1.
        1   -1    0    0  501    0  0.00000000000E+00  0.00000000000E+00 -0.13883778796E+04  0.13883778796E+04  0.50400001928E-02 0.  1.
    10030    2    1    2    0    0  0.00000000000E+00  0.00000000000E+00 -0.62596868948E+03  0.21507870697E+04  0.20576803005E+04 0.  0.
        1    1    3    3  502    0 -0.81052737153E+02 -0.26531952223E+03 -0.13485444274E+04  0.13767846846E+04  0.50400001928E-02 0.  1.
       -1    1    3    3    0  502  0.81052737153E+02  0.26531952223E+03  0.72257573794E+03  0.77400238511E+03  0.50400001928E-02 0. -1.
</event>
<event>
 5   0  0.8486612E-05  0.2047852E+04  0.7818609E-02  0.8584569E-01
       -1   -1    0    0    0  501  0.00000000000E+00  0.00000000000E+00  0.94928160622E+03  0.94928160624E+03  0.50400001928E-02 0.  1.
        1   -1    0    0  501    0  0.00000000000E+00  0.00000000000E+00 -0.11044401141E+04  0.11044401141E+04  0.50400001928E-02 0. -1.
    10030    2    1    2    0    0  0.00000000000E+00  0.00000000000E+00 -0.15515850785E+03  0.20537217203E+04  0.20478522266E+04 0.  0.
        5    1    3    3  502    0  0.81809908035E+03  0.48491923111E+03  0.30294183142E+03  0.99811252331E+03  0.46999998093E+01 0. -1.
       -5    1    3    3    0  502 -0.81809908035E+03 -0.48491923111E+03 -0.45810033928E+03  0.10556091970E+04  0.46999998093E+01 0.  1.
</event>
<event>
 5   0  0.1810875E-04  0.2117145E+04  0.7818609E-02  0.8553728E-01
       -2   -1    0    0    0  501  0.00000000000E+00  0.00000000000E+00  0.73133576424E+03  0.73133576425E+03  0.25500000920E-02 0.  1.
        2   -1    0    0  501    0  0.00000000000E+00  0.00000000000E+00 -0.15322320045E+04  0.15322320045E+04  0.25500000920E-02 0. -1.
    10030    2    1    2    0    0  0.00000000000E+00  0.00000000000E+00 -0.80089624021E+03  0.22635677687E+04  0.21171453082E+04 0.  0.
        1    1    3    3  502    0  0.12310972143E+03 -0.10165766836E+04 -0.68731781601E+03  0.12332842079E+04  0.50400001928E-02 0.  1.
       -1    1    3    3    0  502 -0.12310972143E+03  0.10165766836E+04 -0.11357842421E+03  0.10302835608E+04  0.50400001928E-02 0. -1.
</event>
<event>
 5   0  0.1777590E-04  0.2065124E+04  0.7818609E-02  0.8576764E-01
        2   -1    0    0  501    0  0.00000000000E+00  0.00000000000E+00  0.18326781785E+04  0.18326781785E+04  0.25500000920E-02 0.  1.
       -2   -1    0    0    0  501  0.00000000000E+00  0.00000000000E+00 -0.58176271064E+03  0.58176271065E+03  0.25500000920E-02 0. -1.
    10030    2    1    2    0    0  0.00000000000E+00  0.00000000000E+00  0.12509154679E+04  0.24144408892E+04  0.20651235555E+04 0.  0.
        4    1    3    3  502    0  0.77595546140E+03 -0.66624810297E+03  0.45933625799E+03  0.11211533453E+04  0.12699999809E+01 0.  1.
       -4    1    3    3    0  502 -0.77595546140E+03  0.66624810297E+03  0.79157920987E+03  0.12932875439E+04  0.12699999809E+01 0. -1.
</event>
<event>
 5   0  0.8525278E-05  0.2068732E+04  0.7818609E-02  0.8575144E-01
        1   -1    0    0  501    0  0.00000000000E+00  0.00000000000E+00  0.75281883825E+03  0.75281883826E+03  0.50400001928E-02 0.  1.
       -1   -1    0    0    0  501  0.00000000000E+00  0.00000000000E+00 -0.14212086523E+04  0.14212086523E+04  0.50400001928E-02 0. -1.
    10030    2    1    2    0    0  0.00000000000E+00  0.00000000000E+00 -0.66838981405E+03  0.21740274906E+04  0.20687316371E+04 0.  0.
        4    1    3    3  502    0  0.22064666252E+03  0.89721427680E+03 -0.82287144227E+03  0.12372539883E+04  0.12699999809E+01 0. -1.
       -4    1    3    3    0  502 -0.22064666252E+03 -0.89721427680E+03  0.15448162822E+03  0.93677350226E+03  0.12699999809E+01 0.  1.
</event>
<event>
 5   0  0.8486612E-05  0.2107705E+04  0.7818609E-02  0.8557857E-01
        1   -1    0    0  501    0  0.00000000000E+00  0.00000000000E+00  0.17767406863E+04  0.17767406863E+04  0.50400001928E-02 0.  1.
       -1   -1    0    0    0  501  0.00000000000E+00  0.00000000000E+00 -0.62508014132E+03  0.62508014134E+03  0.50400001928E-02 0. -1.
    10030    2    1    2    0    0  0.00000000000E+00  0.00000000000E+00  0.11516605450E+04  0.24018208276E+04  0.21077052159E+04 0.  0.
        5    1    3    3  502    0  0.52735337286E+03 -0.28481066359E+03  0.15636008424E+04  0.16745412441E+04  0.46999998093E+01 0.  1.
       -5    1    3    3    0  502 -0.52735337286E+03  0.28481066359E+03 -0.41194029742E+03  0.72727958351E+03  0.46999998093E+01 0. -1.
</event>
<event>
 5   0  0.1810875E-04  0.2237467E+04  0.7818609E-02  0.8502993E-01
        2   -1    0    0  501    0  0.00000000000E+00  0.00000000000E+00  0.61785782848E+03  0.61785782848E+03  0.25500000920E-02 0. -1.
       -2   -1    0    0    0  501  0.00000000000E+00  0.00000000000E+00 -0.20256518035E+04  0.20256518035E+04  0.25500000920E-02 0.  1.
    10030    2    1    2    0    0  0.00000000000E+00  0.00000000000E+00 -0.14077939750E+04  0.26435096319E+04  0.22374671614E+04 0.  0.
        1    1    3    3  502    0  0.13311602473E+02  0.68333667650E+03 -0.17503113900E+04  0.18790200036E+04  0.50400001928E-02 0.  1.
       -1    1    3    3    0  502 -0.13311602473E+02 -0.68333667650E+03  0.34251741498E+03  0.76448962831E+03  0.50400001928E-02 0. -1.
</event>
<event>
 5   0  0.8755004E-05  0.2071138E+04  0.7818609E-02  0.8574065E-01
       -1   -1    0    0    0  501  0.00000000000E+00  0.00000000000E+00  0.10961912882E+04  0.10961912882E+04  0.50400001928E-02 0. -1.
        1   -1    0    0  501    0  0.00000000000E+00  0.00000000000E+00 -0.97829932642E+03  0.97829932643E+03  0.50400001928E-02 0.  1.
    10030    2    1    2    0    0  0.00000000000E+00  0.00000000000E+00  0.11789196179E+03  0.20744906147E+04  0.20711380436E+04 0.  0.
        3    1    3    3  502    0  0.44199974046E+03  0.72898653138E+03  0.64779050311E+03  0.10707089612E+04  0.10100000352E+00 0. -1.
       -3    1    3    3    0  502 -0.44199974046E+03 -0.72898653138E+03 -0.52989854132E+03  0.10037816534E+04  0.10100000352E+00 0.  1.
</event>
<event>
 5   0  0.1886323E-04  0.2034085E+04  0.7818609E-02  0.8590849E-01
        2   -1    0    0  501    0  0.00000000000E+00  0.00000000000E+00  0.13027073382E+04  0.13027073382E+04  0.25500000920E-02 0.  1.
       -2   -1    0    0    0  501  0.00000000000E+00  0.00000000000E+00 -0.79401955666E+03  0.79401955666E+03  0.25500000920E-02 0. -1.
    10030    2    1    2    0    0  0.00000000000E+00  0.00000000000E+00  0.50868778157E+03  0.20967268949E+04  0.20340846621E+04 0.  0.
        2    1    3    3  502    0  0.36232607453E+03 -0.82414515006E+03  0.74207469961E+03  0.11666920213E+04  0.25500000920E-02 0.  1.
       -2    1    3    3    0  502 -0.36232607453E+03  0.82414515006E+03 -0.23338691804E+03  0.93003487363E+03  0.25500000920E-02 0. -1.
</event>
<event>
 5   0  0.1886323E-04  0.2161672E+04  0.7818609E-02  0.8534553E-01
        2   -1    0    0  501    0  0.00000000000E+00  0.00000000000E+00  0.20321819574E+04  0.20321819574E+04  0.25500000920E-02 0. -1.
       -2   -1    0    0    0  501  0.00000000000E+00  0.00000000000E+00 -0.57485321749E+03  0.57485321750E+03  0.25500000920E-02 0.  1.
    10030    2    1    2    0    0  0.00000000000E+00  0.00000000000E+00  0.14573287399E+04  0.26070351749E+04  0.21616718870E+04 0.  0.
        2    1    3    3  502    0 -0.66459715302E+03 -0.35711979356E+03 -0.20472779758E+03  0.78175277029E+03  0.25500000920E-02 0.  1.
       -2    1    3    3    0  502  0.66459715302E+03  0.35711979356E+03  0.16620565375E+04  0.18252824046E+04  0.25500000920E-02 0. -1.
</event>
<event>
 5   0  0.1777590E-04  0.2094097E+04  0.7818609E-02  0.8563848E-01
       -2   -1    0    0    0  501  0.00000000000E+00  0.00000000000E+00  0.11947614805E+04  0.11947614805E+04  0.25500000920E-02 0. -1.
        2   -1    0    0  501    0  0.00000000000E+00  0.00000000000E+00 -0.91759793280E+03  0.91759793280E+03  0.25500000920E-02 0.  1.
    10030    2    1    2    0    0  0.00000000000E+00  0.00000000000E+00  0.27716354774E+03  0.21123594133E+04  0.20940970987E+04 0.  0.
        4    1    3    3  502    0 -0.78990162504E+03 -0.68680377504E+03  0.16459521954E+03  0.10595929416E+04  0.12699999809E+01 0.  1.
       -4    1    3    3    0  502  0.78990162504E+03  0.68680377504E+03  0.11256832820E+03  0.10527664718E+04  0.12699999809E+01 0. -1.
</event>
<event>
 5   0  0.1921687E-04  0.2109283E+04  0.7818609E-02  0.8557165E-01
       -2   -1    0    0    0  501  0.00000000000E+00  0.00000000000E+00  0.98437793395E+03  0.98437793395E+03  0.25500000920E-02 0.  1.
        2   -1    0    0  501    0  0.00000000000E+00  0.00000000000E+00 -0.11299204305E+04  0.11299204305E+04  0.25500000920E-02 0. -1.
    10030    2    1    2    0    0  0.00000000000E+00  0.00000000000E+00 -0.14554249652E+03  0.21142983644E+04  0.21092830430E+04 0.  0.
        5    1    3    3  502    0  0.87672880193E+02 -0.40751117456E+03  0.89829159824E+03  0.99030388103E+03  0.46999998093E+01 0.  1.
       -5    1    3    3    0  502 -0.87672880193E+02  0.40751117456E+03 -0.10438340948E+04  0.11239944834E+04  0.46999998093E+01 0. -1.
</event>
<event>
 5   0  0.1810875E-04  0.2091495E+04  0.7818609E-02  0.8564999E-01
        2   -1    0    0  501    0  0.00000000000E+00  0.00000000000E+00  0.15578822378E+04  0.15578822378E+04  0.25500000920E-02 0.  1.
       -2   -1    0    0    0  501  0.00000000000E+00  0.00000000000E+00 -0.70197083048E+03  0.70197083049E+03  0.25500000920E-02 0. -1.
    10030    2    1    2    0    0  0.00000000000E+00  0.00000000000E+00  0.85591140730E+03  0.22598530683E+04  0.20914950521E+04 0.  0.
        1    1    3    3  502    0 -0.10283909703E+04  0.85508709774E+02  0.24494574768E+03  0.10606121565E+04  0.50400001928E-02 0.  1.
       -1    1    3    3    0  502  0.10283909703E+04 -0.85508709774E+02  0.61096565962E+03  0.11992409118E+04  0.50400001928E-02 0. -1.
</event>
<event>
 5   0  0.1921687E-04  0.1994766E+04  0.7818609E-02  0.8609072E-01
       -2   -1    0    0    0  501  0.00000000000E+00  0.00000000000E+00  0.10220639490E+04  0.10220639490E+04  0.25500000920E-02 0.  1.
        2   -1    0    0  501    0  0.00000000000E+00  0.00000000000E+00 -0.97329813485E+03  0.97329813485E+03  0.25500000920E-02 0. -1.
    10030    2    1    2    0    0  0.00000000000E+00  0.00000000000E+00  0.48765814161E+02  0.19953620839E+04  0.19947660868E+04 0.  0.
        5    1    3    3  502    0 -0.18856795063E+03  0.71579155403E+03 -0.64427431130E+03  0.98133933939E+03  0.46999998093E+01 0. -1.
       -5    1    3    3    0  502  0.18856795063E+03 -0.71579155403E+03  0.69304012546E+03  0.10140227445E+04  0.46999998093E+01 0.  1.
</event>
<event>
 5   0  0.8525278E-05  0.2062292E+04  0.7818609E-02  0.8578038E-01
       -1   -1    0    0    0  501  0.00000000000E+00  0.00000000000E+00  0.88697100839E+03  0.88697100841E+03  0.50400001928E-02 0.  1.
        1   -1    0    0  501    0  0.00000000000E+00  0.00000000000E+00 -0.11987566387E+04  0.11987566387E+04  0.50400001928E-02 0. -1.
    10030    2    1    2    0    0  0.00000000000E+00  0.00000000000E+00 -0.31178563033E+03  0.20857276471E+04  0.20622923020E+04 0.  0.
        4    1    3    3  502    0  0.94881436426E+03 -0.37835401789E+03 -0.29842088405E+03  0.10641696752E+04  0.12699999809E+01 0. -1.
       -4    1    3    3    0  502 -0.94881436426E+03  0.37835401789E+03 -0.13364746281E+02  0.10215579719E+04  0.12699999809E+01 0.  1.
</event>
<event>
 5   0  0.8486612E-05  0.1911664E+04  0.7818609E-02  0.8649072E-01
       -1   -1    0    0    0  501  0.00000000000E+00  0.00000000000E+00  0.73028117565E+03  0.73028117567E+03  0.50400001928E-02 0. -1.
        1   -1    0    0  501    0  0.00000000000E+00  0.00000000000E+00 -0.12510447151E+04  0.12510447151E+04  0.50400001928E-02 0.  1.
    10030    2    1    2    0    0  0.00000000000E+00  0.00000000000E+00 -0.52076353941E+03  0.19813258907E+04  0.19116635743E+04 0.  0.
        5    1    3    3  502    0 -0.38318354515E+03 -0.23341755663E+03 -0.11351026600E+04  0.12205709827E+04  0.46999998093E+01 0.  1.
       -5    1    3    3    0  502  0.38318354515E+03  0.23341755663E+03  0.61433912061E+03  0.76075490805E+03  0.46999998093E+01 0. -1.
</event>
<event>
 5   0  0.1777590E-04  0.2126901E+04  0.7818609E-02  0.8549485E-01
       -2   -1    0    0    0  501  0.00000000000E+00  0.00000000000E+00  0.93788984151E+03  0.93788984151E+03  0.25500000920E-02 0.  1.
        2   -1    0    0  501    0  0.00000000000E+00  0.00000000000E+00 -0.12058206683E+04  0.12058206683E+04  0.25500000920E-02 0. -1.
    10030    2    1    2    0    0  0.00000000000E+00  0.00000000000E+00 -0.26793082675E+03  0.21437105098E+04  0.21269009901E+04 0.  0.
        4    1    3    3  502    0  0.98395972634E+03  0.35632615612E+03  0.56686281383E+02  0.10480267268E+04  0.12699999809E+01 0.  1.
       -4    1    3    3    0  502 -0.98395972634E+03 -0.35632615612E+03 -0.32461710813E+03  0.10956837830E+04  0.12699999809E+01 0. -1.
</event>
<event>
 5   0  0.1886323E-04  0.2090491E+04  0.7818609E-02  0.8565444E-01
       -2   -1    0    0    0  501  0.00000000000E+00  0.00000000000E+00  0.69227270262E+03  0.69227270262E+03  0.25500000920E-02 0. -1.
        2   -1    0    0  501    0  0.00000000000E+00  0.00000000000E+00 -0.15781902001E+04  0.15781902001E+04  0.25500000920E-02 0.  1.
    10030    2    1    2    0    0  0.00000000000E+00  0.00000000000E+00 -0.88591749744E+03  0.22704629027E+04  0.20904908467E+04 0.  0.
        2    1    3    3  502    0 -0.33528237731E+03 -0.81373607905E+03  0.16946292385E+03  0.89626913449E+03  0.25500000920E-02 0. -1.
       -2    1    3    3    0  502  0.33528237731E+03  0.81373607905E+03 -0.10553804213E+04  0.13741937682E+04  0.25500000920E-02 0.  1.
</event>
<event>
 5   0  0.8486612E-05  0.2118423E+04  0.7818609E-02  0.8553171E-01
        1   -1    0    0  501    0  0.00000000000E+00  0.00000000000E+00  0.10008397924E+04  0.10008397924E+04  0.50400001928E-02 0.  1.
       -1   -1    0    0    0  501  0.00000000000E+00  0.00000000000E+00 -0.11209878573E+04  0.11209878573E+04  0.50400001928E-02 0. -1.
    10030    2    1    2    0    0  0.00000000000E+00  0.00000000000E+00 -0.12014806487E+03  0.21218276497E+04  0.21184232385E+04 0.  0.
        5    1    3    3  502    0  0.72534968136E+03 -0.73467382835E+03 -0.29715966825E+03  0.10743387514E+04  0.46999998093E+01 0. -1.
       -5    1    3    3    0  502 -0.72534968136E+03  0.73467382835E+03  0.17701160338E+03  0.10474888983E+04  0.46999998093E+01 0.  1.
</event>
<event>
 5   0  0.8525278E-05  0.1624662E+04  0.7818609E-02  0.8805539E-01
       -1   -1    0    0    0  501  0.00000000000E+00  0.00000000000E+00  0.82956952876E+03  0.82956952878E+03  0.50400001928E-02 0. -1.
        1   -1    0    0  501    0  0.00000000000E+00  0.00000000000E+00 -0.79545019981E+03  0.79545019983E+03  0.50400001928E-02 0.  1.
    10030    2    1    2    0    0  0.00000000000E+00  0.00000000000E+00  0.34119328950E+02  0.16250197286E+04  0.16246615001E+04 0.  0.
        4    1    3    3  502    0 -0.14549424171E+03  0.77164265433E+03 -0.19102147761E+03  0.80814093954E+03  0.12699999809E+01 0. -1.
       -4    1    3    3    0  502  0.14549424171E+03 -0.77164265433E+03  0.22514080656E+03  0.81687878907E+03  0.12699999809E+01 0.  1.
</event>
<event>
 5   0  0.1921687E-04  0.2088863E+04  0.7818609E-02  0.8566165E-01
       -2   -1    0    0    0  501  0.00000000000E+00  0.00000000000E+00  0.66088658423E+03  0.66088658423E+03  0.25500000920E-02 0. -1.
        2   -1    0    0  501    0  0.00000000000E+00  0.00000000000E+00 -0.16505669644E+04  0.16505669644E+04  0.25500000920E-02 0.  1.
    10030    2    1    2    0    0  0.00000000000E+00  0.00000000000E+00 -0.98968038015E+03  0.23114535486E+04  0.20888633877E+04 0.  0.
        5    1    3    3  502    0  0.41871306200E+03 -0.18521607758E+03 -0.15335874117E+04  0.16004805725E+04  0.46999998093E+01 0.  1.
       -5    1    3    3    0  502 -0.41871306200E+03  0.18521607758E+03  0.54390703158E+03  0.71097297606E+03  0.46999998093E+01 0. -1.
</event>
<event>
 5   0  0.8271069E-05  0.2382526E+04  0.7818609E-02  0.8446074E-01
        1   -1    0    0  501    0  0.00000000000E+00  0.00000000000E+00  0.12058408193E+04  0.12058408193E+04  0.50400001928E-02 0. -1.
       -1   -1    0    0    0  501  0.00000000000E+00  0.00000000000E+00 -0.11768618799E+04  0.11768618800E+04  0.50400001928E-02 0.  1.
    10030    2    1    2    0    0  0.00000000000E+00  0.00000000000E+00  0.28978939354E+02  0.23827026993E+04  0.23825264687E+04 0.  0.
        2    1    3    3  502    0  0.66379226175E+03  0.32560648746E+03 -0.91963975918E+03  0.11799902703E+04  0.25500000920E-02 0.  1.
       -2    1    3    3    0  502 -0.66379226175E+03 -0.32560648746E+03  0.94861869854E+03  0.12027124289E+04  0.25500000920E-02 0. -1.
</event>
<event>
 5   0  0.8755004E-05  0.1762736E+04  0.7818609E-02  0.8726371E-01
        1   -1    0    0  501    0  0.00000000000E+00  0.00000000000E+00  0.64636671943E+03  0.64636671945E+03  0.50400001928E-02 0. -1.
       -1   -1    0    0    0  501  0.00000000000E+00  0.00000000000E+00 -0.12018095885E+04  0.12018095885E+04  0.50400001928E-02 0.  1.
    10030    2    1    2    0    0  0.00000000000E+00  0.00000000000E+00 -0.55544286904E+03  0.18481763079E+04  0.17627361925E+04 0.  0.
        3    1    3    3  502    0 -0.25689517174E+03 -0.26886433300E+02 -0.11612351498E+04  0.11896155232E+04  0.10100000352E+00 0.  1.
       -3    1    3    3    0  502  0.25689517174E+03  0.26886433300E+02  0.60579228079E+03  0.65856078476E+03  0.10100000352E+00 0. -1.
</event>
<event>
 5   0  0.8237966E-05  0.2084276E+04  0.7818609E-02  0.8568202E-01
       -1   -1    0    0    0  501  0.00000000000E+00  0.00000000000E+00  0.12464409989E+04  0.12464409989E+04  0.50400001928E-02 0. -1.
        1   -1    0    0  501    0  0.00000000000E+00  0.00000000000E+00 -0.87132210481E+03  0.87132210482E+03  0.50400001928E-02 0.  1.
    10030    2    1    2    0    0  0.00000000000E+00  0.00000000000E+00  0.37511889413E+03  0.21177631038E+04  0.20842759844E+04 0.  0.
        1    1    3    3  502    0 -0.87073282917E+03 -0.20812933095E+03 -0.35445098061E+03  0.96287536882E+03  0.50400001928E-02 0.  1.
       -1    1    3    3    0  502  0.87073282917E+03  0.20812933095E+03  0.72956987474E+03  0.11548877350E+04  0.50400001928E-02 0. -1.
</event>
<event>
 5   0  0.1810875E-04  0.2085526E+04  0.7818609E-02  0.8567646E-01
        2   -1    0    0  501    0  0.00000000000E+00  0.00000000000E+00  0.11464520077E+04  0.11464520077E+04  0.25500000920E-02 0. -1.
       -2   -1    0    0    0  501  0.00000000000E+00  0.00000000000E+00 -0.94845228805E+03  0.94845228805E+03  0.25500000920E-02 0.  1.
    10030    2    1    2    0    0  0.00000000000E+00  0.00000000000E+00  0.19799971961E+03  0.20949042957E+04  0.20855263410E+04 0.  0.
        1    1    3    3  502    0  0.15780816179E+03  0.10166504699E+04  0.26968579697E+03  0.10635845162E+04  0.50400001928E-02 0.  1.
       -1    1    3    3    0  502 -0.15780816179E+03 -0.10166504699E+04 -0.71686077366E+02  0.10313197795E+04  0.50400001928E-02 0. -1.
</event>
<event>
 5   0  0.1815400E-04  0.2046207E+04  0.7818609E-02  0.8585317E-01
        2   -1    0    0  501    0  0.00000000000E+00  0.00000000000E+00  0.24295631076E+04  0.24295631076E+04  0.25500000920E-02 0.  1.
       -2   -1    0    0    0  501  0.00000000000E+00  0.00000000000E+00 -0.43083479151E+03  0.43083479152E+03  0.25500000920E-02 0. -1.
    10030    2    1    2    0    0  0.00000000000E+00  0.00000000000E+00  0.19987283161E+04  0.28603978991E+04  0.20462065536E+04 0.  0.
        3    1    3    3  502    0 -0.50176393271E+03  0.81529437176E+03  0.15039051212E+04  0.17827514074E+04  0.10100000352E+00 0.  1.
       -3    1    3    3    0  502  0.50176393271E+03 -0.81529437176E+03  0.49482319495E+03  0.10776464918E+04  0.10100000352E+00 0. -1.
</event>
<event>
 5   0  0.1921687E-04  0.2108506E+04  0.7818609E-02  0.8557506E-01
       -2   -1    0    0    0  501  0.00000000000E+00  0.00000000000E+00  0.65677888964E+03  0.65677888964E+03  0.25500000920E-02 0. -1.
        2   -1    0    0  501    0  0.00000000000E+00  0.00000000000E+00 -0.16922735620E+04  0.16922735620E+04  0.25500000920E-02 0.  1.
    10030    2    1    2    0    0  0.00000000000E+00  0.00000000000E+00 -0.10354946724E+04  0.23490524517E+04  0.21085061546E+04 0.  0.
        5    1    3    3  502    0 -0.87067096944E+02 -0.80605881835E+03 -0.12685075086E+04  0.15054716495E+04  0.46999998093E+01 0.  1.
       -5    1    3    3    0  502  0.87067096944E+02  0.80605881835E+03  0.23301283620E+03  0.84358080220E+03  0.46999998093E+01 0. -1.
</event>
<event>
 5   0  0.1777590E-04  0.2006716E+04  0.7818609E-02  0.8603487E-01
       -2   -1    0    0    0  501  0.00000000000E+00  0.00000000000E+00  0.43009325509E+03  0.43009325509E+03  0.25500000920E-02 0.  1.
        2   -1    0    0  501    0  0.00000000000E+00  0.00000000000E+00 -0.23407188677E+04  0.23407188677E+04  0.25500000920E-02 0. -1.
    10030    2    1    2    0    0  0.00000000000E+00  0.00000000000E+00 -0.19106256127E+04  0.27708121228E+04  0.20067161205E+04 0.  0.
        4    1    3    3  502    0  0.67282005980E+02 -0.99714248065E+03 -0.10780832295E+04  0.14700629434E+04  0.12699999809E+01 0. -1.
       -4    1    3    3    0  502 -0.67282005980E+02  0.99714248065E+03 -0.83254238318E+03  0.13007491794E+04  0.12699999809E+01 0.  1.
</event>
<event>
 5   0  0.1810875E-04  0.1989077E+04  0.7818609E-02  0.8611744E-01
        2   -1    0    0  501    0  0.00000000000E+00  0.00000000000E+00  0.12158077849E+04  0.12158077849E+04  0.25500000920E-02 0.  1.
       -2   -1    0    0    0  501  0.00000000000E+00  0.00000000000E+00 -0.81353905293E+03  0.81353905293E+03  0.25500000920E-02 0. -1.
    10030    2    1    2    0    0  0.00000000000E+00  0.00000000000E+00  0.40226873193E+03  0.20293468378E+04  0.19890772874E+04 0.  0.
        1    1    3    3  502    0 -0.42144210655E+03  0.76695872615E+03  0.68321295078E+03  0.11102337920E+04  0.50400001928E-02 0.  1.
       -1    1    3    3    0  502  0.42144210655E+03 -0.76695872615E+03 -0.28094421885E+03  0.91911304578E+03  0.50400001928E-02 0. -1.
</event>
<event>
 5   0  0.8271069E-05  0.2169159E+04  0.7818609E-02  0.8531375E-01
        1   -1    0    0  501    0  0.00000000000E+00  0.00000000000E+00  0.15364671700E+04  0.15364671700E+04  0.50400001928E-02 0. -1.
       -1   -1    0    0    0  501  0.00000000000E+00  0.00000000000E+00 -0.76559584048E+03  0.76559584050E+03  0.50400001928E-02 0.  1.
    10030    2    1    2    0    0  0.00000000000E+00  0.00000000000E+00  0.77087132956E+03  0.23020630105E+04  0.21691591684E+04 0.  0.
        2    1    3    3  502    0  0.26663145895E+03  0.39982556408E+03 -0.64643296716E+03  0.80549885017E+03  0.25500000920E-02 0.  1.
       -2    1    3    3    0  502 -0.26663145895E+03 -0.39982556408E+03  0.14173042967E+04  0.14965641604E+04  0.25500000920E-02 0. -1.
</event>
<event>
 5   0  0.8755004E-05  0.2119771E+04  0.7818609E-02  0.8552584E-01
        1   -1    0    0  501    0  0.00000000000E+00  0.00000000000E+00  0.11143217192E+04  0.11143217192E+04  0.50400001928E-02 0.  1.
       -1   -1    0    0    0  501  0.00000000000E+00  0.00000000000E+00 -0.10081084605E+04  0.10081084605E+04  0.50400001928E-02 0. -1.
    10030    2    1    2    0    0  0.00000000000E+00  0.00000000000E+00  0.10621325869E+03  0.21224301798E+04  0.21197708866E+04 0.  0.
        3    1    3    3  502    0 -0.42380134545E+03  0.29411125461E+03 -0.87393185409E+03  0.10148230911E+04  0.10100000352E+00 0. -1.
       -3    1    3    3    0  502  0.42380134545E+03 -0.29411125461E+03  0.98014511277E+03  0.11076070886E+04  0.10100000352E+00 0.  1.
</event>
<event>
 5   0  0.1815400E-04  0.2230176E+04  0.7818609E-02  0.8505972E-01
       -2   -1    0    0    0  501  0.00000000000E+00  0.00000000000E+00  0.84428579515E+03  0.84428579515E+03  0.25500000920E-02 0.  1.
        2   -1    0    0  501    0  0.00000000000E+00  0.00000000000E+00 -0.14727489903E+04  0.14727489903E+04  0.25500000920E-02 0. -1.
    10030    2    1    2    0    0  0.00000000000E+00  0.00000000000E+00 -0.62846319518E+03  0.23170347855E+04  0.22301758248E+04 0.  0.
        3    1    3    3  502    0 -0.24409394150E+03  0.13840870300E+03 -0.14354679583E+04  0.14626370331E+04  0.10100000352E+00 0. -1.
       -3    1    3    3    0  502  0.24409394150E+03 -0.13840870300E+03  0.80700476308E+03  0.85439775233E+03  0.10100000352E+00 0.  1.
</event>
<event>
 5   0  0.1815400E-04  0.2128117E+04  0.7818609E-02  0.8548958E-01
       -2   -1    0    0    0  501  0.00000000000E+00  0.00000000000E+00  0.15964275625E+04  0.15964275625E+04  0.25500000920E-02 0.  1.
        2   -1    0    0  501    0  0.00000000000E+00  0.00000000000E+00 -0.70922102170E+03  0.70922102170E+03  0.25500000920E-02 0. -1.
    10030    2    1    2    0    0  0.00000000000E+00  0.00000000000E+00  0.88720654080E+03  0.23056485842E+04  0.21281165259E+04 0.  0.
        3    1    3    3  502    0  0.42052812815E+03  0.61869417817E+03 -0.37622133643E+03  0.83735828463E+03  0.10100000352E+00 0. -1.
       -3    1    3    3    0  502 -0.42052812815E+03 -0.61869417817E+03  0.12634278772E+04  0.14682902996E+04  0.10100000352E+00 0.  1.
</event>
<event>
 5   0  0.8525278E-05  0.1885351E+04  0.7818609E-02  0.8662183E-01
       -1   -1    0    0    0  501  0.00000000000E+00  0.00000000000E+00  0.87726504104E+03  0.87726504106E+03  0.50400001928E-02 0.  1.
        1   -1    0    0  501    0  0.00000000000E+00  0.00000000000E+00 -0.10129625757E+04  0.10129625757E+04  0.50400001928E-02 0. -1.
    10030    2    1    2    0    0  0.00000000000E+00  0.00000000000E+00 -0.13569753465E+03  0.18902276168E+04  0.18853505303E+04 0.  0.
        4    1    3    3  502    0  0.18060351508E+03 -0.60402768649E+03 -0.77049547260E+03  0.99555610686E+03  0.12699999809E+01 0. -1.
       -4    1    3    3    0  502 -0.18060351508E+03  0.60402768649E+03  0.63479793795E+03  0.89467150990E+03  0.12699999809E+01 0.  1.
</event>
<event>
 5   0  0.8237966E-05  0.1450447E+04  0.7818609E-02  0.8918091E-01
        1   -1    0    0  501    0  0.00000000000E+00  0.00000000000E+00  0.67514034940E+03  0.67514034942E+03  0.50400001928E-02 0. -1.
       -1   -1    0    0    0  501  0.00000000000E+00  0.00000000000E+00 -0.77902197553E+03  0.77902197555E+03  0.50400001928E-02 0.  1.
    10030    2    1    2    0    0  0.00000000000E+00  0.00000000000E+00 -0.10388162613E+03  0.14541623250E+04  0.14504470604E+04 0.  0.
        1    1    3    3  502    0 -0.68460780638E+03 -0.21984710037E+03 -0.14667397324E+03  0.73384865643E+03  0.50400001928E-02 0.  1.
       -1    1    3    3    0  502  0.68460780638E+03  0.21984710037E+03  0.42792347108E+02  0.72031366854E+03  0.50400001928E-02 0. -1.
</event>
<event>
 5   0  0.1921687E-04  0.2123050E+04  0.7818609E-02  0.8551157E-01
       -2   -1    0    0    0  501  0.00000000000E+00  0.00000000000E+00  0.69065365969E+03  0.69065365970E+03  0.25500000920E-02 0.  1.
        2   -1    0    0  501    0  0.00000000000E+00  0.00000000000E+00 -0.16315486619E+04  0.16315486620E+04  0.25500000920E-02 0. -1.
    10030    2    1    2    0    0  0.00000000000E+00  0.00000000000E+00 -0.94089500226E+03  0.23222023216E+04  0.21230497444E+04 0.  0.
        5    1    3    3  502    0  0.52128249896E+03 -0.69007575390E+03 -0.11437135252E+04  0.14338907586E+04  0.46999998093E+01 0. -1.
       -5    1    3    3    0  502 -0.52128249896E+03  0.69007575390E+03  0.20281852293E+03  0.88831156307E+03  0.46999998093E+01 0.  1.
</event>
<event>
 5   0  0.8525278E-05  0.2107834E+04  0.7818609E-02  0.8557800E-01
        1   -1    0    0  501    0  0.00000000000E+00  0.00000000000E+00  0.18344287963E+04  0.18344287963E+04  0.50400001928E-02 0. -1.
       -1   -1    0    0    0  501  0.00000000000E+00  0.00000000000E+00 -0.60549681022E+03  0.60549681024E+03  0.50400001928E-02 0.  1.
    10030    2    1    2    0    0  0.00000000000E+00  0.00000000000E+00  0.12289319861E+04  0.24399256066E+04  0.21078337551E+04 0.  0.
        4    1    3    3  502    0  0.40601033947E+03 -0.74480118536E+03  0.13384363143E+04  0.15846092836E+04  0.12699999809E+01 0.  1.
       -4    1    3    3    0  502 -0.40601033947E+03  0.74480118536E+03 -0.10950432819E+03  0.85531632293E+03  0.12699999809E+01 0. -1.
</event>
<event>
 5   0  0.8237966E-05  0.2096705E+04  0.7818609E-02  0.8562696E-01
        1   -1    0    0  501    0  0.00000000000E+00  0.00000000000E+00  0.92461016286E+03  0.92461016288E+03  0.50400001928E-02 0. -1.
       -1   -1    0    0    0  501  0.00000000000E+00  0.00000000000E+00 -0.11886559352E+04  0.11886559353E+04  0.50400001928E-02 0.  1.
    10030    2    1    2    0    0  0.00000000000E+00  0.00000000000E+00 -0.26404577239E+03  0.21132660981E+04  0.20967053755E+04 0.  0.
        1    1    3    3  502    0  0.20756375152E+03 -0.82029266027E+03 -0.75584656566E+03  0.11345778027E+04  0.50400001928E-02 0.  1.
       -1    1    3    3    0  502 -0.20756375152E+03  0.82029266027E+03  0.49180079327E+03  0.97868829549E+03  0.50400001928E-02 0. -1.
</event>
<event>
 5   0  0.1777590E-04  0.2065582E+04  0.7818609E-02  0.8576558E-01
       -2   -1    0    0    0  501  0.00000000000E+00  0.00000000000E+00  0.70501811270E+03  0.70501811271E+03  0.25500000920E-02 0.  1.
        2   -1    0    0  501    0  0.00000000000E+00  0.00000000000E+00 -0.15129505210E+04  0.15129505210E+04  0.25500000920E-02 0. -1.
    10030    2    1    2    0    0  0.00000000000E+00  0.00000000000E+00 -0.80793240829E+03  0.22179686337E+04  0.20655822626E+04 0.  0.
        4    1    3    3  502    0  0.28816828449E+03 -0.36740391537E+03 -0.13931384408E+04  0.14693069541E+04  0.12699999809E+01 0. -1.
       -4    1    3    3    0  502 -0.28816828449E+03  0.36740391537E+03  0.58520603248E+03  0.74866167964E+03  0.12699999809E+01 0.  1.
</event>
<event>
 5   0  0.8755004E-05  0.2086626E+04  0.7818609E-02  0.8567158E-01
       -1   -1    0    0    0  501  0.00000000000E+00  0.00000000000E+00  0.98987131469E+03  0.98987131470E+03  0.50400001928E-02 0. -1.
        1   -1    0    0  501    0  0.00000000000E+00  0.00000000000E+00 -0.10996402552E+04  0.10996402552E+04  0.50400001928E-02 0.  1.
    10030    2    1    2    0    0  0.00000000000E+00  0.00000000000E+00 -0.10976894050E+03  0.20895115699E+04  0.20866263155E+04 0.  0.
        3    1    3    3  502    0  0.32360364132E+03 -0.59458485108E+03  0.74009730482E+03  0.10029927680E+04  0.10100000352E+00 0. -1.
       -3    1    3    3    0  502 -0.32360364132E+03  0.59458485108E+03 -0.84986624532E+03  0.10865188019E+04  0.10100000352E+00 0.  1.
</event>
<event>
 5   0  0.8237966E-05  0.2105167E+04  0.7818609E-02  0.8558971E-01
       -1   -1    0    0    0  501  0.00000000000E+00  0.00000000000E+00  0.96662936656E+03  0.96662936658E+03  0.50400001928E-02 0. -1.
        1   -1    0    0  501    0  0.00000000000E+00  0.00000000000E+00 -0.11461808966E+04  0.11461808966E+04  0.50400001928E-02 0.  1.
    10030    2    1    2    0    0  0.00000000000E+00  0.00000000000E+00 -0.17955153006E+03  0.21128102632E+04  0.21051670851E+04 0.  0.
        1    1    3    3  502    0 -0.45848106994E+03  0.88359259600E+03  0.25350604953E+03  0.10272322446E+04  0.50400001928E-02 0. -1.
       -1    1    3    3    0  502  0.45848106994E+03 -0.88359259600E+03 -0.43305757959E+03  0.10855780186E+04  0.50400001928E-02 0.  1.
</event>
<event>
 5   0  0.8237966E-05  0.2093088E+04  0.7818609E-02  0.8564294E-01
        1   -1    0    0  501    0  0.00000000000E+00  0.00000000000E+00  0.16984416138E+04  0.16984416138E+04  0.50400001928E-02 0. -1.
       -1   -1    0    0    0  501  0.00000000000E+00  0.00000000000E+00 -0.64485862038E+03  0.64485862040E+03  0.50400001928E-02 0.  1.
    10030    2    1    2    0    0  0.00000000000E+00  0.00000000000E+00  0.10535829934E+04  0.23433002342E+04  0.20930883554E+04 0.  0.
        1    1    3    3  502    0  0.93035368643E+03  0.80442027387E+02 -0.21560196632E+01  0.93382736631E+03  0.50400001928E-02 0.  1.
       -1    1    3    3    0  502 -0.93035368643E+03 -0.80442027387E+02  0.10557390131E+04  0.14094728679E+04  0.50400001928E-02 0. -1.
</event>
<event>
 5   0  0.8486612E-05  0.2119827E+04  0.7818609E-02  0.8552559E-01
       -1   -1    0    0    0  501  0.00000000000E+00  0.00000000000E+00  0.83967540063E+03  0.83967540064E+03  0.50400001928E-02 0.  1.
        1   -1    0    0  501    0  0.00000000000E+00  0.00000000000E+00 -0.13379177137E+04  0.13379177138E+04  0.50400001928E-02 0. -1.
    10030    2    1    2    0    0  0.00000000000E+00  0.00000000000E+00 -0.49824231312E+03  0.21775931144E+04  0.21198269668E+04 0.  0.
        5    1    3    3  502    0 -0.70574519482E+03 -0.79042945956E+03 -0.22526125003E+03  0.10833373119E+04  0.46999998093E+01 0. -1.
       -5    1    3    3    0  502  0.70574519482E+03  0.79042945956E+03 -0.27298106309E+03  0.10942558025E+04  0.46999998093E+01 0.  1.
</event>
<event>
 5   0  0.8486612E-05  0.2077573E+04  0.7818609E-02  0.8571187E-01
        1   -1    0    0  501    0  0.00000000000E+00  0.00000000000E+00  0.15123513977E+04  0.15123513977E+04  0.50400001928E-02 0. -1.
       -1   -1    0    0    0  501  0.00000000000E+00  0.00000000000E+00 -0.71350990560E+03  0.71350990561E+03  0.50400001928E-02 0.  1.
    10030    2    1    2    0    0  0.00000000000E+00  0.00000000000E+00  0.79884149212E+03  0.22258613033E+04  0.20775732989E+04 0.  0.
        5    1    3    3  502    0  0.92890489052E+03 -0.28967018055E+03  0.78908713570E+03  0.12527783950E+04  0.46999998093E+01 0. -1.
       -5    1    3    3    0  502 -0.92890489052E+03  0.28967018055E+03  0.97543564297E+01  0.97308290839E+03  0.46999998093E+01 0.  1.
</event>
<event>
 5   0  0.8271069E-05  0.2105075E+04  0.7818609E-02  0.8559011E-01
       -1   -1    0    0    0  501  0.00000000000E+00  0.00000000000E+00  0.51091149930E+03  0.51091149933E+03  0.50400001928E-02 0. -1.
        1   -1    0    0  501    0  0.00000000000E+00  0.00000000000E+00 -0.21683501870E+04  0.21683501870E+04  0.50400001928E-02 0.  1.
    10030    2    1    2    0    0  0.00000000000E+00  0.00000000000E+00 -0.16574386877E+04  0.26792616863E+04  0.21050748634E+04 0.  0.
        2    1    3    3  502    0 -0.55330539477E+03  0.89019355612E+03 -0.95108754608E+03  0.14153299783E+04  0.25500000920E-02 0. -1.
       -2    1    3    3    0  502  0.55330539477E+03 -0.89019355612E+03 -0.70635114162E+03  0.12639317080E+04  0.25500000920E-02 0.  1.
</event>
<event>
 5   0  0.8271069E-05  0.2091139E+04  0.7818609E-02  0.8565157E-01
        1   -1    0    0  501    0  0.00000000000E+00  0.00000000000E+00  0.11164574514E+04  0.11164574514E+04  0.50400001928E-02 0. -1.
       -1   -1    0    0    0  501  0.00000000000E+00  0.00000000000E+00 -0.97918222246E+03  0.97918222248E+03  0.50400001928E-02 0.  1.
    10030    2    1    2    0    0  0.00000000000E+00  0.00000000000E+00  0.13727522898E+03  0.20956396739E+04  0.20911387220E+04 0.  0.
        2    1    3    3  502    0  0.76215604616E+03  0.57390321885E+03  0.49730652323E+03  0.10758998659E+04  0.25500000920E-02 0. -1.
       -2    1    3    3    0  502 -0.76215604616E+03 -0.57390321885E+03 -0.36003129426E+03  0.10197398081E+04  0.25500000920E-02 0.  1.
</event>
<event>
 5   0  0.8271069E-05  0.2182768E+04  0.7818609E-02  0.8525635E-01
       -1   -1    0    0    0  501  0.00000000000E+00  0.00000000000E+00  0.74267807658E+03  0.74267807660E+03  0.50400001928E-02 0. -1.
        1   -1    0    0  501    0  0.00000000000E+00  0.00000000000E+00 -0.16038154178E+04  0.16038154178E+04  0.50400001928E-02 0.  1.
    10030    2    1    2    0    0  0.00000000000E+00  0.00000000000E+00 -0.86113734125E+03  0.23464934944E+04  0.21827675549E+04 0.  0.
        2    1    3    3  502    0  0.18274800702E+03 -0.15977838545E+03  0.71328907551E+03  0.75346351721E+03  0.25500000920E-02 0. -1.
       -2    1    3    3    0  502 -0.18274800702E+03  0.15977838545E+03 -0.15744264168E+04  0.15930299772E+04  0.25500000920E-02 0.  1.
</event>
<event>
 5   0  0.1921687E-04  0.2430126E+04  0.7818609E-02  0.8428310E-01
        2   -1    0    0  501    0  0.00000000000E+00  0.00000000000E+00  0.10123652615E+04  0.10123652615E+04  0.25500000920E-02 0.  1.
       -2   -1    0    0    0  501  0.00000000000E+00  0.00000000000E+00 -0.14583448561E+04  0.14583448561E+04  0.25500000920E-02 0. -1.
    10030    2    1    2    0    0  0.00000000000E+00  0.00000000000E+00 -0.44597959457E+03  0.24707101176E+04  0.24301256524E+04 0.  0.
        5    1    3    3  502    0  0.97064429728E+03 -0.51529719805E+03  0.30400448894E+03  0.11402290881E+04  0.46999998093E+01 0.  1.
       -5    1    3    3    0  502 -0.97064429728E+03  0.51529719805E+03 -0.74998408351E+03  0.13304810294E+04  0.46999998093E+01 0. -1.
</event>
<event>
 5   0  0.8237966E-05  0.2094768E+04  0.7818609E-02  0.8563552E-01
       -1   -1    0    0    0  501  0.00000000000E+00  0.00000000000E+00  0.48798382220E+03  0.48798382222E+03  0.50400001928E-02 0. -1.
        1   -1    0    0  501    0  0.00000000000E+00  0.00000000000E+00 -0.22480524031E+04  0.22480524031E+04  0.50400001928E-02 0.  1.
    10030    2    1    2    0    0  0.00000000000E+00  0.00000000000E+00 -0.17600685809E+04  0.27360362253E+04  0.20947679625E+04 0.  0.
        1    1    3    3  502    0  0.43691920631E+03  0.51939168646E+03 -0.19219508737E+04  0.20382740928E+04  0.50400001928E-02 0.  1.
       -1    1    3    3    0  502 -0.43691920631E+03 -0.51939168646E+03  0.16188229274E+03  0.69776213249E+03  0.50400001928E-02 0. -1.
</event>
<event>
 5   0  0.6441125E-05  0.2102618E+04  0.7818609E-02  0.8560091E-01
        3   -1    0    0  501    0  0.00000000000E+00  0.00000000000E+00  0.10593582066E+04  0.10593582114E+04  0.10100000352E+00 0.  1.
       -3   -1    0    0    0  501  0.00000000000E+00  0.00000000000E+00 -0.10433210435E+04  0.10433210484E+04  0.10100000352E+00 0. -1.
    10030    2    1    2    0    0  0.00000000000E+00  0.00000000000E+00  0.16037163083E+02  0.21026792598E+04  0.21026181011E+04 0.  0.
        3    1    3    3  502    0 -0.10265269365E+04  0.22642191641E+03  0.23061426799E+02  0.10514543619E+04  0.10100000352E+00 0. -1.
       -3    1    3    3    0  502  0.10265269365E+04 -0.22642191641E+03 -0.70242637160E+01  0.10512248979E+04  0.10100000352E+00 0.  1.
</event>
<event>
 5   0  0.1815400E-04  0.2050725E+04  0.7818609E-02  0.8583265E-01
       -2   -1    0    0    0  501  0.00000000000E+00  0.00000000000E+00  0.11815032260E+04  0.11815032260E+04  0.25500000920E-02 0. -1.
        2   -1    0    0  501    0  0.00000000000E+00  0.00000000000E+00 -0.88985685101E+03  0.88985685102E+03  0.25500000920E-02 0.  1.
    10030    2    1    2    0    0  0.00000000000E+00  0.00000000000E+00  0.29164637495E+03  0.20713600770E+04  0.20507254718E+04 0.  0.
        3    1    3    3  502    0  0.85347065619E+03 -0.56829118576E+03  0.14713903759E+03  0.10358653095E+04  0.10100000352E+00 0.  1.
       -3    1    3    3    0  502 -0.85347065619E+03  0.56829118576E+03  0.14450733737E+03  0.10354947675E+04  0.10100000352E+00 0. -1.
</event>
<event>
 5   0  0.8525278E-05  0.2345325E+04  0.7818609E-02  0.8460261E-01
        1   -1    0    0  501    0  0.00000000000E+00  0.00000000000E+00  0.23153457880E+04  0.23153457880E+04  0.50400001928E-02 0.  1.
       -1   -1    0    0    0  501  0.00000000000E+00  0.00000000000E+00 -0.59392331857E+03  0.59392331859E+03  0.50400001928E-02 0. -1.
    10030    2    1    2    0    0  0.00000000000E+00  0.00000000000E+00  0.17214224694E+04  0.29092691066E+04  0.23453254393E+04 0.  0.
        4    1    3    3  502    0  0.69663590915E+03 -0.90866013389E+03  0.54647838799E+03  0.12687021204E+04  0.12699999809E+01 0. -1.
       -4    1    3    3    0  502 -0.69663590915E+03  0.90866013389E+03  0.11749440815E+04  0.16405669862E+04  0.12699999809E+01 0.  1.
</event>
<event>
 5   0  0.1777590E-04  0.1984835E+04  0.7818609E-02  0.8613744E-01
        2   -1    0    0  501    0  0.00000000000E+00  0.00000000000E+00  0.83340996514E+03  0.83340996514E+03  0.25500000920E-02 0. -1.
       -2   -1    0    0    0  501  0.00000000000E+00  0.00000000000E+00 -0.11817618271E+04  0.11817618272E+04  0.25500000920E-02 0.  1.
    10030    2    1    2    0    0  0.00000000000E+00  0.00000000000E+00 -0.34835186201E+03  0.20151717923E+04  0.19848345857E+04 0.  0.
        4    1    3    3  502    0  0.44170369222E+03 -0.24235104719E+03  0.69390970688E+03  0.85752462122E+03  0.12699999809E+01 0. -1.
       -4    1    3    3    0  502 -0.44170369222E+03  0.24235104719E+03 -0.10422615689E+04  0.11576471711E+04  0.12699999809E+01 0.  1.
</event>
<event>
 5   0  0.1810875E-04  0.2102696E+04  0.7818609E-02  0.8560057E-01
       -2   -1    0    0    0  501  0.00000000000E+00  0.00000000000E+00  0.12201914347E+04  0.12201914347E+04  0.25500000920E-02 0.  1.
        2   -1    0    0  501    0  0.00000000000E+00  0.00000000000E+00 -0.90586826894E+03  0.90586826894E+03  0.25500000920E-02 0. -1.
    10030    2    1    2    0    0  0.00000000000E+00  0.00000000000E+00  0.31432316580E+03  0.21260597037E+04  0.21026960815E+04 0.  0.
        1    1    3    3  502    0  0.67532715770E+03  0.35462093880E+03 -0.57441771877E+03  0.95487093150E+03  0.50400001928E-02 0. -1.
       -1    1    3    3    0  502 -0.67532715770E+03 -0.35462093880E+03  0.88874088457E+03  0.11711887722E+04  0.50400001928E-02 0.  1.
</event>
<event>
 5   0  0.8755004E-05  0.2074638E+04  0.7818609E-02  0.8572498E-01
       -1   -1    0    0    0  501  0.00000000000E+00  0.00000000000E+00  0.10436035579E+04  0.10436035579E+04  0.50400001928E-02 0. -1.
        1   -1    0    0  501    0  0.00000000000E+00  0.00000000000E+00 -0.10310726860E+04  0.10310726860E+04  0.50400001928E-02 0.  1.
    10030    2    1    2    0    0  0.00000000000E+00  0.00000000000E+00  0.12530871876E+02  0.20746762439E+04  0.20746384008E+04 0.  0.
        3    1    3    3  502    0 -0.73519725580E+03  0.73173334330E+03  0.15344295960E+02  0.10373929575E+04  0.10100000352E+00 0. -1.
       -3    1    3    3    0  502  0.73519725580E+03 -0.73173334330E+03 -0.28134240837E+01  0.10372832864E+04  0.10100000352E+00 0.  1.
</event>
<event>
 5   0  0.1815400E-04  0.2065920E+04  0.7818609E-02  0.8576406E-01
       -2   -1    0    0    0  501  0.00000000000E+00  0.00000000000E+00  0.13446820262E+04  0.13446820262E+04  0.25500000920E-02 0. -1.
        2   -1    0    0  501    0  0.00000000000E+00  0.00000000000E+00 -0.79350086261E+03  0.79350086262E+03  0.25500000920E-02 0.  1.
    10030    2    1    2    0    0  0.00000000000E+00  0.00000000000E+00  0.55118116361E+03  0.21381828888E+04  0.20659199866E+04 0.  0.
        3    1    3    3  502    0  0.37628326568E+03 -0.51399522121E+02  0.12698033592E+04  0.13253797902E+04  0.10100000352E+00 0. -1.
       -3    1    3    3    0  502 -0.37628326568E+03  0.51399522121E+02 -0.71862219563E+03  0.81280309864E+03  0.10100000352E+00 0.  1.
</event>
<event>
 5   0  0.8525278E-05  0.2105248E+04  0.7818609E-02  0.8558935E-01
       -1   -1    0    0    0  501  0.00000000000E+00  0.00000000000E+00  0.50295670731E+03  0.50295670733E+03  0.50400001928E-02 0.  1.
        1   -1    0    0  501    0  0.00000000000E+00  0.00000000000E+00 -0.22030076889E+04  0.22030076889E+04  0.50400001928E-02 0. -1.
    10030    2    1    2    0    0  0.00000000000E+00  0.00000000000E+00 -0.17000509816E+04  0.27059643962E+04  0.21052481976E+04 0.  0.
        4    1    3    3  502    0  0.83067239324E+03 -0.24271448057E+03 -0.16202543489E+04  0.18368866900E+04  0.12699999809E+01 0. -1.
       -4    1    3    3    0  502 -0.83067239324E+03  0.24271448057E+03 -0.79796632714E+02  0.86907770623E+03  0.12699999809E+01 0.  1.
</event>
<event>
 5   0  0.1886323E-04  0.1955315E+04  0.7818609E-02  0.8627802E-01
        2   -1    0    0  501    0  0.00000000000E+00  0.00000000000E+00  0.34793337611E+03  0.34793337612E+03  0.25500000920E-02 0. -1.
       -2   -1    0    0    0  501  0.00000000000E+00  0.00000000000E+00 -0.27471181228E+04  0.27471181228E+04  0.25500000920E-02 0.  1.
    10030    2    1    2    0    0  0.00000000000E+00  0.00000000000E+00 -0.23991847466E+04  0.30950514989E+04  0.19553148934E+04 0.  0.
        2    1    3    3  502    0 -0.62232105534E+03 -0.68496270180E+03 -0.70065077226E+03  0.11607622080E+04  0.25500000920E-02 0. -1.
       -2    1    3    3    0  502  0.62232105534E+03  0.68496270180E+03 -0.16985339744E+04  0.19342892909E+04  0.25500000920E-02 0.  1.
</event>
<event>
 5   0  0.8525278E-05  0.2110558E+04  0.7818609E-02  0.8556607E-01
       -1   -1    0    0    0  501  0.00000000000E+00  0.00000000000E+00  0.10567654551E+04  0.10567654551E+04  0.50400001928E-02 0. -1.
        1   -1    0    0  501    0  0.00000000000E+00  0.00000000000E+00 -0.10537945326E+04  0.10537945326E+04  0.50400001928E-02 0.  1.
    10030    2    1    2    0    0  0.00000000000E+00  0.00000000000E+00  0.29709224483E+01  0.21105599877E+04  0.21105578967E+04 0.  0.
        4    1    3    3  502    0 -0.35784913671E+03 -0.91201215494E+03  0.39364636600E+03  0.10558320178E+04  0.12699999809E+01 0.  1.
       -4    1    3    3    0  502  0.35784913671E+03  0.91201215494E+03 -0.39067544355E+03  0.10547279699E+04  0.12699999809E+01 0. -1.
</event>
<event>
 5   0  0.8525278E-05  0.2069068E+04  0.7818609E-02  0.8574993E-01
       -1   -1    0    0    0  501  0.00000000000E+00  0.00000000000E+00  0.62244631320E+03  0.62244631322E+03  0.50400001928E-02 0.  1.
        1   -1    0    0  501    0  0.00000000000E+00  0.00000000000E+00 -0.17194429604E+04  0.17194429604E+04  0.50400001928E-02 0. -1.
    10030    2    1    2    0    0  0.00000000000E+00  0.00000000000E+00 -0.10969966472E+04  0.23418892737E+04  0.20690683232E+04 0.  0.
        4    1    3    3  502    0  0.77767855405E+02 -0.17205244844E+03 -0.16997750963E+04  0.17102300650E+04  0.12699999809E+01 0. -1.
       -4    1    3    3    0  502 -0.77767855405E+02  0.17205244844E+03  0.60277844906E+03  0.63165920867E+03  0.12699999809E+01 0.  1.
</event>
<event>
 5   0  0.8271069E-05  0.2057773E+04  0.7818609E-02  0.8580076E-01
        1   -1    0    0  501    0  0.00000000000E+00  0.00000000000E+00  0.14961798054E+04  0.14961798054E+04  0.50400001928E-02 0. -1.
       -1   -1    0    0    0  501  0.00000000000E+00  0.00000000000E+00 -0.70754041334E+03  0.70754041336E+03  0.50400001928E-02 0.  1.
    10030    2    1    2    0    0  0.00000000000E+00  0.00000000000E+00  0.78863939205E+03  0.22037202187E+04  0.20577732411E+04 0.  0.
        2    1    3    3  502    0  0.80395982316E+03 -0.27184098191E+02  0.10813137726E+04  0.13477128207E+04  0.25500000920E-02 0. -1.
       -2    1    3    3    0  502 -0.80395982316E+03  0.27184098191E+02 -0.29267438050E+03  0.85600739802E+03  0.25500000920E-02 0.  1.
</event>
<event>
 5   0  0.1886323E-04  0.2134521E+04  0.7818609E-02  0.8546187E-01
        2   -1    0    0  501    0  0.00000000000E+00  0.00000000000E+00  0.10655444351E+04  0.10655444351E+04  0.25500000920E-02 0.  1.
       -2   -1    0    0    0  501  0.00000000000E+00  0.00000000000E+00 -0.10689790927E+04  0.10689790927E+04  0.25500000920E-02 0. -1.
    10030    2    1    2    0    0  0.00000000000E+00  0.00000000000E+00 -0.34346575941E+01  0.21345235279E+04  0.21345207645E+04 0.  0.
        2    1    3    3  502    0 -0.18191863813E+03  0.12957578678E+03  0.10419125233E+04  0.10655824612E+04  0.25500000920E-02 0.  1.
       -2    1    3    3    0  502  0.18191863813E+03 -0.12957578678E+03 -0.10453471809E+04  0.10689410667E+04  0.25500000920E-02 0. -1.
</event>
<event>
 5   0  0.1810875E-04  0.2035414E+04  0.7818609E-02  0.8590240E-01
        2   -1    0    0  501    0  0.00000000000E+00  0.00000000000E+00  0.15946691933E+04  0.15946691933E+04  0.25500000920E-02 0.  1.
       -2   -1    0    0    0  501  0.00000000000E+00  0.00000000000E+00 -0.64949374350E+03  0.64949374350E+03  0.25500000920E-02 0. -1.
    10030    2    1    2    0    0  0.00000000000E+00  0.00000000000E+00  0.94517544978E+03  0.22441629368E+04  0.20354141239E+04 0.  0.
        1    1    3    3  502    0 -0.13792183930E+03 -0.21356439412E+03  0.15590948234E+04  0.15796863146E+04  0.50400001928E-02 0.  1.
       -1    1    3    3    0  502  0.13792183930E+03  0.21356439412E+03 -0.61391937358E+03  0.66447662221E+03  0.50400001928E-02 0. -1.
</event>
<event>
 5   0  0.6441125E-05  0.2108978E+04  0.7818609E-02  0.8557299E-01
        4   -1    0    0  501    0  0.00000000000E+00  0.00000000000E+00  0.80229910498E+03  0.80230011015E+03  0.12699999809E+01 0.  1.
       -4   -1    0    0    0  501  0.00000000000E+00  0.00000000000E+00 -0.13859479908E+04  0.13859485727E+04  0.12699999809E+01 0. -1.
    10030    2    1    2    0    0  0.00000000000E+00  0.00000000000E+00 -0.58364888582E+03  0.21882486828E+04  0.21089775428E+04 0.  0.
        5    1    3    3  502    0 -0.43942153135E+03 -0.79986837972E+03 -0.83992581263E+03  0.12403137376E+04  0.46999998093E+01 0.  1.
       -5    1    3    3    0  502  0.43942153135E+03  0.79986837972E+03  0.25627692681E+03  0.94793494518E+03  0.46999998093E+01 0. -1.
</event>
<event>
 5   0  0.1810875E-04  0.2352843E+04  0.7818609E-02  0.8457372E-01
       -2   -1    0    0    0  501  0.00000000000E+00  0.00000000000E+00  0.12452123708E+04  0.12452123708E+04  0.25500000920E-02 0. -1.
        2   -1    0    0  501    0  0.00000000000E+00  0.00000000000E+00 -0.11114312976E+04  0.11114312976E+04  0.25500000920E-02 0.  1.
    10030    2    1    2    0    0  0.00000000000E+00  0.00000000000E+00  0.13378107316E+03  0.23566436684E+04  0.23528433871E+04 0.  0.
        1    1    3    3  502    0 -0.11748738461E+04 -0.48110997396E+02  0.10334683399E+03  0.11803913717E+04  0.50400001928E-02 0.  1.
       -1    1    3    3    0  502  0.11748738461E+04  0.48110997396E+02  0.30434239165E+02  0.11762522966E+04  0.50400001928E-02 0. -1.
</event>
<event>
 5   0  0.8237966E-05  0.2099926E+04  0.7818609E-02  0.8561276E-01
       -1   -1    0    0    0  501  0.00000000000E+00  0.00000000000E+00  0.16013014021E+04  0.16013014022E+04  0.50400001928E-02 0. -1.
        1   -1    0    0  501    0  0.00000000000E+00  0.00000000000E+00 -0.68845375394E+03  0.68845375396E+03  0.50400001928E-02 0.  1.
    10030    2    1    2    0    0  0.00000000000E+00  0.00000000000E+00  0.91284764821E+03  0.22897551561E+04  0.20999256763E+04 0.  0.
        1    1    3    3  502    0  0.88259201534E+03 -0.39553164236E+03  0.90203264586E+03  0.13225266878E+04  0.50400001928E-02 0. -1.
       -1    1    3    3    0  502 -0.88259201534E+03  0.39553164236E+03  0.10815002351E+02  0.96722846834E+03  0.50400001928E-02 0.  1.
</event>
<event>
 5   0  0.1921687E-04  0.2085803E+04  0.7818609E-02  0.8567523E-01
       -2   -1    0    0    0  501  0.00000000000E+00  0.00000000000E+00  0.85291025357E+03  0.85291025357E+03  0.25500000920E-02 0. -1.
        2   -1    0    0  501    0  0.00000000000E+00  0.00000000000E+00 -0.12752143818E+04  0.12752143818E+04  0.25500000920E-02 0.  1.
    10030    2    1    2    0    0  0.00000000000E+00  0.00000000000E+00 -0.42230412820E+03  0.21281246353E+04  0.20858028878E+04 0.  0.
        5    1    3    3  502    0  0.18305185895E+03 -0.69548712926E+03 -0.98173207913E+03  0.12169758811E+04  0.46999998093E+01 0.  1.
       -5    1    3    3    0  502 -0.18305185895E+03  0.69548712926E+03  0.55942795093E+03  0.91114875422E+03  0.46999998093E+01 0. -1.
</event>
<event>
 5   0  0.1777590E-04  0.2105133E+04  0.7818609E-02  0.8558986E-01
        2   -1    0    0  501    0  0.00000000000E+00  0.00000000000E+00  0.97470297730E+03  0.97470297730E+03  0.25500000920E-02 0. -1.
       -2   -1    0    0    0  501  0.00000000000E+00  0.00000000000E+00 -0.11366498339E+04  0.11366498339E+04  0.25500000920E-02 0.  1.
    10030    2    1    2    0    0  0.00000000000E+00  0.00000000000E+00 -0.16194685658E+03  0.21113528112E+04  0.21051327533E+04 0.  0.
        4    1    3    3  502    0 -0.93481626714E+03  0.84179438720E+02 -0.55874923333E+03  0.10923231893E+04  0.12699999809E+01 0. -1.
       -4    1    3    3    0  502  0.93481626714E+03 -0.84179438720E+02  0.39680237674E+03  0.10190296219E+04  0.12699999809E+01 0.  1.
</event>
<event>
 5   0  0.1777590E-04  0.2100665E+04  0.7818609E-02  0.8560950E-01
       -2   -1    0    0    0  501  0.00000000000E+00  0.00000000000E+00  0.61071878951E+03  0.61071878952E+03  0.25500000920E-02 0. -1.
        2   -1    0    0  501    0  0.00000000000E+00  0.00000000000E+00 -0.18063941279E+04  0.18063941279E+04  0.25500000920E-02 0.  1.
    10030    2    1    2    0    0  0.00000000000E+00  0.00000000000E+00 -0.11956753384E+04  0.24171129174E+04  0.21006654519E+04 0.  0.
        4    1    3    3  502    0  0.59484329617E+02 -0.85838922459E+03  0.95252455834E+02  0.86570496683E+03  0.12699999809E+01 0. -1.
       -4    1    3    3    0  502 -0.59484329617E+02  0.85838922459E+03 -0.12909277942E+04  0.15514079506E+04  0.12699999809E+01 0.  1.
</event>
<event>
 5   0  0.8271069E-05  0.2093396E+04  0.7818609E-02  0.8564158E-01
        1   -1    0    0  501    0  0.00000000000E+00  0.00000000000E+00  0.18729480003E+04  0.18729480004E+04  0.50400001928E-02 0.  1.
       -1   -1    0    0    0  501  0.00000000000E+00  0.00000000000E+00 -0.58494789299E+03  0.58494789301E+03  0.50400001928E-02 0. -1.
    10030    2    1    2    0    0  0.00000000000E+00  0.00000000000E+00  0.12880001074E+04  0.24578958934E+04  0.20933962707E+04 0.  0.
        2    1    3    3  502    0 -0.36891417008E+03 -0.62213054722E+03  0.15323300608E+04  0.16944555166E+04  0.25500000920E-02 0.  1.
       -2    1    3    3    0  502  0.36891417008E+03  0.62213054722E+03 -0.24432995343E+03  0.76344037673E+03  0.25500000920E-02 0. -1.
</event>
<event>
 5   0  0.8755004E-05  0.1387691E+04  0.7818609E-02  0.8962777E-01
        1   -1    0    0  501    0  0.00000000000E+00  0.00000000000E+00  0.52109152689E+03  0.52109152691E+03  0.50400001928E-02 0. -1.
       -1   -1    0    0    0  501  0.00000000000E+00  0.00000000000E+00 -0.92387115396E+03  0.92387115398E+03  0.50400001928E-02 0.  1.
    10030    2    1    2    0    0  0.00000000000E+00  0.00000000000E+00 -0.40277962708E+03  0.14449626809E+04  0.13876907873E+04 0.  0.
        3    1    3    3  502    0 -0.20356439381E+03  0.66303791920E+03 -0.18153248270E+03  0.71694616060E+03  0.10100000352E+00 0. -1.
       -3    1    3    3    0  502  0.20356439381E+03 -0.66303791920E+03 -0.22124714438E+03  0.72801652029E+03  0.10100000352E+00 0.  1.
</event>
<event>
 5   0  0.8486612E-05  0.2120087E+04  0.7818609E-02  0.8552446E-01
       -1   -1    0    0    0  501  0.00000000000E+00  0.00000000000E+00  0.79668519735E+03  0.79668519737E+03  0.50400001928E-02 0.  1.
        1   -1    0    0  501    0  0.00000000000E+00  0.00000000000E+00 -0.14104598139E+04  0.14104598140E+04  0.50400001928E-02 0. -1.
    10030    2    1    2    0    0  0.00000000000E+00  0.00000000000E+00 -0.61377461659E+03  0.22071450113E+04  0.21200872201E+04 0.  0.
        5    1    3    3  502    0 -0.69547695702E+03 -0.18385820519E+03 -0.11174327023E+04  0.13289732772E+04  0.46999998093E+01 0. -1.
       -5    1    3    3    0  502  0.69547695702E+03  0.18385820519E+03  0.50365808568E+03  0.87817173413E+03  0.46999998093E+01 0.  1.
</event>
<event>
 5   0  0.1777590E-04  0.2073805E+04  0.7818609E-02  0.8572871E-01
        2   -1    0    0  501    0  0.00000000000E+00  0.00000000000E+00  0.63094320589E+03  0.63094320590E+03  0.25500000920E-02 0. -1.
       -2   -1    0    0    0  501  0.00000000000E+00  0.00000000000E+00 -0.17040624657E+04  0.17040624657E+04  0.25500000920E-02 0.  1.
    10030    2    1    2    0    0  0.00000000000E+00  0.00000000000E+00 -0.10731192598E+04  0.23350056716E+04  0.20738048463E+04 0.  0.
        4    1    3    3  502    0 -0.28779789231E+03  0.24977434016E+03  0.54924051390E+03  0.66849203647E+03  0.12699999809E+01 0. -1.
       -4    1    3    3    0  502  0.28779789231E+03 -0.24977434016E+03 -0.16223597737E+04  0.16665136351E+04  0.12699999809E+01 0.  1.
</event>
<event>
 5   0  0.1921687E-04  0.2049425E+04  0.7818609E-02  0.8583855E-01
       -2   -1    0    0    0  501  0.00000000000E+00  0.00000000000E+00  0.10932700002E+04  0.10932700002E+04  0.25500000920E-02 0. -1.
        2   -1    0    0  501    0  0.00000000000E+00  0.00000000000E+00 -0.96045377471E+03  0.96045377471E+03  0.25500000920E-02 0.  1.
    10030    2    1    2    0    0  0.00000000000E+00  0.00000000000E+00  0.13281622548E+03  0.20537237749E+04  0.20494246007E+04 0.  0.
        5    1    3    3  502    0  0.64443539974E+03 -0.76985985574E+03  0.27185532399E+03  0.10401483496E+04  0.46999998093E+01 0.  1.
       -5    1    3    3    0  502 -0.64443539974E+03  0.76985985574E+03 -0.13903909851E+03  0.10135754253E+04  0.46999998093E+01 0. -1.
</event>
<event>
 5   0  0.1810875E-04  0.2124529E+04  0.7818609E-02  0.8550515E-01
       -2   -1    0    0    0  501  0.00000000000E+00  0.00000000000E+00  0.17535377948E+04  0.17535377948E+04  0.25500000920E-02 0.  1.
        2   -1    0    0  501    0  0.00000000000E+00  0.00000000000E+00 -0.64350229200E+03  0.64350229200E+03  0.25500000920E-02 0. -1.
    10030    2    1    2    0    0  0.00000000000E+00  0.00000000000E+00  0.11100355028E+04  0.23970400868E+04  0.21245287384E+04 0.  0.
        1    1    3    3  502    0 -0.27740624834E+03  0.10254020295E+04  0.55662975470E+03  0.11992665394E+04  0.50400001928E-02 0. -1.
       -1    1    3    3    0  502  0.27740624834E+03 -0.10254020295E+04  0.55340574811E+03  0.11977735474E+04  0.50400001928E-02 0.  1.
</event>
<event>
 5   0  0.1810875E-04  0.2048369E+04  0.7818609E-02  0.8584335E-01
       -2   -1    0    0    0  501  0.00000000000E+00  0.00000000000E+00  0.60710739659E+03  0.60710739659E+03  0.25500000920E-02 0.  1.
        2   -1    0    0  501    0  0.00000000000E+00  0.00000000000E+00 -0.17277896694E+04  0.17277896694E+04  0.25500000920E-02 0. -1.
    10030    2    1    2    0    0  0.00000000000E+00  0.00000000000E+00 -0.11206822728E+04  0.23348970660E+04  0.20483689980E+04 0.  0.
        1    1    3    3  502    0  0.78321346372E+03  0.16841590305E+03  0.16701254335E+03  0.81834004901E+03  0.50400001928E-02 0.  1.
       -1    1    3    3    0  502 -0.78321346372E+03 -0.16841590305E+03 -0.12876948161E+04  0.15165570170E+04  0.50400001928E-02 0. -1.
</event>
<event>
 5   0  0.6441125E-05  0.2146957E+04  0.7818609E-02  0.8540836E-01
        3   -1    0    0  501    0  0.00000000000E+00  0.00000000000E+00  0.14244101372E+04  0.14244101408E+04  0.10100000352E+00 0. -1.
       -3   -1    0    0    0  501  0.00000000000E+00  0.00000000000E+00 -0.80900573222E+03  0.80900573852E+03  0.10100000352E+00 0.  1.
    10030    2    1    2    0    0  0.00000000000E+00  0.00000000000E+00  0.61540440499E+03  0.22334158793E+04  0.21469568948E+04 0.  0.
        2    1    3    3  502    0  0.66286936343E+03  0.17993352094E+03 -0.55049516458E+03  0.88023678131E+03  0.25500000920E-02 0.  1.
       -2    1    3    3    0  502 -0.66286936343E+03 -0.17993352094E+03  0.11658995696E+04  0.13531790980E+04  0.25500000920E-02 0. -1.
</event>
<event>
 5   0  0.6441125E-05  0.2093615E+04  0.7818609E-02  0.8564061E-01
        3   -1    0    0  501    0  0.00000000000E+00  0.00000000000E+00  0.53173758833E+03  0.53173759792E+03  0.10100000352E+00 0.  1.
       -3   -1    0    0    0  501  0.00000000000E+00  0.00000000000E+00 -0.20608015129E+04  0.20608015154E+04  0.10100000352E+00 0. -1.
    10030    2    1    2    0    0  0.00000000000E+00  0.00000000000E+00 -0.15290639246E+04  0.25925391133E+04  0.20936147135E+04 0.  0.
        4    1    3    3  502    0 -0.46933341363E+03  0.69799528697E+02  0.39092135366E+03  0.61479016339E+03  0.12699999809E+01 0.  1.
       -4    1    3    3    0  502  0.46933341363E+03 -0.69799528697E+02 -0.19199852783E+04  0.19777489500E+04  0.12699999809E+01 0. -1.
</event>
<event>
 5   0  0.1777590E-04  0.2047027E+04  0.7818609E-02  0.8584944E-01
        2   -1    0    0  501    0  0.00000000000E+00  0.00000000000E+00  0.10457357650E+04  0.10457357650E+04  0.25500000920E-02 0. -1.
       -2   -1    0    0    0  501  0.00000000000E+00  0.00000000000E+00 -0.10017637015E+04  0.10017637015E+04  0.25500000920E-02 0.  1.
    10030    2    1    2    0    0  0.00000000000E+00  0.00000000000E+00  0.43972063510E+02  0.20474994666E+04  0.20470272405E+04 0.  0.
        4    1    3    3  502    0  0.88517716242E+03  0.12647369424E+03  0.52014139804E+03  0.10344481094E+04  0.12699999809E+01 0. -1.
       -4    1    3    3    0  502 -0.88517716242E+03 -0.12647369424E+03 -0.47616933453E+03  0.10130513572E+04  0.12699999809E+01 0.  1.
</event>
<event>
 5   0  0.8525278E-05  0.2117566E+04  0.7818609E-02  0.8553545E-01
       -1   -1    0    0    0  501  0.00000000000E+00  0.00000000000E+00  0.94316937346E+03  0.94316937347E+03  0.50400001928E-02 0.  1.
        1   -1    0    0  501    0  0.00000000000E+00  0.00000000000E+00 -0.11885681929E+04  0.11885681929E+04  0.50400001928E-02 0. -1.
    10030    2    1    2    0    0  0.00000000000E+00  0.00000000000E+00 -0.24539881945E+03  0.21317375664E+04  0.21175656947E+04 0.  0.
        4    1    3    3  502    0 -0.64786201817E+03  0.21578616474E+03 -0.93726897433E+03  0.11596394296E+04  0.12699999809E+01 0. -1.
       -4    1    3    3    0  502  0.64786201817E+03 -0.21578616474E+03  0.69187015488E+03  0.97209813681E+03  0.12699999809E+01 0.  1.
</event>
<event>
 5   0  0.1777590E-04  0.2077120E+04  0.7818609E-02  0.8571390E-01
       -2   -1    0    0    0  501  0.00000000000E+00  0.00000000000E+00  0.68945744279E+03  0.68945744279E+03  0.25500000920E-02 0.  1.
        2   -1    0    0  501    0  0.00000000000E+00  0.00000000000E+00 -0.15644281257E+04  0.15644281257E+04  0.25500000920E-02 0. -1.
    10030    2    1    2    0    0  0.00000000000E+00  0.00000000000E+00 -0.87497068294E+03  0.22538855685E+04  0.20771197510E+04 0.  0.
        4    1    3    3  502    0 -0.79465252599E+03 -0.81697865801E+02 -0.11576345567E+04  0.14065086413E+04  0.12699999809E+01 0. -1.
       -4    1    3    3    0  502  0.79465252599E+03  0.81697865801E+02  0.28266387375E+03  0.84737692721E+03  0.12699999809E+01 0.  1.
</event>
<event>
 5   0  0.8755004E-05  0.2057346E+04  0.7818609E-02  0.8580269E-01
       -1   -1    0    0    0  501  0.00000000000E+00  0.00000000000E+00  0.85544001486E+03  0.85544001487E+03  0.50400001928E-02 0.  1.
        1   -1    0    0  501    0  0.00000000000E+00  0.00000000000E+00 -0.12369869359E+04  0.12369869359E+04  0.50400001928E-02 0. -1.
    10030    2    1    2    0    0  0.00000000000E+00  0.00000000000E+00 -0.38154692103E+03  0.20924269508E+04  0.20573459824E+04 0.  0.
        3    1    3    3  502    0  0.38643793706E+03 -0.24884101843E+03  0.74519693147E+03  0.87554246529E+03  0.10100000352E+00 0.  1.
       -3    1    3    3    0  502 -0.38643793706E+03  0.24884101843E+03 -0.11267438525E+04  0.12168844855E+04  0.10100000352E+00 0. -1.
</event>
<event>
 5   0  0.8525278E-05  0.2105299E+04  0.7818609E-02  0.8558913E-01
       -1   -1    0    0    0  501  0.00000000000E+00  0.00000000000E+00  0.57136094470E+03  0.57136094472E+03  0.50400001928E-02 0. -1.
        1   -1    0    0  501    0  0.00000000000E+00  0.00000000000E+00 -0.19393535705E+04  0.19393535705E+04  0.50400001928E-02 0.  1.
    10030    2    1    2    0    0  0.00000000000E+00  0.00000000000E+00 -0.13679926258E+04  0.25107145152E+04  0.21052989224E+04 0.  0.
        4    1    3    3  502    0 -0.10239365420E+04 -0.72035164109E+02 -0.40575644316E+03  0.11037549597E+04  0.12699999809E+01 0. -1.
       -4    1    3    3    0  502  0.10239365420E+04  0.72035164109E+02 -0.96223618264E+03  0.14069595556E+04  0.12699999809E+01 0.  1.
</event>
<event>
 5   0  0.8271069E-05  0.2109383E+04  0.7818609E-02  0.8557121E-01
       -1   -1    0    0    0  501  0.00000000000E+00  0.00000000000E+00  0.98943936659E+03  0.98943936660E+03  0.50400001928E-02 0. -1.
        1   -1    0    0  501    0  0.00000000000E+00  0.00000000000E+00 -0.11242466987E+04  0.11242466987E+04  0.50400001928E-02 0.  1.
    10030    2    1    2    0    0  0.00000000000E+00  0.00000000000E+00 -0.13480733213E+03  0.21136860653E+04  0.21093827927E+04 0.  0.
        2    1    3    3  502    0  0.86693777878E+03  0.35524174632E+03 -0.55274302029E+03  0.10877971581E+04  0.25500000920E-02 0. -1.
       -2    1    3    3    0  502 -0.86693777878E+03 -0.35524174632E+03  0.41793568816E+03  0.10258889073E+04  0.25500000920E-02 0.  1.
</event>
<event>
 5   0  0.1810875E-04  0.2111052E+04  0.7818609E-02  0.8556390E-01
        2   -1    0    0  501    0  0.00000000000E+00  0.00000000000E+00  0.13972568876E+04  0.13972568876E+04  0.25500000920E-02 0. -1.
       -2   -1    0    0    0  501  0.00000000000E+00  0.00000000000E+00 -0.79737318882E+03  0.79737318882E+03  0.25500000920E-02 0.  1.
    10030    2    1    2    0    0  0.00000000000E+00  0.00000000000E+00  0.59988369880E+03  0.21946300764E+04  0.21110520411E+04 0.  0.
        1    1    3    3  502    0 -0.84817331396E+03  0.62598486150E+03  0.35573371711E+03  0.11125652767E+04  0.50400001928E-02 0. -1.
       -1    1    3    3    0  502  0.84817331396E+03 -0.62598486150E+03  0.24414998169E+03  0.10820647998E+04  0.50400001928E-02 0.  1.
</event>
<event>
 5   0  0.8237966E-05  0.2078502E+04  0.7818609E-02  0.8570773E-01
       -1   -1    0    0    0  501  0.00000000000E+00  0.00000000000E+00  0.95457886448E+03  0.95457886449E+03  0.50400001928E-02 0.  1.
        1   -1    0    0  501    0  0.00000000000E+00  0.00000000000E+00 -0.11314333797E+04  0.11314333797E+04  0.50400001928E-02 0. -1.
    10030    2    1    2    0    0  0.00000000000E+00  0.00000000000E+00 -0.17685451524E+03  0.20860122442E+04  0.20785017593E+04 0.  0.
        1    1    3    3  502    0 -0.82897874974E+03 -0.82887950837E+02  0.53507940706E+03  0.99014451057E+03  0.50400001928E-02 0.  1.
       -1    1    3    3    0  502  0.82897874974E+03  0.82887950837E+02 -0.71193392230E+03  0.10958677337E+04  0.50400001928E-02 0. -1.
</event>
<event>
 5   0  0.1810875E-04  0.1893951E+04  0.7818609E-02  0.8657873E-01
       -2   -1    0    0    0  501  0.00000000000E+00  0.00000000000E+00  0.62864465574E+03  0.62864465574E+03  0.25500000920E-02 0.  1.
        2   -1    0    0  501    0  0.00000000000E+00  0.00000000000E+00 -0.14265020019E+04  0.14265020019E+04  0.25500000920E-02 0. -1.
    10030    2    1    2    0    0  0.00000000000E+00  0.00000000000E+00 -0.79785734614E+03  0.20551466576E+04  0.18939512770E+04 0.  0.
        1    1    3    3  502    0  0.53144346063E+03  0.75008672204E+03 -0.15219871689E+03  0.93178682748E+03  0.50400001928E-02 0.  1.
       -1    1    3    3    0  502 -0.53144346063E+03 -0.75008672204E+03 -0.64565862925E+03  0.11233598301E+04  0.50400001928E-02 0. -1.
</event>
<event>
 5   0  0.1886323E-04  0.2117146E+04  0.7818609E-02  0.8553728E-01
       -2   -1    0    0    0  501  0.00000000000E+00  0.00000000000E+00  0.58817318779E+03  0.58817318780E+03  0.25500000920E-02 0. -1.
        2   -1    0    0  501    0  0.00000000000E+00  0.00000000000E+00 -0.19051810852E+04  0.19051810852E+04  0.25500000920E-02 0.  1.
    10030    2    1    2    0    0  0.00000000000E+00  0.00000000000E+00 -0.13170078974E+04  0.24933542730E+04  0.21171456560E+04 0.  0.
        2    1    3    3  502    0  0.58334558760E+03 -0.54992464143E+03  0.15561316626E+03  0.81665454346E+03  0.25500000920E-02 0.  1.
       -2    1    3    3    0  502 -0.58334558760E+03  0.54992464143E+03 -0.14726210636E+04  0.16766997295E+04  0.25500000920E-02 0. -1.
</event>
<event>
 5   0  0.1777590E-04  0.2096499E+04  0.7818609E-02  0.8562787E-01
        2   -1    0    0  501    0  0.00000000000E+00  0.00000000000E+00  0.21971900403E+04  0.21971900403E+04  0.25500000920E-02 0.  1.
       -2   -1    0    0    0  501  0.00000000000E+00  0.00000000000E+00 -0.50010545500E+03  0.50010545500E+03  0.25500000920E-02 0. -1.
    10030    2    1    2    0    0  0.00000000000E+00  0.00000000000E+00  0.16970845853E+04  0.26972954953E+04  0.20964987239E+04 0.  0.
        4    1    3    3  502    0 -0.40465313618E+03  0.80613895612E+03  0.16143489537E+03  0.91633346307E+03  0.12699999809E+01 0. -1.
       -4    1    3    3    0  502  0.40465313618E+03 -0.80613895612E+03  0.15356496900E+04  0.17809620323E+04  0.12699999809E+01 0.  1.
</event>
<event>
 5   0  0.8525278E-05  0.2438616E+04  0.7818609E-02  0.8425186E-01
        1   -1    0    0  501    0  0.00000000000E+00  0.00000000000E+00  0.22098626366E+04  0.22098626366E+04  0.50400001928E-02 0. -1.
       -1   -1    0    0    0  501  0.00000000000E+00  0.00000000000E+00 -0.67276197652E+03  0.67276197654E+03  0.50400001928E-02 0.  1.
    10030    2    1    2    0    0  0.00000000000E+00  0.00000000000E+00  0.15371006601E+04  0.28826246132E+04  0.24386156362E+04 0.  0.
        4    1    3    3  502    0  0.77734222378E+03 -0.29755839648E+03  0.18217963539E+04  0.20029342226E+04  0.12699999809E+01 0. -1.
       -4    1    3    3    0  502 -0.77734222378E+03  0.29755839648E+03 -0.28469569382E+03  0.87969039052E+03  0.12699999809E+01 0.  1.
</event>
<event>
 5   0  0.8237966E-05  0.2064923E+04  0.7818609E-02  0.8576854E-01
        1   -1    0    0  501    0  0.00000000000E+00  0.00000000000E+00  0.12051357231E+04  0.12051357231E+04  0.50400001928E-02 0. -1.
       -1   -1    0    0    0  501  0.00000000000E+00  0.00000000000E+00 -0.88452832895E+03  0.88452832896E+03  0.50400001928E-02 0.  1.
    10030    2    1    2    0    0  0.00000000000E+00  0.00000000000E+00  0.32060739417E+03  0.20896640521E+04  0.20649229403E+04 0.  0.
        1    1    3    3  502    0  0.51922499729E+03  0.39069845041E+03  0.97224903881E+03  0.11694050070E+04  0.50400001928E-02 0. -1.
       -1    1    3    3    0  502 -0.51922499729E+03 -0.39069845041E+03 -0.65164164464E+03  0.92025904507E+03  0.50400001928E-02 0.  1.
</event>
<event>
 5   0  0.1777590E-04  0.2102148E+04  0.7818609E-02  0.8560298E-01
        2   -1    0    0  501    0  0.00000000000E+00  0.00000000000E+00  0.20590706866E+04  0.20590706866E+04  0.25500000920E-02 0. -1.
       -2   -1    0    0    0  501  0.00000000000E+00  0.00000000000E+00 -0.53653162289E+03  0.53653162290E+03  0.25500000920E-02 0.  1.
    10030    2    1    2    0    0  0.00000000000E+00  0.00000000000E+00  0.15225390637E+04  0.25956023095E+04  0.21021479844E+04 0.  0.
        4    1    3    3  502    0 -0.27352397898E+03  0.68616375404E+03 -0.16199666905E+03  0.75622787446E+03  0.12699999809E+01 0.  1.
       -4    1    3    3    0  502  0.27352397898E+03 -0.68616375404E+03  0.16845357327E+04  0.18393744350E+04  0.12699999809E+01 0. -1.
</event>
<event>
 5   0  0.1921687E-04  0.2073804E+04  0.7818609E-02  0.8572872E-01
       -2   -1    0    0    0  501  0.00000000000E+00  0.00000000000E+00  0.14962994784E+04  0.14962994784E+04  0.25500000920E-02 0.  1.
        2   -1    0    0  501    0  0.00000000000E+00  0.00000000000E+00 -0.71854965479E+03  0.71854965480E+03  0.25500000920E-02 0. -1.
    10030    2    1    2    0    0  0.00000000000E+00  0.00000000000E+00  0.77774982364E+03  0.22148491332E+04  0.20738037262E+04 0.  0.
        5    1    3    3  502    0 -0.87152261732E+03 -0.52986255772E+03  0.58821711259E+03  0.11774240800E+04  0.46999998093E+01 0.  1.
       -5    1    3    3    0  502  0.87152261732E+03  0.52986255772E+03  0.18953271106E+03  0.10374250533E+04  0.46999998093E+01 0. -1.
</event>
<event>
 5   0  0.8271069E-05  0.2076573E+04  0.7818609E-02  0.8571634E-01
       -1   -1    0    0    0  501  0.00000000000E+00  0.00000000000E+00  0.86503273753E+03  0.86503273754E+03  0.50400001928E-02 0.  1.
        1   -1    0    0  501    0  0.00000000000E+00  0.00000000000E+00 -0.12462410923E+04  0.12462410923E+04  0.50400001928E-02 0. -1.
    10030    2    1    2    0    0  0.00000000000E+00  0.00000000000E+00 -0.38120835479E+03  0.21112738299E+04  0.20765734697E+04 0.  0.
        2    1    3    3  502    0 -0.69307204050E+02 -0.56340308877E+03 -0.10745067315E+04  0.12152330003E+04  0.25500000920E-02 0. -1.
       -2    1    3    3    0  502  0.69307204050E+02  0.56340308877E+03  0.69329837675E+03  0.89604082953E+03  0.25500000920E-02 0.  1.
</event>
<event>
 5   0  0.8755004E-05  0.2113202E+04  0.7818609E-02  0.8555450E-01
       -1   -1    0    0    0  501  0.00000000000E+00  0.00000000000E+00  0.14213631265E+04  0.14213631266E+04  0.50400001928E-02 0.  1.
        1   -1    0    0  501    0  0.00000000000E+00  0.00000000000E+00 -0.78544722920E+03  0.78544722922E+03  0.50400001928E-02 0. -1.
    10030    2    1    2    0    0  0.00000000000E+00  0.00000000000E+00  0.63591589734E+03  0.22068103558E+04  0.21132020532E+04 0.  0.
        3    1    3    3  502    0 -0.31650569382E+03 -0.27094369918E+03 -0.69604271465E+03  0.81121009187E+03  0.10100000352E+00 0. -1.
       -3    1    3    3    0  502  0.31650569382E+03  0.27094369918E+03  0.13319586120E+04  0.13956002639E+04  0.10100000352E+00 0.  1.
</event>
<event>
 5   0  0.1886323E-04  0.2117889E+04  0.7818609E-02  0.8553404E-01
       -2   -1    0    0    0  501  0.00000000000E+00  0.00000000000E+00  0.49916620626E+03  0.49916620627E+03  0.25500000920E-02 0. -1.
        2   -1    0    0  501    0  0.00000000000E+00  0.00000000000E+00 -0.22464737687E+04  0.22464737687E+04  0.25500000920E-02 0.  1.
    10030    2    1    2    0    0  0.00000000000E+00  0.00000000000E+00 -0.17473075624E+04  0.27456399749E+04  0.21178893159E+04 0.  0.
        2    1    3    3  502    0  0.32826733126E+03 -0.84449323656E+03 -0.15842386728E+04  0.18250316271E+04  0.25500000920E-02 0.  1.
       -2    1    3    3    0  502 -0.32826733126E+03  0.84449323656E+03 -0.16306888956E+03  0.92060834784E+03  0.25500000920E-02 0. -1.
</event>
<event>
 5   0  0.1777590E-04  0.2090713E+04  0.7818609E-02  0.8565346E-01
        2   -1    0    0  501    0  0.00000000000E+00  0.00000000000E+00  0.99745925567E+03  0.99745925567E+03  0.25500000920E-02 0. -1.
       -2   -1    0    0    0  501  0.00000000000E+00  0.00000000000E+00 -0.10955534897E+04  0.10955534897E+04  0.25500000920E-02 0.  1.
    10030    2    1    2    0    0  0.00000000000E+00  0.00000000000E+00 -0.98094234068E+02  0.20930127454E+04  0.20907127669E+04 0.  0.
        4    1    3    3  502    0  0.26262923039E+03 -0.99082605816E+03  0.15625887794E+03  0.10368841980E+04  0.12699999809E+01 0. -1.
       -4    1    3    3    0  502 -0.26262923039E+03  0.99082605816E+03 -0.25435311201E+03  0.10561285474E+04  0.12699999809E+01 0.  1.
</event>
<event>
 5   0  0.8237966E-05  0.2126613E+04  0.7818609E-02  0.8549610E-01
       -1   -1    0    0    0  501  0.00000000000E+00  0.00000000000E+00  0.53615804816E+03  0.53615804818E+03  0.50400001928E-02 0. -1.
        1   -1    0    0  501    0  0.00000000000E+00  0.00000000000E+00 -0.21087447013E+04  0.21087447013E+04  0.50400001928E-02 0.  1.
    10030    2    1    2    0    0  0.00000000000E+00  0.00000000000E+00 -0.15725866532E+04  0.26449027495E+04  0.21266127463E+04 0.  0.
        1    1    3    3  502    0  0.99393959355E+03 -0.34522556355E+03 -0.97704808637E+03  0.14358689245E+04  0.50400001928E-02 0.  1.
       -1    1    3    3    0  502 -0.99393959355E+03  0.34522556355E+03 -0.59553856680E+03  0.12090338250E+04  0.50400001928E-02 0. -1.
</event>
<event>
 5   0  0.8237966E-05  0.2120479E+04  0.7818609E-02  0.8552276E-01
       -1   -1    0    0    0  501  0.00000000000E+00  0.00000000000E+00  0.91902301057E+03  0.91902301058E+03  0.50400001928E-02 0.  1.
        1   -1    0    0  501    0  0.00000000000E+00  0.00000000000E+00 -0.12231548919E+04  0.12231548919E+04  0.50400001928E-02 0. -1.
    10030    2    1    2    0    0  0.00000000000E+00  0.00000000000E+00 -0.30413188129E+03  0.21421779025E+04  0.21204787112E+04 0.  0.
        1    1    3    3  502    0  0.37453180230E+03 -0.31634664588E+03  0.79763824369E+03  0.93625639604E+03  0.50400001928E-02 0.  1.
       -1    1    3    3    0  502 -0.37453180230E+03  0.31634664588E+03 -0.11017701250E+04  0.12059215064E+04  0.50400001928E-02 0. -1.
</event>
<event>
 5   0  0.1815400E-04  0.2084564E+04  0.7818609E-02  0.8568074E-01
       -2   -1    0    0    0  501  0.00000000000E+00  0.00000000000E+00  0.74600119035E+03  0.74600119035E+03  0.25500000920E-02 0. -1.
        2   -1    0    0  501    0  0.00000000000E+00  0.00000000000E+00 -0.14562326168E+04  0.14562326168E+04  0.25500000920E-02 0.  1.
    10030    2    1    2    0    0  0.00000000000E+00  0.00000000000E+00 -0.71023142642E+03  0.22022338071E+04  0.20845635184E+04 0.  0.
        3    1    3    3  502    0  0.30379417867E+03  0.86071532716E+03  0.17650931917E+03  0.92966516948E+03  0.10100000352E+00 0.  1.
       -3    1    3    3    0  502 -0.30379417867E+03 -0.86071532716E+03 -0.88674074559E+03  0.12725686376E+04  0.10100000352E+00 0. -1.
</event>
<event>
 5   0  0.8525278E-05  0.1963557E+04  0.7818609E-02  0.8623851E-01
        1   -1    0    0  501    0  0.00000000000E+00  0.00000000000E+00  0.11990326008E+04  0.11990326008E+04  0.50400001928E-02 0. -1.
       -1   -1    0    0    0  501  0.00000000000E+00  0.00000000000E+00 -0.80388861984E+03  0.80388861986E+03  0.50400001928E-02 0.  1.
    10030    2    1    2    0    0  0.00000000000E+00  0.00000000000E+00  0.39514398094E+03  0.20029212207E+04  0.19635566329E+04 0.  0.
        4    1    3    3  502    0 -0.67127523932E+02  0.27970589768E+03 -0.75994009403E+03  0.81255895360E+03  0.12699999809E+01 0.  1.
       -4    1    3    3    0  502  0.67127523932E+02 -0.27970589768E+03  0.11550840750E+04  0.11903622671E+04  0.12699999809E+01 0. -1.
</event>
<event>
 5   0  0.8237966E-05  0.2269493E+04  0.7818609E-02  0.8490047E-01
       -1   -1    0    0    0  501  0.00000000000E+00  0.00000000000E+00  0.81876807426E+03  0.81876807427E+03  0.50400001928E-02 0. -1.
        1   -1    0    0  501    0  0.00000000000E+00  0.00000000000E+00 -0.15726676986E+04  0.15726676986E+04  0.50400001928E-02 0.  1.
    10030    2    1    2    0    0  0.00000000000E+00  0.00000000000E+00 -0.75389962435E+03  0.23914357729E+04  0.22694934264E+04 0.  0.
        1    1    3    3  502    0  0.85063841905E+03 -0.66793000790E+03 -0.15082712302E+02  0.10816393593E+04  0.50400001928E-02 0. -1.
       -1    1    3    3    0  502 -0.85063841905E+03  0.66793000790E+03 -0.73881691205E+03  0.13097964136E+04  0.50400001928E-02 0.  1.
</event>
<event>
 5   0  0.8237966E-05  0.2114866E+04  0.7818609E-02  0.8554723E-01
        1   -1    0    0  501    0  0.00000000000E+00  0.00000000000E+00  0.17824211883E+04  0.17824211883E+04  0.50400001928E-02 0. -1.
       -1   -1    0    0    0  501  0.00000000000E+00  0.00000000000E+00 -0.62732926727E+03  0.62732926729E+03  0.50400001928E-02 0.  1.
    10030    2    1    2    0    0  0.00000000000E+00  0.00000000000E+00  0.11550919210E+04  0.24097504556E+04  0.21148664053E+04 0.  0.
        1    1    3    3  502    0 -0.74210820908E+03 -0.37972256029E+03  0.13188360803E+04  0.15602058914E+04  0.50400001928E-02 0. -1.
       -1    1    3    3    0  502  0.74210820908E+03  0.37972256029E+03 -0.16374415932E+03  0.84954456417E+03  0.50400001928E-02 0.  1.
</event>
<event>
 5   0  0.8755004E-05  0.2198909E+04  0.7818609E-02  0.8518882E-01
        1   -1    0    0  501    0  0.00000000000E+00  0.00000000000E+00  0.11880107354E+04  0.11880107354E+04  0.50400001928E-02 0.  1.
       -1   -1    0    0    0  501  0.00000000000E+00  0.00000000000E+00 -0.10174993771E+04  0.10174993771E+04  0.50400001928E-02 0. -1.
    10030    2    1    2    0    0  0.00000000000E+00  0.00000000000E+00  0.17051135827E+03  0.22055101125E+04  0.21989089870E+04 0.  0.
        3    1    3    3  502    0 -0.16539694188E+03 -0.97944263086E+03  0.55798378814E+03  0.11393023890E+04  0.10100000352E+00 0.  1.
       -3    1    3    3    0  502  0.16539694188E+03  0.97944263086E+03 -0.38747242987E+03  0.10662077235E+04  0.10100000352E+00 0. -1.
</event>
<event>
 5   0  0.6441125E-05  0.2244866E+04  0.7818609E-02  0.8499983E-01
        4   -1    0    0  501    0  0.00000000000E+00  0.00000000000E+00  0.51557958080E+03  0.51558114496E+03  0.12699999809E+01 0. -1.
       -4   -1    0    0    0  501  0.00000000000E+00  0.00000000000E+00 -0.24435666940E+04  0.24435670240E+04  0.12699999809E+01 0.  1.
    10030    2    1    2    0    0  0.00000000000E+00  0.00000000000E+00 -0.19279871132E+04  0.29591481690E+04  0.22448660489E+04 0.  0.
        4    1    3    3  502    0 -0.65467074363E+03  0.30861185398E+03  0.16689773067E+03  0.74275939872E+03  0.12699999809E+01 0. -1.
       -4    1    3    3    0  502  0.65467074363E+03 -0.30861185398E+03 -0.20948848439E+04  0.22163887703E+04  0.12699999809E+01 0.  1.
</event>
<event>
 5   0  0.8525278E-05  0.2049981E+04  0.7818609E-02  0.8583603E-01
       -1   -1    0    0    0  501  0.00000000000E+00  0.00000000000E+00  0.99997249259E+03  0.99997249260E+03  0.50400001928E-02 0.  1.
        1   -1    0    0  501    0  0.00000000000E+00  0.00000000000E+00 -0.10506346151E+04  0.10506346151E+04  0.50400001928E-02 0. -1.
    10030    2    1    2    0    0  0.00000000000E+00  0.00000000000E+00 -0.50662122530E+02  0.20506071077E+04  0.20499811852E+04 0.  0.
        4    1    3    3  502    0  0.56023855573E+03  0.43985946166E+02  0.83213665431E+03  0.10041190304E+04  0.12699999809E+01 0.  1.
       -4    1    3    3    0  502 -0.56023855573E+03 -0.43985946166E+02 -0.88279877684E+03  0.10464880774E+04  0.12699999809E+01 0. -1.
</event>
<event>
 5   0  0.8237966E-05  0.2094949E+04  0.7818609E-02  0.8563472E-01
       -1   -1    0    0    0  501  0.00000000000E+00  0.00000000000E+00  0.11621310721E+04  0.11621310721E+04  0.50400001928E-02 0.  1.
        1   -1    0    0  501    0  0.00000000000E+00  0.00000000000E+00 -0.94413023619E+03  0.94413023621E+03  0.50400001928E-02 0. -1.
    10030    2    1    2    0    0  0.00000000000E+00  0.00000000000E+00  0.21800083588E+03  0.21062613083E+04  0.20949492439E+04 0.  0.
        1    1    3    3  502    0  0.16224389664E+02 -0.88342927457E+03  0.67461487789E+03  0.11116725001E+04  0.50400001928E-02 0.  1.
       -1    1    3    3    0  502 -0.16224389664E+02  0.88342927457E+03 -0.45661404201E+03  0.99458880819E+03  0.50400001928E-02 0. -1.
</event>
<event>
 5   0  0.8237966E-05  0.2100267E+04  0.7818609E-02  0.8561126E-01
        1   -1    0    0  501    0  0.00000000000E+00  0.00000000000E+00  0.14690328585E+04  0.14690328585E+04  0.50400001928E-02 0.  1.
       -1   -1    0    0    0  501  0.00000000000E+00  0.00000000000E+00 -0.75068493375E+03  0.75068493377E+03  0.50400001928E-02 0. -1.
    10030    2    1    2    0    0  0.00000000000E+00  0.00000000000E+00  0.71834792477E+03  0.22197177923E+04  0.21002674440E+04 0.  0.
        1    1    3    3  502    0  0.64261232511E+03 -0.48292676369E+02 -0.51713831915E+03  0.82626558935E+03  0.50400001928E-02 0. -1.
       -1    1    3    3    0  502 -0.64261232511E+03  0.48292676369E+02  0.12354862439E+04  0.13934522030E+04  0.50400001928E-02 0.  1.
</event>
<event>
 5   0  0.1921687E-04  0.2122587E+04  0.7818609E-02  0.8551358E-01
        2   -1    0    0  501    0  0.00000000000E+00  0.00000000000E+00  0.11389643456E+04  0.11389643456E+04  0.25500000920E-02 0. -1.
       -2   -1    0    0    0  501  0.00000000000E+00  0.00000000000E+00 -0.98891940878E+03  0.98891940878E+03  0.25500000920E-02 0.  1.
    10030    2    1    2    0    0  0.00000000000E+00  0.00000000000E+00  0.15004493679E+03  0.21278837544E+04  0.21225870510E+04 0.  0.
        5    1    3    3  502    0 -0.73643340710E+03  0.52662456538E+03 -0.48012311685E+03  0.10247965131E+04  0.46999998093E+01 0.  1.
       -5    1    3    3    0  502  0.73643340710E+03 -0.52662456538E+03  0.63016805364E+03  0.11030872412E+04  0.46999998093E+01 0. -1.
</event>
<event>
 5   0  0.1777590E-04  0.2079004E+04  0.7818609E-02  0.8570549E-01
       -2   -1    0    0    0  501  0.00000000000E+00  0.00000000000E+00  0.70751614319E+03  0.70751614320E+03  0.25500000920E-02 0. -1.
        2   -1    0    0  501    0  0.00000000000E+00  0.00000000000E+00 -0.15272651552E+04  0.15272651552E+04  0.25500000920E-02 0.  1.
    10030    2    1    2    0    0  0.00000000000E+00  0.00000000000E+00 -0.81974901199E+03  0.22347812984E+04  0.20790043311E+04 0.  0.
        4    1    3    3  502    0  0.86158866612E+03  0.19169761279E+03  0.18033878453E+03  0.90089216582E+03  0.12699999809E+01 0. -1.
       -4    1    3    3    0  502 -0.86158866612E+03 -0.19169761279E+03 -0.10000877965E+04  0.13338891326E+04  0.12699999809E+01 0.  1.
</event>
<event>
 5   0  0.8486612E-05  0.1932259E+04  0.7818609E-02  0.8638964E-01
       -1   -1    0    0    0  501  0.00000000000E+00  0.00000000000E+00  0.86519181488E+03  0.86519181489E+03  0.50400001928E-02 0.  1.
        1   -1    0    0  501    0  0.00000000000E+00  0.00000000000E+00 -0.10788428574E+04  0.10788428574E+04  0.50400001928E-02 0. -1.
    10030    2    1    2    0    0  0.00000000000E+00  0.00000000000E+00 -0.21365104252E+03  0.19440346723E+04  0.19322587920E+04 0.  0.
        5    1    3    3  502    0  0.95517922729E+03 -0.13755925373E+03 -0.60786229425E+02  0.96695757933E+03  0.46999998093E+01 0. -1.
       -5    1    3    3    0  502 -0.95517922729E+03  0.13755925373E+03 -0.15286481310E+03  0.97707709298E+03  0.46999998093E+01 0.  1.
</event>
<event>
 5   0  0.1777590E-04  0.2095457E+04  0.7818609E-02  0.8563247E-01
       -2   -1    0    0    0  501  0.00000000000E+00  0.00000000000E+00  0.66206551491E+03  0.66206551491E+03  0.25500000920E-02 0. -1.
        2   -1    0    0  501    0  0.00000000000E+00  0.00000000000E+00 -0.16580458626E+04  0.16580458626E+04  0.25500000920E-02 0.  1.
    10030    2    1    2    0    0  0.00000000000E+00  0.00000000000E+00 -0.99598034765E+03  0.23201113775E+04  0.20954569790E+04 0.  0.
        4    1    3    3  502    0 -0.78404974829E+03  0.25329941980E+03 -0.12145517609E+04  0.14676621535E+04  0.12699999809E+01 0.  1.
       -4    1    3    3    0  502  0.78404974829E+03 -0.25329941980E+03  0.21857141329E+03  0.85244922399E+03  0.12699999809E+01 0. -1.
</event>
<event>
 5   0  0.8755004E-05  0.2095889E+04  0.7818609E-02  0.8563057E-01
        1   -1    0    0  501    0  0.00000000000E+00  0.00000000000E+00  0.13125413564E+04  0.13125413564E+04  0.50400001928E-02 0. -1.
       -1   -1    0    0    0  501  0.00000000000E+00  0.00000000000E+00 -0.83668795488E+03  0.83668795489E+03  0.50400001928E-02 0.  1.
    10030    2    1    2    0    0  0.00000000000E+00  0.00000000000E+00  0.47585340152E+03  0.21492293113E+04  0.20958888742E+04 0.  0.
        3    1    3    3  502    0  0.83649056631E+03  0.54151987010E+03  0.57056994483E+03  0.11482640417E+04  0.10100000352E+00 0. -1.
       -3    1    3    3    0  502 -0.83649056631E+03 -0.54151987010E+03 -0.94716543311E+02  0.10009652696E+04  0.10100000352E+00 0.  1.
</event>
<event>
 5   0  0.1886323E-04  0.1977940E+04  0.7818609E-02  0.8617004E-01
        2   -1    0    0  501    0  0.00000000000E+00  0.00000000000E+00  0.70322404020E+03  0.70322404020E+03  0.25500000920E-02 0. -1.
       -2   -1    0    0    0  501  0.00000000000E+00  0.00000000000E+00 -0.13908254218E+04  0.13908254218E+04  0.25500000920E-02 0.  1.
    10030    2    1    2    0    0  0.00000000000E+00  0.00000000000E+00 -0.68760138159E+03  0.20940494620E+04  0.19779402138E+04 0.  0.
        2    1    3    3  502    0 -0.36364361751E+03 -0.91967212309E+03 -0.33816090013E+03  0.10451728512E+04  0.25500000920E-02 0.  1.
       -2    1    3    3    0  502  0.36364361751E+03  0.91967212309E+03 -0.34944048146E+03  0.10488766108E+04  0.25500000920E-02 0. -1.
</event>
<event>
 5   0  0.1810875E-04  0.2085139E+04  0.7818609E-02  0.8567818E-01
        2   -1    0    0  501    0  0.00000000000E+00  0.00000000000E+00  0.17240575971E+04  0.17240575971E+04  0.25500000920E-02 0.  1.
       -2   -1    0    0    0  501  0.00000000000E+00  0.00000000000E+00 -0.63046076592E+03  0.63046076593E+03  0.25500000920E-02 0. -1.
    10030    2    1    2    0    0  0.00000000000E+00  0.00000000000E+00  0.10935968312E+04  0.23545183630E+04  0.20851385308E+04 0.  0.
        1    1    3    3  502    0 -0.34742657286E+02 -0.30643249655E+03  0.16713738152E+04  0.16995877022E+04  0.50400001928E-02 0.  1.
       -1    1    3    3    0  502  0.34742657286E+02  0.30643249655E+03 -0.57777698405E+03  0.65493066083E+03  0.50400001928E-02 0. -1.
</event>
<event>
 5   0  0.8525278E-05  0.2066873E+04  0.7818609E-02  0.8575978E-01
        1   -1    0    0  501    0  0.00000000000E+00  0.00000000000E+00  0.11372491415E+04  0.11372491415E+04  0.50400001928E-02 0. -1.
       -1   -1    0    0    0  501  0.00000000000E+00  0.00000000000E+00 -0.93910028670E+03  0.93910028671E+03  0.50400001928E-02 0.  1.
    10030    2    1    2    0    0  0.00000000000E+00  0.00000000000E+00  0.19814885479E+03  0.20763494282E+04  0.20668729955E+04 0.  0.
        4    1    3    3  502    0 -0.62869124815E+03  0.67430498153E+03  0.56817308216E+03  0.10829414378E+04  0.12699999809E+01 0.  1.
       -4    1    3    3    0  502  0.62869124815E+03 -0.67430498153E+03 -0.37002422736E+03  0.99340799038E+03  0.12699999809E+01 0. -1.
</event>
<event>
 5   0  0.1810875E-04  0.2050079E+04  0.7818609E-02  0.8583559E-01
        2   -1    0    0  501    0  0.00000000000E+00  0.00000000000E+00  0.27649533701E+04  0.27649533701E+04  0.25500000920E-02 0. -1.
       -2   -1    0    0    0  501  0.00000000000E+00  0.00000000000E+00 -0.38000843653E+03  0.38000843654E+03  0.25500000920E-02 0.  1.
    10030    2    1    2    0    0  0.00000000000E+00  0.00000000000E+00  0.23849449335E+04  0.31449618066E+04  0.20500786397E+04 0.  0.
        1    1    3    3  502    0 -0.19541488051E+03 -0.44041602396E+03  0.25804041404E+04  0.26250026243E+04  0.50400001928E-02 0. -1.
       -1    1    3    3    0  502  0.19541488051E+03  0.44041602396E+03 -0.19545920687E+03  0.51995918231E+03  0.50400001928E-02 0.  1.
</event>
<event>
 5   0  0.8271069E-05  0.2116315E+04  0.7818609E-02  0.8554090E-01
       -1   -1    0    0    0  501  0.00000000000E+00  0.00000000000E+00  0.13206344781E+04  0.13206344781E+04  0.50400001928E-02 0. -1.
        1   -1    0    0  501    0  0.00000000000E+00  0.00000000000E+00 -0.84784784925E+03  0.84784784927E+03  0.50400001928E-02 0.  1.
    10030    2    1    2    0    0  0.00000000000E+00  0.00000000000E+00  0.47278662885E+03  0.21684823274E+04  0.21163148177E+04 0.  0.
        2    1    3    3  502    0 -0.23176524566E+02  0.62078054242E+03  0.11141253377E+04  0.12756100114E+04  0.25500000920E-02 0. -1.
       -2    1    3    3    0  502  0.23176524566E+02 -0.62078054242E+03 -0.64133870884E+03  0.89287231596E+03  0.25500000920E-02 0.  1.
</event>
<event>
 5   0  0.1777590E-04  0.2004714E+04  0.7818609E-02  0.8604420E-01
        2   -1    0    0  501    0  0.00000000000E+00  0.00000000000E+00  0.93489100574E+03  0.93489100574E+03  0.25500000920E-02 0.  1.
       -2   -1    0    0    0  501  0.00000000000E+00  0.00000000000E+00 -0.10746915732E+04  0.10746915732E+04  0.25500000920E-02 0. -1.
    10030    2    1    2    0    0  0.00000000000E+00  0.00000000000E+00 -0.13980056745E+03  0.20095825789E+04  0.20047139304E+04 0.  0.
        4    1    3    3  502    0 -0.66478455421E+03 -0.10092890179E+03 -0.81507143108E+03  0.10566305870E+04  0.12699999809E+01 0. -1.
       -4    1    3    3    0  502  0.66478455421E+03  0.10092890179E+03  0.67527086363E+03  0.95295199192E+03  0.12699999809E+01 0.  1.
</event>
<event>
 5   0  0.1815400E-04  0.2158261E+04  0.7818609E-02  0.8536004E-01
        2   -1    0    0  501    0  0.00000000000E+00  0.00000000000E+00  0.26000974431E+04  0.26000974431E+04  0.25500000920E-02 0. -1.
       -2   -1    0    0    0  501  0.00000000000E+00  0.00000000000E+00 -0.44787649560E+03  0.44787649561E+03  0.25500000920E-02 0.  1.
    10030    2    1    2    0    0  0.00000000000E+00  0.00000000000E+00  0.21522209475E+04  0.30479739387E+04  0.21582609027E+04 0.  0.
        3    1    3    3  502    0  0.14429923991E+02  0.53614194699E+03  0.23985442978E+04  0.24577776890E+04  0.10100000352E+00 0. -1.
       -3    1    3    3    0  502 -0.14429923991E+02 -0.53614194699E+03 -0.24632335030E+03  0.59019624968E+03  0.10100000352E+00 0.  1.
</event>
<event>
 5   0  0.8271069E-05  0.2116973E+04  0.7818609E-02  0.8553803E-01
        1   -1    0    0  501    0  0.00000000000E+00  0.00000000000E+00  0.18605189707E+04  0.18605189708E+04  0.50400001928E-02 0.  1.
       -1   -1    0    0    0  501  0.00000000000E+00  0.00000000000E+00 -0.60219417627E+03  0.60219417629E+03  0.50400001928E-02 0. -1.
    10030    2    1    2    0    0  0.00000000000E+00  0.00000000000E+00  0.12583247945E+04  0.24627131470E+04  0.21169730174E+04 0.  0.
        2    1    3    3  502    0  0.52502973623E+03 -0.72304277108E+03  0.12892330722E+04  0.15686200902E+04  0.25500000920E-02 0.  1.
       -2    1    3    3    0  502 -0.52502973623E+03  0.72304277108E+03 -0.30908277739E+02  0.89409305689E+03  0.25500000920E-02 0. -1.
</event>
<event>
 5   0  0.8525278E-05  0.2151496E+04  0.7818609E-02  0.8538892E-01
       -1   -1    0    0    0  501  0.00000000000E+00  0.00000000000E+00  0.69147256291E+03  0.69147256293E+03  0.50400001928E-02 0.  1.
        1   -1    0    0  501    0  0.00000000000E+00  0.00000000000E+00 -0.16735779996E+04  0.16735779996E+04  0.50400001928E-02 0. -1.
    10030    2    1    2    0    0  0.00000000000E+00  0.00000000000E+00 -0.98210543671E+03  0.23650505625E+04  0.21514955437E+04 0.  0.
        4    1    3    3  502    0  0.44576164741E+03  0.51037881860E+03  0.42736584625E+03  0.80114490838E+03  0.12699999809E+01 0.  1.
       -4    1    3    3    0  502 -0.44576164741E+03 -0.51037881860E+03 -0.14094712830E+04  0.15639056542E+04  0.12699999809E+01 0. -1.
</event>
<event>
 5   0  0.8755004E-05  0.2096680E+04  0.7818609E-02  0.8562707E-01
       -1   -1    0    0    0  501  0.00000000000E+00  0.00000000000E+00  0.56029628543E+03  0.56029628545E+03  0.50400001928E-02 0. -1.
        1   -1    0    0  501    0  0.00000000000E+00  0.00000000000E+00 -0.19614929985E+04  0.19614929985E+04  0.50400001928E-02 0.  1.
    10030    2    1    2    0    0  0.00000000000E+00  0.00000000000E+00 -0.14011967131E+04  0.25217892840E+04  0.20966804630E+04 0.  0.
        3    1    3    3  502    0 -0.49566995123E+03  0.64069371296E+03  0.99788622560E+02  0.81617088515E+03  0.10100000352E+00 0. -1.
       -3    1    3    3    0  502  0.49566995123E+03 -0.64069371296E+03 -0.15009853356E+04  0.17056183988E+04  0.10100000352E+00 0.  1.
</event>
<event>
 5   0  0.8755004E-05  0.2108498E+04  0.7818609E-02  0.8557509E-01
        1   -1    0    0  501    0  0.00000000000E+00  0.00000000000E+00  0.22057672264E+04  0.22057672264E+04  0.50400001928E-02 0.  1.
       -1   -1    0    0    0  501  0.00000000000E+00  0.00000000000E+00 -0.50387931228E+03  0.50387931230E+03  0.50400001928E-02 0. -1.
    10030    2    1    2    0    0  0.00000000000E+00  0.00000000000E+00  0.17018879141E+04  0.27096465387E+04  0.21084975439E+04 0.  0.
        3    1    3    3  502    0 -0.59267832558E+03  0.65697103671E+03  0.15875718483E+04  0.18174880809E+04  0.10100000352E+00 0.  1.
       -3    1    3    3    0  502  0.59267832558E+03 -0.65697103671E+03  0.11431606587E+03  0.89215845779E+03  0.10100000352E+00 0. -1.
</event>
<event>
 5   0  0.1815400E-04  0.1998230E+04  0.7818609E-02  0.8607449E-01
        2   -1    0    0  501    0  0.00000000000E+00  0.00000000000E+00  0.16225829026E+04  0.16225829026E+04  0.25500000920E-02 0. -1.
       -2   -1    0    0    0  501  0.00000000000E+00  0.00000000000E+00 -0.61521076134E+03  0.61521076135E+03  0.25500000920E-02 0.  1.
    10030    2    1    2    0    0  0.00000000000E+00  0.00000000000E+00  0.10073721413E+04  0.22377936640E+04  0.19982296794E+04 0.  0.
        3    1    3    3  502    0 -0.37846443736E+03  0.58618139858E+02  0.15371183330E+04  0.15841099067E+04  0.10100000352E+00 0. -1.
       -3    1    3    3    0  502  0.37846443736E+03 -0.58618139858E+02 -0.52974619172E+03  0.65368375726E+03  0.10100000352E+00 0.  1.
</event>
<event>
 5   0  0.1921687E-04  0.2096684E+04  0.7818609E-02  0.8562705E-01
       -2   -1    0    0    0  501  0.00000000000E+00  0.00000000000E+00  0.63414424272E+03  0.63414424273E+03  0.25500000920E-02 0.  1.
        2   -1    0    0  501    0  0.00000000000E+00  0.00000000000E+00 -0.17330778861E+04  0.17330778861E+04  0.25500000920E-02 0. -1.
    10030    2    1    2    0    0  0.00000000000E+00  0.00000000000E+00 -0.10989336434E+04  0.23672221288E+04  0.20966843956E+04 0.  0.
        5    1    3    3  502    0 -0.27526875791E+03 -0.82354124195E+03  0.11369482837E+03  0.87575205982E+03  0.46999998093E+01 0.  1.
       -5    1    3    3    0  502  0.27526875791E+03  0.82354124195E+03 -0.12126284718E+04  0.14914700690E+04  0.46999998093E+01 0. -1.
</event>
<event>
 5   0  0.1886323E-04  0.2088079E+04  0.7818609E-02  0.8566513E-01
       -2   -1    0    0    0  501  0.00000000000E+00  0.00000000000E+00  0.34292537111E+03  0.34292537111E+03  0.25500000920E-02 0.  1.
        2   -1    0    0  501    0  0.00000000000E+00  0.00000000000E+00 -0.31785889234E+04  0.31785889234E+04  0.25500000920E-02 0. -1.
    10030    2    1    2    0    0  0.00000000000E+00  0.00000000000E+00 -0.28356635523E+04  0.35215142945E+04  0.20880792956E+04 0.  0.
        2    1    3    3  502    0  0.84173309551E+03 -0.14248153779E+03 -0.40425124704E+03  0.94458173994E+03  0.25500000920E-02 0.  1.
       -2    1    3    3    0  502 -0.84173309551E+03  0.14248153779E+03 -0.24314123052E+04  0.25769325545E+04  0.25500000920E-02 0. -1.
</event>
<event>
 5   0  0.8237966E-05  0.2063763E+04  0.7818609E-02  0.8577376E-01
       -1   -1    0    0    0  501  0.00000000000E+00  0.00000000000E+00  0.86259228716E+03  0.86259228718E+03  0.50400001928E-02 0.  1.
        1   -1    0    0  501    0  0.00000000000E+00  0.00000000000E+00 -0.12343948688E+04  0.12343948688E+04  0.50400001928E-02 0. -1.
    10030    2    1    2    0    0  0.00000000000E+00  0.00000000000E+00 -0.37180258167E+03  0.20969871560E+04  0.20637630612E+04 0.  0.
        1    1    3    3  502    0 -0.78465059712E+03  0.13142925092E+03  0.48181501425E+03  0.93010532497E+03  0.50400001928E-02 0.  1.
       -1    1    3    3    0  502  0.78465059712E+03 -0.13142925092E+03 -0.85361759592E+03  0.11668818311E+04  0.50400001928E-02 0. -1.
</event>
<event>
 5   0  0.1886323E-04  0.2079571E+04  0.7818609E-02  0.8570296E-01
       -2   -1    0    0    0  501  0.00000000000E+00  0.00000000000E+00  0.10417625958E+04  0.10417625958E+04  0.25500000920E-02 0. -1.
        2   -1    0    0  501    0  0.00000000000E+00  0.00000000000E+00 -0.10378126072E+04  0.10378126072E+04  0.25500000920E-02 0.  1.
    10030    2    1    2    0    0  0.00000000000E+00  0.00000000000E+00  0.39499886017E+01  0.20795752030E+04  0.20795714516E+04 0.  0.
        2    1    3    3  502    0 -0.19488646074E+03  0.52947817443E+03  0.87537595490E+03  0.10414465575E+04  0.25500000920E-02 0. -1.
       -2    1    3    3    0  502  0.19488646074E+03 -0.52947817443E+03 -0.87142596630E+03  0.10381286455E+04  0.25500000920E-02 0.  1.
</event>
<event>
 5   0  0.8237966E-05  0.1936433E+04  0.7818609E-02  0.8636931E-01
       -1   -1    0    0    0  501  0.00000000000E+00  0.00000000000E+00  0.66546090824E+03  0.66546090826E+03  0.50400001928E-02 0. -1.
        1   -1    0    0  501    0  0.00000000000E+00  0.00000000000E+00 -0.14087129609E+04  0.14087129609E+04  0.50400001928E-02 0.  1.
    10030    2    1    2    0    0  0.00000000000E+00  0.00000000000E+00 -0.74325205269E+03  0.20741738692E+04  0.19364332227E+04 0.  0.
        1    1    3    3  502    0  0.74509228927E+01  0.96813605928E+03 -0.36089005901E+03  0.10332398464E+04  0.50400001928E-02 0.  1.
       -1    1    3    3    0  502 -0.74509228927E+01 -0.96813605928E+03 -0.38236199368E+03  0.10409340228E+04  0.50400001928E-02 0. -1.
</event>
<event>
 5   0  0.8486612E-05  0.2098003E+04  0.7818609E-02  0.8562124E-01
       -1   -1    0    0    0  501  0.00000000000E+00  0.00000000000E+00  0.76194513288E+03  0.76194513290E+03  0.50400001928E-02 0. -1.
        1   -1    0    0  501    0  0.00000000000E+00  0.00000000000E+00 -0.14442032592E+04  0.14442032592E+04  0.50400001928E-02 0.  1.
    10030    2    1    2    0    0  0.00000000000E+00  0.00000000000E+00 -0.68225812629E+03  0.22061483921E+04  0.20980025207E+04 0.  0.
        5    1    3    3  502    0 -0.25497104303E+03  0.10041323967E+04 -0.16805626316E+03  0.10495509042E+04  0.46999998093E+01 0.  1.
       -5    1    3    3    0  502  0.25497104303E+03 -0.10041323967E+04 -0.51420186313E+03  0.11565974879E+04  0.46999998093E+01 0. -1.
</event>
<event>
 5   0  0.1777590E-04  0.2073299E+04  0.7818609E-02  0.8573097E-01
       -2   -1    0    0    0  501  0.00000000000E+00  0.00000000000E+00  0.64919603715E+03  0.64919603715E+03  0.25500000920E-02 0. -1.
        2   -1    0    0  501    0  0.00000000000E+00  0.00000000000E+00 -0.16553429056E+04  0.16553429056E+04  0.25500000920E-02 0.  1.
    10030    2    1    2    0    0  0.00000000000E+00  0.00000000000E+00 -0.10061468684E+04  0.23045389427E+04  0.20732988732E+04 0.  0.
        4    1    3    3  502    0  0.75038996523E+03  0.28914477142E+03 -0.12302150170E+04  0.14697348059E+04  0.12699999809E+01 0.  1.
       -4    1    3    3    0  502 -0.75038996523E+03 -0.28914477142E+03  0.22406814857E+03  0.83480413682E+03  0.12699999809E+01 0. -1.
</event>
<event>
 5   0  0.8755004E-05  0.2094926E+04  0.7818609E-02  0.8563482E-01
        1   -1    0    0  501    0  0.00000000000E+00  0.00000000000E+00  0.11557194174E+04  0.11557194174E+04  0.50400001928E-02 0. -1.
       -1   -1    0    0    0  501  0.00000000000E+00  0.00000000000E+00 -0.94934677713E+03  0.94934677714E+03  0.50400001928E-02 0.  1.
    10030    2    1    2    0    0  0.00000000000E+00  0.00000000000E+00  0.20637264025E+03  0.21050661945E+04  0.20949257783E+04 0.  0.
        3    1    3    3  502    0  0.42532145199E+03  0.72624665857E+03  0.72977984782E+03  0.11139619307E+04  0.10100000352E+00 0. -1.
       -3    1    3    3    0  502 -0.42532145199E+03 -0.72624665857E+03 -0.52340720756E+03  0.99110426381E+03  0.10100000352E+00 0.  1.
</event>
<event>
 5   0  0.6441125E-05  0.2057069E+04  0.7818609E-02  0.8580394E-01
        3   -1    0    0  501    0  0.00000000000E+00  0.00000000000E+00  0.63557582053E+03  0.63557582856E+03  0.10100000352E+00 0.  1.
       -3   -1    0    0    0  501  0.00000000000E+00  0.00000000000E+00 -0.16644477677E+04  0.16644477707E+04  0.10100000352E+00 0. -1.
    10030    2    1    2    0    0  0.00000000000E+00  0.00000000000E+00 -0.10288719471E+04  0.23000235993E+04  0.20570685632E+04 0.  0.
        3    1    3    3  502    0  0.84910299570E+02  0.14195987341E+03 -0.16494776814E+04  0.16577511865E+04  0.10100000352E+00 0. -1.
       -3    1    3    3    0  502 -0.84910299570E+02 -0.14195987341E+03  0.62060573427E+03  0.64227241280E+03  0.10100000352E+00 0.  1.
</event>
<event>
 5   0  0.8237966E-05  0.2160391E+04  0.7818609E-02  0.8535097E-01
       -1   -1    0    0    0  501  0.00000000000E+00  0.00000000000E+00  0.65292249933E+03  0.65292249935E+03  0.50400001928E-02 0. -1.
        1   -1    0    0  501    0  0.00000000000E+00  0.00000000000E+00 -0.17870769809E+04  0.17870769809E+04  0.50400001928E-02 0.  1.
    10030    2    1    2    0    0  0.00000000000E+00  0.00000000000E+00 -0.11341544816E+04  0.24399994803E+04  0.21603914172E+04 0.  0.
        1    1    3    3  502    0  0.56385569794E+03  0.62157146259E+02  0.47114978326E+03  0.73741364052E+03  0.50400001928E-02 0. -1.
       -1    1    3    3    0  502 -0.56385569794E+03 -0.62157146259E+02 -0.16053042649E+04  0.17025858398E+04  0.50400001928E-02 0.  1.
</event>
<event>
 5   0  0.8271069E-05  0.1807178E+04  0.7818609E-02  0.8702492E-01
        1   -1    0    0  501    0  0.00000000000E+00  0.00000000000E+00  0.94255613439E+03  0.94255613440E+03  0.50400001928E-02 0. -1.
       -1   -1    0    0    0  501  0.00000000000E+00  0.00000000000E+00 -0.86623239229E+03  0.86623239230E+03  0.50400001928E-02 0.  1.
    10030    2    1    2    0    0  0.00000000000E+00  0.00000000000E+00  0.76323742101E+02  0.18087885267E+04  0.18071775288E+04 0.  0.
        2    1    3    3  502    0  0.39757005818E+03 -0.47257872688E+03 -0.62203211242E+03  0.87653668100E+03  0.25500000920E-02 0.  1.
       -2    1    3    3    0  502 -0.39757005818E+03  0.47257872688E+03  0.69835585452E+03  0.93225184570E+03  0.25500000920E-02 0. -1.
</event>
<event>
 5   0  0.8525278E-05  0.2045699E+04  0.7818609E-02  0.8585548E-01
       -1   -1    0    0    0  501  0.00000000000E+00  0.00000000000E+00  0.91084359113E+03  0.91084359114E+03  0.50400001928E-02 0. -1.
        1   -1    0    0  501    0  0.00000000000E+00  0.00000000000E+00 -0.11486290712E+04  0.11486290712E+04  0.50400001928E-02 0.  1.
    10030    2    1    2    0    0  0.00000000000E+00  0.00000000000E+00 -0.23778548005E+03  0.20594726623E+04  0.20456993211E+04 0.  0.
        4    1    3    3  502    0  0.80495601090E+03 -0.60591380855E+03  0.58743812022E+02  0.10092265213E+04  0.12699999809E+01 0. -1.
       -4    1    3    3    0  502 -0.80495601090E+03  0.60591380855E+03 -0.29652929207E+03  0.10502461411E+04  0.12699999809E+01 0.  1.
</event>
<event>
 5   0  0.6441125E-05  0.2124202E+04  0.7818609E-02  0.8550657E-01
        3   -1    0    0  501    0  0.00000000000E+00  0.00000000000E+00  0.19596277013E+04  0.19596277040E+04  0.10100000352E+00 0.  1.
       -3   -1    0    0    0  501  0.00000000000E+00  0.00000000000E+00 -0.57564940677E+03  0.57564941563E+03  0.10100000352E+00 0. -1.
    10030    2    1    2    0    0  0.00000000000E+00  0.00000000000E+00  0.13839782946E+04  0.25352771196E+04  0.21242020039E+04 0.  0.
        2    1    3    3  502    0  0.66303127732E+03 -0.54168169369E+03 -0.58153947705E+02  0.85814416832E+03  0.25500000920E-02 0. -1.
       -2    1    3    3    0  502 -0.66303127732E+03  0.54168169369E+03  0.14421322423E+04  0.16771329513E+04  0.25500000920E-02 0.  1.
</event>
<event>
 5   0  0.1810875E-04  0.2190100E+04  0.7818609E-02  0.8522560E-01
       -2   -1    0    0    0  501  0.00000000000E+00  0.00000000000E+00  0.10378778128E+04  0.10378778128E+04  0.25500000920E-02 0. -1.
        2   -1    0    0  501    0  0.00000000000E+00  0.00000000000E+00 -0.11553713435E+04  0.11553713436E+04  0.25500000920E-02 0.  1.
    10030    2    1    2    0    0  0.00000000000E+00  0.00000000000E+00 -0.11749353076E+03  0.21932491563E+04  0.21900997996E+04 0.  0.
        1    1    3    3  502    0  0.78656979928E+03  0.36661990441E+03 -0.72756347224E+03  0.11324534470E+04  0.50400001928E-02 0.  1.
       -1    1    3    3    0  502 -0.78656979928E+03 -0.36661990441E+03  0.61006994148E+03  0.10607957093E+04  0.50400001928E-02 0. -1.
</event>
<event>
 5   0  0.8271069E-05  0.2133565E+04  0.7818609E-02  0.8546600E-01
       -1   -1    0    0    0  501  0.00000000000E+00  0.00000000000E+00  0.69966141968E+03  0.69966141970E+03  0.50400001928E-02 0. -1.
        1   -1    0    0  501    0  0.00000000000E+00  0.00000000000E+00 -0.16265369304E+04  0.16265369304E+04  0.50400001928E-02 0.  1.
    10030    2    1    2    0    0  0.00000000000E+00  0.00000000000E+00 -0.92687551070E+03  0.23261983501E+04  0.21335652208E+04 0.  0.
        2    1    3    3  502    0  0.47013393380E+03  0.86039367937E+03 -0.50995566176E+01  0.98047396941E+03  0.25500000920E-02 0.  1.
       -2    1    3    3    0  502 -0.47013393380E+03 -0.86039367937E+03 -0.92177595408E+03  0.13457243807E+04  0.25500000920E-02 0. -1.
</event>
<event>
 5   0  0.1815400E-04  0.2069176E+04  0.7818609E-02  0.8574944E-01
        2   -1    0    0  501    0  0.00000000000E+00  0.00000000000E+00  0.63836080910E+03  0.63836080911E+03  0.25500000920E-02 0.  1.
       -2   -1    0    0    0  501  0.00000000000E+00  0.00000000000E+00 -0.16767515154E+04  0.16767515154E+04  0.25500000920E-02 0. -1.
    10030    2    1    2    0    0  0.00000000000E+00  0.00000000000E+00 -0.10383907063E+04  0.23151123245E+04  0.20691761202E+04 0.  0.
        3    1    3    3  502    0 -0.45585937314E+03  0.14971713423E+03 -0.15447360149E+04  0.16175389807E+04  0.10100000352E+00 0. -1.
       -3    1    3    3    0  502  0.45585937314E+03 -0.14971713423E+03  0.50634530852E+03  0.69757334383E+03  0.10100000352E+00 0.  1.
</event>
<event>
 5   0  0.8525278E-05  0.2039699E+04  0.7818609E-02  0.8588282E-01
        1   -1    0    0  501    0  0.00000000000E+00  0.00000000000E+00  0.12176709695E+04  0.12176709695E+04  0.50400001928E-02 0.  1.
       -1   -1    0    0    0  501  0.00000000000E+00  0.00000000000E+00 -0.85416580630E+03  0.85416580632E+03  0.50400001928E-02 0. -1.
    10030    2    1    2    0    0  0.00000000000E+00  0.00000000000E+00  0.36350516322E+03  0.20718367758E+04  0.20396989048E+04 0.  0.
        4    1    3    3  502    0 -0.63342462484E+03  0.59162071958E+03 -0.36416270568E+03  0.94013718164E+03  0.12699999809E+01 0. -1.
       -4    1    3    3    0  502  0.63342462484E+03 -0.59162071958E+03  0.72766786890E+03  0.11316995942E+04  0.12699999809E+01 0.  1.
</event>
<event>
 5   0  0.1810875E-04  0.2111984E+04  0.7818609E-02  0.8555983E-01
       -2   -1    0    0    0  501  0.00000000000E+00  0.00000000000E+00  0.60123392687E+03  0.60123392688E+03  0.25500000920E-02 0. -1.
        2   -1    0    0  501    0  0.00000000000E+00  0.00000000000E+00 -0.18547168146E+04  0.18547168146E+04  0.25500000920E-02 0.  1.
    10030    2    1    2    0    0  0.00000000000E+00  0.00000000000E+00 -0.12534828877E+04  0.24559507415E+04  0.21119835924E+04 0.  0.
        1    1    3    3  502    0  0.89833267425E+03 -0.55451877564E+03 -0.65583647867E+03  0.12428250693E+04  0.50400001928E-02 0.  1.
       -1    1    3    3    0  502 -0.89833267425E+03  0.55451877564E+03 -0.59764640906E+03  0.12131256722E+04  0.50400001928E-02 0. -1.
</event>
<event>
 5   0  0.8755004E-05  0.2058944E+04  0.7818609E-02  0.8579548E-01
       -1   -1    0    0    0  501  0.00000000000E+00  0.00000000000E+00  0.72326383171E+03  0.72326383172E+03  0.50400001928E-02 0.  1.
        1   -1    0    0  501    0  0.00000000000E+00  0.00000000000E+00 -0.14653189188E+04  0.14653189188E+04  0.50400001928E-02 0. -1.
    10030    2    1    2    0    0  0.00000000000E+00  0.00000000000E+00 -0.74205508707E+03  0.21885827505E+04  0.20589435892E+04 0.  0.
        3    1    3    3  502    0 -0.55743455297E+03  0.83576711765E+03 -0.13198539156E+03  0.10132423745E+04  0.10100000352E+00 0.  1.
       -3    1    3    3    0  502  0.55743455297E+03 -0.83576711765E+03 -0.61006969551E+03  0.11753403760E+04  0.10100000352E+00 0. -1.
</event>
<event>
 5   0  0.1777590E-04  0.1747092E+04  0.7818609E-02  0.8734953E-01
       -2   -1    0    0    0  501  0.00000000000E+00  0.00000000000E+00  0.38283943592E+03  0.38283943593E+03  0.25500000920E-02 0. -1.
        2   -1    0    0  501    0  0.00000000000E+00  0.00000000000E+00 -0.19932186990E+04  0.19932186990E+04  0.25500000920E-02 0.  1.
    10030    2    1    2    0    0  0.00000000000E+00  0.00000000000E+00 -0.16103792630E+04  0.23760581349E+04  0.17470921240E+04 0.  0.
        4    1    3    3  502    0  0.17577387862E+03  0.80152694624E+03 -0.12126002758E+04  0.14641526367E+04  0.12699999809E+01 0. -1.
       -4    1    3    3    0  502 -0.17577387862E+03 -0.80152694624E+03 -0.39777898727E+03  0.91190549816E+03  0.12699999809E+01 0.  1.
</event>
<event>
 5   0  0.1777590E-04  0.2095867E+04  0.7818609E-02  0.8563066E-01
        2   -1    0    0  501    0  0.00000000000E+00  0.00000000000E+00  0.18690969110E+04  0.18690969110E+04  0.25500000920E-02 0. -1.
       -2   -1    0    0    0  501  0.00000000000E+00  0.00000000000E+00 -0.58753746661E+03  0.58753746662E+03  0.25500000920E-02 0.  1.
    10030    2    1    2    0    0  0.00000000000E+00  0.00000000000E+00  0.12815594444E+04  0.24566343776E+04  0.20958668507E+04 0.  0.
        4    1    3    3  502    0  0.53260211791E+03 -0.55416077878E+03 -0.19415714254E+03  0.79275329936E+03  0.12699999809E+01 0.  1.
       -4    1    3    3    0  502 -0.53260211791E+03  0.55416077878E+03  0.14757165869E+04  0.16638810782E+04  0.12699999809E+01 0. -1.
</event>
<event>
 5   0  0.1921687E-04  0.2087445E+04  0.7818609E-02  0.8566794E-01
       -2   -1    0    0    0  501  0.00000000000E+00  0.00000000000E+00  0.59648793972E+03  0.59648793972E+03  0.25500000920E-02 0. -1.
        2   -1    0    0  501    0  0.00000000000E+00  0.00000000000E+00 -0.18262837772E+04  0.18262837772E+04  0.25500000920E-02 0.  1.
    10030    2    1    2    0    0  0.00000000000E+00  0.00000000000E+00 -0.12297958375E+04  0.24227717170E+04  0.20874446078E+04 0.  0.
        5    1    3    3  502    0  0.21940447947E+03 -0.96791523004E+03 -0.23999872996E+03  0.10210875078E+04  0.46999998093E+01 0. -1.
       -5    1    3    3    0  502 -0.21940447947E+03  0.96791523004E+03 -0.98979710756E+03  0.14016842092E+04  0.46999998093E+01 0.  1.
</event>
<event>
 5   0  0.1886323E-04  0.2080320E+04  0.7818609E-02  0.8569963E-01
       -2   -1    0    0    0  501  0.00000000000E+00  0.00000000000E+00  0.85762299172E+03  0.85762299173E+03  0.25500000920E-02 0.  1.
        2   -1    0    0  501    0  0.00000000000E+00  0.00000000000E+00 -0.12615481236E+04  0.12615481236E+04  0.25500000920E-02 0. -1.
    10030    2    1    2    0    0  0.00000000000E+00  0.00000000000E+00 -0.40392513183E+03  0.21191711153E+04  0.20803198561E+04 0.  0.
        2    1    3    3  502    0  0.82632591050E+03 -0.61192301274E+03 -0.41967594788E+02  0.10290896768E+04  0.25500000920E-02 0.  1.
       -2    1    3    3    0  502 -0.82632591050E+03  0.61192301274E+03 -0.36195753704E+03  0.10900814385E+04  0.25500000920E-02 0. -1.
</event>
<event>
 5   0  0.1815400E-04  0.1941512E+04  0.7818609E-02  0.8634465E-01
        2   -1    0    0  501    0  0.00000000000E+00  0.00000000000E+00  0.12675595223E+04  0.12675595223E+04  0.25500000920E-02 0.  1.
       -2   -1    0    0    0  501  0.00000000000E+00  0.00000000000E+00 -0.74344980601E+03  0.74344980601E+03  0.25500000920E-02 0. -1.
    10030    2    1    2    0    0  0.00000000000E+00  0.00000000000E+00  0.52410971634E+03  0.20110093284E+04  0.19415116595E+04 0.  0.
        3    1    3    3  502    0  0.44197560196E+03 -0.70734187606E+03 -0.25240504841E+03  0.87142600432E+03  0.10100000352E+00 0. -1.
       -3    1    3    3    0  502 -0.44197560196E+03  0.70734187606E+03  0.77651476475E+03  0.11395833240E+04  0.10100000352E+00 0.  1.
</event>
<event>
 5   0  0.1815400E-04  0.2104347E+04  0.7818609E-02  0.8559331E-01
       -2   -1    0    0    0  501  0.00000000000E+00  0.00000000000E+00  0.66229695391E+03  0.66229695392E+03  0.25500000920E-02 0.  1.
        2   -1    0    0  501    0  0.00000000000E+00  0.00000000000E+00 -0.16715605162E+04  0.16715605162E+04  0.25500000920E-02 0. -1.
    10030    2    1    2    0    0  0.00000000000E+00  0.00000000000E+00 -0.10092635622E+04  0.23338574701E+04  0.21043473460E+04 0.  0.
        3    1    3    3  502    0 -0.44689270159E+01  0.93049283717E+02  0.65771426613E+03  0.66427871153E+03  0.10100000352E+00 0.  1.
       -3    1    3    3    0  502  0.44689270159E+01 -0.93049283717E+02 -0.16669778284E+04  0.16695787586E+04  0.10100000352E+00 0. -1.
</event>
<event>
 5   0  0.1886323E-04  0.2015751E+04  0.7818609E-02  0.8599292E-01
        2   -1    0    0  501    0  0.00000000000E+00  0.00000000000E+00  0.17824219291E+04  0.17824219291E+04  0.25500000920E-02 0.  1.
       -2   -1    0    0    0  501  0.00000000000E+00  0.00000000000E+00 -0.56990605281E+03  0.56990605282E+03  0.25500000920E-02 0. -1.
    10030    2    1    2    0    0  0.00000000000E+00  0.00000000000E+00  0.12125158763E+04  0.23523279819E+04  0.20157510224E+04 0.  0.
        2    1    3    3  502    0  0.99239117822E+03 -0.12230363942E+03  0.45857876896E+03  0.11000422347E+04  0.25500000920E-02 0. -1.
       -2    1    3    3    0  502 -0.99239117822E+03  0.12230363942E+03  0.75393710734E+03  0.12522857472E+04  0.25500000920E-02 0.  1.
</event>
<event>
 5   0  0.6441125E-05  0.2128187E+04  0.7818609E-02  0.8548927E-01
        4   -1    0    0  501    0  0.00000000000E+00  0.00000000000E+00  0.65925854276E+03  0.65925976603E+03  0.12699999809E+01 0. -1.
       -4   -1    0    0    0  501  0.00000000000E+00  0.00000000000E+00 -0.17175252967E+04  0.17175257662E+04  0.12699999809E+01 0.  1.
    10030    2    1    2    0    0  0.00000000000E+00  0.00000000000E+00 -0.10582667539E+04  0.23767855323E+04  0.21281872436E+04 0.  0.
        5    1    3    3  502    0 -0.10554319597E+03 -0.68051016292E+03  0.37682074785E+03  0.78501555020E+03  0.46999998093E+01 0. -1.
       -5    1    3    3    0  502  0.10554319597E+03  0.68051016292E+03 -0.14350875018E+04  0.15917699821E+04  0.46999998093E+01 0.  1.
</event>
<event>
 5   0  0.1815400E-04  0.2151519E+04  0.7818609E-02  0.8538882E-01
        2   -1    0    0  501    0  0.00000000000E+00  0.00000000000E+00  0.14643480224E+04  0.14643480224E+04  0.25500000920E-02 0.  1.
       -2   -1    0    0    0  501  0.00000000000E+00  0.00000000000E+00 -0.79028896428E+03  0.79028896428E+03  0.25500000920E-02 0. -1.
    10030    2    1    2    0    0  0.00000000000E+00  0.00000000000E+00  0.67405905811E+03  0.22546369867E+04  0.21515186097E+04 0.  0.
        3    1    3    3  502    0  0.11019963485E+03  0.35565856757E+03 -0.72061043657E+03  0.81112045203E+03  0.10100000352E+00 0. -1.
       -3    1    3    3    0  502 -0.11019963485E+03 -0.35565856757E+03  0.13946694947E+04  0.14435165346E+04  0.10100000352E+00 0.  1.
</event>
<event>
 5   0  0.8525278E-05  0.2169007E+04  0.7818609E-02  0.8531440E-01
       -1   -1    0    0    0  501  0.00000000000E+00  0.00000000000E+00  0.12020301641E+04  0.12020301641E+04  0.50400001928E-02 0.  1.
        1   -1    0    0  501    0  0.00000000000E+00  0.00000000000E+00 -0.97846757778E+03  0.97846757779E+03  0.50400001928E-02 0. -1.
    10030    2    1    2    0    0  0.00000000000E+00  0.00000000000E+00  0.22356258636E+03  0.21804977419E+04  0.21690067249E+04 0.  0.
        4    1    3    3  502    0 -0.93170115185E+03  0.47670453166E+03 -0.17403406021E+03  0.10609447271E+04  0.12699999809E+01 0. -1.
       -4    1    3    3    0  502  0.93170115185E+03 -0.47670453166E+03  0.39759664657E+03  0.11195530149E+04  0.12699999809E+01 0.  1.
</event>
<event>
 5   0  0.1810875E-04  0.2064965E+04  0.7818609E-02  0.8576835E-01
        2   -1    0    0  501    0  0.00000000000E+00  0.00000000000E+00  0.80316778751E+03  0.80316778751E+03  0.25500000920E-02 0. -1.
       -2   -1    0    0    0  501  0.00000000000E+00  0.00000000000E+00 -0.13272701121E+04  0.13272701121E+04  0.25500000920E-02 0.  1.
    10030    2    1    2    0    0  0.00000000000E+00  0.00000000000E+00 -0.52410232455E+03  0.21304378996E+04  0.20649654712E+04 0.  0.
        1    1    3    3  502    0  0.10800389595E+03  0.97206887970E+03  0.79251647218E+02  0.98125611949E+03  0.50400001928E-02 0. -1.
       -1    1    3    3    0  502 -0.10800389595E+03 -0.97206887970E+03 -0.60335397176E+03  0.11491817801E+04  0.50400001928E-02 0.  1.
</event>
<event>
 5   0  0.1886323E-04  0.2105841E+04  0.7818609E-02  0.8558675E-01
       -2   -1    0    0    0  501  0.00000000000E+00  0.00000000000E+00  0.80658795600E+03  0.80658795600E+03  0.25500000920E-02 0. -1.
        2   -1    0    0  501    0  0.00000000000E+00  0.00000000000E+00 -0.13744827992E+04  0.13744827992E+04  0.25500000920E-02 0.  1.
    10030    2    1    2    0    0  0.00000000000E+00  0.00000000000E+00 -0.56789484317E+03  0.21810707552E+04  0.21058407077E+04 0.  0.
        2    1    3    3  502    0  0.10159914928E+04 -0.26709365503E+03 -0.21024678278E+03  0.10713456229E+04  0.25500000920E-02 0. -1.
       -2    1    3    3    0  502 -0.10159914928E+04  0.26709365503E+03 -0.35764806039E+03  0.11097251323E+04  0.25500000920E-02 0.  1.
</event>
<event>
 5   0  0.8271069E-05  0.2081545E+04  0.7818609E-02  0.8569417E-01
       -1   -1    0    0    0  501  0.00000000000E+00  0.00000000000E+00  0.10281138843E+04  0.10281138843E+04  0.50400001928E-02 0. -1.
        1   -1    0    0  501    0  0.00000000000E+00  0.00000000000E+00 -0.10535872523E+04  0.10535872523E+04  0.50400001928E-02 0.  1.
    10030    2    1    2    0    0  0.00000000000E+00  0.00000000000E+00 -0.25473368061E+02  0.20817011366E+04  0.20815452745E+04 0.  0.
        2    1    3    3  502    0  0.71361181679E+03 -0.44830475202E+03 -0.62351042785E+03  0.10483244867E+04  0.25500000920E-02 0.  1.
       -2    1    3    3    0  502 -0.71361181679E+03  0.44830475202E+03  0.59803705979E+03  0.10333766499E+04  0.25500000920E-02 0. -1.
</event>
<event>
 5   0  0.1921687E-04  0.2079958E+04  0.7818609E-02  0.8570124E-01
       -2   -1    0    0    0  501  0.00000000000E+00  0.00000000000E+00  0.10384323767E+04  0.10384323767E+04  0.25500000920E-02 0.  1.
        2   -1    0    0  501    0  0.00000000000E+00  0.00000000000E+00 -0.10415284222E+04  0.10415284222E+04  0.25500000920E-02 0. -1.
    10030    2    1    2    0    0  0.00000000000E+00  0.00000000000E+00 -0.30960454692E+01  0.20799607990E+04  0.20799584947E+04 0.  0.
        5    1    3    3  502    0  0.25709005024E+03  0.36947008620E+03  0.93596637919E+03  0.10385848986E+04  0.46999998093E+01 0.  1.
       -5    1    3    3    0  502 -0.25709005024E+03 -0.36947008620E+03 -0.93906242466E+03  0.10413759004E+04  0.46999998093E+01 0. -1.
</event>
<event>
 5   0  0.8755004E-05  0.2057022E+04  0.7818609E-02  0.8580416E-01
        1   -1    0    0  501    0  0.00000000000E+00  0.00000000000E+00  0.63270868505E+03  0.63270868507E+03  0.50400001928E-02 0. -1.
       -1   -1    0    0    0  501  0.00000000000E+00  0.00000000000E+00 -0.16719137752E+04  0.16719137752E+04  0.50400001928E-02 0.  1.
    10030    2    1    2    0    0  0.00000000000E+00  0.00000000000E+00 -0.10392050901E+04  0.23046224603E+04  0.20570215033E+04 0.  0.
        3    1    3    3  502    0 -0.33921715072E+03  0.91509729767E+03 -0.88327051843E+03  0.13162971391E+04  0.10100000352E+00 0. -1.
       -3    1    3    3    0  502  0.33921715072E+03 -0.91509729767E+03 -0.15593457170E+03  0.98832532114E+03  0.10100000352E+00 0.  1.
</event>
<event>
 5   0  0.8755004E-05  0.2078101E+04  0.7818609E-02  0.8570952E-01
       -1   -1    0    0    0  501  0.00000000000E+00  0.00000000000E+00  0.59781981859E+03  0.59781981861E+03  0.50400001928E-02 0.  1.
        1   -1    0    0  501    0  0.00000000000E+00  0.00000000000E+00 -0.18059385037E+04  0.18059385037E+04  0.50400001928E-02 0. -1.
    10030    2    1    2    0    0  0.00000000000E+00  0.00000000000E+00 -0.12081186851E+04  0.24037583223E+04  0.20781008914E+04 0.  0.
        3    1    3    3  502    0 -0.70430456552E+03  0.19391202405E+03  0.25063760181E+03  0.77231212066E+03  0.10100000352E+00 0.  1.
       -3    1    3    3    0  502  0.70430456552E+03 -0.19391202405E+03 -0.14587562869E+04  0.16314462016E+04  0.10100000352E+00 0. -1.
</event>
<event>
 5   0  0.8525278E-05  0.2088399E+04  0.7818609E-02  0.8566371E-01
       -1   -1    0    0    0  501  0.00000000000E+00  0.00000000000E+00  0.98826339075E+03  0.98826339076E+03  0.50400001928E-02 0.  1.
        1   -1    0    0  501    0  0.00000000000E+00  0.00000000000E+00 -0.11033013090E+04  0.11033013090E+04  0.50400001928E-02 0. -1.
    10030    2    1    2    0    0  0.00000000000E+00  0.00000000000E+00 -0.11503791821E+03  0.20915646997E+04  0.20883987097E+04 0.  0.
        4    1    3    3  502    0 -0.84184239564E+03 -0.43975020997E+03 -0.49207975147E+03  0.10696835798E+04  0.12699999809E+01 0. -1.
       -4    1    3    3    0  502  0.84184239564E+03  0.43975020997E+03  0.37704183325E+03  0.10218811199E+04  0.12699999809E+01 0.  1.
</event>
<event>
 5   0  0.1777590E-04  0.2210952E+04  0.7818609E-02  0.8513884E-01
        2   -1    0    0  501    0  0.00000000000E+00  0.00000000000E+00  0.12013497250E+04  0.12013497250E+04  0.25500000920E-02 0. -1.
       -2   -1    0    0    0  501  0.00000000000E+00  0.00000000000E+00 -0.10172530637E+04  0.10172530637E+04  0.25500000920E-02 0.  1.
    10030    2    1    2    0    0  0.00000000000E+00  0.00000000000E+00  0.18409666127E+03  0.22186027888E+04  0.22109515493E+04 0.  0.
        4    1    3    3  502    0 -0.10423682539E+04  0.23255834707E+03  0.37844821336E+03  0.11330664696E+04  0.12699999809E+01 0. -1.
       -4    1    3    3    0  502  0.10423682539E+04 -0.23255834707E+03 -0.19435155209E+03  0.10855363191E+04  0.12699999809E+01 0.  1.
</event>
<event>
 5   0  0.1886323E-04  0.2195285E+04  0.7818609E-02  0.8520393E-01
       -2   -1    0    0    0  501  0.00000000000E+00  0.00000000000E+00  0.37939518673E+03  0.37939518674E+03  0.25500000920E-02 0.  1.
        2   -1    0    0  501    0  0.00000000000E+00  0.00000000000E+00 -0.31756297949E+04  0.31756297949E+04  0.25500000920E-02 0. -1.
    10030    2    1    2    0    0  0.00000000000E+00  0.00000000000E+00 -0.27962346082E+04  0.35550249816E+04  0.21952846367E+04 0.  0.
        2    1    3    3  502    0 -0.23404654862E+03 -0.91829357416E+03 -0.50117652049E+03  0.10720162219E+04  0.25500000920E-02 0.  1.
       -2    1    3    3    0  502  0.23404654862E+03  0.91829357416E+03 -0.22950580877E+04  0.24830087598E+04  0.25500000920E-02 0. -1.
</event>
<event>
 5   0  0.1777590E-04  0.2093707E+04  0.7818609E-02  0.8564021E-01
        2   -1    0    0  501    0  0.00000000000E+00  0.00000000000E+00  0.57623891266E+03  0.57623891266E+03  0.25500000920E-02 0. -1.
       -2   -1    0    0    0  501  0.00000000000E+00  0.00000000000E+00 -0.19018186260E+04  0.19018186260E+04  0.25500000920E-02 0.  1.
    10030    2    1    2    0    0  0.00000000000E+00  0.00000000000E+00 -0.13255797134E+04  0.24780575387E+04  0.20937066625E+04 0.  0.
        4    1    3    3  502    0  0.97143755707E+03  0.16569222575E+02 -0.20144656940E+03  0.99224382066E+03  0.12699999809E+01 0. -1.
       -4    1    3    3    0  502 -0.97143755707E+03 -0.16569222575E+02 -0.11241331440E+04  0.14858137180E+04  0.12699999809E+01 0.  1.
</event>
<event>
 5   0  0.1810875E-04  0.1890124E+04  0.7818609E-02  0.8659788E-01
       -2   -1    0    0    0  501  0.00000000000E+00  0.00000000000E+00  0.38731350872E+03  0.38731350873E+03  0.25500000920E-02 0.  1.
        2   -1    0    0  501    0  0.00000000000E+00  0.00000000000E+00 -0.23059939786E+04  0.23059939786E+04  0.25500000920E-02 0. -1.
    10030    2    1    2    0    0  0.00000000000E+00  0.00000000000E+00 -0.19186804699E+04  0.26933074873E+04  0.18901244604E+04 0.  0.
        1    1    3    3  502    0 -0.73907777567E+03  0.34042436775E+03 -0.16442263497E+04  0.18345585294E+04  0.50400001928E-02 0. -1.
       -1    1    3    3    0  502  0.73907777567E+03 -0.34042436775E+03 -0.27445412014E+03  0.85874895792E+03  0.50400001928E-02 0.  1.
</event>
<event>
 5   0  0.1815400E-04  0.2095994E+04  0.7818609E-02  0.8563010E-01
        2   -1    0    0  501    0  0.00000000000E+00  0.00000000000E+00  0.27313607093E+04  0.27313607094E+04  0.25500000920E-02 0.  1.
       -2   -1    0    0    0  501  0.00000000000E+00  0.00000000000E+00 -0.40210649236E+03  0.40210649236E+03  0.25500000920E-02 0. -1.
    10030    2    1    2    0    0  0.00000000000E+00  0.00000000000E+00  0.23292542170E+04  0.31334672017E+04  0.20959941548E+04 0.  0.
        3    1    3    3  502    0  0.57769747721E+03  0.25404611348E+03 -0.86183540303E+02  0.63694694894E+03  0.10100000352E+00 0. -1.
       -3    1    3    3    0  502 -0.57769747721E+03 -0.25404611348E+03  0.24154377573E+04  0.24965202528E+04  0.10100000352E+00 0.  1.
</event>
<event>
 5   0  0.8237966E-05  0.2106961E+04  0.7818609E-02  0.8558183E-01
       -1   -1    0    0    0  501  0.00000000000E+00  0.00000000000E+00  0.12252018259E+04  0.12252018259E+04  0.50400001928E-02 0. -1.
        1   -1    0    0  501    0  0.00000000000E+00  0.00000000000E+00 -0.90582692960E+03  0.90582692961E+03  0.50400001928E-02 0.  1.
    10030    2    1    2    0    0  0.00000000000E+00  0.00000000000E+00  0.31937489631E+03  0.21310287555E+04  0.21069606623E+04 0.  0.
        1    1    3    3  502    0  0.45066021562E+03  0.46388606687E+03  0.10007731430E+04  0.11915669502E+04  0.50400001928E-02 0. -1.
       -1    1    3    3    0  502 -0.45066021562E+03 -0.46388606687E+03 -0.68139824673E+03  0.93946180532E+03  0.50400001928E-02 0.  1.
</event>
<event>
 5   0  0.1886323E-04  0.2111831E+04  0.7818609E-02  0.8556049E-01
        2   -1    0    0  501    0  0.00000000000E+00  0.00000000000E+00  0.71686324373E+03  0.71686324374E+03  0.25500000920E-02 0. -1.
       -2   -1    0    0    0  501  0.00000000000E+00  0.00000000000E+00 -0.15553286577E+04  0.15553286577E+04  0.25500000920E-02 0.  1.
    10030    2    1    2    0    0  0.00000000000E+00  0.00000000000E+00 -0.83846541399E+03  0.22721919015E+04  0.21118313821E+04 0.  0.
        2    1    3    3  502    0 -0.92739410330E+03  0.14598566958E+03 -0.93924002996E+03  0.13279847410E+04  0.25500000920E-02 0.  1.
       -2    1    3    3    0  502  0.92739410330E+03 -0.14598566958E+03  0.10077461596E+03  0.94420716042E+03  0.25500000920E-02 0. -1.
</event>
<event>
 5   0  0.8271069E-05  0.2158607E+04  0.7818609E-02  0.8535857E-01
       -1   -1    0    0    0  501  0.00000000000E+00  0.00000000000E+00  0.54193154916E+03  0.54193154918E+03  0.50400001928E-02 0.  1.
        1   -1    0    0  501    0  0.00000000000E+00  0.00000000000E+00 -0.21495258717E+04  0.21495258717E+04  0.50400001928E-02 0. -1.
    10030    2    1    2    0    0  0.00000000000E+00  0.00000000000E+00 -0.16075943226E+04  0.26914574209E+04  0.21586068523E+04 0.  0.
        2    1    3    3  502    0  0.49101220239E+03  0.20719130428E+03 -0.19740266082E+04  0.20447010220E+04  0.25500000920E-02 0. -1.
       -2    1    3    3    0  502 -0.49101220239E+03 -0.20719130428E+03  0.36643228569E+03  0.64675639886E+03  0.25500000920E-02 0.  1.
</event>
<event>
 5   0  0.1777590E-04  0.2120030E+04  0.7818609E-02  0.8552471E-01
        2   -1    0    0  501    0  0.00000000000E+00  0.00000000000E+00  0.25989189835E+04  0.25989189835E+04  0.25500000920E-02 0. -1.
       -2   -1    0    0    0  501  0.00000000000E+00  0.00000000000E+00 -0.43234572659E+03  0.43234572659E+03  0.25500000920E-02 0.  1.
    10030    2    1    2    0    0  0.00000000000E+00  0.00000000000E+00  0.21665732569E+04  0.30312647101E+04  0.21200297321E+04 0.  0.
        4    1    3    3  502    0  0.85955112303E+03 -0.58927663160E+03  0.13603727439E+04  0.17136775358E+04  0.12699999809E+01 0. -1.
       -4    1    3    3    0  502 -0.85955112303E+03  0.58927663160E+03  0.80620051307E+03  0.13175871743E+04  0.12699999809E+01 0.  1.
</event>
<event>
 5   0  0.1777590E-04  0.2071867E+04  0.7818609E-02  0.8573738E-01
        2   -1    0    0  501    0  0.00000000000E+00  0.00000000000E+00  0.15025357907E+04  0.15025357908E+04  0.25500000920E-02 0.  1.
       -2   -1    0    0    0  501  0.00000000000E+00  0.00000000000E+00 -0.71423167304E+03  0.71423167304E+03  0.25500000920E-02 0. -1.
    10030    2    1    2    0    0  0.00000000000E+00  0.00000000000E+00  0.78830411771E+03  0.22167674638E+04  0.20718674201E+04 0.  0.
        4    1    3    3  502    0  0.81886380264E+03  0.11580099745E+03  0.10616497204E+04  0.13457524067E+04  0.12699999809E+01 0.  1.
       -4    1    3    3    0  502 -0.81886380264E+03 -0.11580099745E+03 -0.27334560273E+03  0.87101505711E+03  0.12699999809E+01 0. -1.
</event>
<event>
 5   0  0.8237966E-05  0.2023971E+04  0.7818609E-02  0.8595495E-01
        1   -1    0    0  501    0  0.00000000000E+00  0.00000000000E+00  0.11513501969E+04  0.11513501969E+04  0.50400001928E-02 0. -1.
       -1   -1    0    0    0  501  0.00000000000E+00  0.00000000000E+00 -0.88949029214E+03  0.88949029216E+03  0.50400001928E-02 0.  1.
    10030    2    1    2    0    0  0.00000000000E+00  0.00000000000E+00  0.26185990474E+03  0.20408404891E+04  0.20239711688E+04 0.  0.
        1    1    3    3  502    0 -0.70782195477E+03 -0.40748992450E+03  0.73345099283E+03  0.10977296193E+04  0.50400001928E-02 0. -1.
       -1    1    3    3    0  502  0.70782195477E+03  0.40748992450E+03 -0.47159108808E+03  0.94311086973E+03  0.50400001928E-02 0.  1.
</event>
<event>
 5   0  0.8755004E-05  0.2110770E+04  0.7818609E-02  0.8556514E-01
        1   -1    0    0  501    0  0.00000000000E+00  0.00000000000E+00  0.79193088182E+03  0.79193088183E+03  0.50400001928E-02 0. -1.
       -1   -1    0    0    0  501  0.00000000000E+00  0.00000000000E+00 -0.14064832361E+04  0.14064832361E+04  0.50400001928E-02 0.  1.
    10030    2    1    2    0    0  0.00000000000E+00  0.00000000000E+00 -0.61455235431E+03  0.21984141180E+04  0.21107700107E+04 0.  0.
        3    1    3    3  502    0 -0.83115691681E+03 -0.63837770997E+03 -0.43690106295E+03  0.11354428519E+04  0.10100000352E+00 0.  1.
       -3    1    3    3    0  502  0.83115691681E+03  0.63837770997E+03 -0.17765129136E+03  0.10629712661E+04  0.10100000352E+00 0. -1.
</event>
<event>
 5   0  0.1815400E-04  0.2123726E+04  0.7818609E-02  0.8550863E-01
        2   -1    0    0  501    0  0.00000000000E+00  0.00000000000E+00  0.15813041252E+04  0.15813041252E+04  0.25500000920E-02 0.  1.
       -2   -1    0    0    0  501  0.00000000000E+00  0.00000000000E+00 -0.71305248898E+03  0.71305248898E+03  0.25500000920E-02 0. -1.
    10030    2    1    2    0    0  0.00000000000E+00  0.00000000000E+00  0.86825163622E+03  0.22943566142E+04  0.21237258225E+04 0.  0.
        3    1    3    3  502    0  0.10604899912E+04  0.23271477081E+02  0.48674482137E+03  0.11670908767E+04  0.10100000352E+00 0.  1.
       -3    1    3    3    0  502 -0.10604899912E+04 -0.23271477081E+02  0.38150681485E+03  0.11272657375E+04  0.10100000352E+00 0. -1.
</event>
<event>
 5   0  0.8486612E-05  0.2006775E+04  0.7818609E-02  0.8603460E-01
       -1   -1    0    0    0  501  0.00000000000E+00  0.00000000000E+00  0.79236570008E+03  0.79236570010E+03  0.50400001928E-02 0.  1.
        1   -1    0    0  501    0  0.00000000000E+00  0.00000000000E+00 -0.12706087781E+04  0.12706087781E+04  0.50400001928E-02 0. -1.
    10030    2    1    2    0    0  0.00000000000E+00  0.00000000000E+00 -0.47824307803E+03  0.20629744782E+04  0.20067753377E+04 0.  0.
        5    1    3    3  502    0  0.32777731279E+03 -0.75029989962E+03 -0.83534372018E+03  0.11697047179E+04  0.46999998093E+01 0. -1.
       -5    1    3    3    0  502 -0.32777731279E+03  0.75029989962E+03  0.35710064215E+03  0.89326976036E+03  0.46999998093E+01 0.  1.
</event>
<event>
 5   0  0.8525278E-05  0.2125261E+04  0.7818609E-02  0.8550197E-01
       -1   -1    0    0    0  501  0.00000000000E+00  0.00000000000E+00  0.11907946246E+04  0.11907946246E+04  0.50400001928E-02 0. -1.
        1   -1    0    0  501    0  0.00000000000E+00  0.00000000000E+00 -0.94826029139E+03  0.94826029140E+03  0.50400001928E-02 0.  1.
    10030    2    1    2    0    0  0.00000000000E+00  0.00000000000E+00  0.24253433317E+03  0.21390549160E+04  0.21252606971E+04 0.  0.
        4    1    3    3  502    0 -0.55769570697E+02 -0.80818638656E+03 -0.57087803290E+03  0.99104935386E+03  0.12699999809E+01 0.  1.
       -4    1    3    3    0  502  0.55769570697E+02  0.80818638656E+03  0.81341236607E+03  0.11480055621E+04  0.12699999809E+01 0. -1.
</event>
<event>
 5   0  0.1777590E-04  0.2097186E+04  0.7818609E-02  0.8562484E-01
        2   -1    0    0  501    0  0.00000000000E+00  0.00000000000E+00  0.92966316279E+03  0.92966316280E+03  0.25500000920E-02 0. -1.
       -2   -1    0    0    0  501  0.00000000000E+00  0.00000000000E+00 -0.11827374428E+04  0.11827374428E+04  0.25500000920E-02 0.  1.
    10030    2    1    2    0    0  0.00000000000E+00  0.00000000000E+00 -0.25307427997E+03  0.21124006056E+04  0.20971861451E+04 0.  0.
        4    1    3    3  502    0  0.43587613341E+03 -0.93719010438E+03  0.51472220903E+02  0.10348740493E+04  0.12699999809E+01 0. -1.
       -4    1    3    3    0  502 -0.43587613341E+03  0.93719010438E+03 -0.30454650087E+03  0.10775265563E+04  0.12699999809E+01 0.  1.
</event>
<event>
 5   0  0.1810875E-04  0.2083235E+04  0.7818609E-02  0.8568665E-01
       -2   -1    0    0    0  501  0.00000000000E+00  0.00000000000E+00  0.77140903149E+03  0.77140903150E+03  0.25500000920E-02 0. -1.
        2   -1    0    0  501    0  0.00000000000E+00  0.00000000000E+00 -0.14064739473E+04  0.14064739473E+04  0.25500000920E-02 0.  1.
    10030    2    1    2    0    0  0.00000000000E+00  0.00000000000E+00 -0.63506491580E+03  0.21778829788E+04  0.20832347016E+04 0.  0.
        1    1    3    3  502    0 -0.22536540743E+03 -0.64044082970E+03 -0.11433670066E+04  0.13297526594E+04  0.50400001928E-02 0.  1.
       -1    1    3    3    0  502  0.22536540743E+03  0.64044082970E+03  0.50830209081E+03  0.84813031944E+03  0.50400001928E-02 0. -1.
</event>
<event>
 5   0  0.8271069E-05  0.2071586E+04  0.7818609E-02  0.8573864E-01
       -1   -1    0    0    0  501  0.00000000000E+00  0.00000000000E+00  0.69726953805E+03  0.69726953807E+03  0.50400001928E-02 0. -1.
        1   -1    0    0  501    0  0.00000000000E+00  0.00000000000E+00 -0.15386688211E+04  0.15386688211E+04  0.50400001928E-02 0.  1.
    10030    2    1    2    0    0  0.00000000000E+00  0.00000000000E+00 -0.84139928304E+03  0.22359383592E+04  0.20715857676E+04 0.  0.
        2    1    3    3  502    0 -0.24294784943E+02  0.10050653507E+03 -0.15330842363E+04  0.15365673027E+04  0.25500000920E-02 0.  1.
       -2    1    3    3    0  502  0.24294784943E+02 -0.10050653507E+03  0.69168495322E+03  0.69937105651E+03  0.25500000920E-02 0. -1.
</event>
<event>
 5   0  0.1886323E-04  0.2251374E+04  0.7818609E-02  0.8497344E-01
       -2   -1    0    0    0  501  0.00000000000E+00  0.00000000000E+00  0.10065934414E+04  0.10065934414E+04  0.25500000920E-02 0. -1.
        2   -1    0    0  501    0  0.00000000000E+00  0.00000000000E+00 -0.12588708611E+04  0.12588708611E+04  0.25500000920E-02 0.  1.
    10030    2    1    2    0    0  0.00000000000E+00  0.00000000000E+00 -0.25227741965E+03  0.22654643025E+04  0.22513739382E+04 0.  0.
        2    1    3    3  502    0 -0.26102835731E+03 -0.76141164531E+03  0.66573477350E+03  0.10445507578E+04  0.25500000920E-02 0. -1.
       -2    1    3    3    0  502  0.26102835731E+03  0.76141164531E+03 -0.91801219315E+03  0.12209135447E+04  0.25500000920E-02 0.  1.
</event>
<event>
 5   0  0.1810875E-04  0.2086910E+04  0.7818609E-02  0.8567032E-01
        2   -1    0    0  501    0  0.00000000000E+00  0.00000000000E+00  0.16448185305E+04  0.16448185305E+04  0.25500000920E-02 0.  1.
       -2   -1    0    0    0  501  0.00000000000E+00  0.00000000000E+00 -0.66195636767E+03  0.66195636767E+03  0.25500000920E-02 0. -1.
    10030    2    1    2    0    0  0.00000000000E+00  0.00000000000E+00  0.98286216285E+03  0.23067748982E+04  0.20869097728E+04 0.  0.
        1    1    3    3  502    0 -0.59952922716E+03 -0.22179986174E+02 -0.45225344948E+03  0.75130581563E+03  0.50400001928E-02 0. -1.
       -1    1    3    3    0  502  0.59952922716E+03  0.22179986174E+02  0.14351156123E+04  0.15554690826E+04  0.50400001928E-02 0.  1.
</event>
<event>
 5   0  0.1815400E-04  0.1326659E+04  0.7818609E-02  0.9008687E-01
        2   -1    0    0  501    0  0.00000000000E+00  0.00000000000E+00  0.11816114459E+04  0.11816114460E+04  0.25500000920E-02 0.  1.
       -2   -1    0    0    0  501  0.00000000000E+00  0.00000000000E+00 -0.37237806464E+03  0.37237806465E+03  0.25500000920E-02 0. -1.
    10030    2    1    2    0    0  0.00000000000E+00  0.00000000000E+00  0.80923338131E+03  0.15539895106E+04  0.13266592380E+04 0.  0.
        3    1    3    3  502    0  0.34259965898E+03 -0.25656875421E+02 -0.26004198091E+03  0.43087659907E+03  0.10100000352E+00 0. -1.
       -3    1    3    3    0  502 -0.34259965898E+03  0.25656875421E+02  0.10692753622E+04  0.11231129115E+04  0.10100000352E+00 0.  1.
</event>
<event>
 5   0  0.1886323E-04  0.2137154E+04  0.7818609E-02  0.8545051E-01
       -2   -1    0    0    0  501  0.00000000000E+00  0.00000000000E+00  0.57719709669E+03  0.57719709669E+03  0.25500000920E-02 0.  1.
        2   -1    0    0  501    0  0.00000000000E+00  0.00000000000E+00 -0.19782787406E+04  0.19782787406E+04  0.25500000920E-02 0. -1.
    10030    2    1    2    0    0  0.00000000000E+00  0.00000000000E+00 -0.14010816439E+04  0.25554758372E+04  0.21371539444E+04 0.  0.
        2    1    3    3  502    0 -0.80717367095E+03 -0.63529992591E+03 -0.34841396605E+03  0.10846785804E+04  0.25500000920E-02 0.  1.
       -2    1    3    3    0  502  0.80717367095E+03  0.63529992591E+03 -0.10526676778E+04  0.14707972569E+04  0.25500000920E-02 0. -1.
</event>
<event>
 5   0  0.8486612E-05  0.1704203E+04  0.7818609E-02  0.8758971E-01
       -1   -1    0    0    0  501  0.00000000000E+00  0.00000000000E+00  0.10061437412E+04  0.10061437412E+04  0.50400001928E-02 0. -1.
        1   -1    0    0  501    0  0.00000000000E+00  0.00000000000E+00 -0.72164327910E+03  0.72164327912E+03  0.50400001928E-02 0.  1.
    10030    2    1    2    0    0  0.00000000000E+00  0.00000000000E+00  0.28450046213E+03  0.17277870204E+04  0.17042028854E+04 0.  0.
        5    1    3    3  502    0 -0.36161808801E+03  0.30580821915E+03 -0.57590874805E+03  0.74564018437E+03  0.46999998093E+01 0.  1.
       -5    1    3    3    0  502  0.36161808801E+03 -0.30580821915E+03  0.86040921017E+03  0.98214683598E+03  0.46999998093E+01 0. -1.
</event>
<event>
 5   0  0.1777590E-04  0.2111697E+04  0.7818609E-02  0.8556108E-01
       -2   -1    0    0    0  501  0.00000000000E+00  0.00000000000E+00  0.93986996492E+03  0.93986996492E+03  0.25500000920E-02 0. -1.
        2   -1    0    0  501    0  0.00000000000E+00  0.00000000000E+00 -0.11861381691E+04  0.11861381691E+04  0.25500000920E-02 0.  1.
    10030    2    1    2    0    0  0.00000000000E+00  0.00000000000E+00 -0.24626820414E+03  0.21260081340E+04  0.21116966064E+04 0.  0.
        4    1    3    3  502    0 -0.22320297790E+03 -0.25196862354E+03 -0.11306693209E+04  0.11797128815E+04  0.12699999809E+01 0.  1.
       -4    1    3    3    0  502  0.22320297790E+03  0.25196862354E+03  0.88440111679E+03  0.94629525248E+03  0.12699999809E+01 0. -1.
</event>
<event>
 5   0  0.8755004E-05  0.1303962E+04  0.7818609E-02  0.9026429E-01
       -1   -1    0    0    0  501  0.00000000000E+00  0.00000000000E+00  0.31219672624E+03  0.31219672628E+03  0.50400001928E-02 0. -1.
        1   -1    0    0  501    0  0.00000000000E+00  0.00000000000E+00 -0.13615753430E+04  0.13615753430E+04  0.50400001928E-02 0.  1.
    10030    2    1    2    0    0  0.00000000000E+00  0.00000000000E+00 -0.10493786167E+04  0.16737720693E+04  0.13039622152E+04 0.  0.
        3    1    3    3  502    0  0.21923418344E+03 -0.53411112309E+03 -0.13590106109E+03  0.59313356641E+03  0.10100000352E+00 0. -1.
       -3    1    3    3    0  502 -0.21923418344E+03  0.53411112309E+03 -0.91347755564E+03  0.10806385029E+04  0.10100000352E+00 0.  1.
</event>
<event>
 5   0  0.8755004E-05  0.2139777E+04  0.7818609E-02  0.8543921E-01
       -1   -1    0    0    0  501  0.00000000000E+00  0.00000000000E+00  0.16035420835E+04  0.16035420835E+04  0.50400001928E-02 0. -1.
        1   -1    0    0  501    0  0.00000000000E+00  0.00000000000E+00 -0.71383327815E+03  0.71383327817E+03  0.50400001928E-02 0.  1.
    10030    2    1    2    0    0  0.00000000000E+00  0.00000000000E+00  0.88970880536E+03  0.23173753617E+04  0.21397772801E+04 0.  0.
        3    1    3    3  502    0  0.10198147714E+04  0.14010408043E+03  0.76061924108E+03  0.12799191230E+04  0.10100000352E+00 0.  1.
       -3    1    3    3    0  502 -0.10198147714E+04 -0.14010408043E+03  0.12908956428E+03  0.10374562387E+04  0.10100000352E+00 0. -1.
</event>
<event>
 5   0  0.1815400E-04  0.2206939E+04  0.7818609E-02  0.8515545E-01
        2   -1    0    0  501    0  0.00000000000E+00  0.00000000000E+00  0.16835994103E+04  0.16835994103E+04  0.25500000920E-02 0.  1.
       -2   -1    0    0    0  501  0.00000000000E+00  0.00000000000E+00 -0.72323929567E+03  0.72323929568E+03  0.25500000920E-02 0. -1.
    10030    2    1    2    0    0  0.00000000000E+00  0.00000000000E+00  0.96036011458E+03  0.24068387059E+04  0.22069392848E+04 0.  0.
        3    1    3    3  502    0  0.10334252694E+04  0.16418155653E+03  0.98132361418E+02  0.10509773268E+04  0.10100000352E+00 0. -1.
       -3    1    3    3    0  502 -0.10334252694E+04 -0.16418155653E+03  0.86222775317E+03  0.13558613791E+04  0.10100000352E+00 0.  1.
</event>
<event>
 5   0  0.6441125E-05  0.2042833E+04  0.7818609E-02  0.8586852E-01
       -3   -1    0    0    0  501  0.00000000000E+00  0.00000000000E+00  0.13663745447E+04  0.13663745484E+04  0.10100000352E+00 0.  1.
        3   -1    0    0  501    0  0.00000000000E+00  0.00000000000E+00 -0.76354769316E+03  0.76354769984E+03  0.10100000352E+00 0. -1.
    10030    2    1    2    0    0  0.00000000000E+00  0.00000000000E+00  0.60282685155E+03  0.21299222483E+04  0.20428334662E+04 0.  0.
        3    1    3    3  502    0  0.83660106249E+02  0.22672877291E+03 -0.73330939810E+03  0.77210597290E+03  0.10100000352E+00 0. -1.
       -3    1    3    3    0  502 -0.83660106249E+02 -0.22672877291E+03  0.13361362496E+04  0.13578162754E+04  0.10100000352E+00 0.  1.
</event>
<event>
 5   0  0.8755004E-05  0.1903784E+04  0.7818609E-02  0.8652975E-01
        1   -1    0    0  501    0  0.00000000000E+00  0.00000000000E+00  0.76920666387E+03  0.76920666389E+03  0.50400001928E-02 0. -1.
       -1   -1    0    0    0  501  0.00000000000E+00  0.00000000000E+00 -0.11779648994E+04  0.11779648994E+04  0.50400001928E-02 0.  1.
    10030    2    1    2    0    0  0.00000000000E+00  0.00000000000E+00 -0.40875823556E+03  0.19471715633E+04  0.19037840744E+04 0.  0.
        3    1    3    3  502    0  0.60688036275E+03  0.20696095076E+03 -0.92394801572E+03  0.11246406341E+04  0.10100000352E+00 0.  1.
       -3    1    3    3    0  502 -0.60688036275E+03 -0.20696095076E+03  0.51518978015E+03  0.82253092927E+03  0.10100000352E+00 0. -1.
</event>
<event>
 5   0  0.8525278E-05  0.2054483E+04  0.7818609E-02  0.8581563E-01
        1   -1    0    0  501    0  0.00000000000E+00  0.00000000000E+00  0.16954487367E+04  0.16954487367E+04  0.50400001928E-02 0.  1.
       -1   -1    0    0    0  501  0.00000000000E+00  0.00000000000E+00 -0.62238678616E+03  0.62238678618E+03  0.50400001928E-02 0. -1.
    10030    2    1    2    0    0  0.00000000000E+00  0.00000000000E+00  0.10730619505E+04  0.23178355228E+04  0.20544827966E+04 0.  0.
        4    1    3    3  502    0  0.80201162138E+03 -0.26955820112E+03 -0.12066818761E+03  0.85466173954E+03  0.12699999809E+01 0. -1.
       -4    1    3    3    0  502 -0.80201162138E+03  0.26955820112E+03  0.11937301381E+04  0.14631737833E+04  0.12699999809E+01 0.  1.
</event>
<event>
 5   0  0.8486612E-05  0.2109624E+04  0.7818609E-02  0.8557016E-01
        1   -1    0    0  501    0  0.00000000000E+00  0.00000000000E+00  0.24974098754E+04  0.24974098754E+04  0.50400001928E-02 0. -1.
       -1   -1    0    0    0  501  0.00000000000E+00  0.00000000000E+00 -0.44551291532E+03  0.44551291534E+03  0.50400001928E-02 0.  1.
    10030    2    1    2    0    0  0.00000000000E+00  0.00000000000E+00  0.20518969601E+04  0.29429227908E+04  0.21096239991E+04 0.  0.
        5    1    3    3  502    0  0.64111600515E+03 -0.30136075398E+03  0.21161542451E+04  0.22315866362E+04  0.46999998093E+01 0. -1.
       -5    1    3    3    0  502 -0.64111600515E+03  0.30136075398E+03 -0.64257284956E+02  0.71133615455E+03  0.46999998093E+01 0.  1.
</event>
<event>
 5   0  0.8525278E-05  0.2112906E+04  0.7818609E-02  0.8555579E-01
       -1   -1    0    0    0  501  0.00000000000E+00  0.00000000000E+00  0.13255815249E+04  0.13255815249E+04  0.50400001928E-02 0.  1.
        1   -1    0    0  501    0  0.00000000000E+00  0.00000000000E+00 -0.84196463022E+03  0.84196463024E+03  0.50400001928E-02 0. -1.
    10030    2    1    2    0    0  0.00000000000E+00  0.00000000000E+00  0.48361689470E+03  0.21675461552E+04  0.21129058270E+04 0.  0.
        4    1    3    3  502    0  0.64280637359E+03  0.47290472110E+03 -0.46837457734E+03  0.92531900810E+03  0.12699999809E+01 0. -1.
       -4    1    3    3    0  502 -0.64280637359E+03 -0.47290472110E+03  0.95199147204E+03  0.12422271471E+04  0.12699999809E+01 0.  1.
</event>
<event>
 5   0  0.1815400E-04  0.2003810E+04  0.7818609E-02  0.8604841E-01
        2   -1    0    0  501    0  0.00000000000E+00  0.00000000000E+00  0.20752038960E+04  0.20752038960E+04  0.25500000920E-02 0. -1.
       -2   -1    0    0    0  501  0.00000000000E+00  0.00000000000E+00 -0.48371809212E+03  0.48371809213E+03  0.25500000920E-02 0.  1.
    10030    2    1    2    0    0  0.00000000000E+00  0.00000000000E+00  0.15914858038E+04  0.25589219881E+04  0.20038100402E+04 0.  0.
        3    1    3    3  502    0  0.64120769802E+03  0.35931000017E+03 -0.73727346692E+02  0.73870611212E+03  0.10100000352E+00 0.  1.
       -3    1    3    3    0  502 -0.64120769802E+03 -0.35931000017E+03  0.16652131505E+04  0.18202158760E+04  0.10100000352E+00 0. -1.
</event>
<event>
 5   0  0.8237966E-05  0.2144261E+04  0.7818609E-02  0.8541993E-01
       -1   -1    0    0    0  501  0.00000000000E+00  0.00000000000E+00  0.92053955034E+03  0.92053955035E+03  0.50400001928E-02 0.  1.
        1   -1    0    0  501    0  0.00000000000E+00  0.00000000000E+00 -0.12486848783E+04  0.12486848783E+04  0.50400001928E-02 0. -1.
    10030    2    1    2    0    0  0.00000000000E+00  0.00000000000E+00 -0.32814532792E+03  0.21692244286E+04  0.21442610069E+04 0.  0.
        1    1    3    3  502    0 -0.34908324098E+03 -0.38265603995E+03  0.78556716950E+03  0.94095724231E+03  0.50400001928E-02 0.  1.
       -1    1    3    3    0  502  0.34908324098E+03  0.38265603995E+03 -0.11137124974E+04  0.12282671863E+04  0.50400001928E-02 0. -1.
</event>
<event>
 5   0  0.1815400E-04  0.2119646E+04  0.7818609E-02  0.8552638E-01
       -2   -1    0    0    0  501  0.00000000000E+00  0.00000000000E+00  0.11338542733E+04  0.11338542733E+04  0.25500000920E-02 0. -1.
        2   -1    0    0  501    0  0.00000000000E+00  0.00000000000E+00 -0.99062560757E+03  0.99062560758E+03  0.25500000920E-02 0.  1.
    10030    2    1    2    0    0  0.00000000000E+00  0.00000000000E+00  0.14322866571E+03  0.21244798809E+04  0.21196462708E+04 0.  0.
        3    1    3    3  502    0  0.47892338914E+03  0.35962526752E+03  0.94798065513E+03  0.11213230036E+04  0.10100000352E+00 0. -1.
       -3    1    3    3    0  502 -0.47892338914E+03 -0.35962526752E+03 -0.80475198942E+03  0.10031568773E+04  0.10100000352E+00 0.  1.
</event>
<event>
 5   0  0.1777590E-04  0.2121916E+04  0.7818609E-02  0.8551650E-01
        2   -1    0    0  501    0  0.00000000000E+00  0.00000000000E+00  0.12946590022E+04  0.12946590022E+04  0.25500000920E-02 0.  1.
       -2   -1    0    0    0  501  0.00000000000E+00  0.00000000000E+00 -0.86944248857E+03  0.86944248857E+03  0.25500000920E-02 0. -1.
    10030    2    1    2    0    0  0.00000000000E+00  0.00000000000E+00  0.42521651359E+03  0.21641014907E+04  0.21219156861E+04 0.  0.
        4    1    3    3  502    0  0.80741546106E+03  0.22832359992E+03 -0.44959108995E+03  0.95193757889E+03  0.12699999809E+01 0. -1.
       -4    1    3    3    0  502 -0.80741546106E+03 -0.22832359992E+03  0.87480760354E+03  0.12121639118E+04  0.12699999809E+01 0.  1.
</event>
<event>
 5   0  0.8525278E-05  0.2063226E+04  0.7818609E-02  0.8577618E-01
       -1   -1    0    0    0  501  0.00000000000E+00  0.00000000000E+00  0.56100921446E+03  0.56100921449E+03  0.50400001928E-02 0.  1.
        1   -1    0    0  501    0  0.00000000000E+00  0.00000000000E+00 -0.18969840337E+04  0.18969840337E+04  0.50400001928E-02 0. -1.
    10030    2    1    2    0    0  0.00000000000E+00  0.00000000000E+00 -0.13359748193E+04  0.24579932482E+04  0.20632261366E+04 0.  0.
        4    1    3    3  502    0 -0.55404147734E+03  0.72260144103E+02 -0.17011161597E+04  0.17905254225E+04  0.12699999809E+01 0. -1.
       -4    1    3    3    0  502  0.55404147734E+03 -0.72260144103E+02  0.36514134038E+03  0.66746782574E+03  0.12699999809E+01 0.  1.
</event>
<event>
 5   0  0.8237966E-05  0.1347751E+04  0.7818609E-02  0.8992533E-01
        1   -1    0    0  501    0  0.00000000000E+00  0.00000000000E+00  0.83416314859E+03  0.83416314861E+03  0.50400001928E-02 0.  1.
       -1   -1    0    0    0  501  0.00000000000E+00  0.00000000000E+00 -0.54438750177E+03  0.54438750179E+03  0.50400001928E-02 0. -1.
    10030    2    1    2    0    0  0.00000000000E+00  0.00000000000E+00  0.28977564682E+03  0.13785506504E+04  0.13477507077E+04 0.  0.
        1    1    3    3  502    0 -0.40939991234E+03  0.51812367537E+03  0.74765317340E+01  0.66039104306E+03  0.50400001928E-02 0. -1.
       -1    1    3    3    0  502  0.40939991234E+03 -0.51812367537E+03  0.28229911509E+03  0.71815960734E+03  0.50400001928E-02 0.  1.
</event>
<event>
 5   0  0.1886323E-04  0.2074625E+04  0.7818609E-02  0.8572504E-01
        2   -1    0    0  501    0  0.00000000000E+00  0.00000000000E+00  0.16575136237E+04  0.16575136237E+04  0.25500000920E-02 0.  1.
       -2   -1    0    0    0  501  0.00000000000E+00  0.00000000000E+00 -0.64917558353E+03  0.64917558354E+03  0.25500000920E-02 0. -1.
    10030    2    1    2    0    0  0.00000000000E+00  0.00000000000E+00  0.10083380402E+04  0.23066892072E+04  0.20746251458E+04 0.  0.
        2    1    3    3  502    0 -0.98882950482E+03  0.30051593023E+03  0.40519639230E+03  0.11100800558E+04  0.25500000920E-02 0.  1.
       -2    1    3    3    0  502  0.98882950482E+03 -0.30051593023E+03  0.60314164785E+03  0.11966091514E+04  0.25500000920E-02 0. -1.
</event>
<event>
 5   0  0.1815400E-04  0.2047663E+04  0.7818609E-02  0.8584655E-01
       -2   -1    0    0    0  501  0.00000000000E+00  0.00000000000E+00  0.16819714681E+04  0.16819714681E+04  0.25500000920E-02 0. -1.
        2   -1    0    0  501    0  0.00000000000E+00  0.00000000000E+00 -0.62321557118E+03  0.62321557119E+03  0.25500000920E-02 0.  1.
    10030    2    1    2    0    0  0.00000000000E+00  0.00000000000E+00  0.10587558969E+04  0.23051870393E+04  0.20476628719E+04 0.  0.
        3    1    3    3  502    0  0.23163265208E+03 -0.52518959481E+03 -0.42503769591E+03  0.71423724991E+03  0.10100000352E+00 0.  1.
       -3    1    3    3    0  502 -0.23163265208E+03  0.52518959481E+03  0.14837935928E+04  0.15909497894E+04  0.10100000352E+00 0. -1.
</event>
<event>
 5   0  0.8525278E-05  0.2111715E+04  0.7818609E-02  0.8556100E-01
        1   -1    0    0  501    0  0.00000000000E+00  0.00000000000E+00  0.12056553456E+04  0.12056553456E+04  0.50400001928E-02 0. -1.
       -1   -1    0    0    0  501  0.00000000000E+00  0.00000000000E+00 -0.92467116832E+03  0.92467116833E+03  0.50400001928E-02 0.  1.
    10030    2    1    2    0    0  0.00000000000E+00  0.00000000000E+00  0.28098417725E+03  0.21303265139E+04  0.21117146938E+04 0.  0.
        4    1    3    3  502    0 -0.24304358202E+03 -0.10236503864E+04  0.50810727385E+02  0.10533345334E+04  0.12699999809E+01 0. -1.
       -4    1    3    3    0  502  0.24304358202E+03  0.10236503864E+04  0.23017344987E+03  0.10769919806E+04  0.12699999809E+01 0.  1.
</event>
<event>
 5   0  0.8271069E-05  0.2106914E+04  0.7818609E-02  0.8558204E-01
       -1   -1    0    0    0  501  0.00000000000E+00  0.00000000000E+00  0.66186878555E+03  0.66186878557E+03  0.50400001928E-02 0.  1.
        1   -1    0    0  501    0  0.00000000000E+00  0.00000000000E+00 -0.16767253179E+04  0.16767253179E+04  0.50400001928E-02 0. -1.
    10030    2    1    2    0    0  0.00000000000E+00  0.00000000000E+00 -0.10148565323E+04  0.23385941035E+04  0.21069144737E+04 0.  0.
        2    1    3    3  502    0  0.62335394075E+03 -0.16572348415E+03 -0.14319254758E+04  0.15704919538E+04  0.25500000920E-02 0. -1.
       -2    1    3    3    0  502 -0.62335394075E+03  0.16572348415E+03  0.41706894350E+03  0.76810214964E+03  0.25500000920E-02 0.  1.
</event>
<event>
 5   0  0.8237966E-05  0.1927321E+04  0.7818609E-02  0.8641375E-01
       -1   -1    0    0    0  501  0.00000000000E+00  0.00000000000E+00  0.65950530032E+03  0.65950530034E+03  0.50400001928E-02 0.  1.
        1   -1    0    0  501    0  0.00000000000E+00  0.00000000000E+00 -0.14080873668E+04  0.14080873668E+04  0.50400001928E-02 0. -1.
    10030    2    1    2    0    0  0.00000000000E+00  0.00000000000E+00 -0.74858206649E+03  0.20675926671E+04  0.19273205045E+04 0.  0.
        1    1    3    3  502    0  0.65703579991E+03  0.45971501407E+03 -0.94760903107E+03  0.12413689268E+04  0.50400001928E-02 0.  1.
       -1    1    3    3    0  502 -0.65703579991E+03 -0.45971501407E+03  0.19902696458E+03  0.82622374039E+03  0.50400001928E-02 0. -1.
</event>
<event>
 5   0  0.1886323E-04  0.2024439E+04  0.7818609E-02  0.8595279E-01
       -2   -1    0    0    0  501  0.00000000000E+00  0.00000000000E+00  0.10377536918E+04  0.10377536918E+04  0.25500000920E-02 0.  1.
        2   -1    0    0  501    0  0.00000000000E+00  0.00000000000E+00 -0.98731348469E+03  0.98731348470E+03  0.25500000920E-02 0. -1.
    10030    2    1    2    0    0  0.00000000000E+00  0.00000000000E+00  0.50440207057E+02  0.20250671765E+04  0.20244388987E+04 0.  0.
        2    1    3    3  502    0 -0.88901542815E+03  0.16880850044E+02 -0.45861877024E+03  0.10004821693E+04  0.25500000920E-02 0. -1.
       -2    1    3    3    0  502  0.88901542815E+03 -0.16880850044E+02  0.50905897730E+03  0.10245850072E+04  0.25500000920E-02 0.  1.
</event>
<event>
 5   0  0.8486612E-05  0.2119991E+04  0.7818609E-02  0.8552488E-01
        1   -1    0    0  501    0  0.00000000000E+00  0.00000000000E+00  0.15602890459E+04  0.15602890459E+04  0.50400001928E-02 0.  1.
       -1   -1    0    0    0  501  0.00000000000E+00  0.00000000000E+00 -0.72011679887E+03  0.72011679889E+03  0.50400001928E-02 0. -1.
    10030    2    1    2    0    0  0.00000000000E+00  0.00000000000E+00  0.84017224704E+03  0.22804058448E+04  0.21199908991E+04 0.  0.
        5    1    3    3  502    0  0.11032126564E+03 -0.12081017514E+03 -0.70644278681E+03  0.72515472908E+03  0.46999998093E+01 0. -1.
       -5    1    3    3    0  502 -0.11032126564E+03  0.12081017514E+03  0.15466150339E+04  0.15552511157E+04  0.46999998093E+01 0.  1.
</event>
<event>
 5   0  0.8755004E-05  0.1935369E+04  0.7818609E-02  0.8637448E-01
       -1   -1    0    0    0  501  0.00000000000E+00  0.00000000000E+00  0.46600221049E+03  0.46600221051E+03  0.50400001928E-02 0. -1.
        1   -1    0    0  501    0  0.00000000000E+00  0.00000000000E+00 -0.20094612561E+04  0.20094612561E+04  0.50400001928E-02 0.  1.
    10030    2    1    2    0    0  0.00000000000E+00  0.00000000000E+00 -0.15434590457E+04  0.24754634667E+04  0.19353690989E+04 0.  0.
        3    1    3    3  502    0  0.56013352154E+03 -0.76791226029E+03 -0.10039937502E+04  0.13825491898E+04  0.10100000352E+00 0.  1.
       -3    1    3    3    0  502 -0.56013352154E+03  0.76791226029E+03 -0.53946529542E+03  0.10929142769E+04  0.10100000352E+00 0. -1.
</event>
<event>
 5   0  0.1815400E-04  0.2125848E+04  0.7818609E-02  0.8549942E-01
        2   -1    0    0  501    0  0.00000000000E+00  0.00000000000E+00  0.20341898314E+04  0.20341898314E+04  0.25500000920E-02 0. -1.
       -2   -1    0    0    0  501  0.00000000000E+00  0.00000000000E+00 -0.55540916679E+03  0.55540916680E+03  0.25500000920E-02 0.  1.
    10030    2    1    2    0    0  0.00000000000E+00  0.00000000000E+00  0.14787806646E+04  0.25895989982E+04  0.21258482348E+04 0.  0.
        3    1    3    3  502    0  0.77629687603E+03 -0.64179121922E+03  0.32580268044E+03  0.10586218426E+04  0.10100000352E+00 0. -1.
       -3    1    3    3    0  502 -0.77629687603E+03  0.64179121922E+03  0.11529779841E+04  0.15309771556E+04  0.10100000352E+00 0.  1.
</event>
<event>
 5   0  0.1815400E-04  0.2125466E+04  0.7818609E-02  0.8550108E-01
        2   -1    0    0  501    0  0.00000000000E+00  0.00000000000E+00  0.13724697366E+04  0.13724697366E+04  0.25500000920E-02 0. -1.
       -2   -1    0    0    0  501  0.00000000000E+00  0.00000000000E+00 -0.82289722690E+03  0.82289722690E+03  0.25500000920E-02 0.  1.
    10030    2    1    2    0    0  0.00000000000E+00  0.00000000000E+00  0.54957250973E+03  0.21953669635E+04  0.21254661044E+04 0.  0.
        3    1    3    3  502    0 -0.57593898222E+02 -0.86354908086E+03  0.91180852887E+03  0.12571510950E+04  0.10100000352E+00 0. -1.
       -3    1    3    3    0  502  0.57593898222E+02  0.86354908086E+03 -0.36223601914E+03  0.93821586852E+03  0.10100000352E+00 0.  1.
</event>
<event>
 5   0  0.8237966E-05  0.1727751E+04  0.7818609E-02  0.8745693E-01
       -1   -1    0    0    0  501  0.00000000000E+00  0.00000000000E+00  0.58833915545E+03  0.58833915547E+03  0.50400001928E-02 0.  1.
        1   -1    0    0  501    0  0.00000000000E+00  0.00000000000E+00 -0.12684537672E+04  0.12684537672E+04  0.50400001928E-02 0. -1.
    10030    2    1    2    0    0  0.00000000000E+00  0.00000000000E+00 -0.68011461176E+03  0.18567929227E+04  0.17277511605E+04 0.  0.
        1    1    3    3  502    0 -0.39721389876E+03  0.67472862025E+03 -0.73234544180E+03  0.10720855556E+04  0.50400001928E-02 0. -1.
       -1    1    3    3    0  502  0.39721389876E+03 -0.67472862025E+03  0.52230830045E+02  0.78470736710E+03  0.50400001928E-02 0.  1.
</event>
<event>
 5   0  0.1810875E-04  0.2112259E+04  0.7818609E-02  0.8555862E-01
       -2   -1    0    0    0  501  0.00000000000E+00  0.00000000000E+00  0.14793072892E+04  0.14793072892E+04  0.25500000920E-02 0.  1.
        2   -1    0    0  501    0  0.00000000000E+00  0.00000000000E+00 -0.75400815730E+03  0.75400815731E+03  0.25500000920E-02 0. -1.
    10030    2    1    2    0    0  0.00000000000E+00  0.00000000000E+00  0.72529913191E+03  0.22333154465E+04  0.21122592296E+04 0.  0.
        1    1    3    3  502    0  0.60650850486E+02  0.99658400693E+03  0.72669574744E+03  0.12348866012E+04  0.50400001928E-02 0.  1.
       -1    1    3    3    0  502 -0.60650850486E+02 -0.99658400693E+03 -0.13966155275E+01  0.99842884529E+03  0.50400001928E-02 0. -1.
</event>
<event>
 5   0  0.8271069E-05  0.2073738E+04  0.7818609E-02  0.8572901E-01
        1   -1    0    0  501    0  0.00000000000E+00  0.00000000000E+00  0.16063678557E+04  0.16063678557E+04  0.50400001928E-02 0.  1.
       -1   -1    0    0    0  501  0.00000000000E+00  0.00000000000E+00 -0.66927196868E+03  0.66927196870E+03  0.50400001928E-02 0. -1.
    10030    2    1    2    0    0  0.00000000000E+00  0.00000000000E+00  0.93709588701E+03  0.22756398244E+04  0.20737376664E+04 0.  0.
        2    1    3    3  502    0 -0.57016420113E+02 -0.12104057686E+03 -0.65975914850E+03  0.67318929541E+03  0.25500000920E-02 0. -1.
       -2    1    3    3    0  502  0.57016420113E+02  0.12104057686E+03  0.15968550355E+04  0.16024505290E+04  0.25500000920E-02 0.  1.
</event>
<event>
 5   0  0.8237966E-05  0.2150003E+04  0.7818609E-02  0.8539531E-01
        1   -1    0    0  501    0  0.00000000000E+00  0.00000000000E+00  0.91740409638E+03  0.91740409640E+03  0.50400001928E-02 0.  1.
       -1   -1    0    0    0  501  0.00000000000E+00  0.00000000000E+00 -0.12596715837E+04  0.12596715837E+04  0.50400001928E-02 0. -1.
    10030    2    1    2    0    0  0.00000000000E+00  0.00000000000E+00 -0.34226748731E+03  0.21770756801E+04  0.21500026707E+04 0.  0.
        1    1    3    3  502    0 -0.52495771238E+03  0.26046283743E+03  0.74143948831E+03  0.94506825379E+03  0.50400001928E-02 0.  1.
       -1    1    3    3    0  502  0.52495771238E+03 -0.26046283743E+03 -0.10837069756E+04  0.12320074263E+04  0.50400001928E-02 0. -1.
</event>
<event>
 5   0  0.8271069E-05  0.2186515E+04  0.7818609E-02  0.8524062E-01
        1   -1    0    0  501    0  0.00000000000E+00  0.00000000000E+00  0.13092683048E+04  0.13092683048E+04  0.50400001928E-02 0.  1.
       -1   -1    0    0    0  501  0.00000000000E+00  0.00000000000E+00 -0.91288513492E+03  0.91288513493E+03  0.50400001928E-02 0. -1.
    10030    2    1    2    0    0  0.00000000000E+00  0.00000000000E+00  0.39638316987E+03  0.22221534397E+04  0.21865146449E+04 0.  0.
        2    1    3    3  502    0 -0.54715501668E+03  0.17167649490E+03  0.11441474735E+04  0.12798143898E+04  0.25500000920E-02 0.  1.
       -2    1    3    3    0  502  0.54715501668E+03 -0.17167649490E+03 -0.74776430365E+03  0.94233904992E+03  0.25500000920E-02 0. -1.
</event>
<event>
 5   0  0.1810875E-04  0.2097117E+04  0.7818609E-02  0.8562514E-01
        2   -1    0    0  501    0  0.00000000000E+00  0.00000000000E+00  0.17055166921E+04  0.17055166921E+04  0.25500000920E-02 0.  1.
       -2   -1    0    0    0  501  0.00000000000E+00  0.00000000000E+00 -0.64465794295E+03  0.64465794296E+03  0.25500000920E-02 0. -1.
    10030    2    1    2    0    0  0.00000000000E+00  0.00000000000E+00  0.10608587491E+04  0.23501746350E+04  0.20971169566E+04 0.  0.
        1    1    3    3  502    0  0.56790171194E+03  0.83409904134E+03  0.21100653880E+03  0.10309012196E+04  0.50400001928E-02 0. -1.
       -1    1    3    3    0  502 -0.56790171194E+03 -0.83409904134E+03  0.84985221031E+03  0.13192734154E+04  0.50400001928E-02 0.  1.
</event>
<event>
 5   0  0.8525278E-05  0.2121035E+04  0.7818609E-02  0.8552033E-01
       -1   -1    0    0    0  501  0.00000000000E+00  0.00000000000E+00  0.11448818746E+04  0.11448818746E+04  0.50400001928E-02 0.  1.
        1   -1    0    0  501    0  0.00000000000E+00  0.00000000000E+00 -0.98236997039E+03  0.98236997040E+03  0.50400001928E-02 0. -1.
    10030    2    1    2    0    0  0.00000000000E+00  0.00000000000E+00  0.16251190418E+03  0.21272518450E+04  0.21210351937E+04 0.  0.
        4    1    3    3  502    0  0.32312300405E+03 -0.32704424351E+03  0.10397397770E+04  0.11368495193E+04  0.12699999809E+01 0.  1.
       -4    1    3    3    0  502 -0.32312300405E+03  0.32704424351E+03 -0.87722787277E+03  0.99040232563E+03  0.12699999809E+01 0. -1.
</event>
<event>
 5   0  0.8271069E-05  0.2100303E+04  0.7818609E-02  0.8561110E-01
        1   -1    0    0  501    0  0.00000000000E+00  0.00000000000E+00  0.18962303255E+04  0.18962303255E+04  0.50400001928E-02 0. -1.
       -1   -1    0    0    0  501  0.00000000000E+00  0.00000000000E+00 -0.58158432131E+03  0.58158432133E+03  0.50400001928E-02 0.  1.
    10030    2    1    2    0    0  0.00000000000E+00  0.00000000000E+00  0.13146460041E+04  0.24778146468E+04  0.21003026705E+04 0.  0.
        2    1    3    3  502    0  0.93788615433E+03 -0.16832767904E+03  0.13655932944E+03  0.96260744672E+03  0.25500000920E-02 0.  1.
       -2    1    3    3    0  502 -0.93788615433E+03  0.16832767904E+03  0.11780866747E+04  0.15152072001E+04  0.25500000920E-02 0. -1.
</event>
<event>
 5   0  0.1886323E-04  0.1683113E+04  0.7818609E-02  0.8771055E-01
        2   -1    0    0  501    0  0.00000000000E+00  0.00000000000E+00  0.14842009736E+04  0.14842009736E+04  0.25500000920E-02 0. -1.
       -2   -1    0    0    0  501  0.00000000000E+00  0.00000000000E+00 -0.47717084216E+03  0.47717084216E+03  0.25500000920E-02 0.  1.
    10030    2    1    2    0    0  0.00000000000E+00  0.00000000000E+00  0.10070301315E+04  0.19613718158E+04  0.16831131020E+04 0.  0.
        2    1    3    3  502    0 -0.45747923221E+03 -0.12384452541E+03 -0.30686081048E+03  0.56461338223E+03  0.25500000920E-02 0.  1.
       -2    1    3    3    0  502  0.45747923221E+03  0.12384452541E+03  0.13138909419E+04  0.13967584335E+04  0.25500000920E-02 0. -1.
</event>
<event>
 5   0  0.8755004E-05  0.2073897E+04  0.7818609E-02  0.8572830E-01
       -1   -1    0    0    0  501  0.00000000000E+00  0.00000000000E+00  0.10234712167E+04  0.10234712167E+04  0.50400001928E-02 0. -1.
        1   -1    0    0  501    0  0.00000000000E+00  0.00000000000E+00 -0.10506029600E+04  0.10506029600E+04  0.50400001928E-02 0.  1.
    10030    2    1    2    0    0  0.00000000000E+00  0.00000000000E+00 -0.27131743356E+02  0.20740741767E+04  0.20738967088E+04 0.  0.
        3    1    3    3  502    0  0.17922795769E+03 -0.35475461337E+03 -0.97139956206E+03  0.10495668706E+04  0.10100000352E+00 0.  1.
       -3    1    3    3    0  502 -0.17922795769E+03  0.35475461337E+03  0.94426781871E+03  0.10245073061E+04  0.10100000352E+00 0. -1.
</event>
<event>
 5   0  0.1921687E-04  0.2074652E+04  0.7818609E-02  0.8572492E-01
       -2   -1    0    0    0  501  0.00000000000E+00  0.00000000000E+00  0.75074145432E+03  0.75074145432E+03  0.25500000920E-02 0.  1.
        2   -1    0    0  501    0  0.00000000000E+00  0.00000000000E+00 -0.14333099510E+04  0.14333099510E+04  0.25500000920E-02 0. -1.
    10030    2    1    2    0    0  0.00000000000E+00  0.00000000000E+00 -0.68256849671E+03  0.21840514054E+04  0.20746519680E+04 0.  0.
        5    1    3    3  502    0  0.49567375258E+03 -0.20835059991E+03 -0.12751470551E+04  0.13838802490E+04  0.46999998093E+01 0. -1.
       -5    1    3    3    0  502 -0.49567375258E+03  0.20835059991E+03  0.59257855843E+03  0.80017115630E+03  0.46999998093E+01 0.  1.
</event>
<event>
 5   0  0.8755004E-05  0.2078158E+04  0.7818609E-02  0.8570927E-01
       -1   -1    0    0    0  501  0.00000000000E+00  0.00000000000E+00  0.70132542956E+03  0.70132542958E+03  0.50400001928E-02 0.  1.
        1   -1    0    0  501    0  0.00000000000E+00  0.00000000000E+00 -0.15394918623E+04  0.15394918623E+04  0.50400001928E-02 0. -1.
    10030    2    1    2    0    0  0.00000000000E+00  0.00000000000E+00 -0.83816643270E+03  0.22408172918E+04  0.20781576376E+04 0.  0.
        3    1    3    3  502    0  0.10355756006E+04 -0.29178473227E+02 -0.50545652340E+03  0.11527161468E+04  0.10100000352E+00 0. -1.
       -3    1    3    3    0  502 -0.10355756006E+04  0.29178473227E+02 -0.33270990930E+03  0.10881011450E+04  0.10100000352E+00 0.  1.
</event>
<event>
 5   0  0.1886323E-04  0.2135362E+04  0.7818609E-02  0.8545824E-01
       -2   -1    0    0    0  501  0.00000000000E+00  0.00000000000E+00  0.11867030281E+04  0.11867030281E+04  0.25500000920E-02 0.  1.
        2   -1    0    0  501    0  0.00000000000E+00  0.00000000000E+00 -0.96059653700E+03  0.96059653701E+03  0.25500000920E-02 0. -1.
    10030    2    1    2    0    0  0.00000000000E+00  0.00000000000E+00  0.22610649109E+03  0.21472995651E+04  0.21353620950E+04 0.  0.
        2    1    3    3  502    0  0.96832873941E+02 -0.39586530310E+03 -0.87930543793E+03  0.96915633251E+03  0.25500000920E-02 0. -1.
       -2    1    3    3    0  502 -0.96832873941E+02  0.39586530310E+03  0.11054119290E+04  0.11781432326E+04  0.25500000920E-02 0.  1.
</event>
<event>
 5   0  0.1886323E-04  0.2094321E+04  0.7818609E-02  0.8563749E-01
        2   -1    0    0  501    0  0.00000000000E+00  0.00000000000E+00  0.24780654376E+04  0.24780654376E+04  0.25500000920E-02 0.  1.
       -2   -1    0    0    0  501  0.00000000000E+00  0.00000000000E+00 -0.44250055697E+03  0.44250055698E+03  0.25500000920E-02 0. -1.
    10030    2    1    2    0    0  0.00000000000E+00  0.00000000000E+00  0.20355648807E+04  0.29205659946E+04  0.20943212135E+04 0.  0.
        2    1    3    3  502    0  0.75763650122E+02  0.83736802402E+03  0.14733139255E+03  0.85359936596E+03  0.25500000920E-02 0. -1.
       -2    1    3    3    0  502 -0.75763650122E+02 -0.83736802402E+03  0.18882334881E+04  0.20669666287E+04  0.25500000920E-02 0.  1.
</event>
<event>
 5   0  0.8237966E-05  0.2173229E+04  0.7818609E-02  0.8529654E-01
        1   -1    0    0  501    0  0.00000000000E+00  0.00000000000E+00  0.66023684884E+03  0.66023684886E+03  0.50400001928E-02 0. -1.
       -1   -1    0    0    0  501  0.00000000000E+00  0.00000000000E+00 -0.17883452659E+04  0.17883452659E+04  0.50400001928E-02 0.  1.
    10030    2    1    2    0    0  0.00000000000E+00  0.00000000000E+00 -0.11281084171E+04  0.24485821148E+04  0.21732293418E+04 0.  0.
        1    1    3    3  502    0 -0.13959505257E+03 -0.83268574079E+03  0.20662908694E+03  0.86922258439E+03  0.50400001928E-02 0.  1.
       -1    1    3    3    0  502  0.13959505257E+03  0.83268574079E+03 -0.13347375040E+04  0.15793595304E+04  0.50400001928E-02 0. -1.
</event>
<event>
 5   0  0.1815400E-04  0.1814228E+04  0.7818609E-02  0.8698770E-01
        2   -1    0    0  501    0  0.00000000000E+00  0.00000000000E+00  0.15643175431E+04  0.15643175432E+04  0.25500000920E-02 0. -1.
       -2   -1    0    0    0  501  0.00000000000E+00  0.00000000000E+00 -0.52601581651E+03  0.52601581652E+03  0.25500000920E-02 0.  1.
    10030    2    1    2    0    0  0.00000000000E+00  0.00000000000E+00  0.10383017266E+04  0.20903333597E+04  0.18142279567E+04 0.  0.
        3    1    3    3  502    0  0.34564544490E+03 -0.37504287553E+03 -0.34516581312E+03  0.61584688098E+03  0.10100000352E+00 0.  1.
       -3    1    3    3    0  502 -0.34564544490E+03  0.37504287553E+03  0.13834675398E+04  0.14744864787E+04  0.10100000352E+00 0. -1.
</event>
<event>
 5   0  0.1886323E-04  0.2105123E+04  0.7818609E-02  0.8558990E-01
        2   -1    0    0  501    0  0.00000000000E+00  0.00000000000E+00  0.15536079436E+04  0.15536079436E+04  0.25500000920E-02 0. -1.
       -2   -1    0    0    0  501  0.00000000000E+00  0.00000000000E+00 -0.71310490400E+03  0.71310490401E+03  0.25500000920E-02 0.  1.
    10030    2    1    2    0    0  0.00000000000E+00  0.00000000000E+00  0.84050303956E+03  0.22667128476E+04  0.21051227456E+04 0.  0.
        2    1    3    3  502    0 -0.82788925015E+03 -0.48417962325E+03  0.88719190655E+03  0.13064991378E+04  0.25500000920E-02 0. -1.
       -2    1    3    3    0  502  0.82788925015E+03  0.48417962325E+03 -0.46688866982E+02  0.96021370975E+03  0.25500000920E-02 0.  1.
</event>
<event>
 5   0  0.8755004E-05  0.2122806E+04  0.7818609E-02  0.8551263E-01
       -1   -1    0    0    0  501  0.00000000000E+00  0.00000000000E+00  0.67142344641E+03  0.67142344643E+03  0.50400001928E-02 0. -1.
        1   -1    0    0  501    0  0.00000000000E+00  0.00000000000E+00 -0.16778917180E+04  0.16778917180E+04  0.50400001928E-02 0.  1.
    10030    2    1    2    0    0  0.00000000000E+00  0.00000000000E+00 -0.10064682716E+04  0.23493151644E+04  0.21228055399E+04 0.  0.
        3    1    3    3  502    0  0.10490665650E+04  0.14326299569E+03 -0.42107766241E+03  0.11394609917E+04  0.10100000352E+00 0. -1.
       -3    1    3    3    0  502 -0.10490665650E+04 -0.14326299569E+03 -0.58539060919E+03  0.12098541727E+04  0.10100000352E+00 0.  1.
</event>
<event>
 5   0  0.8755004E-05  0.2101046E+04  0.7818609E-02  0.8560783E-01
       -1   -1    0    0    0  501  0.00000000000E+00  0.00000000000E+00  0.49807612882E+03  0.49807612884E+03  0.50400001928E-02 0. -1.
        1   -1    0    0  501    0  0.00000000000E+00  0.00000000000E+00 -0.22157236591E+04  0.22157236592E+04  0.50400001928E-02 0.  1.
    10030    2    1    2    0    0  0.00000000000E+00  0.00000000000E+00 -0.17176475303E+04  0.27137997880E+04  0.21010464657E+04 0.  0.
        3    1    3    3  502    0 -0.20966524747E+03 -0.47753376421E+03  0.31905246879E+03  0.61138572113E+03  0.10100000352E+00 0. -1.
       -3    1    3    3    0  502  0.20966524747E+03  0.47753376421E+03 -0.20366999991E+04  0.21024140669E+04  0.10100000352E+00 0.  1.
</event>
<event>
 5   0  0.8525278E-05  0.2080793E+04  0.7818609E-02  0.8569752E-01
       -1   -1    0    0    0  501  0.00000000000E+00  0.00000000000E+00  0.10306939821E+04  0.10306939821E+04  0.50400001928E-02 0.  1.
        1   -1    0    0  501    0  0.00000000000E+00  0.00000000000E+00 -0.10501903965E+04  0.10501903965E+04  0.50400001928E-02 0. -1.
    10030    2    1    2    0    0  0.00000000000E+00  0.00000000000E+00 -0.19496414420E+02  0.20808843786E+04  0.20807930428E+04 0.  0.
        4    1    3    3  502    0  0.19648166491E+03  0.46118460193E+03 -0.92144990891E+03  0.10489841892E+04  0.12699999809E+01 0. -1.
       -4    1    3    3    0  502 -0.19648166491E+03 -0.46118460193E+03  0.90195349449E+03  0.10319001894E+04  0.12699999809E+01 0.  1.
</event>
<event>
 5   0  0.1815400E-04  0.2038050E+04  0.7818609E-02  0.8589035E-01
        2   -1    0    0  501    0  0.00000000000E+00  0.00000000000E+00  0.18714682989E+04  0.18714682989E+04  0.25500000920E-02 0.  1.
       -2   -1    0    0    0  501  0.00000000000E+00  0.00000000000E+00 -0.55486484364E+03  0.55486484365E+03  0.25500000920E-02 0. -1.
    10030    2    1    2    0    0  0.00000000000E+00  0.00000000000E+00  0.13166034552E+04  0.24263331425E+04  0.20380500142E+04 0.  0.
        3    1    3    3  502    0 -0.79260364483E+02 -0.89850693572E+03  0.12227813519E+04  0.15194706854E+04  0.10100000352E+00 0. -1.
       -3    1    3    3    0  502  0.79260364483E+02  0.89850693572E+03  0.93822103305E+02  0.90686245715E+03  0.10100000352E+00 0.  1.
</event>
<event>
 5   0  0.1886323E-04  0.1597167E+04  0.7818609E-02  0.8822290E-01
        2   -1    0    0  501    0  0.00000000000E+00  0.00000000000E+00  0.12487113933E+04  0.12487113933E+04  0.25500000920E-02 0. -1.
       -2   -1    0    0    0  501  0.00000000000E+00  0.00000000000E+00 -0.51071525019E+03  0.51071525020E+03  0.25500000920E-02 0.  1.
    10030    2    1    2    0    0  0.00000000000E+00  0.00000000000E+00  0.73799614311E+03  0.17594266435E+04  0.15971674322E+04 0.  0.
        2    1    3    3  502    0  0.29174932748E+03 -0.46555155471E+03  0.10074273726E+04  0.11475041749E+04  0.25500000920E-02 0. -1.
       -2    1    3    3    0  502 -0.29174932748E+03  0.46555155471E+03 -0.26943122953E+03  0.61192246864E+03  0.25500000920E-02 0.  1.
</event>
<event>
 5   0  0.1777590E-04  0.2089039E+04  0.7818609E-02  0.8566087E-01
       -2   -1    0    0    0  501  0.00000000000E+00  0.00000000000E+00  0.17790719162E+04  0.17790719162E+04  0.25500000920E-02 0.  1.
        2   -1    0    0  501    0  0.00000000000E+00  0.00000000000E+00 -0.61325300088E+03  0.61325300089E+03  0.25500000920E-02 0. -1.
    10030    2    1    2    0    0  0.00000000000E+00  0.00000000000E+00  0.11658189153E+04  0.23923249171E+04  0.20890391967E+04 0.  0.
        4    1    3    3  502    0  0.78136812583E+02  0.66083471973E+03  0.15049117577E+04  0.16454692035E+04  0.12699999809E+01 0.  1.
       -4    1    3    3    0  502 -0.78136812583E+02 -0.66083471973E+03 -0.33909284238E+03  0.74685571360E+03  0.12699999809E+01 0. -1.
</event>
<event>
 5   0  0.8271069E-05  0.2103015E+04  0.7818609E-02  0.8559916E-01
        1   -1    0    0  501    0  0.00000000000E+00  0.00000000000E+00  0.13266168249E+04  0.13266168249E+04  0.50400001928E-02 0.  1.
       -1   -1    0    0    0  501  0.00000000000E+00  0.00000000000E+00 -0.83344961120E+03  0.83344961122E+03  0.50400001928E-02 0. -1.
    10030    2    1    2    0    0  0.00000000000E+00  0.00000000000E+00  0.49316721370E+03  0.21600664361E+04  0.21030152419E+04 0.  0.
        2    1    3    3  502    0 -0.25201806749E+03  0.46665848487E+03 -0.68600420784E+03  0.86711303820E+03  0.25500000920E-02 0. -1.
       -2    1    3    3    0  502  0.25201806749E+03 -0.46665848487E+03  0.11791714215E+04  0.12929533979E+04  0.25500000920E-02 0.  1.
</event>
<event>
 5   0  0.6441125E-05  0.1912463E+04  0.7818609E-02  0.8648678E-01
       -3   -1    0    0    0  501  0.00000000000E+00  0.00000000000E+00  0.13194117495E+04  0.13194117533E+04  0.10100000352E+00 0.  1.
        3   -1    0    0  501    0  0.00000000000E+00  0.00000000000E+00 -0.69301981285E+03  0.69301982021E+03  0.10100000352E+00 0. -1.
    10030    2    1    2    0    0  0.00000000000E+00  0.00000000000E+00  0.62639193662E+03  0.20124315735E+04  0.19124628048E+04 0.  0.
        5    1    3    3  502    0 -0.48483692154E+03  0.71987907410E+03  0.73550166334E+03  0.11376631789E+04  0.46999998093E+01 0.  1.
       -5    1    3    3    0  502  0.48483692154E+03 -0.71987907410E+03 -0.10910972672E+03  0.87476839466E+03  0.46999998093E+01 0. -1.
</event>
<event>
 5   0  0.1815400E-04  0.2077893E+04  0.7818609E-02  0.8571044E-01
       -2   -1    0    0    0  501  0.00000000000E+00  0.00000000000E+00  0.10215208873E+04  0.10215208873E+04  0.25500000920E-02 0. -1.
        2   -1    0    0  501    0  0.00000000000E+00  0.00000000000E+00 -0.10566698549E+04  0.10566698549E+04  0.25500000920E-02 0.  1.
    10030    2    1    2    0    0  0.00000000000E+00  0.00000000000E+00 -0.35148967539E+02  0.20781907422E+04  0.20778934792E+04 0.  0.
        3    1    3    3  502    0 -0.51545013987E+03  0.48102010420E+03 -0.78079644446E+03  0.10520039378E+04  0.10100000352E+00 0.  1.
       -3    1    3    3    0  502  0.51545013987E+03 -0.48102010420E+03  0.74564747692E+03  0.10261868043E+04  0.10100000352E+00 0. -1.
</event>
<event>
 5   0  0.1886323E-04  0.2113131E+04  0.7818609E-02  0.8555481E-01
       -2   -1    0    0    0  501  0.00000000000E+00  0.00000000000E+00  0.14010944016E+04  0.14010944016E+04  0.25500000920E-02 0. -1.
        2   -1    0    0  501    0  0.00000000000E+00  0.00000000000E+00 -0.79675628614E+03  0.79675628615E+03  0.25500000920E-02 0.  1.
    10030    2    1    2    0    0  0.00000000000E+00  0.00000000000E+00  0.60433811544E+03  0.21978506877E+04  0.21131311099E+04 0.  0.
        2    1    3    3  502    0  0.90425635307E+03 -0.52173196560E+03  0.13302382909E+03  0.10524158565E+04  0.25500000920E-02 0. -1.
       -2    1    3    3    0  502 -0.90425635307E+03  0.52173196560E+03  0.47131428635E+03  0.11454348312E+04  0.25500000920E-02 0.  1.
</event>
<event>
 5   0  0.8237966E-05  0.2070986E+04  0.7818609E-02  0.8574133E-01
       -1   -1    0    0    0  501  0.00000000000E+00  0.00000000000E+00  0.94894484514E+03  0.94894484515E+03  0.50400001928E-02 0.  1.
        1   -1    0    0  501    0  0.00000000000E+00  0.00000000000E+00 -0.11299346189E+04  0.11299346189E+04  0.50400001928E-02 0. -1.
    10030    2    1    2    0    0  0.00000000000E+00  0.00000000000E+00 -0.18098977375E+03  0.20788794641E+04  0.20709858831E+04 0.  0.
        1    1    3    3  502    0 -0.10042719239E+04  0.22870893830E+03 -0.19755860261E+03  0.10487608293E+04  0.50400001928E-02 0.  1.
       -1    1    3    3    0  502  0.10042719239E+04 -0.22870893830E+03  0.16568828852E+02  0.10301186348E+04  0.50400001928E-02 0. -1.
</event>
<event>
 5   0  0.8755004E-05  0.2089857E+04  0.7818609E-02  0.8565725E-01
       -1   -1    0    0    0  501  0.00000000000E+00  0.00000000000E+00  0.48588795390E+03  0.48588795392E+03  0.50400001928E-02 0.  1.
        1   -1    0    0  501    0  0.00000000000E+00  0.00000000000E+00 -0.22471756776E+04  0.22471756777E+04  0.50400001928E-02 0. -1.
    10030    2    1    2    0    0  0.00000000000E+00  0.00000000000E+00 -0.17612877237E+04  0.27330636316E+04  0.20898570210E+04 0.  0.
        3    1    3    3  502    0 -0.79602947776E+03  0.34726559076E+02 -0.17647297552E+04  0.19362696048E+04  0.10100000352E+00 0. -1.
       -3    1    3    3    0  502  0.79602947776E+03 -0.34726559076E+02  0.34420314211E+01  0.79679402680E+03  0.10100000352E+00 0.  1.
</event>
<event>
 5   0  0.8525278E-05  0.2109675E+04  0.7818609E-02  0.8556993E-01
       -1   -1    0    0    0  501  0.00000000000E+00  0.00000000000E+00  0.64626692529E+03  0.64626692531E+03  0.50400001928E-02 0. -1.
        1   -1    0    0  501    0  0.00000000000E+00  0.00000000000E+00 -0.17217074949E+04  0.17217074949E+04  0.50400001928E-02 0.  1.
    10030    2    1    2    0    0  0.00000000000E+00  0.00000000000E+00 -0.10754405696E+04  0.23679744202E+04  0.21096754338E+04 0.  0.
        4    1    3    3  502    0 -0.56787619539E+03 -0.70468082620E+03 -0.11459338027E+04  0.14602137971E+04  0.12699999809E+01 0.  1.
       -4    1    3    3    0  502  0.56787619539E+03  0.70468082620E+03  0.70493233105E+02  0.90776062314E+03  0.12699999809E+01 0. -1.
</event>
<event>
 5   0  0.8755004E-05  0.2097831E+04  0.7818609E-02  0.8562199E-01
       -1   -1    0    0    0  501  0.00000000000E+00  0.00000000000E+00  0.36378920696E+03  0.36378920700E+03  0.50400001928E-02 0.  1.
        1   -1    0    0  501    0  0.00000000000E+00  0.00000000000E+00 -0.30243445743E+04  0.30243445743E+04  0.50400001928E-02 0. -1.
    10030    2    1    2    0    0  0.00000000000E+00  0.00000000000E+00 -0.26605553673E+04  0.33881337813E+04  0.20978311794E+04 0.  0.
        3    1    3    3  502    0  0.50953441659E+03  0.15592374964E+03 -0.27894658061E+04  0.28399044052E+04  0.10100000352E+00 0. -1.
       -3    1    3    3    0  502 -0.50953441659E+03 -0.15592374964E+03  0.12891043872E+03  0.54822937608E+03  0.10100000352E+00 0.  1.
</event>
<event>
 5   0  0.1815400E-04  0.2103710E+04  0.7818609E-02  0.8559611E-01
       -2   -1    0    0    0  501  0.00000000000E+00  0.00000000000E+00  0.60355526880E+03  0.60355526880E+03  0.25500000920E-02 0. -1.
        2   -1    0    0  501    0  0.00000000000E+00  0.00000000000E+00 -0.18331361386E+04  0.18331361386E+04  0.25500000920E-02 0.  1.
    10030    2    1    2    0    0  0.00000000000E+00  0.00000000000E+00 -0.12295808698E+04  0.24366914074E+04  0.21037100322E+04 0.  0.
        3    1    3    3  502    0 -0.20027781985E+03  0.35097473417E+03 -0.17396403019E+04  0.17859571270E+04  0.10100000352E+00 0.  1.
       -3    1    3    3    0  502  0.20027781985E+03 -0.35097473417E+03  0.51005943215E+03  0.65073428039E+03  0.10100000352E+00 0. -1.
</event>
<event>
 5   0  0.8271069E-05  0.2224187E+04  0.7818609E-02  0.8508428E-01
        1   -1    0    0  501    0  0.00000000000E+00  0.00000000000E+00  0.13402988470E+04  0.13402988470E+04  0.50400001928E-02 0.  1.
       -1   -1    0    0    0  501  0.00000000000E+00  0.00000000000E+00 -0.92274320409E+03  0.92274320410E+03  0.50400001928E-02 0. -1.
    10030    2    1    2    0    0  0.00000000000E+00  0.00000000000E+00  0.41755564293E+03  0.22630420511E+04  0.22241867301E+04 0.  0.
        2    1    3    3  502    0  0.87103083721E+03  0.66071499170E+03  0.41608365262E+03  0.11697711852E+04  0.25500000920E-02 0.  1.
       -2    1    3    3    0  502 -0.87103083721E+03 -0.66071499170E+03  0.14719903059E+01  0.10932708660E+04  0.25500000920E-02 0. -1.
</event>
<event>
 5   0  0.1810875E-04  0.2117972E+04  0.7818609E-02  0.8553367E-01
       -2   -1    0    0    0  501  0.00000000000E+00  0.00000000000E+00  0.70035368524E+03  0.70035368525E+03  0.25500000920E-02 0.  1.
        2   -1    0    0  501    0  0.00000000000E+00  0.00000000000E+00 -0.16012648545E+04  0.16012648545E+04  0.25500000920E-02 0. -1.
    10030    2    1    2    0    0  0.00000000000E+00  0.00000000000E+00 -0.90091116929E+03  0.23016185398E+04  0.21179723718E+04 0.  0.
        1    1    3    3  502    0 -0.53726167204E+02 -0.69922557386E+03 -0.13127632756E+04  0.14883381074E+04  0.50400001928E-02 0. -1.
       -1    1    3    3    0  502  0.53726167204E+02  0.69922557386E+03  0.41185210631E+03  0.81328043237E+03  0.50400001928E-02 0.  1.
</event>
<event>
 5   0  0.8271069E-05  0.2090592E+04  0.7818609E-02  0.8565399E-01
       -1   -1    0    0    0  501  0.00000000000E+00  0.00000000000E+00  0.63233141384E+03  0.63233141386E+03  0.50400001928E-02 0. -1.
        1   -1    0    0  501    0  0.00000000000E+00  0.00000000000E+00 -0.17279605323E+04  0.17279605323E+04  0.50400001928E-02 0.  1.
    10030    2    1    2    0    0  0.00000000000E+00  0.00000000000E+00 -0.10956291184E+04  0.23602919461E+04  0.20905919989E+04 0.  0.
        2    1    3    3  502    0 -0.56411765103E+03  0.49693075031E+03 -0.13677833289E+04  0.15607690827E+04  0.25500000920E-02 0.  1.
       -2    1    3    3    0  502  0.56411765103E+03 -0.49693075031E+03  0.27215421048E+03  0.79952286340E+03  0.25500000920E-02 0. -1.
</event>
<event>
 5   0  0.8755004E-05  0.1936976E+04  0.7818609E-02  0.8636667E-01
        1   -1    0    0  501    0  0.00000000000E+00  0.00000000000E+00  0.25571841521E+04  0.25571841521E+04  0.50400001928E-02 0.  1.
       -1   -1    0    0    0  501  0.00000000000E+00  0.00000000000E+00 -0.36679775516E+03  0.36679775520E+03  0.50400001928E-02 0. -1.
    10030    2    1    2    0    0  0.00000000000E+00  0.00000000000E+00  0.21903863970E+04  0.29239819073E+04  0.19369764135E+04 0.  0.
        3    1    3    3  502    0 -0.95374362278E+03 -0.13954134383E+03  0.95301612106E+03  0.13554845709E+04  0.10100000352E+00 0. -1.
       -3    1    3    3    0  502  0.95374362278E+03  0.13954134383E+03  0.12373702759E+04  0.15684973365E+04  0.10100000352E+00 0.  1.
</event>
<event>
 5   0  0.1810875E-04  0.2098007E+04  0.7818609E-02  0.8562122E-01
        2   -1    0    0  501    0  0.00000000000E+00  0.00000000000E+00  0.24600370862E+04  0.24600370862E+04  0.25500000920E-02 0. -1.
       -2   -1    0    0    0  501  0.00000000000E+00  0.00000000000E+00 -0.44731354120E+03  0.44731354121E+03  0.25500000920E-02 0.  1.
    10030    2    1    2    0    0  0.00000000000E+00  0.00000000000E+00  0.20127235450E+04  0.29073506274E+04  0.20980065782E+04 0.  0.
        1    1    3    3  502    0 -0.51560556753E+03 -0.74190731914E+03  0.26769104128E+03  0.94230253373E+03  0.50400001928E-02 0.  1.
       -1    1    3    3    0  502  0.51560556753E+03  0.74190731914E+03  0.17450325037E+04  0.19650480937E+04  0.50400001928E-02 0. -1.
</event>
<event>
 5   0  0.8525278E-05  0.2038924E+04  0.7818609E-02  0.8588635E-01
       -1   -1    0    0    0  501  0.00000000000E+00  0.00000000000E+00  0.54830098744E+03  0.54830098746E+03  0.50400001928E-02 0. -1.
        1   -1    0    0  501    0  0.00000000000E+00  0.00000000000E+00 -0.18954973996E+04  0.18954973996E+04  0.50400001928E-02 0.  1.
    10030    2    1    2    0    0  0.00000000000E+00  0.00000000000E+00 -0.13471964122E+04  0.24437983871E+04  0.20389243202E+04 0.  0.
        4    1    3    3  502    0  0.95890571169E+03  0.17913787632E+03 -0.31862861418E+03  0.10262145728E+04  0.12699999809E+01 0. -1.
       -4    1    3    3    0  502 -0.95890571169E+03 -0.17913787632E+03 -0.10285677980E+04  0.14175838143E+04  0.12699999809E+01 0.  1.
</event>
<event>
 5   0  0.1886323E-04  0.2113282E+04  0.7818609E-02  0.8555415E-01
       -2   -1    0    0    0  501  0.00000000000E+00  0.00000000000E+00  0.95152580480E+03  0.95152580480E+03  0.25500000920E-02 0. -1.
        2   -1    0    0  501    0  0.00000000000E+00  0.00000000000E+00 -0.11733683336E+04  0.11733683336E+04  0.25500000920E-02 0.  1.
    10030    2    1    2    0    0  0.00000000000E+00  0.00000000000E+00 -0.22184252877E+03  0.21248941384E+04  0.21132820426E+04 0.  0.
        2    1    3    3  502    0 -0.52077584958E+03  0.32187794037E+03  0.75501782609E+03  0.97204156892E+03  0.25500000920E-02 0. -1.
       -2    1    3    3    0  502  0.52077584958E+03 -0.32187794037E+03 -0.97686035486E+03  0.11528525695E+04  0.25500000920E-02 0.  1.
</event>
<event>
 5   0  0.8486612E-05  0.1827810E+04  0.7818609E-02  0.8691649E-01
        1   -1    0    0  501    0  0.00000000000E+00  0.00000000000E+00  0.89672838332E+03  0.89672838333E+03  0.50400001928E-02 0.  1.
       -1   -1    0    0    0  501  0.00000000000E+00  0.00000000000E+00 -0.93141016205E+03  0.93141016206E+03  0.50400001928E-02 0. -1.
    10030    2    1    2    0    0  0.00000000000E+00  0.00000000000E+00 -0.34681778726E+02  0.18281385454E+04  0.18278095402E+04 0.  0.
        5    1    3    3  502    0  0.35713691242E+02  0.46202327068E+02 -0.92953011689E+03  0.93137449556E+03  0.46999998093E+01 0. -1.
       -5    1    3    3    0  502 -0.35713691242E+02 -0.46202327068E+02  0.89484833816E+03  0.89676404984E+03  0.46999998093E+01 0.  1.
</event>
<event>
 5   0  0.1815400E-04  0.2125904E+04  0.7818609E-02  0.8549918E-01
        2   -1    0    0  501    0  0.00000000000E+00  0.00000000000E+00  0.11684893500E+04  0.11684893500E+04  0.25500000920E-02 0. -1.
       -2   -1    0    0    0  501  0.00000000000E+00  0.00000000000E+00 -0.96694629729E+03  0.96694629729E+03  0.25500000920E-02 0.  1.
    10030    2    1    2    0    0  0.00000000000E+00  0.00000000000E+00  0.20154305268E+03  0.21354356473E+04  0.21259035259E+04 0.  0.
        3    1    3    3  502    0 -0.21461951940E+02 -0.16818201045E+02  0.11681380010E+04  0.11684561896E+04  0.10100000352E+00 0. -1.
       -3    1    3    3    0  502  0.21461951940E+02  0.16818201045E+02 -0.96659494835E+03  0.96697945771E+03  0.10100000352E+00 0.  1.
</event>
<event>
 5   0  0.8271069E-05  0.2027220E+04  0.7818609E-02  0.8593999E-01
        1   -1    0    0  501    0  0.00000000000E+00  0.00000000000E+00  0.93184050884E+03  0.93184050886E+03  0.50400001928E-02 0.  1.
       -1   -1    0    0    0  501  0.00000000000E+00  0.00000000000E+00 -0.11025546608E+04  0.11025546608E+04  0.50400001928E-02 0. -1.
    10030    2    1    2    0    0  0.00000000000E+00  0.00000000000E+00 -0.17071415196E+03  0.20343951697E+04  0.20272198659E+04 0.  0.
        2    1    3    3  502    0  0.92586661386E+03  0.35469967061E+02  0.32709397661E+03  0.98258718430E+03  0.25500000920E-02 0.  1.
       -2    1    3    3    0  502 -0.92586661386E+03 -0.35469967061E+02 -0.49780812856E+03  0.10518079854E+04  0.25500000920E-02 0. -1.
</event>
<event>
 5   0  0.1886323E-04  0.2093303E+04  0.7818609E-02  0.8564199E-01
        2   -1    0    0  501    0  0.00000000000E+00  0.00000000000E+00  0.13416853517E+04  0.13416853517E+04  0.25500000920E-02 0. -1.
       -2   -1    0    0    0  501  0.00000000000E+00  0.00000000000E+00 -0.81649513053E+03  0.81649513054E+03  0.25500000920E-02 0.  1.
    10030    2    1    2    0    0  0.00000000000E+00  0.00000000000E+00  0.52519022121E+03  0.21581804823E+04  0.20933031853E+04 0.  0.
        2    1    3    3  502    0  0.68923646836E+03  0.70803482676E+03 -0.93238321482E+02  0.99249866993E+03  0.25500000920E-02 0.  1.
       -2    1    3    3    0  502 -0.68923646836E+03 -0.70803482676E+03  0.61842854270E+03  0.11656818124E+04  0.25500000920E-02 0. -1.
</event>
<event>
 5   0  0.1810875E-04  0.2100440E+04  0.7818609E-02  0.8561049E-01
        2   -1    0    0  501    0  0.00000000000E+00  0.00000000000E+00  0.12522641079E+04  0.12522641079E+04  0.25500000920E-02 0. -1.
       -2   -1    0    0    0  501  0.00000000000E+00  0.00000000000E+00 -0.88077465930E+03  0.88077465931E+03  0.25500000920E-02 0.  1.
    10030    2    1    2    0    0  0.00000000000E+00  0.00000000000E+00  0.37148944859E+03  0.21330387672E+04  0.21004404233E+04 0.  0.
        1    1    3    3  502    0  0.68825354798E+03  0.70945488483E+03  0.54613738465E+03  0.11292852708E+04  0.50400001928E-02 0. -1.
       -1    1    3    3    0  502 -0.68825354798E+03 -0.70945488483E+03 -0.17464793606E+03  0.10037534964E+04  0.50400001928E-02 0.  1.
</event>
<event>
 5   0  0.8755004E-05  0.2093507E+04  0.7818609E-02  0.8564109E-01
        1   -1    0    0  501    0  0.00000000000E+00  0.00000000000E+00  0.20224214285E+04  0.20224214285E+04  0.50400001928E-02 0.  1.
       -1   -1    0    0    0  501  0.00000000000E+00  0.00000000000E+00 -0.54177258269E+03  0.54177258272E+03  0.50400001928E-02 0. -1.
    10030    2    1    2    0    0  0.00000000000E+00  0.00000000000E+00  0.14806488458E+04  0.25641940112E+04  0.20935066092E+04 0.  0.
        3    1    3    3  502    0  0.92176783019E+03 -0.22053199208E+03  0.12845168770E+04  0.15963313910E+04  0.10100000352E+00 0.  1.
       -3    1    3    3    0  502 -0.92176783019E+03  0.22053199208E+03  0.19613196881E+03  0.96786262026E+03  0.10100000352E+00 0. -1.
</event>
<event>
 5   0  0.8525278E-05  0.2100905E+04  0.7818609E-02  0.8560845E-01
        1   -1    0    0  501    0  0.00000000000E+00  0.00000000000E+00  0.11843827164E+04  0.11843827164E+04  0.50400001928E-02 0.  1.
       -1   -1    0    0    0  501  0.00000000000E+00  0.00000000000E+00 -0.93166678795E+03  0.93166678797E+03  0.50400001928E-02 0. -1.
    10030    2    1    2    0    0  0.00000000000E+00  0.00000000000E+00  0.25271592843E+03  0.21160495044E+04  0.21009046062E+04 0.  0.
        4    1    3    3  502    0 -0.52275391025E+03  0.79444540193E+02  0.10405714162E+04  0.11672075954E+04  0.12699999809E+01 0.  1.
       -4    1    3    3    0  502  0.52275391025E+03 -0.79444540193E+02 -0.78785548778E+03  0.94884190895E+03  0.12699999809E+01 0. -1.
</event>
<event>
 5   0  0.1886323E-04  0.2140384E+04  0.7818609E-02  0.8543660E-01
        2   -1    0    0  501    0  0.00000000000E+00  0.00000000000E+00  0.13995606207E+04  0.13995606207E+04  0.25500000920E-02 0.  1.
       -2   -1    0    0    0  501  0.00000000000E+00  0.00000000000E+00 -0.81833583752E+03  0.81833583753E+03  0.25500000920E-02 0. -1.
    10030    2    1    2    0    0  0.00000000000E+00  0.00000000000E+00  0.58122478320E+03  0.22178964582E+04  0.21403837158E+04 0.  0.
        2    1    3    3  502    0  0.93162230574E+02 -0.10640814701E+04  0.22217487001E+03  0.10910134047E+04  0.25500000920E-02 0. -1.
       -2    1    3    3    0  502 -0.93162230574E+02  0.10640814701E+04  0.35904991318E+03  0.11268830536E+04  0.25500000920E-02 0.  1.
</event>
<event>
 5   0  0.1777590E-04  0.2074632E+04  0.7818609E-02  0.8572501E-01
        2   -1    0    0  501    0  0.00000000000E+00  0.00000000000E+00  0.10803725561E+04  0.10803725561E+04  0.25500000920E-02 0. -1.
       -2   -1    0    0    0  501  0.00000000000E+00  0.00000000000E+00 -0.99597504128E+03  0.99597504129E+03  0.25500000920E-02 0.  1.
    10030    2    1    2    0    0  0.00000000000E+00  0.00000000000E+00  0.84397514827E+02  0.20763475974E+04  0.20746316311E+04 0.  0.
        4    1    3    3  502    0 -0.24455986289E+03  0.72847988567E+03  0.73957493414E+03  0.10665201200E+04  0.12699999809E+01 0. -1.
       -4    1    3    3    0  502  0.24455986289E+03 -0.72847988567E+03 -0.65517741931E+03  0.10098274774E+04  0.12699999809E+01 0.  1.
</event>
<event>
 5   0  0.1815400E-04  0.2085277E+04  0.7818609E-02  0.8567757E-01
        2   -1    0    0  501    0  0.00000000000E+00  0.00000000000E+00  0.79132197165E+03  0.79132197165E+03  0.25500000920E-02 0.  1.
       -2   -1    0    0    0  501  0.00000000000E+00  0.00000000000E+00 -0.13737706922E+04  0.13737706922E+04  0.25500000920E-02 0. -1.
    10030    2    1    2    0    0  0.00000000000E+00  0.00000000000E+00 -0.58244872059E+03  0.21650926639E+04  0.20852768956E+04 0.  0.
        3    1    3    3  502    0  0.14094036122E+02  0.22650349352E+03  0.76536733900E+03  0.79830423289E+03  0.10100000352E+00 0.  1.
       -3    1    3    3    0  502 -0.14094036122E+02 -0.22650349352E+03 -0.13478160596E+04  0.13667884310E+04  0.10100000352E+00 0. -1.
</event>
<event>
 5   0  0.1921687E-04  0.2112590E+04  0.7818609E-02  0.8555718E-01
        2   -1    0    0  501    0  0.00000000000E+00  0.00000000000E+00  0.82683782549E+03  0.82683782549E+03  0.25500000920E-02 0.  1.
       -2   -1    0    0    0  501  0.00000000000E+00  0.00000000000E+00 -0.13494288700E+04  0.13494288700E+04  0.25500000920E-02 0. -1.
    10030    2    1    2    0    0  0.00000000000E+00  0.00000000000E+00 -0.52259104453E+03  0.21762666955E+04  0.21125897212E+04 0.  0.
        5    1    3    3  502    0  0.81606037492E+03 -0.55242317829E+03  0.13044398844E+03  0.99406419690E+03  0.46999998093E+01 0. -1.
       -5    1    3    3    0  502 -0.81606037492E+03  0.55242317829E+03 -0.65303503297E+03  0.11822024986E+04  0.46999998093E+01 0.  1.
</event>
<event>
 5   0  0.8525278E-05  0.2118110E+04  0.7818609E-02  0.8553308E-01
       -1   -1    0    0    0  501  0.00000000000E+00  0.00000000000E+00  0.87400355550E+03  0.87400355552E+03  0.50400001928E-02 0.  1.
        1   -1    0    0  501    0  0.00000000000E+00  0.00000000000E+00 -0.12832866408E+04  0.12832866408E+04  0.50400001928E-02 0. -1.
    10030    2    1    2    0    0  0.00000000000E+00  0.00000000000E+00 -0.40928308532E+03  0.21572901964E+04  0.21181096165E+04 0.  0.
        4    1    3    3  502    0  0.41566152510E+03 -0.68772800885E+03  0.49793832726E+03  0.94535099739E+03  0.12699999809E+01 0.  1.
       -4    1    3    3    0  502 -0.41566152510E+03  0.68772800885E+03 -0.90722141259E+03  0.12119391990E+04  0.12699999809E+01 0. -1.
</event>
<event>
 5   0  0.8486612E-05  0.2114956E+04  0.7818609E-02  0.8554684E-01
       -1   -1    0    0    0  501  0.00000000000E+00  0.00000000000E+00  0.11451492580E+04  0.11451492580E+04  0.50400001928E-02 0.  1.
        1   -1    0    0  501    0  0.00000000000E+00  0.00000000000E+00 -0.97651846134E+03  0.97651846136E+03  0.50400001928E-02 0. -1.
    10030    2    1    2    0    0  0.00000000000E+00  0.00000000000E+00  0.16863079661E+03  0.21216677193E+04  0.21149556888E+04 0.  0.
        5    1    3    3  502    0 -0.59363587491E+02 -0.10303158642E+04 -0.14698625455E+03  0.10424499338E+04  0.46999998093E+01 0. -1.
       -5    1    3    3    0  502  0.59363587491E+02  0.10303158642E+04  0.31561705116E+03  0.10792177855E+04  0.46999998093E+01 0.  1.
</event>
<event>
 5   0  0.8237966E-05  0.2085902E+04  0.7818609E-02  0.8567479E-01
        1   -1    0    0  501    0  0.00000000000E+00  0.00000000000E+00  0.16180928338E+04  0.16180928338E+04  0.50400001928E-02 0. -1.
       -1   -1    0    0    0  501  0.00000000000E+00  0.00000000000E+00 -0.67224016592E+03  0.67224016594E+03  0.50400001928E-02 0.  1.
    10030    2    1    2    0    0  0.00000000000E+00  0.00000000000E+00  0.94585266783E+03  0.22903329997E+04  0.20859021982E+04 0.  0.
        1    1    3    3  502    0 -0.43883336476E+03 -0.37569459804E+03  0.14263760723E+04  0.15389184035E+04  0.50400001928E-02 0. -1.
       -1    1    3    3    0  502  0.43883336476E+03  0.37569459804E+03 -0.48052340450E+03  0.75141459616E+03  0.50400001928E-02 0.  1.
</event>
<event>
 5   0  0.1777590E-04  0.2092744E+04  0.7818609E-02  0.8564446E-01
        2   -1    0    0  501    0  0.00000000000E+00  0.00000000000E+00  0.21011016438E+04  0.21011016438E+04  0.25500000920E-02 0. -1.
       -2   -1    0    0    0  501  0.00000000000E+00  0.00000000000E+00 -0.52110504313E+03  0.52110504314E+03  0.25500000920E-02 0.  1.
    10030    2    1    2    0    0  0.00000000000E+00  0.00000000000E+00  0.15799966007E+04  0.26222066870E+04  0.20927442870E+04 0.  0.
        4    1    3    3  502    0 -0.87913123719E+03  0.49635562413E+03  0.11346354940E+04  0.15187626394E+04  0.12699999809E+01 0. -1.
       -4    1    3    3    0  502  0.87913123719E+03 -0.49635562413E+03  0.44536110674E+03  0.11034440476E+04  0.12699999809E+01 0.  1.
</event>
<event>
 5   0  0.1777590E-04  0.2109401E+04  0.7818609E-02  0.8557113E-01
       -2   -1    0    0    0  501  0.00000000000E+00  0.00000000000E+00  0.42468065174E+03  0.42468065175E+03  0.25500000920E-02 0.  1.
        2   -1    0    0  501    0  0.00000000000E+00  0.00000000000E+00 -0.26193643177E+04  0.26193643177E+04  0.25500000920E-02 0. -1.
    10030    2    1    2    0    0  0.00000000000E+00  0.00000000000E+00 -0.21946836659E+04  0.30440449694E+04  0.21094011905E+04 0.  0.
        4    1    3    3  502    0  0.75330258909E+03 -0.50413756163E+03 -0.18755008671E+04  0.20830565492E+04  0.12699999809E+01 0. -1.
       -4    1    3    3    0  502 -0.75330258909E+03  0.50413756163E+03 -0.31918279879E+03  0.96098842018E+03  0.12699999809E+01 0.  1.
</event>
<event>
 5   0  0.6441125E-05  0.2113371E+04  0.7818609E-02  0.8555376E-01
       -3   -1    0    0    0  501  0.00000000000E+00  0.00000000000E+00  0.13330348836E+04  0.13330348875E+04  0.10100000352E+00 0.  1.
        3   -1    0    0  501    0  0.00000000000E+00  0.00000000000E+00 -0.83762530742E+03  0.83762531350E+03  0.10100000352E+00 0. -1.
    10030    2    1    2    0    0  0.00000000000E+00  0.00000000000E+00  0.49540957623E+03  0.21706602010E+04  0.21133705449E+04 0.  0.
        4    1    3    3  502    0  0.48594687433E+03 -0.77731552140E+03  0.78751670842E+03  0.12085313250E+04  0.12699999809E+01 0.  1.
       -4    1    3    3    0  502 -0.48594687433E+03  0.77731552140E+03 -0.29210713219E+03  0.96212887601E+03  0.12699999809E+01 0. -1.
</event>
<event>
 5   0  0.1886323E-04  0.1899817E+04  0.7818609E-02  0.8654947E-01
        2   -1    0    0  501    0  0.00000000000E+00  0.00000000000E+00  0.21521716780E+04  0.21521716780E+04  0.25500000920E-02 0. -1.
       -2   -1    0    0    0  501  0.00000000000E+00  0.00000000000E+00 -0.41926315170E+03  0.41926315171E+03  0.25500000920E-02 0.  1.
    10030    2    1    2    0    0  0.00000000000E+00  0.00000000000E+00  0.17329085263E+04  0.25714348298E+04  0.18998171288E+04 0.  0.
        2    1    3    3  502    0  0.22204854310E+03 -0.91120127534E+03  0.66237836002E+03  0.11481891880E+04  0.25500000920E-02 0.  1.
       -2    1    3    3    0  502 -0.22204854310E+03  0.91120127534E+03  0.10705301663E+04  0.14232456417E+04  0.25500000920E-02 0. -1.
</event>
<event>
 5   0  0.8271069E-05  0.2066416E+04  0.7818609E-02  0.8576183E-01
        1   -1    0    0  501    0  0.00000000000E+00  0.00000000000E+00  0.78436416626E+03  0.78436416627E+03  0.50400001928E-02 0. -1.
       -1   -1    0    0    0  501  0.00000000000E+00  0.00000000000E+00 -0.13609994387E+04  0.13609994388E+04  0.50400001928E-02 0.  1.
    10030    2    1    2    0    0  0.00000000000E+00  0.00000000000E+00 -0.57663527249E+03  0.21453636050E+04  0.20664164054E+04 0.  0.
        2    1    3    3  502    0 -0.49516549458E+03  0.74929691845E+03  0.24196470551E+03  0.93015141656E+03  0.25500000920E-02 0. -1.
       -2    1    3    3    0  502  0.49516549458E+03 -0.74929691845E+03 -0.81859997800E+03  0.12152121885E+04  0.25500000920E-02 0.  1.
</event>
<event>
 5   0  0.8755004E-05  0.2096575E+04  0.7818609E-02  0.8562753E-01
       -1   -1    0    0    0  501  0.00000000000E+00  0.00000000000E+00  0.66181884677E+03  0.66181884679E+03  0.50400001928E-02 0. -1.
        1   -1    0    0  501    0  0.00000000000E+00  0.00000000000E+00 -0.16604348898E+04  0.16604348898E+04  0.50400001928E-02 0.  1.
    10030    2    1    2    0    0  0.00000000000E+00  0.00000000000E+00 -0.99861604307E+03  0.23222537366E+04  0.20965754019E+04 0.  0.
        3    1    3    3  502    0 -0.16788044688E+03 -0.29780473212E+03  0.59833923965E+03  0.68911636087E+03  0.10100000352E+00 0. -1.
       -3    1    3    3    0  502  0.16788044688E+03  0.29780473212E+03 -0.15969552827E+04  0.16331373758E+04  0.10100000352E+00 0.  1.
</event>
<event>
 5   0  0.1921687E-04  0.2062144E+04  0.7818609E-02  0.8578105E-01
        2   -1    0    0  501    0  0.00000000000E+00  0.00000000000E+00  0.19745799611E+04  0.19745799611E+04  0.25500000920E-02 0.  1.
       -2   -1    0    0    0  501  0.00000000000E+00  0.00000000000E+00 -0.53839790737E+03  0.53839790738E+03  0.25500000920E-02 0. -1.
    10030    2    1    2    0    0  0.00000000000E+00  0.00000000000E+00  0.14361820537E+04  0.25129778684E+04  0.20621442423E+04 0.  0.
        5    1    3    3  502    0  0.79741607410E+02  0.33433092143E+03  0.19026984191E+04  0.19334992250E+04  0.46999998093E+01 0.  1.
       -5    1    3    3    0  502 -0.79741607410E+02 -0.33433092143E+03 -0.46651636543E+03  0.57947864343E+03  0.46999998093E+01 0. -1.
</event>
<event>
 5   0  0.1810875E-04  0.2117405E+04  0.7818609E-02  0.8553615E-01
       -2   -1    0    0    0  501  0.00000000000E+00  0.00000000000E+00  0.81064729519E+03  0.81064729520E+03  0.25500000920E-02 0.  1.
        2   -1    0    0  501    0  0.00000000000E+00  0.00000000000E+00 -0.13826620460E+04  0.13826620460E+04  0.25500000920E-02 0. -1.
    10030    2    1    2    0    0  0.00000000000E+00  0.00000000000E+00 -0.57201475085E+03  0.21933093412E+04  0.21174052496E+04 0.  0.
        1    1    3    3  502    0 -0.50508977124E+03  0.87485450899E+03 -0.61416869621E+03  0.11822390944E+04  0.50400001928E-02 0. -1.
       -1    1    3    3    0  502  0.50508977124E+03 -0.87485450899E+03  0.42153945359E+02  0.10110702468E+04  0.50400001928E-02 0.  1.
</event>
<event>
 5   0  0.8525278E-05  0.2059368E+04  0.7818609E-02  0.8579356E-01
        1   -1    0    0  501    0  0.00000000000E+00  0.00000000000E+00  0.11085935861E+04  0.11085935861E+04  0.50400001928E-02 0. -1.
       -1   -1    0    0    0  501  0.00000000000E+00  0.00000000000E+00 -0.95639107162E+03  0.95639107163E+03  0.50400001928E-02 0.  1.
    10030    2    1    2    0    0  0.00000000000E+00  0.00000000000E+00  0.15220251443E+03  0.20649846577E+04  0.20593678717E+04 0.  0.
        4    1    3    3  502    0  0.43958975998E+03  0.13237287479E+03 -0.84808801339E+03  0.96437369645E+03  0.12699999809E+01 0.  1.
       -4    1    3    3    0  502 -0.43958975998E+03 -0.13237287479E+03  0.10002905278E+04  0.11006109612E+04  0.12699999809E+01 0. -1.
</event>
<event>
 5   0  0.8525278E-05  0.2113741E+04  0.7818609E-02  0.8555214E-01
        1   -1    0    0  501    0  0.00000000000E+00  0.00000000000E+00  0.14536815399E+04  0.14536815399E+04  0.50400001928E-02 0.  1.
       -1   -1    0    0    0  501  0.00000000000E+00  0.00000000000E+00 -0.76837682687E+03  0.76837682689E+03  0.50400001928E-02 0. -1.
    10030    2    1    2    0    0  0.00000000000E+00  0.00000000000E+00  0.68530471306E+03  0.22220583668E+04  0.21137409576E+04 0.  0.
        4    1    3    3  502    0 -0.74280190745E+03 -0.55229627915E+03  0.87887742834E+03  0.12764062835E+04  0.12699999809E+01 0.  1.
       -4    1    3    3    0  502  0.74280190745E+03  0.55229627915E+03 -0.19357271528E+03  0.94565208331E+03  0.12699999809E+01 0. -1.
</event>
<event>
 5   0  0.8486612E-05  0.2100460E+04  0.7818609E-02  0.8561041E-01
       -1   -1    0    0    0  501  0.00000000000E+00  0.00000000000E+00  0.80816569704E+03  0.80816569706E+03  0.50400001928E-02 0. -1.
        1   -1    0    0  501    0  0.00000000000E+00  0.00000000000E+00 -0.13647979563E+04  0.13647979563E+04  0.50400001928E-02 0.  1.
    10030    2    1    2    0    0  0.00000000000E+00  0.00000000000E+00 -0.55663225922E+03  0.21729636533E+04  0.21004598465E+04 0.  0.
        5    1    3    3  502    0  0.82864977578E+03 -0.22007099526E+03  0.34914198157E+03  0.92575045619E+03  0.46999998093E+01 0. -1.
       -5    1    3    3    0  502 -0.82864977578E+03  0.22007099526E+03 -0.90577424078E+03  0.12472131971E+04  0.46999998093E+01 0.  1.
</event>
<event>
 5   0  0.1777590E-04  0.2106898E+04  0.7818609E-02  0.8558211E-01
        2   -1    0    0  501    0  0.00000000000E+00  0.00000000000E+00  0.20428528349E+04  0.20428528349E+04  0.25500000920E-02 0.  1.
       -2   -1    0    0    0  501  0.00000000000E+00  0.00000000000E+00 -0.54323800212E+03  0.54323800212E+03  0.25500000920E-02 0. -1.
    10030    2    1    2    0    0  0.00000000000E+00  0.00000000000E+00  0.14996148328E+04  0.25860908370E+04  0.21068984718E+04 0.  0.
        4    1    3    3  502    0 -0.35760577687E+02  0.63374931703E+03 -0.28214506964E+03  0.69463981240E+03  0.12699999809E+01 0. -1.
       -4    1    3    3    0  502  0.35760577687E+02 -0.63374931703E+03  0.17817599024E+04  0.18914510246E+04  0.12699999809E+01 0.  1.
</event>
<event>
 5   0  0.8486612E-05  0.2033290E+04  0.7818609E-02  0.8591213E-01
       -1   -1    0    0    0  501  0.00000000000E+00  0.00000000000E+00  0.49146822202E+03  0.49146822204E+03  0.50400001928E-02 0. -1.
        1   -1    0    0  501    0  0.00000000000E+00  0.00000000000E+00 -0.21030184225E+04  0.21030184225E+04  0.50400001928E-02 0.  1.
    10030    2    1    2    0    0  0.00000000000E+00  0.00000000000E+00 -0.16115502004E+04  0.25944866445E+04  0.20332896744E+04 0.  0.
        5    1    3    3  502    0  0.61879136177E+03 -0.13342309568E+03  0.20930239923E+03  0.66673387208E+03  0.46999998093E+01 0. -1.
       -5    1    3    3    0  502 -0.61879136177E+03  0.13342309568E+03 -0.18208525997E+04  0.19277527724E+04  0.46999998093E+01 0.  1.
</event>
<event>
 5   0  0.1815400E-04  0.2066689E+04  0.7818609E-02  0.8576061E-01
       -2   -1    0    0    0  501  0.00000000000E+00  0.00000000000E+00  0.74624989782E+03  0.74624989783E+03  0.25500000920E-02 0.  1.
        2   -1    0    0  501    0  0.00000000000E+00  0.00000000000E+00 -0.14308897794E+04  0.14308897794E+04  0.25500000920E-02 0. -1.
    10030    2    1    2    0    0  0.00000000000E+00  0.00000000000E+00 -0.68463988156E+03  0.21771396772E+04  0.20666894800E+04 0.  0.
        3    1    3    3  502    0 -0.28106204792E+03 -0.87435999538E+03  0.15659414298E+03  0.93167752582E+03  0.10100000352E+00 0. -1.
       -3    1    3    3    0  502  0.28106204792E+03  0.87435999538E+03 -0.84123402455E+03  0.12454621514E+04  0.10100000352E+00 0.  1.
</event>
<event>
 5   0  0.1815400E-04  0.1901518E+04  0.7818609E-02  0.8654101E-01
       -2   -1    0    0    0  501  0.00000000000E+00  0.00000000000E+00  0.63787906291E+03  0.63787906292E+03  0.25500000920E-02 0. -1.
        2   -1    0    0  501    0  0.00000000000E+00  0.00000000000E+00 -0.14171066997E+04  0.14171066997E+04  0.25500000920E-02 0.  1.
    10030    2    1    2    0    0  0.00000000000E+00  0.00000000000E+00 -0.77922763677E+03  0.20549857626E+04  0.19015180185E+04 0.  0.
        3    1    3    3  502    0  0.79487869758E+03 -0.51772306313E+03 -0.45858779642E+03  0.10536470430E+04  0.10100000352E+00 0. -1.
       -3    1    3    3    0  502 -0.79487869758E+03  0.51772306313E+03 -0.32063984035E+03  0.10013387196E+04  0.10100000352E+00 0.  1.
</event>
<event>
 5   0  0.6441125E-05  0.2138616E+04  0.7818609E-02  0.8544421E-01
        3   -1    0    0  501    0  0.00000000000E+00  0.00000000000E+00  0.15656836191E+04  0.15656836224E+04  0.10100000352E+00 0. -1.
       -3   -1    0    0    0  501  0.00000000000E+00  0.00000000000E+00 -0.73030028895E+03  0.73030029593E+03  0.10100000352E+00 0.  1.
    10030    2    1    2    0    0  0.00000000000E+00  0.00000000000E+00  0.83538333018E+03  0.22959839183E+04  0.21386156375E+04 0.  0.
        3    1    3    3  502    0  0.82186215382E+03 -0.64913649589E+03  0.18597744962E+03  0.10636837933E+04  0.10100000352E+00 0.  1.
       -3    1    3    3    0  502 -0.82186215382E+03  0.64913649589E+03  0.64940588056E+03  0.12323001250E+04  0.10100000352E+00 0. -1.
</event>
<event>
 5   0  0.8486612E-05  0.2118470E+04  0.7818609E-02  0.8553150E-01
        1   -1    0    0  501    0  0.00000000000E+00  0.00000000000E+00  0.13777862735E+04  0.13777862735E+04  0.50400001928E-02 0.  1.
       -1   -1    0    0    0  501  0.00000000000E+00  0.00000000000E+00 -0.81433480025E+03  0.81433480027E+03  0.50400001928E-02 0. -1.
    10030    2    1    2    0    0  0.00000000000E+00  0.00000000000E+00  0.56345147321E+03  0.21921210737E+04  0.21184704953E+04 0.  0.
        5    1    3    3  502    0 -0.81385239939E+03 -0.55985732654E+03 -0.11387606886E+03  0.99437709303E+03  0.46999998093E+01 0. -1.
       -5    1    3    3    0  502  0.81385239939E+03  0.55985732654E+03  0.67732754208E+03  0.11977439807E+04  0.46999998093E+01 0.  1.
</event>
<event>
 5   0  0.1815400E-04  0.1617394E+04  0.7818609E-02  0.8809933E-01
        2   -1    0    0  501    0  0.00000000000E+00  0.00000000000E+00  0.13083655655E+04  0.13083655655E+04  0.25500000920E-02 0.  1.
       -2   -1    0    0    0  501  0.00000000000E+00  0.00000000000E+00 -0.49985322108E+03  0.49985322109E+03  0.25500000920E-02 0. -1.
    10030    2    1    2    0    0  0.00000000000E+00  0.00000000000E+00  0.80851234437E+03  0.18082187865E+04  0.16173938818E+04 0.  0.
        3    1    3    3  502    0 -0.71529160316E+03 -0.11380462894E+03  0.20973919949E+01  0.72429136428E+03  0.10100000352E+00 0.  1.
       -3    1    3    3    0  502  0.71529160316E+03  0.11380462894E+03  0.80641495238E+03  0.10839274223E+04  0.10100000352E+00 0. -1.
</event>
<event>
 5   0  0.1886323E-04  0.2213867E+04  0.7818609E-02  0.8512678E-01
        2   -1    0    0  501    0  0.00000000000E+00  0.00000000000E+00  0.18754741391E+04  0.18754741391E+04  0.25500000920E-02 0.  1.
       -2   -1    0    0    0  501  0.00000000000E+00  0.00000000000E+00 -0.65332919106E+03  0.65332919107E+03  0.25500000920E-02 0. -1.
    10030    2    1    2    0    0  0.00000000000E+00  0.00000000000E+00  0.12221449480E+04  0.25288033301E+04  0.22138672066E+04 0.  0.
        2    1    3    3  502    0  0.35437057180E+03  0.34170825018E+03  0.17435541482E+04  0.18117185482E+04  0.25500000920E-02 0.  1.
       -2    1    3    3    0  502 -0.35437057180E+03 -0.34170825018E+03 -0.52140920017E+03  0.71708478190E+03  0.25500000920E-02 0. -1.
</event>
<event>
 5   0  0.1810875E-04  0.2041050E+04  0.7818609E-02  0.8587666E-01
        2   -1    0    0  501    0  0.00000000000E+00  0.00000000000E+00  0.92896711724E+03  0.92896711725E+03  0.25500000920E-02 0.  1.
       -2   -1    0    0    0  501  0.00000000000E+00  0.00000000000E+00 -0.11211062436E+04  0.11211062436E+04  0.25500000920E-02 0. -1.
    10030    2    1    2    0    0  0.00000000000E+00  0.00000000000E+00 -0.19213912634E+03  0.20500733608E+04  0.20410495685E+04 0.  0.
        1    1    3    3  502    0 -0.39932196767E+03  0.88812214315E+03 -0.40279133357E+03  0.10537835800E+04  0.50400001928E-02 0.  1.
       -1    1    3    3    0  502  0.39932196767E+03 -0.88812214315E+03  0.21065220723E+03  0.99628978086E+03  0.50400001928E-02 0. -1.
</event>
<event>
 5   0  0.8237966E-05  0.1998424E+04  0.7818609E-02  0.8607358E-01
        1   -1    0    0  501    0  0.00000000000E+00  0.00000000000E+00  0.16329961599E+04  0.16329961599E+04  0.50400001928E-02 0.  1.
       -1   -1    0    0    0  501  0.00000000000E+00  0.00000000000E+00 -0.61140684265E+03  0.61140684267E+03  0.50400001928E-02 0. -1.
    10030    2    1    2    0    0  0.00000000000E+00  0.00000000000E+00  0.10215893172E+04  0.22444030026E+04  0.19984244056E+04 0.  0.
        1    1    3    3  502    0 -0.60643680827E+03  0.28211790034E+03  0.13445066973E+04  0.15016838453E+04  0.50400001928E-02 0.  1.
       -1    1    3    3    0  502  0.60643680827E+03 -0.28211790034E+03 -0.32291738011E+03  0.74271915723E+03  0.50400001928E-02 0. -1.
</event>
<event>
 5   0  0.1777590E-04  0.2098950E+04  0.7818609E-02  0.8561706E-01
        2   -1    0    0  501    0  0.00000000000E+00  0.00000000000E+00  0.24391775591E+04  0.24391775591E+04  0.25500000920E-02 0. -1.
       -2   -1    0    0    0  501  0.00000000000E+00  0.00000000000E+00 -0.45154459122E+03  0.45154459123E+03  0.25500000920E-02 0.  1.
    10030    2    1    2    0    0  0.00000000000E+00  0.00000000000E+00  0.19876329679E+04  0.28907221503E+04  0.20989496743E+04 0.  0.
        4    1    3    3  502    0 -0.10405730597E+04  0.38173214126E+02  0.11741556116E+04  0.15693605386E+04  0.12699999809E+01 0.  1.
       -4    1    3    3    0  502  0.10405730597E+04 -0.38173214126E+02  0.81347735630E+03  0.13213616118E+04  0.12699999809E+01 0. -1.
</event>
<event>
 5   0  0.1777590E-04  0.2087547E+04  0.7818609E-02  0.8566749E-01
       -2   -1    0    0    0  501  0.00000000000E+00  0.00000000000E+00  0.56115710632E+03  0.56115710632E+03  0.25500000920E-02 0. -1.
        2   -1    0    0  501    0  0.00000000000E+00  0.00000000000E+00 -0.19414574072E+04  0.19414574072E+04  0.25500000920E-02 0.  1.
    10030    2    1    2    0    0  0.00000000000E+00  0.00000000000E+00 -0.13803003008E+04  0.25026145135E+04  0.20875465223E+04 0.  0.
        4    1    3    3  502    0 -0.27814070156E+03  0.10038604605E+04 -0.76933591241E+03  0.12949816343E+04  0.12699999809E+01 0.  1.
       -4    1    3    3    0  502  0.27814070156E+03 -0.10038604605E+04 -0.61096438843E+03  0.12076328792E+04  0.12699999809E+01 0. -1.
</event>
<event>
 5   0  0.1921687E-04  0.1844226E+04  0.7818609E-02  0.8683128E-01
       -2   -1    0    0    0  501  0.00000000000E+00  0.00000000000E+00  0.62080519677E+03  0.62080519678E+03  0.25500000920E-02 0.  1.
        2   -1    0    0  501    0  0.00000000000E+00  0.00000000000E+00 -0.13696606225E+04  0.13696606225E+04  0.25500000920E-02 0. -1.
    10030    2    1    2    0    0  0.00000000000E+00  0.00000000000E+00 -0.74885542574E+03  0.19904658193E+04  0.18442260515E+04 0.  0.
        5    1    3    3  502    0 -0.66216422704E+03  0.21864152839E+03 -0.10255972923E+04  0.12402167059E+04  0.46999998093E+01 0. -1.
       -5    1    3    3    0  502  0.66216422704E+03 -0.21864152839E+03  0.27674186656E+03  0.75024911344E+03  0.46999998093E+01 0.  1.
</event>
<event>
 5   0  0.8525278E-05  0.2072245E+04  0.7818609E-02  0.8573569E-01
        1   -1    0    0  501    0  0.00000000000E+00  0.00000000000E+00  0.83723160328E+03  0.83723160329E+03  0.50400001928E-02 0. -1.
       -1   -1    0    0    0  501  0.00000000000E+00  0.00000000000E+00 -0.12822608950E+04  0.12822608951E+04  0.50400001928E-02 0.  1.
    10030    2    1    2    0    0  0.00000000000E+00  0.00000000000E+00 -0.44502929176E+03  0.21194924983E+04  0.20722445271E+04 0.  0.
        4    1    3    3  502    0 -0.79389090917E+03  0.30316045846E+02 -0.90278524326E+03  0.12025824906E+04  0.12699999809E+01 0.  1.
       -4    1    3    3    0  502  0.79389090917E+03 -0.30316045846E+02  0.45775595149E+03  0.91691000776E+03  0.12699999809E+01 0. -1.
</event>
<event>
 5   0  0.8271069E-05  0.1411393E+04  0.7818609E-02  0.8945613E-01
        1   -1    0    0  501    0  0.00000000000E+00  0.00000000000E+00  0.84434456315E+03  0.84434456317E+03  0.50400001928E-02 0. -1.
       -1   -1    0    0    0  501  0.00000000000E+00  0.00000000000E+00 -0.58981519355E+03  0.58981519357E+03  0.50400001928E-02 0.  1.
    10030    2    1    2    0    0  0.00000000000E+00  0.00000000000E+00  0.25452936960E+03  0.14341597567E+04  0.14113925775E+04 0.  0.
        2    1    3    3  502    0  0.59283895796E+03 -0.64203876988E+01 -0.26167331221E+03  0.64805260109E+03  0.25500000920E-02 0.  1.
       -2    1    3    3    0  502 -0.59283895796E+03  0.64203876988E+01  0.51620268181E+03  0.78610715565E+03  0.25500000920E-02 0. -1.
</event>
<event>
 5   0  0.1815400E-04  0.1699583E+04  0.7818609E-02  0.8761602E-01
       -2   -1    0    0    0  501  0.00000000000E+00  0.00000000000E+00  0.34528306135E+03  0.34528306136E+03  0.25500000920E-02 0.  1.
        2   -1    0    0  501    0  0.00000000000E+00  0.00000000000E+00 -0.20914603317E+04  0.20914603317E+04  0.25500000920E-02 0. -1.
    10030    2    1    2    0    0  0.00000000000E+00  0.00000000000E+00 -0.17461772704E+04  0.24367433931E+04  0.16995832737E+04 0.  0.
        3    1    3    3  502    0 -0.80007707433E+03 -0.27844745003E+03 -0.96915398095E+03  0.12872123975E+04  0.10100000352E+00 0. -1.
       -3    1    3    3    0  502  0.80007707433E+03  0.27844745003E+03 -0.77702328942E+03  0.11495309956E+04  0.10100000352E+00 0.  1.
</event>
<event>
 5   0  0.1777590E-04  0.1994367E+04  0.7818609E-02  0.8609259E-01
        2   -1    0    0  501    0  0.00000000000E+00  0.00000000000E+00  0.60077789582E+03  0.60077789583E+03  0.25500000920E-02 0.  1.
       -2   -1    0    0    0  501  0.00000000000E+00  0.00000000000E+00 -0.16551459804E+04  0.16551459804E+04  0.25500000920E-02 0. -1.
    10030    2    1    2    0    0  0.00000000000E+00  0.00000000000E+00 -0.10543680846E+04  0.22559238762E+04  0.19943671872E+04 0.  0.
        4    1    3    3  502    0  0.57446779007E+01  0.38362676718E+03 -0.15683138082E+04  0.16145625759E+04  0.12699999809E+01 0. -1.
       -4    1    3    3    0  502 -0.57446779007E+01 -0.38362676718E+03  0.51394572359E+03  0.64136130029E+03  0.12699999809E+01 0.  1.
</event>
<event>
 5   0  0.1777590E-04  0.2251757E+04  0.7818609E-02  0.8497189E-01
       -2   -1    0    0    0  501  0.00000000000E+00  0.00000000000E+00  0.82167261810E+03  0.82167261810E+03  0.25500000920E-02 0.  1.
        2   -1    0    0  501    0  0.00000000000E+00  0.00000000000E+00 -0.15427095419E+04  0.15427095419E+04  0.25500000920E-02 0. -1.
    10030    2    1    2    0    0  0.00000000000E+00  0.00000000000E+00 -0.72103692378E+03  0.23643821600E+04  0.22517568148E+04 0.  0.
        4    1    3    3  502    0  0.17246817994E+03  0.10156799932E+04  0.11634340155E+03  0.10367683066E+04  0.12699999809E+01 0.  1.
       -4    1    3    3    0  502 -0.17246817994E+03 -0.10156799932E+04 -0.83738032533E+03  0.13276138534E+04  0.12699999809E+01 0. -1.
</event>
<event>
 5   0  0.8755004E-05  0.2005536E+04  0.7818609E-02  0.8604037E-01
       -1   -1    0    0    0  501  0.00000000000E+00  0.00000000000E+00  0.90995075895E+03  0.90995075896E+03  0.50400001928E-02 0.  1.
        1   -1    0    0  501    0  0.00000000000E+00  0.00000000000E+00 -0.11050531708E+04  0.11050531708E+04  0.50400001928E-02 0. -1.
    10030    2    1    2    0    0  0.00000000000E+00  0.00000000000E+00 -0.19510241188E+03  0.20150039298E+04  0.20055363088E+04 0.  0.
        3    1    3    3  502    0 -0.44552952970E+03 -0.71395494829E+03  0.45028951840E+03  0.95445738019E+03  0.10100000352E+00 0.  1.
       -3    1    3    3    0  502  0.44552952970E+03  0.71395494829E+03 -0.64539193028E+03  0.10605465496E+04  0.10100000352E+00 0. -1.
</event>
<event>
 5   0  0.8237966E-05  0.2088670E+04  0.7818609E-02  0.8566251E-01
       -1   -1    0    0    0  501  0.00000000000E+00  0.00000000000E+00  0.95779954615E+03  0.95779954617E+03  0.50400001928E-02 0. -1.
        1   -1    0    0  501    0  0.00000000000E+00  0.00000000000E+00 -0.11386889986E+04  0.11386889986E+04  0.50400001928E-02 0.  1.
    10030    2    1    2    0    0  0.00000000000E+00  0.00000000000E+00 -0.18088945245E+03  0.20964885448E+04  0.20886702048E+04 0.  0.
        1    1    3    3  502    0 -0.16012004279E+03 -0.25789591630E+03  0.91253890614E+03  0.96170472963E+03  0.50400001928E-02 0. -1.
       -1    1    3    3    0  502  0.16012004279E+03  0.25789591630E+03 -0.10934283586E+04  0.11347838152E+04  0.50400001928E-02 0.  1.
</event>
<event>
 5   0  0.8525278E-05  0.2103858E+04  0.7818609E-02  0.8559546E-01
        1   -1    0    0  501    0  0.00000000000E+00  0.00000000000E+00  0.37088739082E+03  0.37088739085E+03  0.50400001928E-02 0. -1.
       -1   -1    0    0    0  501  0.00000000000E+00  0.00000000000E+00 -0.29835337622E+04  0.29835337622E+04  0.50400001928E-02 0.  1.
    10030    2    1    2    0    0  0.00000000000E+00  0.00000000000E+00 -0.26126463714E+04  0.33544211531E+04  0.21038584102E+04 0.  0.
        4    1    3    3  502    0  0.17917471862E+03  0.29187311628E+03 -0.28921519533E+04  0.29123595296E+04  0.12699999809E+01 0.  1.
       -4    1    3    3    0  502 -0.17917471862E+03 -0.29187311628E+03  0.27950558185E+03  0.44206162352E+03  0.12699999809E+01 0. -1.
</event>
<event>
 5   0  0.1810875E-04  0.2111854E+04  0.7818609E-02  0.8556039E-01
        2   -1    0    0  501    0  0.00000000000E+00  0.00000000000E+00  0.22925331311E+04  0.22925331311E+04  0.25500000920E-02 0. -1.
       -2   -1    0    0    0  501  0.00000000000E+00  0.00000000000E+00 -0.48635384905E+03  0.48635384906E+03  0.25500000920E-02 0.  1.
    10030    2    1    2    0    0  0.00000000000E+00  0.00000000000E+00  0.18061792821E+04  0.27788869802E+04  0.21118544575E+04 0.  0.
        1    1    3    3  502    0 -0.34514177071E+03 -0.52956243294E+03  0.20160722513E+04  0.21128432348E+04  0.50400001928E-02 0. -1.
       -1    1    3    3    0  502  0.34514177071E+03  0.52956243294E+03 -0.20989296921E+03  0.66604374542E+03  0.50400001928E-02 0.  1.
</event>
<event>
 5   0  0.1777590E-04  0.2130170E+04  0.7818609E-02  0.8548068E-01
       -2   -1    0    0    0  501  0.00000000000E+00  0.00000000000E+00  0.13996780291E+04  0.13996780291E+04  0.25500000920E-02 0. -1.
        2   -1    0    0  501    0  0.00000000000E+00  0.00000000000E+00 -0.81047669199E+03  0.81047669200E+03  0.25500000920E-02 0.  1.
    10030    2    1    2    0    0  0.00000000000E+00  0.00000000000E+00  0.58920133711E+03  0.22101547211E+04  0.21301703396E+04 0.  0.
        4    1    3    3  502    0 -0.43821504900E+02 -0.62263000065E+03 -0.60083202893E+03  0.86636550133E+03  0.12699999809E+01 0.  1.
       -4    1    3    3    0  502  0.43821504900E+02  0.62263000065E+03  0.11900333660E+04  0.13437892198E+04  0.12699999809E+01 0. -1.
</event>
<event>
 5   0  0.8486612E-05  0.2204727E+04  0.7818609E-02  0.8516463E-01
       -1   -1    0    0    0  501  0.00000000000E+00  0.00000000000E+00  0.54197748215E+03  0.54197748218E+03  0.50400001928E-02 0.  1.
        1   -1    0    0  501    0  0.00000000000E+00  0.00000000000E+00 -0.22421697082E+04  0.22421697082E+04  0.50400001928E-02 0. -1.
    10030    2    1    2    0    0  0.00000000000E+00  0.00000000000E+00 -0.17001922260E+04  0.27841471904E+04  0.22047271877E+04 0.  0.
        5    1    3    3  502    0  0.62540989668E+02 -0.10987720380E+04 -0.92968344200E+03  0.14406751054E+04  0.46999998093E+01 0.  1.
       -5    1    3    3    0  502 -0.62540989668E+02  0.10987720380E+04 -0.77050878404E+03  0.13434720850E+04  0.46999998093E+01 0. -1.
</event>
<event>
 5   0  0.1810875E-04  0.2112576E+04  0.7818609E-02  0.8555724E-01
        2   -1    0    0  501    0  0.00000000000E+00  0.00000000000E+00  0.97298682022E+03  0.97298682023E+03  0.25500000920E-02 0. -1.
       -2   -1    0    0    0  501  0.00000000000E+00  0.00000000000E+00 -0.11467207425E+04  0.11467207425E+04  0.25500000920E-02 0.  1.
    10030    2    1    2    0    0  0.00000000000E+00  0.00000000000E+00 -0.17373392229E+03  0.21197075627E+04  0.21125758391E+04 0.  0.
        1    1    3    3  502    0  0.35489961774E+03 -0.94307940890E+03  0.23104909026E+03  0.10337969783E+04  0.50400001928E-02 0. -1.
       -1    1    3    3    0  502 -0.35489961774E+03  0.94307940890E+03 -0.40478301255E+03  0.10859105845E+04  0.50400001928E-02 0.  1.
</event>
<event>
 5   0  0.8755004E-05  0.2028798E+04  0.7818609E-02  0.8593274E-01
        1   -1    0    0  501    0  0.00000000000E+00  0.00000000000E+00  0.15212758267E+04  0.15212758268E+04  0.50400001928E-02 0. -1.
       -1   -1    0    0    0  501  0.00000000000E+00  0.00000000000E+00 -0.67640962267E+03  0.67640962269E+03  0.50400001928E-02 0.  1.
    10030    2    1    2    0    0  0.00000000000E+00  0.00000000000E+00  0.84486620408E+03  0.21976854494E+04  0.20287982728E+04 0.  0.
        3    1    3    3  502    0  0.95958951934E+03 -0.31265225747E+03  0.53312630788E+03  0.11413970169E+04  0.10100000352E+00 0. -1.
       -3    1    3    3    0  502 -0.95958951934E+03  0.31265225747E+03  0.31173989620E+03  0.10562884326E+04  0.10100000352E+00 0.  1.
</event>
<event>
 5   0  0.6441125E-05  0.2013192E+04  0.7818609E-02  0.8600478E-01
        3   -1    0    0  501    0  0.00000000000E+00  0.00000000000E+00  0.77661208690E+03  0.77661209346E+03  0.10100000352E+00 0.  1.
       -3   -1    0    0    0  501  0.00000000000E+00  0.00000000000E+00 -0.13046865071E+04  0.13046865110E+04  0.10100000352E+00 0. -1.
    10030    2    1    2    0    0  0.00000000000E+00  0.00000000000E+00 -0.52807442024E+03  0.20812986045E+04  0.20131918160E+04 0.  0.
        2    1    3    3  502    0  0.27636912991E+03 -0.96675231403E+03 -0.31302581389E+03  0.10530788635E+04  0.25500000920E-02 0. -1.
       -2    1    3    3    0  502 -0.27636912991E+03  0.96675231403E+03 -0.21504860635E+03  0.10282197410E+04  0.25500000920E-02 0.  1.
</event>
<event>
 5   0  0.8486612E-05  0.1611479E+04  0.7818609E-02  0.8813527E-01
       -1   -1    0    0    0  501  0.00000000000E+00  0.00000000000E+00  0.50191048226E+03  0.50191048229E+03  0.50400001928E-02 0.  1.
        1   -1    0    0  501    0  0.00000000000E+00  0.00000000000E+00 -0.12934895068E+04  0.12934895068E+04  0.50400001928E-02 0. -1.
    10030    2    1    2    0    0  0.00000000000E+00  0.00000000000E+00 -0.79157902449E+03  0.17953999891E+04  0.16114787522E+04 0.  0.
        5    1    3    3  502    0 -0.58666717926E+03  0.20449980392E+03  0.17578874775E+03  0.64569522444E+03  0.46999998093E+01 0.  1.
       -5    1    3    3    0  502  0.58666717926E+03 -0.20449980392E+03 -0.96736777224E+03  0.11497047646E+04  0.46999998093E+01 0. -1.
</event>
<event>
 5   0  0.6441125E-05  0.2145471E+04  0.7818609E-02  0.8541473E-01
        4   -1    0    0  501    0  0.00000000000E+00  0.00000000000E+00  0.11470133133E+04  0.11470140164E+04  0.12699999809E+01 0.  1.
       -4   -1    0    0    0  501  0.00000000000E+00  0.00000000000E+00 -0.10032661529E+04  0.10032669568E+04  0.12699999809E+01 0. -1.
    10030    2    1    2    0    0  0.00000000000E+00  0.00000000000E+00  0.14374716037E+03  0.21502809732E+04  0.21454708149E+04 0.  0.
        5    1    3    3  502    0  0.16716259244E+03  0.10558097809E+04  0.16186095284E+03  0.10811561792E+04  0.46999998093E+01 0. -1.
       -5    1    3    3    0  502 -0.16716259244E+03 -0.10558097809E+04 -0.18113792470E+02  0.10691247940E+04  0.46999998093E+01 0.  1.
</event>
<event>
 5   0  0.1921687E-04  0.2118551E+04  0.7818609E-02  0.8553115E-01
        2   -1    0    0  501    0  0.00000000000E+00  0.00000000000E+00  0.15306929041E+04  0.15306929041E+04  0.25500000920E-02 0.  1.
       -2   -1    0    0    0  501  0.00000000000E+00  0.00000000000E+00 -0.73304359404E+03  0.73304359405E+03  0.25500000920E-02 0. -1.
    10030    2    1    2    0    0  0.00000000000E+00  0.00000000000E+00  0.79764931003E+03  0.22637364981E+04  0.21185510405E+04 0.  0.
        5    1    3    3  502    0  0.31331830088E+03 -0.55771955043E+03  0.13009727137E+04  0.14497487873E+04  0.46999998093E+01 0.  1.
       -5    1    3    3    0  502 -0.31331830088E+03  0.55771955043E+03 -0.50332340368E+03  0.81398771077E+03  0.46999998093E+01 0. -1.
</event>
<event>
 5   0  0.1777590E-04  0.1961939E+04  0.7818609E-02  0.8624625E-01
       -2   -1    0    0    0  501  0.00000000000E+00  0.00000000000E+00  0.61066167836E+03  0.61066167836E+03  0.25500000920E-02 0.  1.
        2   -1    0    0  501    0  0.00000000000E+00  0.00000000000E+00 -0.15758340269E+04  0.15758340269E+04  0.25500000920E-02 0. -1.
    10030    2    1    2    0    0  0.00000000000E+00  0.00000000000E+00 -0.96517234852E+03  0.21864957052E+04  0.19619392974E+04 0.  0.
        4    1    3    3  502    0  0.93200287920E+03  0.24301639501E+03 -0.27524486162E+03  0.10017223577E+04  0.12699999809E+01 0.  1.
       -4    1    3    3    0  502 -0.93200287920E+03 -0.24301639501E+03 -0.68992748690E+03  0.11847733476E+04  0.12699999809E+01 0. -1.
</event>
<event>
 5   0  0.8237966E-05  0.2037753E+04  0.7818609E-02  0.8589170E-01
        1   -1    0    0  501    0  0.00000000000E+00  0.00000000000E+00  0.16624111987E+04  0.16624111988E+04  0.50400001928E-02 0.  1.
       -1   -1    0    0    0  501  0.00000000000E+00  0.00000000000E+00 -0.62446010945E+03  0.62446010947E+03  0.50400001928E-02 0. -1.
    10030    2    1    2    0    0  0.00000000000E+00  0.00000000000E+00  0.10379510893E+04  0.22868713082E+04  0.20377531540E+04 0.  0.
        1    1    3    3  502    0  0.70624729624E+03 -0.37015912529E+03 -0.19284194337E+03  0.82036030903E+03  0.50400001928E-02 0. -1.
       -1    1    3    3    0  502 -0.70624729624E+03  0.37015912529E+03  0.12307930327E+04  0.14665109992E+04  0.50400001928E-02 0.  1.
</event>
<event>
 5   0  0.1921687E-04  0.2106208E+04  0.7818609E-02  0.8558514E-01
       -2   -1    0    0    0  501  0.00000000000E+00  0.00000000000E+00  0.68019638111E+03  0.68019638112E+03  0.25500000920E-02 0. -1.
        2   -1    0    0  501    0  0.00000000000E+00  0.00000000000E+00 -0.16304525376E+04  0.16304525376E+04  0.25500000920E-02 0.  1.
    10030    2    1    2    0    0  0.00000000000E+00  0.00000000000E+00 -0.95025615646E+03  0.23106489187E+04  0.21062078868E+04 0.  0.
        5    1    3    3  502    0 -0.20728368142E+03 -0.87748318723E+03 -0.10720595434E+04  0.14008129865E+04  0.46999998093E+01 0.  1.
       -5    1    3    3    0  502  0.20728368142E+03  0.87748318723E+03  0.12180338697E+03  0.90983593221E+03  0.46999998093E+01 0. -1.
</event>
<event>
 5   0  0.8486612E-05  0.2101460E+04  0.7818609E-02  0.8560600E-01
        1   -1    0    0  501    0  0.00000000000E+00  0.00000000000E+00  0.10350905044E+04  0.10350905044E+04  0.50400001928E-02 0.  1.
       -1   -1    0    0    0  501  0.00000000000E+00  0.00000000000E+00 -0.10666061620E+04  0.10666061620E+04  0.50400001928E-02 0. -1.
    10030    2    1    2    0    0  0.00000000000E+00  0.00000000000E+00 -0.31515657635E+02  0.21016966664E+04  0.21014603591E+04 0.  0.
        5    1    3    3  502    0 -0.36656148074E+02  0.23929731841E+03 -0.10383232611E+04  0.10661820503E+04  0.46999998093E+01 0. -1.
       -5    1    3    3    0  502  0.36656148074E+02 -0.23929731841E+03  0.10068076035E+04  0.10355146161E+04  0.46999998093E+01 0.  1.
</event>
<event>
 5   0  0.1815400E-04  0.2204038E+04  0.7818609E-02  0.8516749E-01
        2   -1    0    0  501    0  0.00000000000E+00  0.00000000000E+00  0.15022001744E+04  0.15022001744E+04  0.25500000920E-02 0.  1.
       -2   -1    0    0    0  501  0.00000000000E+00  0.00000000000E+00 -0.80844510321E+03  0.80844510321E+03  0.25500000920E-02 0. -1.
    10030    2    1    2    0    0  0.00000000000E+00  0.00000000000E+00  0.69375507118E+03  0.23106452776E+04  0.22040384525E+04 0.  0.
        3    1    3    3  502    0  0.25853774907E+03  0.29562029438E+03  0.14263478993E+04  0.14794260597E+04  0.10100000352E+00 0.  1.
       -3    1    3    3    0  502 -0.25853774907E+03 -0.29562029438E+03 -0.73259282812E+03  0.83121921787E+03  0.10100000352E+00 0. -1.
</event>
<event>
 5   0  0.1921687E-04  0.2106867E+04  0.7818609E-02  0.8558225E-01
        2   -1    0    0  501    0  0.00000000000E+00  0.00000000000E+00  0.21453024604E+04  0.21453024604E+04  0.25500000920E-02 0. -1.
       -2   -1    0    0    0  501  0.00000000000E+00  0.00000000000E+00 -0.51727980275E+03  0.51727980276E+03  0.25500000920E-02 0.  1.
    10030    2    1    2    0    0  0.00000000000E+00  0.00000000000E+00  0.16280226576E+04  0.26625822631E+04  0.21068665203E+04 0.  0.
        5    1    3    3  502    0  0.22251672825E+03  0.16470870934E+03 -0.47047099464E+03  0.54590081524E+03  0.46999998093E+01 0.  1.
       -5    1    3    3    0  502 -0.22251672825E+03 -0.16470870934E+03  0.20984936523E+04  0.21166814479E+04  0.46999998093E+01 0. -1.
</event>
<event>
 5   0  0.8525278E-05  0.2140747E+04  0.7818609E-02  0.8543503E-01
        1   -1    0    0  501    0  0.00000000000E+00  0.00000000000E+00  0.10050959410E+04  0.10050959410E+04  0.50400001928E-02 0.  1.
       -1   -1    0    0    0  501  0.00000000000E+00  0.00000000000E+00 -0.11398907868E+04  0.11398907868E+04  0.50400001928E-02 0. -1.
    10030    2    1    2    0    0  0.00000000000E+00  0.00000000000E+00 -0.13479484583E+03  0.21449867279E+04  0.21407471621E+04 0.  0.
        4    1    3    3  502    0  0.49895304487E+03  0.92571819031E+03  0.13247112750E+03  0.10599332627E+04  0.12699999809E+01 0.  1.
       -4    1    3    3    0  502 -0.49895304487E+03 -0.92571819031E+03 -0.26726597332E+03  0.10850534652E+04  0.12699999809E+01 0. -1.
</event>
<event>
 5   0  0.1815400E-04  0.2093880E+04  0.7818609E-02  0.8563944E-01
        2   -1    0    0  501    0  0.00000000000E+00  0.00000000000E+00  0.48942643204E+03  0.48942643205E+03  0.25500000920E-02 0. -1.
       -2   -1    0    0    0  501  0.00000000000E+00  0.00000000000E+00 -0.22395252318E+04  0.22395252318E+04  0.25500000920E-02 0.  1.
    10030    2    1    2    0    0  0.00000000000E+00  0.00000000000E+00 -0.17500987998E+04  0.27289516639E+04  0.20938795034E+04 0.  0.
        3    1    3    3  502    0 -0.67672395635E+03 -0.79262758652E+03 -0.10045230465E+04  0.14475083299E+04  0.10100000352E+00 0. -1.
       -3    1    3    3    0  502  0.67672395635E+03  0.79262758652E+03 -0.74557575322E+03  0.12814433339E+04  0.10100000352E+00 0.  1.
</event>
<event>
 5   0  0.1886323E-04  0.2033600E+04  0.7818609E-02  0.8591071E-01
        2   -1    0    0  501    0  0.00000000000E+00  0.00000000000E+00  0.28611989910E+04  0.28611989910E+04  0.25500000920E-02 0.  1.
       -2   -1    0    0    0  501  0.00000000000E+00  0.00000000000E+00 -0.36134578727E+03  0.36134578728E+03  0.25500000920E-02 0. -1.
    10030    2    1    2    0    0  0.00000000000E+00  0.00000000000E+00  0.24998532037E+04  0.32225447783E+04  0.20335999626E+04 0.  0.
        2    1    3    3  502    0  0.56473628669E+03  0.99644963709E+02  0.25804913255E+04  0.26434431473E+04  0.25500000920E-02 0.  1.
       -2    1    3    3    0  502 -0.56473628669E+03 -0.99644963709E+02 -0.80638121744E+02  0.57910163096E+03  0.25500000920E-02 0. -1.
</event>
<event>
 5   0  0.1777590E-04  0.2110835E+04  0.7818609E-02  0.8556485E-01
       -2   -1    0    0    0  501  0.00000000000E+00  0.00000000000E+00  0.55343965383E+03  0.55343965383E+03  0.25500000920E-02 0. -1.
        2   -1    0    0  501    0  0.00000000000E+00  0.00000000000E+00 -0.20126963809E+04  0.20126963809E+04  0.25500000920E-02 0.  1.
    10030    2    1    2    0    0  0.00000000000E+00  0.00000000000E+00 -0.14592567271E+04  0.25661360348E+04  0.21108348948E+04 0.  0.
        4    1    3    3  502    0  0.54503695058E+03  0.29405708912E+03  0.30932662455E+03  0.69225676069E+03  0.12699999809E+01 0. -1.
       -4    1    3    3    0  502 -0.54503695058E+03 -0.29405708912E+03 -0.17685833516E+04  0.18738792741E+04  0.12699999809E+01 0.  1.
</event>
<event>
 5   0  0.1921687E-04  0.2048418E+04  0.7818609E-02  0.8584312E-01
       -2   -1    0    0    0  501  0.00000000000E+00  0.00000000000E+00  0.97202848338E+03  0.97202848338E+03  0.25500000920E-02 0.  1.
        2   -1    0    0  501    0  0.00000000000E+00  0.00000000000E+00 -0.10791906516E+04  0.10791906516E+04  0.25500000920E-02 0. -1.
    10030    2    1    2    0    0  0.00000000000E+00  0.00000000000E+00 -0.10716216817E+03  0.20512191349E+04  0.20484179772E+04 0.  0.
        5    1    3    3  502    0  0.83012019904E+03  0.11500086971E+03  0.53600008501E+03  0.99480798449E+03  0.46999998093E+01 0.  1.
       -5    1    3    3    0  502 -0.83012019904E+03 -0.11500086971E+03 -0.64316225318E+03  0.10564111505E+04  0.46999998093E+01 0. -1.
</event>
<event>
 5   0  0.1810875E-04  0.1817763E+04  0.7818609E-02  0.8696910E-01
       -2   -1    0    0    0  501  0.00000000000E+00  0.00000000000E+00  0.89422300478E+03  0.89422300479E+03  0.25500000920E-02 0.  1.
        2   -1    0    0  501    0  0.00000000000E+00  0.00000000000E+00 -0.92378035998E+03  0.92378035999E+03  0.25500000920E-02 0. -1.
    10030    2    1    2    0    0  0.00000000000E+00  0.00000000000E+00 -0.29557355202E+02  0.18180033648E+04  0.18177630751E+04 0.  0.
        1    1    3    3  502    0  0.59461561178E+03  0.46086266571E+03  0.49529219731E+03  0.90070887814E+03  0.50400001928E-02 0. -1.
       -1    1    3    3    0  502 -0.59461561178E+03 -0.46086266571E+03 -0.52484955251E+03  0.91729448663E+03  0.50400001928E-02 0.  1.
</event>
<event>
 5   0  0.1810875E-04  0.2104575E+04  0.7818609E-02  0.8559231E-01
       -2   -1    0    0    0  501  0.00000000000E+00  0.00000000000E+00  0.68707749106E+03  0.68707749107E+03  0.25500000920E-02 0.  1.
        2   -1    0    0  501    0  0.00000000000E+00  0.00000000000E+00 -0.16116215577E+04  0.16116215577E+04  0.25500000920E-02 0. -1.
    10030    2    1    2    0    0  0.00000000000E+00  0.00000000000E+00 -0.92454406663E+03  0.22986990488E+04  0.21045749180E+04 0.  0.
        1    1    3    3  502    0 -0.49367953431E+03 -0.16473574527E+03  0.53666501513E+03  0.74757386716E+03  0.50400001928E-02 0.  1.
       -1    1    3    3    0  502  0.49367953431E+03  0.16473574527E+03 -0.14612090818E+04  0.15511251816E+04  0.50400001928E-02 0. -1.
</event>
<event>
 5   0  0.8237966E-05  0.2041725E+04  0.7818609E-02  0.8587358E-01
       -1   -1    0    0    0  501  0.00000000000E+00  0.00000000000E+00  0.64292722278E+03  0.64292722280E+03  0.50400001928E-02 0. -1.
        1   -1    0    0  501    0  0.00000000000E+00  0.00000000000E+00 -0.16209616099E+04  0.16209616100E+04  0.50400001928E-02 0.  1.
    10030    2    1    2    0    0  0.00000000000E+00  0.00000000000E+00 -0.97803438716E+03  0.22638888327E+04  0.20417251001E+04 0.  0.
        1    1    3    3  502    0  0.70983281562E+03 -0.63318437043E+03 -0.78045307384E+02  0.95439831471E+03  0.50400001928E-02 0. -1.
       -1    1    3    3    0  502 -0.70983281562E+03  0.63318437043E+03 -0.89998907978E+03  0.13094905180E+04  0.50400001928E-02 0.  1.
</event>
<event>
 5   0  0.8271069E-05  0.2086990E+04  0.7818609E-02  0.8566996E-01
       -1   -1    0    0    0  501  0.00000000000E+00  0.00000000000E+00  0.12415493083E+04  0.12415493083E+04  0.50400001928E-02 0.  1.
        1   -1    0    0  501    0  0.00000000000E+00  0.00000000000E+00 -0.87703481182E+03  0.87703481184E+03  0.50400001928E-02 0. -1.
    10030    2    1    2    0    0  0.00000000000E+00  0.00000000000E+00  0.36451449649E+03  0.21185841202E+04  0.20869901428E+04 0.  0.
        2    1    3    3  502    0 -0.42064695128E+03 -0.34845063791E+03 -0.72031466986E+03  0.90399940724E+03  0.25500000920E-02 0. -1.
       -2    1    3    3    0  502  0.42064695128E+03  0.34845063791E+03  0.10848291664E+04  0.12145847129E+04  0.25500000920E-02 0.  1.
</event>
<event>
 5   0  0.1810875E-04  0.2101287E+04  0.7818609E-02  0.8560676E-01
        2   -1    0    0  501    0  0.00000000000E+00  0.00000000000E+00  0.12558546597E+04  0.12558546597E+04  0.25500000920E-02 0. -1.
       -2   -1    0    0    0  501  0.00000000000E+00  0.00000000000E+00 -0.87896489957E+03  0.87896489957E+03  0.25500000920E-02 0.  1.
    10030    2    1    2    0    0  0.00000000000E+00  0.00000000000E+00  0.37688976016E+03  0.21348195593E+04  0.21012873815E+04 0.  0.
        1    1    3    3  502    0  0.82917660227E+03 -0.61266746884E+03 -0.17162764549E+02  0.10311109667E+04  0.50400001928E-02 0.  1.
       -1    1    3    3    0  502 -0.82917660227E+03  0.61266746884E+03  0.39405252471E+03  0.11037085926E+04  0.50400001928E-02 0. -1.
</event>
<event>
 5   0  0.8486612E-05  0.1851220E+04  0.7818609E-02  0.8679526E-01
       -1   -1    0    0    0  501  0.00000000000E+00  0.00000000000E+00  0.75563496183E+03  0.75563496185E+03  0.50400001928E-02 0.  1.
        1   -1    0    0  501    0  0.00000000000E+00  0.00000000000E+00 -0.11338193448E+04  0.11338193448E+04  0.50400001928E-02 0. -1.
    10030    2    1    2    0    0  0.00000000000E+00  0.00000000000E+00 -0.37818438295E+03  0.18894543066E+04  0.18512196383E+04 0.  0.
        5    1    3    3  502    0  0.87455274792E+03  0.37132583259E+02 -0.49615483932E+03  0.10061873842E+04  0.46999998093E+01 0. -1.
       -5    1    3    3    0  502 -0.87455274792E+03 -0.37132583259E+02  0.11797045638E+03  0.88326692240E+03  0.46999998093E+01 0.  1.
</event>
<event>
 5   0  0.1921687E-04  0.2146558E+04  0.7818609E-02  0.8541007E-01
        2   -1    0    0  501    0  0.00000000000E+00  0.00000000000E+00  0.17074440112E+04  0.17074440112E+04  0.25500000920E-02 0.  1.
       -2   -1    0    0    0  501  0.00000000000E+00  0.00000000000E+00 -0.67465050693E+03  0.67465050694E+03  0.25500000920E-02 0. -1.
    10030    2    1    2    0    0  0.00000000000E+00  0.00000000000E+00  0.10327935043E+04  0.23820945181E+04  0.21465581452E+04 0.  0.
        5    1    3    3  502    0  0.43181989668E+03  0.59711120139E+03  0.13823366991E+04  0.15664887647E+04  0.46999998093E+01 0.  1.
       -5    1    3    3    0  502 -0.43181989668E+03 -0.59711120139E+03 -0.34954319490E+03  0.81560575346E+03  0.46999998093E+01 0. -1.
</event>
<event>
 5   0  0.8755004E-05  0.2174799E+04  0.7818609E-02  0.8528991E-01
        1   -1    0    0  501    0  0.00000000000E+00  0.00000000000E+00  0.19340736497E+04  0.19340736498E+04  0.50400001928E-02 0. -1.
       -1   -1    0    0    0  501  0.00000000000E+00  0.00000000000E+00 -0.61137164942E+03  0.61137164944E+03  0.50400001928E-02 0.  1.
    10030    2    1    2    0    0  0.00000000000E+00  0.00000000000E+00  0.13227020003E+04  0.25454452992E+04  0.21747991148E+04 0.  0.
        3    1    3    3  502    0  0.10102231304E+04  0.35730138140E+03  0.44482901986E+03  0.11602102901E+04  0.10100000352E+00 0.  1.
       -3    1    3    3    0  502 -0.10102231304E+04 -0.35730138140E+03  0.87787298047E+03  0.13852350090E+04  0.10100000352E+00 0. -1.
</event>
<event>
 5   0  0.1886323E-04  0.2092802E+04  0.7818609E-02  0.8564421E-01
        2   -1    0    0  501    0  0.00000000000E+00  0.00000000000E+00  0.90605463909E+03  0.90605463909E+03  0.25500000920E-02 0.  1.
       -2   -1    0    0    0  501  0.00000000000E+00  0.00000000000E+00 -0.12084867313E+04  0.12084867313E+04  0.25500000920E-02 0. -1.
    10030    2    1    2    0    0  0.00000000000E+00  0.00000000000E+00 -0.30243209217E+03  0.21145413704E+04  0.20928019583E+04 0.  0.
        2    1    3    3  502    0  0.10258583966E+04  0.20004310231E+03 -0.20226129482E+03  0.10645714274E+04  0.25500000920E-02 0.  1.
       -2    1    3    3    0  502 -0.10258583966E+04 -0.20004310231E+03 -0.10017079735E+03  0.10499699430E+04  0.25500000920E-02 0. -1.
</event>
<event>
 5   0  0.8525278E-05  0.1535603E+04  0.7818609E-02  0.8861117E-01
        1   -1    0    0  501    0  0.00000000000E+00  0.00000000000E+00  0.10019038286E+04  0.10019038287E+04  0.50400001928E-02 0.  1.
       -1   -1    0    0    0  501  0.00000000000E+00  0.00000000000E+00 -0.58839858056E+03  0.58839858058E+03  0.50400001928E-02 0. -1.
    10030    2    1    2    0    0  0.00000000000E+00  0.00000000000E+00  0.41350524808E+03  0.15903024092E+04  0.15356025406E+04 0.  0.
        4    1    3    3  502    0 -0.16141635663E+03  0.59499698605E+03  0.68070123302E+03  0.91838577686E+03  0.12699999809E+01 0.  1.
       -4    1    3    3    0  502  0.16141635663E+03 -0.59499698605E+03 -0.26719598494E+03  0.67191663238E+03  0.12699999809E+01 0. -1.
</event>
<event>
 5   0  0.8486612E-05  0.2079850E+04  0.7818609E-02  0.8570172E-01
        1   -1    0    0  501    0  0.00000000000E+00  0.00000000000E+00  0.14363804741E+04  0.14363804741E+04  0.50400001928E-02 0.  1.
       -1   -1    0    0    0  501  0.00000000000E+00  0.00000000000E+00 -0.75289513817E+03  0.75289513819E+03  0.50400001928E-02 0. -1.
    10030    2    1    2    0    0  0.00000000000E+00  0.00000000000E+00  0.68348533595E+03  0.21892756123E+04  0.20798498749E+04 0.  0.
        5    1    3    3  502    0 -0.24026517889E+03  0.23614484815E+03 -0.69385350084E+03  0.77132776179E+03  0.46999998093E+01 0. -1.
       -5    1    3    3    0  502  0.24026517889E+03 -0.23614484815E+03  0.13773388368E+04  0.14179478505E+04  0.46999998093E+01 0.  1.
</event>
<event>
 5   0  0.8237966E-05  0.2092303E+04  0.7818609E-02  0.8564642E-01
        1   -1    0    0  501    0  0.00000000000E+00  0.00000000000E+00  0.93438492481E+03  0.93438492482E+03  0.50400001928E-02 0.  1.
       -1   -1    0    0    0  501  0.00000000000E+00  0.00000000000E+00 -0.11712866405E+04  0.11712866405E+04  0.50400001928E-02 0. -1.
    10030    2    1    2    0    0  0.00000000000E+00  0.00000000000E+00 -0.23690171567E+03  0.21056715653E+04  0.20923026354E+04 0.  0.
        1    1    3    3  502    0  0.63879806005E+03 -0.32178627817E+03  0.64985571643E+03  0.96639630719E+03  0.50400001928E-02 0.  1.
       -1    1    3    3    0  502 -0.63879806005E+03  0.32178627817E+03 -0.88675743211E+03  0.11392752581E+04  0.50400001928E-02 0. -1.
</event>
<event>
 5   0  0.8271069E-05  0.2143550E+04  0.7818609E-02  0.8542298E-01
        1   -1    0    0  501    0  0.00000000000E+00  0.00000000000E+00  0.26900600245E+04  0.26900600245E+04  0.50400001928E-02 0.  1.
       -1   -1    0    0    0  501  0.00000000000E+00  0.00000000000E+00 -0.42701692964E+03  0.42701692967E+03  0.50400001928E-02 0. -1.
    10030    2    1    2    0    0  0.00000000000E+00  0.00000000000E+00  0.22630430948E+04  0.31170769542E+04  0.21435495537E+04 0.  0.
        2    1    3    3  502    0 -0.83746563957E+03 -0.55476552746E+03  0.58822424614E+03  0.11640967536E+04  0.25500000920E-02 0. -1.
       -2    1    3    3    0  502  0.83746563957E+03  0.55476552746E+03  0.16748188487E+04  0.19529802006E+04  0.25500000920E-02 0.  1.
</event>
<event>
 5   0  0.1815400E-04  0.2092149E+04  0.7818609E-02  0.8564710E-01
       -2   -1    0    0    0  501  0.00000000000E+00  0.00000000000E+00  0.76972810162E+03  0.76972810163E+03  0.25500000920E-02 0.  1.
        2   -1    0    0  501    0  0.00000000000E+00  0.00000000000E+00 -0.14216337943E+04  0.14216337943E+04  0.25500000920E-02 0. -1.
    10030    2    1    2    0    0  0.00000000000E+00  0.00000000000E+00 -0.65190569270E+03  0.21913618960E+04  0.20921486388E+04 0.  0.
        3    1    3    3  502    0  0.15209726571E+03  0.84370768146E+03 -0.95379041902E+03  0.12824556147E+04  0.10100000352E+00 0. -1.
       -3    1    3    3    0  502 -0.15209726571E+03 -0.84370768146E+03  0.30188472631E+03  0.90890628129E+03  0.10100000352E+00 0.  1.
</event>
<event>
 5   0  0.1810875E-04  0.2093822E+04  0.7818609E-02  0.8563970E-01
        2   -1    0    0  501    0  0.00000000000E+00  0.00000000000E+00  0.74808047034E+03  0.74808047034E+03  0.25500000920E-02 0. -1.
       -2   -1    0    0    0  501  0.00000000000E+00  0.00000000000E+00 -0.14651130929E+04  0.14651130929E+04  0.25500000920E-02 0.  1.
    10030    2    1    2    0    0  0.00000000000E+00  0.00000000000E+00 -0.71703262261E+03  0.22131935633E+04  0.20938218565E+04 0.  0.
        1    1    3    3  502    0 -0.38993615433E+03  0.77209739038E+03 -0.98191821497E+03  0.13085671422E+04  0.50400001928E-02 0.  1.
       -1    1    3    3    0  502  0.38993615433E+03 -0.77209739038E+03  0.26488559237E+03  0.90462642110E+03  0.50400001928E-02 0. -1.
</event>
<event>
 5   0  0.8271069E-05  0.2063609E+04  0.7818609E-02  0.8577446E-01
        1   -1    0    0  501    0  0.00000000000E+00  0.00000000000E+00  0.82713091561E+03  0.82713091562E+03  0.50400001928E-02 0.  1.
       -1   -1    0    0    0  501  0.00000000000E+00  0.00000000000E+00 -0.12871240732E+04  0.12871240732E+04  0.50400001928E-02 0. -1.
    10030    2    1    2    0    0  0.00000000000E+00  0.00000000000E+00 -0.45999315762E+03  0.21142549889E+04  0.20636085997E+04 0.  0.
        2    1    3    3  502    0  0.67889590709E+03 -0.46505178776E+03  0.40773269318E+03  0.91837833547E+03  0.25500000920E-02 0.  1.
       -2    1    3    3    0  502 -0.67889590709E+03  0.46505178776E+03 -0.86772585080E+03  0.11958766534E+04  0.25500000920E-02 0. -1.
</event>
<event>
 5   0  0.8525278E-05  0.2165930E+04  0.7818609E-02  0.8532744E-01
       -1   -1    0    0    0  501  0.00000000000E+00  0.00000000000E+00  0.60378718679E+03  0.60378718681E+03  0.50400001928E-02 0.  1.
        1   -1    0    0  501    0  0.00000000000E+00  0.00000000000E+00 -0.19424279353E+04  0.19424279353E+04  0.50400001928E-02 0. -1.
    10030    2    1    2    0    0  0.00000000000E+00  0.00000000000E+00 -0.13386407485E+04  0.25462151221E+04  0.21659299145E+04 0.  0.
        4    1    3    3  502    0  0.30258829596E+03 -0.74061558600E+03  0.18872152314E+03  0.82200276720E+03  0.12699999809E+01 0.  1.
       -4    1    3    3    0  502 -0.30258829596E+03  0.74061558600E+03 -0.15273622717E+04  0.17242123549E+04  0.12699999809E+01 0. -1.
</event>
<event>
 5   0  0.8755004E-05  0.2120503E+04  0.7818609E-02  0.8552265E-01
       -1   -1    0    0    0  501  0.00000000000E+00  0.00000000000E+00  0.10936438947E+04  0.10936438947E+04  0.50400001928E-02 0.  1.
        1   -1    0    0  501    0  0.00000000000E+00  0.00000000000E+00 -0.10278782637E+04  0.10278782637E+04  0.50400001928E-02 0. -1.
    10030    2    1    2    0    0  0.00000000000E+00  0.00000000000E+00  0.65765631059E+02  0.21215221584E+04  0.21205025703E+04 0.  0.
        3    1    3    3  502    0  0.89133468745E+03 -0.10062386865E+02  0.60722678194E+03  0.10785653210E+04  0.10100000352E+00 0.  1.
       -3    1    3    3    0  502 -0.89133468745E+03  0.10062386865E+02 -0.54146115088E+03  0.10429568375E+04  0.10100000352E+00 0. -1.
</event>
<event>
 5   0  0.8525278E-05  0.2120939E+04  0.7818609E-02  0.8552075E-01
        1   -1    0    0  501    0  0.00000000000E+00  0.00000000000E+00  0.15228642542E+04  0.15228642542E+04  0.50400001928E-02 0.  1.
       -1   -1    0    0    0  501  0.00000000000E+00  0.00000000000E+00 -0.73847390744E+03  0.73847390746E+03  0.50400001928E-02 0. -1.
    10030    2    1    2    0    0  0.00000000000E+00  0.00000000000E+00  0.78439034677E+03  0.22613381617E+04  0.21209389584E+04 0.  0.
        4    1    3    3  502    0 -0.75176019518E+03 -0.30091838357E+03  0.11222858935E+04  0.13839156420E+04  0.12699999809E+01 0.  1.
       -4    1    3    3    0  502  0.75176019518E+03  0.30091838357E+03 -0.33789554671E+03  0.87742251966E+03  0.12699999809E+01 0. -1.
</event>
<event>
 5   0  0.1886323E-04  0.2083714E+04  0.7818609E-02  0.8568451E-01
        2   -1    0    0  501    0  0.00000000000E+00  0.00000000000E+00  0.19242956371E+04  0.19242956371E+04  0.25500000920E-02 0. -1.
       -2   -1    0    0    0  501  0.00000000000E+00  0.00000000000E+00 -0.56408509660E+03  0.56408509660E+03  0.25500000920E-02 0.  1.
    10030    2    1    2    0    0  0.00000000000E+00  0.00000000000E+00  0.13602105405E+04  0.24883807337E+04  0.20837144626E+04 0.  0.
        2    1    3    3  502    0  0.75824405809E+03  0.22077264217E+03  0.14916300207E+04  0.16877898951E+04  0.25500000920E-02 0. -1.
       -2    1    3    3    0  502 -0.75824405809E+03 -0.22077264217E+03 -0.13141948020E+03  0.80059083865E+03  0.25500000920E-02 0.  1.
</event>
<event>
 5   0  0.1810875E-04  0.1887954E+04  0.7818609E-02  0.8660876E-01
        2   -1    0    0  501    0  0.00000000000E+00  0.00000000000E+00  0.14795102179E+04  0.14795102179E+04  0.25500000920E-02 0. -1.
       -2   -1    0    0    0  501  0.00000000000E+00  0.00000000000E+00 -0.60228910056E+03  0.60228910057E+03  0.25500000920E-02 0.  1.
    10030    2    1    2    0    0  0.00000000000E+00  0.00000000000E+00  0.87722111730E+03  0.20817993184E+04  0.18879543198E+04 0.  0.
        1    1    3    3  502    0 -0.16598847110E+03 -0.87353810335E+03  0.89092466401E+02  0.89362098126E+03  0.50400001928E-02 0.  1.
       -1    1    3    3    0  502  0.16598847110E+03  0.87353810335E+03  0.78812865090E+03  0.11881783372E+04  0.50400001928E-02 0. -1.
</event>
<event>
 5   0  0.8237966E-05  0.2073515E+04  0.7818609E-02  0.8573001E-01
        1   -1    0    0  501    0  0.00000000000E+00  0.00000000000E+00  0.10759571889E+04  0.10759571889E+04  0.50400001928E-02 0.  1.
       -1   -1    0    0    0  501  0.00000000000E+00  0.00000000000E+00 -0.99898607270E+03  0.99898607271E+03  0.50400001928E-02 0. -1.
    10030    2    1    2    0    0  0.00000000000E+00  0.00000000000E+00  0.76971116173E+02  0.20749432616E+04  0.20735151280E+04 0.  0.
        1    1    3    3  502    0  0.47516743217E+03 -0.73568179993E+03 -0.51674291985E+03  0.10168751372E+04  0.50400001928E-02 0. -1.
       -1    1    3    3    0  502 -0.47516743217E+03  0.73568179993E+03  0.59371403602E+03  0.10580681244E+04  0.50400001928E-02 0.  1.
</event>
<event>
 5   0  0.1886323E-04  0.1987399E+04  0.7818609E-02  0.8612535E-01
        2   -1    0    0  501    0  0.00000000000E+00  0.00000000000E+00  0.74825263164E+03  0.74825263165E+03  0.25500000920E-02 0.  1.
       -2   -1    0    0    0  501  0.00000000000E+00  0.00000000000E+00 -0.13196590970E+04  0.13196590970E+04  0.25500000920E-02 0. -1.
    10030    2    1    2    0    0  0.00000000000E+00  0.00000000000E+00 -0.57140646539E+03  0.20679117287E+04  0.19873986940E+04 0.  0.
        2    1    3    3  502    0  0.29012845715E+03 -0.16458748011E+03  0.68825959819E+03  0.76482993846E+03  0.25500000920E-02 0.  1.
       -2    1    3    3    0  502 -0.29012845715E+03  0.16458748011E+03 -0.12596660636E+04  0.13030817902E+04  0.25500000920E-02 0. -1.
</event>
<event>
 5   0  0.8755004E-05  0.1808803E+04  0.7818609E-02  0.8701632E-01
       -1   -1    0    0    0  501  0.00000000000E+00  0.00000000000E+00  0.65963717351E+03  0.65963717353E+03  0.50400001928E-02 0. -1.
        1   -1    0    0  501    0  0.00000000000E+00  0.00000000000E+00 -0.12399881878E+04  0.12399881878E+04  0.50400001928E-02 0.  1.
    10030    2    1    2    0    0  0.00000000000E+00  0.00000000000E+00 -0.58035101424E+03  0.18996253613E+04  0.18088032545E+04 0.  0.
        3    1    3    3  502    0  0.69062123636E+03  0.11912837637E+03  0.31018625214E+03  0.76639727517E+03  0.10100000352E+00 0. -1.
       -3    1    3    3    0  502 -0.69062123636E+03 -0.11912837637E+03 -0.89053726638E+03  0.11332280861E+04  0.10100000352E+00 0.  1.
</event>
<event>
 5   0  0.1810875E-04  0.2038502E+04  0.7818609E-02  0.8588828E-01
       -2   -1    0    0    0  501  0.00000000000E+00  0.00000000000E+00  0.73700518894E+03  0.73700518894E+03  0.25500000920E-02 0. -1.
        2   -1    0    0  501    0  0.00000000000E+00  0.00000000000E+00 -0.14095872170E+04  0.14095872170E+04  0.25500000920E-02 0.  1.
    10030    2    1    2    0    0  0.00000000000E+00  0.00000000000E+00 -0.67258202811E+03  0.21465924060E+04  0.20385024829E+04 0.  0.
        1    1    3    3  502    0 -0.13445038674E+03 -0.41794108964E+03 -0.13049138236E+04  0.13767903791E+04  0.50400001928E-02 0.  1.
       -1    1    3    3    0  502  0.13445038674E+03  0.41794108964E+03  0.63233179553E+03  0.76980202686E+03  0.50400001928E-02 0. -1.
</event>
<event>
 5   0  0.8755004E-05  0.2074485E+04  0.7818609E-02  0.8572567E-01
       -1   -1    0    0    0  501  0.00000000000E+00  0.00000000000E+00  0.64593802211E+03  0.64593802213E+03  0.50400001928E-02 0.  1.
        1   -1    0    0  501    0  0.00000000000E+00  0.00000000000E+00 -0.16655959752E+04  0.16655959752E+04  0.50400001928E-02 0. -1.
    10030    2    1    2    0    0  0.00000000000E+00  0.00000000000E+00 -0.10196579531E+04  0.23115339974E+04  0.20744847745E+04 0.  0.
        3    1    3    3  502    0 -0.77342235403E+03  0.45959195740E+03 -0.10850172212E+04  0.14094925631E+04  0.10100000352E+00 0.  1.
       -3    1    3    3    0  502  0.77342235403E+03 -0.45959195740E+03  0.65359268033E+02  0.90204143427E+03  0.10100000352E+00 0. -1.
</event>
<event>
 5   0  0.1921687E-04  0.2074911E+04  0.7818609E-02  0.8572377E-01
        2   -1    0    0  501    0  0.00000000000E+00  0.00000000000E+00  0.11065494129E+04  0.11065494129E+04  0.25500000920E-02 0. -1.
       -2   -1    0    0    0  501  0.00000000000E+00  0.00000000000E+00 -0.97267582734E+03  0.97267582734E+03  0.25500000920E-02 0.  1.
    10030    2    1    2    0    0  0.00000000000E+00  0.00000000000E+00  0.13387358558E+03  0.20792252403E+04  0.20749109530E+04 0.  0.
        5    1    3    3  502    0 -0.56868001742E+03 -0.39247198591E+03 -0.70853307833E+03  0.98968299724E+03  0.46999998093E+01 0.  1.
       -5    1    3    3    0  502  0.56868001742E+03  0.39247198591E+03  0.84240666391E+03  0.10895422430E+04  0.46999998093E+01 0. -1.
</event>
<event>
 5   0  0.1810875E-04  0.2192991E+04  0.7818609E-02  0.8521351E-01
        2   -1    0    0  501    0  0.00000000000E+00  0.00000000000E+00  0.93999773970E+03  0.93999773970E+03  0.25500000920E-02 0.  1.
       -2   -1    0    0    0  501  0.00000000000E+00  0.00000000000E+00 -0.12790483046E+04  0.12790483046E+04  0.25500000920E-02 0. -1.
    10030    2    1    2    0    0  0.00000000000E+00  0.00000000000E+00 -0.33905056487E+03  0.22190460443E+04  0.21929911220E+04 0.  0.
        1    1    3    3  502    0 -0.40352559196E+03 -0.10350960245E+03  0.85680111377E+03  0.95270944665E+03  0.50400001928E-02 0.  1.
       -1    1    3    3    0  502  0.40352559196E+03  0.10350960245E+03 -0.11958516786E+04  0.12663365976E+04  0.50400001928E-02 0. -1.
</event>
<event>
 5   0  0.8271069E-05  0.1549676E+04  0.7818609E-02  0.8852075E-01
       -1   -1    0    0    0  501  0.00000000000E+00  0.00000000000E+00  0.12204517896E+04  0.12204517896E+04  0.50400001928E-02 0.  1.
        1   -1    0    0  501    0  0.00000000000E+00  0.00000000000E+00 -0.49192779035E+03  0.49192779038E+03  0.50400001928E-02 0. -1.
    10030    2    1    2    0    0  0.00000000000E+00  0.00000000000E+00  0.72852399924E+03  0.17123795800E+04  0.15496762915E+04 0.  0.
        2    1    3    3  502    0 -0.98646348974E+02 -0.75596645581E+03  0.51720566781E+03  0.92125896864E+03  0.25500000920E-02 0. -1.
       -2    1    3    3    0  502  0.98646348974E+02  0.75596645581E+03  0.21131833143E+03  0.79112061134E+03  0.25500000920E-02 0.  1.
</event>
<event>
 5   0  0.1886323E-04  0.2114119E+04  0.7818609E-02  0.8555049E-01
        2   -1    0    0  501    0  0.00000000000E+00  0.00000000000E+00  0.19983342690E+04  0.19983342690E+04  0.25500000920E-02 0.  1.
       -2   -1    0    0    0  501  0.00000000000E+00  0.00000000000E+00 -0.55915315737E+03  0.55915315737E+03  0.25500000920E-02 0. -1.
    10030    2    1    2    0    0  0.00000000000E+00  0.00000000000E+00  0.14391811116E+04  0.25574874264E+04  0.21141191225E+04 0.  0.
        2    1    3    3  502    0 -0.28452399749E+03 -0.99501507743E+03  0.45910484852E+03  0.11321599584E+04  0.25500000920E-02 0. -1.
       -2    1    3    3    0  502  0.28452399749E+03  0.99501507743E+03  0.98007626312E+03  0.14253274680E+04  0.25500000920E-02 0.  1.
</event>
<event>
 5   0  0.1810875E-04  0.2098007E+04  0.7818609E-02  0.8562122E-01
        2   -1    0    0  501    0  0.00000000000E+00  0.00000000000E+00  0.14506224073E+04  0.14506224073E+04  0.25500000920E-02 0. -1.
       -2   -1    0    0    0  501  0.00000000000E+00  0.00000000000E+00 -0.75857668762E+03  0.75857668763E+03  0.25500000920E-02 0.  1.
    10030    2    1    2    0    0  0.00000000000E+00  0.00000000000E+00  0.69204571970E+03  0.22091990950E+04  0.20980069978E+04 0.  0.
        1    1    3    3  502    0  0.98360337391E+03 -0.31197055707E+03  0.54472215123E+03  0.11668433690E+04  0.50400001928E-02 0.  1.
       -1    1    3    3    0  502 -0.98360337391E+03  0.31197055707E+03  0.14732356847E+03  0.10423557260E+04  0.50400001928E-02 0. -1.
</event>
<event>
 5   0  0.8271069E-05  0.2156671E+04  0.7818609E-02  0.8536682E-01
       -1   -1    0    0    0  501  0.00000000000E+00  0.00000000000E+00  0.64443823644E+03  0.64443823646E+03  0.50400001928E-02 0. -1.
        1   -1    0    0  501    0  0.00000000000E+00  0.00000000000E+00 -0.18043744676E+04  0.18043744676E+04  0.50400001928E-02 0.  1.
    10030    2    1    2    0    0  0.00000000000E+00  0.00000000000E+00 -0.11599362312E+04  0.24488127041E+04  0.21566714166E+04 0.  0.
        2    1    3    3  502    0  0.74510313821E+03  0.28144458902E+03 -0.14053604915E+04  0.16153723578E+04  0.25500000920E-02 0.  1.
       -2    1    3    3    0  502 -0.74510313821E+03 -0.28144458902E+03  0.24542426031E+03  0.83344034629E+03  0.25500000920E-02 0. -1.
</event>
<event>
 5   0  0.8525278E-05  0.2090026E+04  0.7818609E-02  0.8565650E-01
        1   -1    0    0  501    0  0.00000000000E+00  0.00000000000E+00  0.41903013101E+03  0.41903013104E+03  0.50400001928E-02 0. -1.
       -1   -1    0    0    0  501  0.00000000000E+00  0.00000000000E+00 -0.26061422789E+04  0.26061422789E+04  0.50400001928E-02 0.  1.
    10030    2    1    2    0    0  0.00000000000E+00  0.00000000000E+00 -0.21871121479E+04  0.30251724099E+04  0.20900259717E+04 0.  0.
        4    1    3    3  502    0 -0.46471352101E+03  0.68205559547E+02 -0.24447483737E+04  0.24894591539E+04  0.12699999809E+01 0.  1.
       -4    1    3    3    0  502  0.46471352101E+03 -0.68205559547E+02  0.25763622586E+03  0.53571325607E+03  0.12699999809E+01 0. -1.
</event>
<event>
 5   0  0.1921687E-04  0.2102014E+04  0.7818609E-02  0.8560357E-01
        2   -1    0    0  501    0  0.00000000000E+00  0.00000000000E+00  0.16928421940E+04  0.16928421940E+04  0.25500000920E-02 0.  1.
       -2   -1    0    0    0  501  0.00000000000E+00  0.00000000000E+00 -0.65252160086E+03  0.65252160087E+03  0.25500000920E-02 0. -1.
    10030    2    1    2    0    0  0.00000000000E+00  0.00000000000E+00  0.10403205931E+04  0.23453637949E+04  0.21020143657E+04 0.  0.
        5    1    3    3  502    0  0.63920122692E+03 -0.11091023642E+03 -0.40243662634E+03  0.76345046811E+03  0.46999998093E+01 0. -1.
       -5    1    3    3    0  502 -0.63920122692E+03  0.11091023642E+03  0.14427572195E+04  0.15819133268E+04  0.46999998093E+01 0.  1.
</event>
<event>
 5   0  0.8486612E-05  0.2095979E+04  0.7818609E-02  0.8563017E-01
        1   -1    0    0  501    0  0.00000000000E+00  0.00000000000E+00  0.21687868604E+04  0.21687868604E+04  0.50400001928E-02 0. -1.
       -1   -1    0    0    0  501  0.00000000000E+00  0.00000000000E+00 -0.50640403581E+03  0.50640403584E+03  0.50400001928E-02 0.  1.
    10030    2    1    2    0    0  0.00000000000E+00  0.00000000000E+00  0.16623828246E+04  0.26751908962E+04  0.20959794073E+04 0.  0.
        5    1    3    3  502    0 -0.51572311843E+03 -0.39216863017E+03 -0.22014255269E+03  0.68428897614E+03  0.46999998093E+01 0.  1.
       -5    1    3    3    0  502  0.51572311843E+03  0.39216863017E+03  0.18825253773E+04  0.19909019201E+04  0.46999998093E+01 0. -1.
</event>
<event>
 5   0  0.8755004E-05  0.2089345E+04  0.7818609E-02  0.8565952E-01
       -1   -1    0    0    0  501  0.00000000000E+00  0.00000000000E+00  0.10299488888E+04  0.10299488888E+04  0.50400001928E-02 0. -1.
        1   -1    0    0  501    0  0.00000000000E+00  0.00000000000E+00 -0.10596062695E+04  0.10596062695E+04  0.50400001928E-02 0.  1.
    10030    2    1    2    0    0  0.00000000000E+00  0.00000000000E+00 -0.29657380685E+02  0.20895551584E+04  0.20893446819E+04 0.  0.
        3    1    3    3  502    0 -0.41702590769E+03 -0.83329964129E+02 -0.96911860932E+03  0.10583219641E+04  0.10100000352E+00 0.  1.
       -3    1    3    3    0  502  0.41702590769E+03  0.83329964129E+02  0.93946122864E+03  0.10312331943E+04  0.10100000352E+00 0. -1.
</event>
<event>
 5   0  0.1815400E-04  0.2096269E+04  0.7818609E-02  0.8562889E-01
       -2   -1    0    0    0  501  0.00000000000E+00  0.00000000000E+00  0.75976669244E+03  0.75976669244E+03  0.25500000920E-02 0. -1.
        2   -1    0    0  501    0  0.00000000000E+00  0.00000000000E+00 -0.14459515282E+04  0.14459515282E+04  0.25500000920E-02 0.  1.
    10030    2    1    2    0    0  0.00000000000E+00  0.00000000000E+00 -0.68618483574E+03  0.22057182206E+04  0.20962688854E+04 0.  0.
        3    1    3    3  502    0 -0.86175475856E+03 -0.29415169266E+03  0.20308473282E+03  0.93294689082E+03  0.10100000352E+00 0. -1.
       -3    1    3    3    0  502  0.86175475856E+03  0.29415169266E+03 -0.88926956856E+03  0.12727713298E+04  0.10100000352E+00 0.  1.
</event>
<event>
 5   0  0.1921687E-04  0.2155432E+04  0.7818609E-02  0.8537211E-01
        2   -1    0    0  501    0  0.00000000000E+00  0.00000000000E+00  0.14260659167E+04  0.14260659167E+04  0.25500000920E-02 0. -1.
       -2   -1    0    0    0  501  0.00000000000E+00  0.00000000000E+00 -0.81445845683E+03  0.81445845683E+03  0.25500000920E-02 0.  1.
    10030    2    1    2    0    0  0.00000000000E+00  0.00000000000E+00  0.61160745985E+03  0.22405243735E+04  0.21554316930E+04 0.  0.
        5    1    3    3  502    0  0.53399212399E+03 -0.91482450800E+03  0.99478720770E+02  0.10639405880E+04  0.46999998093E+01 0.  1.
       -5    1    3    3    0  502 -0.53399212399E+03  0.91482450800E+03  0.51212873908E+03  0.11765837855E+04  0.46999998093E+01 0. -1.
</event>
<event>
 5   0  0.8486612E-05  0.2029426E+04  0.7818609E-02  0.8592985E-01
        1   -1    0    0  501    0  0.00000000000E+00  0.00000000000E+00  0.16453395891E+04  0.16453395891E+04  0.50400001928E-02 0.  1.
       -1   -1    0    0    0  501  0.00000000000E+00  0.00000000000E+00 -0.62579325338E+03  0.62579325340E+03  0.50400001928E-02 0. -1.
    10030    2    1    2    0    0  0.00000000000E+00  0.00000000000E+00  0.10195463357E+04  0.22711328425E+04  0.20294259429E+04 0.  0.
        5    1    3    3  502    0 -0.29835029609E+03 -0.33814605113E+03  0.15270260343E+04  0.15922268213E+04  0.46999998093E+01 0.  1.
       -5    1    3    3    0  502  0.29835029609E+03  0.33814605113E+03 -0.50747969861E+03  0.67890602117E+03  0.46999998093E+01 0. -1.
</event>
<event>
 5   0  0.8271069E-05  0.2108035E+04  0.7818609E-02  0.8557712E-01
        1   -1    0    0  501    0  0.00000000000E+00  0.00000000000E+00  0.57727861868E+03  0.57727861870E+03  0.50400001928E-02 0. -1.
       -1   -1    0    0    0  501  0.00000000000E+00  0.00000000000E+00 -0.19244647775E+04  0.19244647775E+04  0.50400001928E-02 0.  1.
    10030    2    1    2    0    0  0.00000000000E+00  0.00000000000E+00 -0.13471861588E+04  0.25017433962E+04  0.21080345049E+04 0.  0.
        2    1    3    3  502    0 -0.36232763539E+03 -0.15080753805E+03  0.48733338017E+03  0.62571403400E+03  0.25500000920E-02 0. -1.
       -2    1    3    3    0  502  0.36232763539E+03  0.15080753805E+03 -0.18345195390E+04  0.18760293622E+04  0.25500000920E-02 0.  1.
</event>
<event>
 5   0  0.1777590E-04  0.2099966E+04  0.7818609E-02  0.8561258E-01
        2   -1    0    0  501    0  0.00000000000E+00  0.00000000000E+00  0.24262373118E+04  0.24262373118E+04  0.25500000920E-02 0.  1.
       -2   -1    0    0    0  501  0.00000000000E+00  0.00000000000E+00 -0.45439249652E+03  0.45439249653E+03  0.25500000920E-02 0. -1.
    10030    2    1    2    0    0  0.00000000000E+00  0.00000000000E+00  0.19718448153E+04  0.28806298083E+04  0.20999657419E+04 0.  0.
        4    1    3    3  502    0 -0.13555584201E+03  0.55455986032E+03 -0.22289320899E+03  0.61285807532E+03  0.12699999809E+01 0. -1.
       -4    1    3    3    0  502  0.13555584201E+03 -0.55455986032E+03  0.21947380243E+04  0.22677717330E+04  0.12699999809E+01 0.  1.
</event>
<event>
 5   0  0.1921687E-04  0.2109520E+04  0.7818609E-02  0.8557061E-01
       -2   -1    0    0    0  501  0.00000000000E+00  0.00000000000E+00  0.10042347796E+04  0.10042347796E+04  0.25500000920E-02 0.  1.
        2   -1    0    0  501    0  0.00000000000E+00  0.00000000000E+00 -0.11078271977E+04  0.11078271977E+04  0.25500000920E-02 0. -1.
    10030    2    1    2    0    0  0.00000000000E+00  0.00000000000E+00 -0.10359241809E+03  0.21120619773E+04  0.21095199470E+04 0.  0.
        5    1    3    3  502    0 -0.39057161635E+03  0.97497662996E+03 -0.14871624435E+03  0.10607847226E+04  0.46999998093E+01 0.  1.
       -5    1    3    3    0  502  0.39057161635E+03 -0.97497662996E+03  0.45123826265E+02  0.10512772547E+04  0.46999998093E+01 0. -1.
</event>
<event>
 5   0  0.8237966E-05  0.2112621E+04  0.7818609E-02  0.8555704E-01
       -1   -1    0    0    0  501  0.00000000000E+00  0.00000000000E+00  0.67239255629E+03  0.67239255631E+03  0.50400001928E-02 0.  1.
        1   -1    0    0  501    0  0.00000000000E+00  0.00000000000E+00 -0.16594355455E+04  0.16594355455E+04  0.50400001928E-02 0. -1.
    10030    2    1    2    0    0  0.00000000000E+00  0.00000000000E+00 -0.98704298919E+03  0.23318281018E+04  0.21126212235E+04 0.  0.
        1    1    3    3  502    0 -0.63491203052E+03  0.11615520446E+03 -0.14164573126E+04  0.15565849275E+04  0.50400001928E-02 0. -1.
       -1    1    3    3    0  502  0.63491203052E+03 -0.11615520446E+03  0.42941432346E+03  0.77524317426E+03  0.50400001928E-02 0.  1.
</event>
<event>
 5   0  0.1886323E-04  0.1435619E+04  0.7818609E-02  0.8928432E-01
       -2   -1    0    0    0  501  0.00000000000E+00  0.00000000000E+00  0.30892776122E+03  0.30892776123E+03  0.25500000920E-02 0.  1.
        2   -1    0    0  501    0  0.00000000000E+00  0.00000000000E+00 -0.16678674814E+04  0.16678674814E+04  0.25500000920E-02 0. -1.
    10030    2    1    2    0    0  0.00000000000E+00  0.00000000000E+00 -0.13589397202E+04  0.19767952426E+04  0.14356191236E+04 0.  0.
        2    1    3    3  502    0  0.38637210713E+03  0.26653812889E+03 -0.14272569152E+04  0.15024607420E+04  0.25500000920E-02 0. -1.
       -2    1    3    3    0  502 -0.38637210713E+03 -0.26653812889E+03  0.68317195023E+02  0.47433450061E+03  0.25500000920E-02 0.  1.
</event>
<event>
 5   0  0.8271069E-05  0.2078471E+04  0.7818609E-02  0.8570787E-01
        1   -1    0    0  501    0  0.00000000000E+00  0.00000000000E+00  0.94313682115E+03  0.94313682117E+03  0.50400001928E-02 0.  1.
       -1   -1    0    0    0  501  0.00000000000E+00  0.00000000000E+00 -0.11451258531E+04  0.11451258531E+04  0.50400001928E-02 0. -1.
    10030    2    1    2    0    0  0.00000000000E+00  0.00000000000E+00 -0.20198903195E+03  0.20882626743E+04  0.20784709350E+04 0.  0.
        2    1    3    3  502    0 -0.63517830764E+01  0.99152944852E+03  0.21166174907E+03  0.10138893867E+04  0.25500000920E-02 0. -1.
       -2    1    3    3    0  502  0.63517830764E+01 -0.99152944852E+03 -0.41365078102E+03  0.10743732876E+04  0.25500000920E-02 0.  1.
</event>
<event>
 5   0  0.1810875E-04  0.2115938E+04  0.7818609E-02  0.8554255E-01
       -2   -1    0    0    0  501  0.00000000000E+00  0.00000000000E+00  0.79089889357E+03  0.79089889357E+03  0.25500000920E-02 0.  1.
        2   -1    0    0  501    0  0.00000000000E+00  0.00000000000E+00 -0.14152235493E+04  0.14152235493E+04  0.25500000920E-02 0. -1.
    10030    2    1    2    0    0  0.00000000000E+00  0.00000000000E+00 -0.62432465572E+03  0.22061224429E+04  0.21159383160E+04 0.  0.
        1    1    3    3  502    0  0.50337804360E+03 -0.93001136389E+03 -0.27938772000E+03  0.10937861262E+04  0.50400001928E-02 0. -1.
       -1    1    3    3    0  502 -0.50337804360E+03  0.93001136389E+03 -0.34493693572E+03  0.11123363167E+04  0.50400001928E-02 0.  1.
</event>
<event>
 5   0  0.8755004E-05  0.2064413E+04  0.7818609E-02  0.8577084E-01
       -1   -1    0    0    0  501  0.00000000000E+00  0.00000000000E+00  0.52225281352E+03  0.52225281354E+03  0.50400001928E-02 0.  1.
        1   -1    0    0  501    0  0.00000000000E+00  0.00000000000E+00 -0.20401048842E+04  0.20401048842E+04  0.50400001928E-02 0. -1.
    10030    2    1    2    0    0  0.00000000000E+00  0.00000000000E+00 -0.15178520706E+04  0.25623576977E+04  0.20644132490E+04 0.  0.
        3    1    3    3  502    0 -0.19936308285E+03  0.44729137166E+03 -0.18867394178E+04  0.19492564866E+04  0.10100000352E+00 0. -1.
       -3    1    3    3    0  502  0.19936308285E+03 -0.44729137166E+03  0.36888734712E+03  0.61310121108E+03  0.10100000352E+00 0.  1.
</event>
<event>
 5   0  0.8755004E-05  0.2023422E+04  0.7818609E-02  0.8595748E-01
       -1   -1    0    0    0  501  0.00000000000E+00  0.00000000000E+00  0.14236968357E+04  0.14236968357E+04  0.50400001928E-02 0.  1.
        1   -1    0    0  501    0  0.00000000000E+00  0.00000000000E+00 -0.71894450958E+03  0.71894450960E+03  0.50400001928E-02 0. -1.
    10030    2    1    2    0    0  0.00000000000E+00  0.00000000000E+00  0.70475232610E+03  0.21426413453E+04  0.20234218773E+04 0.  0.
        3    1    3    3  502    0 -0.60988574531E+03 -0.26645385359E+03 -0.45449060767E+03  0.80592803716E+03  0.10100000352E+00 0. -1.
       -3    1    3    3    0  502  0.60988574531E+03  0.26645385359E+03  0.11592429338E+04  0.13367133081E+04  0.10100000352E+00 0.  1.
</event>
<event>
 5   0  0.1777590E-04  0.2098615E+04  0.7818609E-02  0.8561854E-01
       -2   -1    0    0    0  501  0.00000000000E+00  0.00000000000E+00  0.62942914242E+03  0.62942914242E+03  0.25500000920E-02 0. -1.
        2   -1    0    0  501    0  0.00000000000E+00  0.00000000000E+00 -0.17492780196E+04  0.17492780196E+04  0.25500000920E-02 0.  1.
    10030    2    1    2    0    0  0.00000000000E+00  0.00000000000E+00 -0.11198488772E+04  0.23787071620E+04  0.20986153185E+04 0.  0.
        4    1    3    3  502    0 -0.86922236743E+03  0.36123573462E+03 -0.34350763803E+02  0.94192375906E+03  0.12699999809E+01 0. -1.
       -4    1    3    3    0  502  0.86922236743E+03 -0.36123573462E+03 -0.10854981134E+04  0.14367834030E+04  0.12699999809E+01 0.  1.
</event>
<event>
 5   0  0.1810875E-04  0.2089224E+04  0.7818609E-02  0.8566005E-01
       -2   -1    0    0    0  501  0.00000000000E+00  0.00000000000E+00  0.12370746033E+04  0.12370746033E+04  0.25500000920E-02 0.  1.
        2   -1    0    0  501    0  0.00000000000E+00  0.00000000000E+00 -0.88209223868E+03  0.88209223869E+03  0.25500000920E-02 0. -1.
    10030    2    1    2    0    0  0.00000000000E+00  0.00000000000E+00  0.35498236465E+03  0.21191668420E+04  0.20892236896E+04 0.  0.
        1    1    3    3  502    0 -0.11350643649E+03 -0.96369729262E+00  0.12308004481E+04  0.12360236174E+04  0.50400001928E-02 0.  1.
       -1    1    3    3    0  502  0.11350643649E+03  0.96369729262E+00 -0.87581808343E+03  0.88314322458E+03  0.50400001928E-02 0. -1.
</event>
<event>
 5   0  0.8271069E-05  0.2126512E+04  0.7818609E-02  0.8549654E-01
       -1   -1    0    0    0  501  0.00000000000E+00  0.00000000000E+00  0.96791218912E+03  0.96791218914E+03  0.50400001928E-02 0.  1.
        1   -1    0    0  501    0  0.00000000000E+00  0.00000000000E+00 -0.11679917170E+04  0.11679917170E+04  0.50400001928E-02 0. -1.
    10030    2    1    2    0    0  0.00000000000E+00  0.00000000000E+00 -0.20007952791E+03  0.21359039062E+04  0.21265120924E+04 0.  0.
        2    1    3    3  502    0  0.55040032073E+03  0.75242418083E+03 -0.61360095220E+03  0.11160594919E+04  0.25500000920E-02 0. -1.
       -2    1    3    3    0  502 -0.55040032073E+03 -0.75242418083E+03  0.41352142429E+03  0.10198444143E+04  0.25500000920E-02 0.  1.
</event>
<event>
 5   0  0.8525278E-05  0.2079351E+04  0.7818609E-02  0.8570394E-01
       -1   -1    0    0    0  501  0.00000000000E+00  0.00000000000E+00  0.10028787754E+04  0.10028787754E+04  0.50400001928E-02 0.  1.
        1   -1    0    0  501    0  0.00000000000E+00  0.00000000000E+00 -0.10778225264E+04  0.10778225264E+04  0.50400001928E-02 0. -1.
    10030    2    1    2    0    0  0.00000000000E+00  0.00000000000E+00 -0.74943750944E+02  0.20807013018E+04  0.20793511828E+04 0.  0.
        4    1    3    3  502    0  0.92959562895E+03 -0.15314781969E+03  0.40249694441E+03  0.10245036316E+04  0.12699999809E+01 0.  1.
       -4    1    3    3    0  502 -0.92959562895E+03  0.15314781969E+03 -0.47744069535E+03  0.10561976702E+04  0.12699999809E+01 0. -1.
</event>
<event>
 5   0  0.8486612E-05  0.2102748E+04  0.7818609E-02  0.8560034E-01
       -1   -1    0    0    0  501  0.00000000000E+00  0.00000000000E+00  0.70087493503E+03  0.70087493505E+03  0.50400001928E-02 0.  1.
        1   -1    0    0  501    0  0.00000000000E+00  0.00000000000E+00 -0.15771529762E+04  0.15771529762E+04  0.50400001928E-02 0. -1.
    10030    2    1    2    0    0  0.00000000000E+00  0.00000000000E+00 -0.87627804114E+03  0.22780279112E+04  0.21027477164E+04 0.  0.
        5    1    3    3  502    0  0.89697912403E+03 -0.40450472518E+03 -0.83937539493E+03  0.12933556221E+04  0.46999998093E+01 0.  1.
       -5    1    3    3    0  502 -0.89697912403E+03  0.40450472518E+03 -0.36902646208E+02  0.98467228911E+03  0.46999998093E+01 0. -1.
</event>
<event>
 5   0  0.1886323E-04  0.2076081E+04  0.7818609E-02  0.8571854E-01
       -2   -1    0    0    0  501  0.00000000000E+00  0.00000000000E+00  0.73474430219E+03  0.73474430220E+03  0.25500000920E-02 0. -1.
        2   -1    0    0  501    0  0.00000000000E+00  0.00000000000E+00 -0.14665345151E+04  0.14665345151E+04  0.25500000920E-02 0.  1.
    10030    2    1    2    0    0  0.00000000000E+00  0.00000000000E+00 -0.73179021291E+03  0.22012788173E+04  0.20760808067E+04 0.  0.
        2    1    3    3  502    0 -0.24798672298E+03  0.26302053269E+03  0.66584792661E+03  0.75764812200E+03  0.25500000920E-02 0. -1.
       -2    1    3    3    0  502  0.24798672298E+03 -0.26302053269E+03 -0.13976381395E+04  0.14436306953E+04  0.25500000920E-02 0.  1.
</event>
<event>
 5   0  0.8525278E-05  0.2097502E+04  0.7818609E-02  0.8562345E-01
        1   -1    0    0  501    0  0.00000000000E+00  0.00000000000E+00  0.92212146823E+03  0.92212146824E+03  0.50400001928E-02 0. -1.
       -1   -1    0    0    0  501  0.00000000000E+00  0.00000000000E+00 -0.11927693257E+04  0.11927693257E+04  0.50400001928E-02 0.  1.
    10030    2    1    2    0    0  0.00000000000E+00  0.00000000000E+00 -0.27064785751E+03  0.21148907940E+04  0.20975015632E+04 0.  0.
        4    1    3    3  502    0  0.83859466925E+03 -0.93344333977E+02 -0.76332167537E+03  0.11378118372E+04  0.12699999809E+01 0.  1.
       -4    1    3    3    0  502 -0.83859466925E+03  0.93344333977E+02  0.49267381787E+03  0.97707895674E+03  0.12699999809E+01 0. -1.
</event>
<event>
 5   0  0.1921687E-04  0.2155177E+04  0.7818609E-02  0.8537320E-01
        2   -1    0    0  501    0  0.00000000000E+00  0.00000000000E+00  0.81833197500E+03  0.81833197500E+03  0.25500000920E-02 0.  1.
       -2   -1    0    0    0  501  0.00000000000E+00  0.00000000000E+00 -0.14189799756E+04  0.14189799756E+04  0.25500000920E-02 0. -1.
    10030    2    1    2    0    0  0.00000000000E+00  0.00000000000E+00 -0.60064800059E+03  0.22373119506E+04  0.21551767314E+04 0.  0.
        5    1    3    3  502    0 -0.30662840429E+03  0.96049853873E+03  0.94425923484E+02  0.10126780171E+04  0.46999998093E+01 0.  1.
       -5    1    3    3    0  502  0.30662840429E+03 -0.96049853873E+03 -0.69507392407E+03  0.12246339335E+04  0.46999998093E+01 0. -1.
</event>
<event>
 5   0  0.8486612E-05  0.2115114E+04  0.7818609E-02  0.8554615E-01
        1   -1    0    0  501    0  0.00000000000E+00  0.00000000000E+00  0.15322820228E+04  0.15322820228E+04  0.50400001928E-02 0.  1.
       -1   -1    0    0    0  501  0.00000000000E+00  0.00000000000E+00 -0.72990936248E+03  0.72990936250E+03  0.50400001928E-02 0. -1.
    10030    2    1    2    0    0  0.00000000000E+00  0.00000000000E+00  0.80237266033E+03  0.22621913853E+04  0.21151141761E+04 0.  0.
        5    1    3    3  502    0 -0.75073896333E+01 -0.68288118072E+03 -0.46244143966E+03  0.82477708685E+03  0.46999998093E+01 0. -1.
       -5    1    3    3    0  502  0.75073896333E+01  0.68288118072E+03  0.12648141000E+04  0.14374142985E+04  0.46999998093E+01 0.  1.
</event>
<event>
 5   0  0.8237966E-05  0.2079766E+04  0.7818609E-02  0.8570209E-01
        1   -1    0    0  501    0  0.00000000000E+00  0.00000000000E+00  0.97389657776E+03  0.97389657778E+03  0.50400001928E-02 0. -1.
       -1   -1    0    0    0  501  0.00000000000E+00  0.00000000000E+00 -0.11103400500E+04  0.11103400500E+04  0.50400001928E-02 0.  1.
    10030    2    1    2    0    0  0.00000000000E+00  0.00000000000E+00 -0.13644347222E+03  0.20842366278E+04  0.20797657319E+04 0.  0.
        1    1    3    3  502    0  0.89365571515E+03 -0.47930606850E+03  0.16249378402E+03  0.10270146418E+04  0.50400001928E-02 0. -1.
       -1    1    3    3    0  502 -0.89365571515E+03  0.47930606850E+03 -0.29893725624E+03  0.10572219860E+04  0.50400001928E-02 0.  1.
</event>
<event>
 5   0  0.1886323E-04  0.2127804E+04  0.7818609E-02  0.8549093E-01
       -2   -1    0    0    0  501  0.00000000000E+00  0.00000000000E+00  0.11593332838E+04  0.11593332838E+04  0.25500000920E-02 0.  1.
        2   -1    0    0  501    0  0.00000000000E+00  0.00000000000E+00 -0.97632625046E+03  0.97632625046E+03  0.25500000920E-02 0. -1.
    10030    2    1    2    0    0  0.00000000000E+00  0.00000000000E+00  0.18300703334E+03  0.21356595343E+04  0.21278040493E+04 0.  0.
        2    1    3    3  502    0  0.56740377842E+03  0.58322336565E+03 -0.59643990639E+03  0.10088791325E+04  0.25500000920E-02 0. -1.
       -2    1    3    3    0  502 -0.56740377842E+03 -0.58322336565E+03  0.77944693973E+03  0.11267804018E+04  0.25500000920E-02 0.  1.
</event>
<event>
 5   0  0.8486612E-05  0.2075022E+04  0.7818609E-02  0.8572327E-01
        1   -1    0    0  501    0  0.00000000000E+00  0.00000000000E+00  0.10036271594E+04  0.10036271594E+04  0.50400001928E-02 0.  1.
       -1   -1    0    0    0  501  0.00000000000E+00  0.00000000000E+00 -0.10725384923E+04  0.10725384923E+04  0.50400001928E-02 0. -1.
    10030    2    1    2    0    0  0.00000000000E+00  0.00000000000E+00 -0.68911332915E+02  0.20761656517E+04  0.20750216966E+04 0.  0.
        5    1    3    3  502    0  0.50722140642E+03 -0.12062942979E+03 -0.93193493016E+03  0.10678716302E+04  0.46999998093E+01 0. -1.
       -5    1    3    3    0  502 -0.50722140642E+03  0.12062942979E+03  0.86302359724E+03  0.10082940215E+04  0.46999998093E+01 0.  1.
</event>
<event>
 5   0  0.1810875E-04  0.2127531E+04  0.7818609E-02  0.8549212E-01
       -2   -1    0    0    0  501  0.00000000000E+00  0.00000000000E+00  0.10605827642E+04  0.10605827642E+04  0.25500000920E-02 0.  1.
        2   -1    0    0  501    0  0.00000000000E+00  0.00000000000E+00 -0.10669576037E+04  0.10669576037E+04  0.25500000920E-02 0. -1.
    10030    2    1    2    0    0  0.00000000000E+00  0.00000000000E+00 -0.63748394678E+01  0.21275403678E+04  0.21275308172E+04 0.  0.
        1    1    3    3  502    0  0.75117450387E+03 -0.65573439496E+03 -0.37379144784E+03  0.10648806405E+04  0.50400001928E-02 0. -1.
       -1    1    3    3    0  502 -0.75117450387E+03  0.65573439496E+03  0.36741660838E+03  0.10626597274E+04  0.50400001928E-02 0.  1.
</event>
<event>
 5   0  0.8237966E-05  0.2131412E+04  0.7818609E-02  0.8547531E-01
       -1   -1    0    0    0  501  0.00000000000E+00  0.00000000000E+00  0.52680099113E+03  0.52680099115E+03  0.50400001928E-02 0.  1.
        1   -1    0    0  501    0  0.00000000000E+00  0.00000000000E+00 -0.21558988995E+04  0.21558988995E+04  0.50400001928E-02 0. -1.
    10030    2    1    2    0    0  0.00000000000E+00  0.00000000000E+00 -0.16290979083E+04  0.26826998906E+04  0.21314123740E+04 0.  0.
        1    1    3    3  502    0 -0.42324913730E+01 -0.51557953874E+03  0.35936605056E+03  0.62847763132E+03  0.50400001928E-02 0.  1.
       -1    1    3    3    0  502  0.42324913730E+01  0.51557953874E+03 -0.19884639589E+04  0.20542222593E+04  0.50400001928E-02 0. -1.
</event>
<event>
 5   0  0.8271069E-05  0.1593692E+04  0.7818609E-02  0.8824432E-01
       -1   -1    0    0    0  501  0.00000000000E+00  0.00000000000E+00  0.49006166352E+03  0.49006166354E+03  0.50400001928E-02 0.  1.
        1   -1    0    0  501    0  0.00000000000E+00  0.00000000000E+00 -0.12956817056E+04  0.12956817056E+04  0.50400001928E-02 0. -1.
    10030    2    1    2    0    0  0.00000000000E+00  0.00000000000E+00 -0.80562004208E+03  0.17857433692E+04  0.15936924823E+04 0.  0.
        2    1    3    3  502    0  0.15076610317E+03  0.50334639638E+01  0.47391638183E+03  0.49734544393E+03  0.25500000920E-02 0.  1.
       -2    1    3    3    0  502 -0.15076610317E+03 -0.50334639638E+01 -0.12795364239E+04  0.12883979252E+04  0.25500000920E-02 0. -1.
</event>
<event>
 5   0  0.1777590E-04  0.2098043E+04  0.7818609E-02  0.8562106E-01
        2   -1    0    0  501    0  0.00000000000E+00  0.00000000000E+00  0.14524943344E+04  0.14524943344E+04  0.25500000920E-02 0. -1.
       -2   -1    0    0    0  501  0.00000000000E+00  0.00000000000E+00 -0.75762518042E+03  0.75762518043E+03  0.25500000920E-02 0.  1.
    10030    2    1    2    0    0  0.00000000000E+00  0.00000000000E+00  0.69486915395E+03  0.22101195148E+04  0.20980431665E+04 0.  0.
        4    1    3    3  502    0 -0.21061371810E+03 -0.22129736791E+03 -0.70972526601E+03  0.77268507777E+03  0.12699999809E+01 0.  1.
       -4    1    3    3    0  502  0.21061371810E+03  0.22129736791E+03  0.14045944200E+04  0.14374344370E+04  0.12699999809E+01 0. -1.
</event>
<event>
 5   0  0.1886323E-04  0.2114765E+04  0.7818609E-02  0.8554767E-01
       -2   -1    0    0    0  501  0.00000000000E+00  0.00000000000E+00  0.57522631505E+03  0.57522631505E+03  0.25500000920E-02 0.  1.
        2   -1    0    0  501    0  0.00000000000E+00  0.00000000000E+00 -0.19436836013E+04  0.19436836013E+04  0.25500000920E-02 0. -1.
    10030    2    1    2    0    0  0.00000000000E+00  0.00000000000E+00 -0.13684572862E+04  0.25189099163E+04  0.21147651932E+04 0.  0.
        2    1    3    3  502    0  0.27938445492E+03 -0.72411790790E+03 -0.15395519872E+04  0.17241295599E+04  0.25500000920E-02 0. -1.
       -2    1    3    3    0  502 -0.27938445492E+03  0.72411790790E+03  0.17109470096E+03  0.79478035639E+03  0.25500000920E-02 0.  1.
</event>
<event>
 5   0  0.1777590E-04  0.1999446E+04  0.7818609E-02  0.8606880E-01
       -2   -1    0    0    0  501  0.00000000000E+00  0.00000000000E+00  0.70821456519E+03  0.70821456519E+03  0.25500000920E-02 0.  1.
        2   -1    0    0  501    0  0.00000000000E+00  0.00000000000E+00 -0.14112190417E+04  0.14112190417E+04  0.25500000920E-02 0. -1.
    10030    2    1    2    0    0  0.00000000000E+00  0.00000000000E+00 -0.70300447654E+03  0.21194336069E+04  0.19994458032E+04 0.  0.
        4    1    3    3  502    0 -0.49980927615E+03  0.25069394005E+03  0.52695650920E+03  0.76833686596E+03  0.12699999809E+01 0.  1.
       -4    1    3    3    0  502  0.49980927615E+03 -0.25069394005E+03 -0.12299609857E+04  0.13510967410E+04  0.12699999809E+01 0. -1.
</event>
<event>
 5   0  0.8271069E-05  0.2111792E+04  0.7818609E-02  0.8556067E-01
       -1   -1    0    0    0  501  0.00000000000E+00  0.00000000000E+00  0.11664601660E+04  0.11664601660E+04  0.50400001928E-02 0. -1.
        1   -1    0    0  501    0  0.00000000000E+00  0.00000000000E+00 -0.95581156749E+03  0.95581156750E+03  0.50400001928E-02 0.  1.
    10030    2    1    2    0    0  0.00000000000E+00  0.00000000000E+00  0.21064859847E+03  0.21222717335E+04  0.21117917697E+04 0.  0.
        2    1    3    3  502    0  0.50851538147E+03  0.67303965681E+03 -0.53292256756E+03  0.99778591685E+03  0.25500000920E-02 0.  1.
       -2    1    3    3    0  502 -0.50851538147E+03 -0.67303965681E+03  0.74357116603E+03  0.11244858166E+04  0.25500000920E-02 0. -1.
</event>
<event>
 5   0  0.1810875E-04  0.2090359E+04  0.7818609E-02  0.8565502E-01
        2   -1    0    0  501    0  0.00000000000E+00  0.00000000000E+00  0.86724513638E+03  0.86724513639E+03  0.25500000920E-02 0.  1.
       -2   -1    0    0    0  501  0.00000000000E+00  0.00000000000E+00 -0.12596213582E+04  0.12596213582E+04  0.25500000920E-02 0. -1.
    10030    2    1    2    0    0  0.00000000000E+00  0.00000000000E+00 -0.39237622185E+03  0.21268664946E+04  0.20903592960E+04 0.  0.
        1    1    3    3  502    0 -0.49764486293E+03  0.91780522838E+03 -0.24586341237E+03  0.10725976246E+04  0.50400001928E-02 0. -1.
       -1    1    3    3    0  502  0.49764486293E+03 -0.91780522838E+03 -0.14651280948E+03  0.10542688700E+04  0.50400001928E-02 0.  1.
</event>
<event>
 5   0  0.8525278E-05  0.2086388E+04  0.7818609E-02  0.8567263E-01
        1   -1    0    0  501    0  0.00000000000E+00  0.00000000000E+00  0.17607290585E+04  0.17607290585E+04  0.50400001928E-02 0. -1.
       -1   -1    0    0    0  501  0.00000000000E+00  0.00000000000E+00 -0.61806997611E+03  0.61806997613E+03  0.50400001928E-02 0.  1.
    10030    2    1    2    0    0  0.00000000000E+00  0.00000000000E+00  0.11426590824E+04  0.23787990347E+04  0.20863880437E+04 0.  0.
        4    1    3    3  502    0  0.27805743837E+03 -0.15937742167E+03 -0.56054608017E+03  0.64570165128E+03  0.12699999809E+01 0.  1.
       -4    1    3    3    0  502 -0.27805743837E+03  0.15937742167E+03  0.17032051626E+04  0.17330973834E+04  0.12699999809E+01 0. -1.
</event>
<event>
 5   0  0.8271069E-05  0.2085672E+04  0.7818609E-02  0.8567582E-01
       -1   -1    0    0    0  501  0.00000000000E+00  0.00000000000E+00  0.90571879937E+03  0.90571879938E+03  0.50400001928E-02 0.  1.
        1   -1    0    0  501    0  0.00000000000E+00  0.00000000000E+00 -0.12007109109E+04  0.12007109109E+04  0.50400001928E-02 0. -1.
    10030    2    1    2    0    0  0.00000000000E+00  0.00000000000E+00 -0.29499211155E+03  0.21064297103E+04  0.20856715414E+04 0.  0.
        2    1    3    3  502    0 -0.60995340760E+02  0.10208048361E+04 -0.35384178506E+03  0.10821122649E+04  0.25500000920E-02 0. -1.
       -2    1    3    3    0  502  0.60995340760E+02 -0.10208048361E+04  0.58849673513E+02  0.10243174454E+04  0.25500000920E-02 0.  1.
</event>
<event>
 5   0  0.8237966E-05  0.2116386E+04  0.7818609E-02  0.8554059E-01
        1   -1    0    0  501    0  0.00000000000E+00  0.00000000000E+00  0.18570544807E+04  0.18570544807E+04  0.50400001928E-02 0. -1.
       -1   -1    0    0    0  501  0.00000000000E+00  0.00000000000E+00 -0.60298303162E+03  0.60298303164E+03  0.50400001928E-02 0.  1.
    10030    2    1    2    0    0  0.00000000000E+00  0.00000000000E+00  0.12540714490E+04  0.24600375123E+04  0.21163859201E+04 0.  0.
        1    1    3    3  502    0  0.56935628073E+03  0.54178184583E+03  0.14506664650E+04  0.16498870675E+04  0.50400001928E-02 0. -1.
       -1    1    3    3    0  502 -0.56935628073E+03 -0.54178184583E+03 -0.19659501595E+03  0.81015044479E+03  0.50400001928E-02 0.  1.
</event>
<event>
 5   0  0.1810875E-04  0.2110077E+04  0.7818609E-02  0.8556817E-01
       -2   -1    0    0    0  501  0.00000000000E+00  0.00000000000E+00  0.67532224481E+03  0.67532224482E+03  0.25500000920E-02 0.  1.
        2   -1    0    0  501    0  0.00000000000E+00  0.00000000000E+00 -0.16482590945E+04  0.16482590945E+04  0.25500000920E-02 0. -1.
    10030    2    1    2    0    0  0.00000000000E+00  0.00000000000E+00 -0.97293684965E+03  0.23235813393E+04  0.21100768059E+04 0.  0.
        1    1    3    3  502    0 -0.50297222770E+03 -0.22109327223E+03 -0.14782933690E+04  0.15770905433E+04  0.50400001928E-02 0. -1.
       -1    1    3    3    0  502  0.50297222770E+03  0.22109327223E+03  0.50535651934E+03  0.74649079601E+03  0.50400001928E-02 0.  1.
</event>
<event>
 5   0  0.8755004E-05  0.2099492E+04  0.7818609E-02  0.8561467E-01
        1   -1    0    0  501    0  0.00000000000E+00  0.00000000000E+00  0.10526633851E+04  0.10526633851E+04  0.50400001928E-02 0. -1.
       -1   -1    0    0    0  501  0.00000000000E+00  0.00000000000E+00 -0.10468363323E+04  0.10468363323E+04  0.50400001928E-02 0.  1.
    10030    2    1    2    0    0  0.00000000000E+00  0.00000000000E+00  0.58270527978E+01  0.20994997174E+04  0.20994916310E+04 0.  0.
        3    1    3    3  502    0  0.12709580290E+03  0.52354887815E+01  0.10449278629E+04  0.10526419155E+04  0.10100000352E+00 0. -1.
       -3    1    3    3    0  502 -0.12709580290E+03 -0.52354887815E+01 -0.10391008101E+04  0.10468578018E+04  0.10100000352E+00 0.  1.
</event>
<event>
 5   0  0.8486612E-05  0.2115505E+04  0.7818609E-02  0.8554444E-01
       -1   -1    0    0    0  501  0.00000000000E+00  0.00000000000E+00  0.11777559409E+04  0.11777559409E+04  0.50400001928E-02 0.  1.
        1   -1    0    0  501    0  0.00000000000E+00  0.00000000000E+00 -0.94997630339E+03  0.94997630340E+03  0.50400001928E-02 0. -1.
    10030    2    1    2    0    0  0.00000000000E+00  0.00000000000E+00  0.22777963753E+03  0.21277322443E+04  0.21155048901E+04 0.  0.
        5    1    3    3  502    0  0.69817300410E+03 -0.78715200724E+03  0.22298016892E+03  0.10755445467E+04  0.46999998093E+01 0.  1.
       -5    1    3    3    0  502 -0.69817300410E+03  0.78715200724E+03  0.47994686025E+01  0.10521876976E+04  0.46999998093E+01 0. -1.
</event>
<event>
 5   0  0.8755004E-05  0.2037586E+04  0.7818609E-02  0.8589247E-01
       -1   -1    0    0    0  501  0.00000000000E+00  0.00000000000E+00  0.43681432961E+03  0.43681432964E+03  0.50400001928E-02 0. -1.
        1   -1    0    0  501    0  0.00000000000E+00  0.00000000000E+00 -0.23761562781E+04  0.23761562781E+04  0.50400001928E-02 0.  1.
    10030    2    1    2    0    0  0.00000000000E+00  0.00000000000E+00 -0.19393419485E+04  0.28129706077E+04  0.20375859361E+04 0.  0.
        3    1    3    3  502    0 -0.21269991089E+03  0.18965875497E+03 -0.23200117042E+04  0.23374486119E+04  0.10100000352E+00 0.  1.
       -3    1    3    3    0  502  0.21269991089E+03 -0.18965875497E+03  0.38066975571E+03  0.47552199585E+03  0.10100000352E+00 0. -1.
</event>
<event>
 5   0  0.1886323E-04  0.2151621E+04  0.7818609E-02  0.8538839E-01
        2   -1    0    0  501    0  0.00000000000E+00  0.00000000000E+00  0.13977984541E+04  0.13977984541E+04  0.25500000920E-02 0.  1.
       -2   -1    0    0    0  501  0.00000000000E+00  0.00000000000E+00 -0.82799328899E+03  0.82799328899E+03  0.25500000920E-02 0. -1.
    10030    2    1    2    0    0  0.00000000000E+00  0.00000000000E+00  0.56980516511E+03  0.22257917431E+04  0.21516205422E+04 0.  0.
        2    1    3    3  502    0  0.89799233094E+03 -0.25788671540E+03  0.83664779534E+03  0.12541432605E+04  0.25500000920E-02 0.  1.
       -2    1    3    3    0  502 -0.89799233094E+03  0.25788671540E+03 -0.26684263023E+03  0.97164848259E+03  0.25500000920E-02 0. -1.
</event>
<event>
 5   0  0.1777590E-04  0.2110889E+04  0.7818609E-02  0.8556462E-01
        2   -1    0    0  501    0  0.00000000000E+00  0.00000000000E+00  0.78063137350E+03  0.78063137350E+03  0.25500000920E-02 0. -1.
       -2   -1    0    0    0  501  0.00000000000E+00  0.00000000000E+00 -0.14270029213E+04  0.14270029213E+04  0.25500000920E-02 0.  1.
    10030    2    1    2    0    0  0.00000000000E+00  0.00000000000E+00 -0.64637154780E+03  0.22076342948E+04  0.21108891496E+04 0.  0.
        4    1    3    3  502    0  0.81757944459E+03 -0.54820682030E+03  0.75047803810E+02  0.98721864437E+03  0.12699999809E+01 0. -1.
       -4    1    3    3    0  502 -0.81757944459E+03  0.54820682030E+03 -0.72141935161E+03  0.12204156504E+04  0.12699999809E+01 0.  1.
</event>
<event>
 5   0  0.1777590E-04  0.2142323E+04  0.7818609E-02  0.8542825E-01
        2   -1    0    0  501    0  0.00000000000E+00  0.00000000000E+00  0.18541236609E+04  0.18541236609E+04  0.25500000920E-02 0.  1.
       -2   -1    0    0    0  501  0.00000000000E+00  0.00000000000E+00 -0.61883002716E+03  0.61883002717E+03  0.25500000920E-02 0. -1.
    10030    2    1    2    0    0  0.00000000000E+00  0.00000000000E+00  0.12352936337E+04  0.24729536880E+04  0.21423234073E+04 0.  0.
        4    1    3    3  502    0 -0.59792970954E+03  0.58382499166E+03  0.13911480310E+04  0.16228573614E+04  0.12699999809E+01 0.  1.
       -4    1    3    3    0  502  0.59792970954E+03 -0.58382499166E+03 -0.15585439732E+03  0.85009632660E+03  0.12699999809E+01 0. -1.
</event>
<event>
 5   0  0.6441125E-05  0.2133644E+04  0.7818609E-02  0.8546566E-01
       -3   -1    0    0    0  501  0.00000000000E+00  0.00000000000E+00  0.74708344417E+03  0.74708345099E+03  0.10100000352E+00 0. -1.
        3   -1    0    0  501    0  0.00000000000E+00  0.00000000000E+00 -0.15234031453E+04  0.15234031487E+04  0.10100000352E+00 0.  1.
    10030    2    1    2    0    0  0.00000000000E+00  0.00000000000E+00 -0.77631970114E+03  0.22704865996E+04  0.21336440942E+04 0.  0.
        3    1    3    3  502    0  0.14994858296E+03 -0.85405056733E+03 -0.10494859304E+04  0.13613624343E+04  0.10100000352E+00 0.  1.
       -3    1    3    3    0  502 -0.14994858296E+03  0.85405056733E+03  0.27316622926E+03  0.90912416539E+03  0.10100000352E+00 0. -1.
</event>
<event>
 5   0  0.8755004E-05  0.1873590E+04  0.7818609E-02  0.8668115E-01
        1   -1    0    0  501    0  0.00000000000E+00  0.00000000000E+00  0.99326144031E+03  0.99326144032E+03  0.50400001928E-02 0.  1.
       -1   -1    0    0    0  501  0.00000000000E+00  0.00000000000E+00 -0.88353845107E+03  0.88353845108E+03  0.50400001928E-02 0. -1.
    10030    2    1    2    0    0  0.00000000000E+00  0.00000000000E+00  0.10972298924E+03  0.18767998914E+04  0.18735897891E+04 0.  0.
        3    1    3    3  502    0 -0.39901585286E+03  0.25341115129E+03 -0.75532200438E+03  0.89103434442E+03  0.10100000352E+00 0. -1.
       -3    1    3    3    0  502  0.39901585286E+03 -0.25341115129E+03  0.86504499362E+03  0.98576554698E+03  0.10100000352E+00 0.  1.
</event>
<event>
 5   0  0.8525278E-05  0.1976401E+04  0.7818609E-02  0.8617734E-01
        1   -1    0    0  501    0  0.00000000000E+00  0.00000000000E+00  0.10477110967E+04  0.10477110967E+04  0.50400001928E-02 0. -1.
       -1   -1    0    0    0  501  0.00000000000E+00  0.00000000000E+00 -0.93207033802E+03  0.93207033804E+03  0.50400001928E-02 0.  1.
    10030    2    1    2    0    0  0.00000000000E+00  0.00000000000E+00  0.11564075865E+03  0.19797814347E+04  0.19764012103E+04 0.  0.
        4    1    3    3  502    0  0.34319321657E+03  0.24161503594E+03 -0.83834898014E+03  0.93754468421E+03  0.12699999809E+01 0.  1.
       -4    1    3    3    0  502 -0.34319321657E+03 -0.24161503594E+03  0.95398973879E+03  0.10422367505E+04  0.12699999809E+01 0. -1.
</event>
<event>
 5   0  0.1921687E-04  0.2112843E+04  0.7818609E-02  0.8555607E-01
        2   -1    0    0  501    0  0.00000000000E+00  0.00000000000E+00  0.13515346787E+04  0.13515346787E+04  0.25500000920E-02 0. -1.
       -2   -1    0    0    0  501  0.00000000000E+00  0.00000000000E+00 -0.82574723906E+03  0.82574723906E+03  0.25500000920E-02 0.  1.
    10030    2    1    2    0    0  0.00000000000E+00  0.00000000000E+00  0.52578743969E+03  0.21772819178E+04  0.21128426628E+04 0.  0.
        5    1    3    3  502    0 -0.48545639389E+02  0.73720506058E+03  0.10410233608E+04  0.12765499239E+04  0.46999998093E+01 0. -1.
       -5    1    3    3    0  502  0.48545639389E+02 -0.73720506058E+03 -0.51523592112E+03  0.90073199391E+03  0.46999998093E+01 0.  1.
</event>
<event>
 5   0  0.8486612E-05  0.2078299E+04  0.7818609E-02  0.8570863E-01
        1   -1    0    0  501    0  0.00000000000E+00  0.00000000000E+00  0.19084854697E+04  0.19084854697E+04  0.50400001928E-02 0.  1.
       -1   -1    0    0    0  501  0.00000000000E+00  0.00000000000E+00 -0.56580563734E+03  0.56580563737E+03  0.50400001928E-02 0. -1.
    10030    2    1    2    0    0  0.00000000000E+00  0.00000000000E+00  0.13426798324E+04  0.24742911071E+04  0.20782991484E+04 0.  0.
        5    1    3    3  502    0  0.84120244012E+03  0.56398909119E+03  0.94826319048E+03  0.13874186133E+04  0.46999998093E+01 0.  1.
       -5    1    3    3    0  502 -0.84120244012E+03 -0.56398909119E+03  0.39441664188E+03  0.10868724937E+04  0.46999998093E+01 0. -1.
</event>
<event>
 5   0  0.8271069E-05  0.1557551E+04  0.7818609E-02  0.8847059E-01
       -1   -1    0    0    0  501  0.00000000000E+00  0.00000000000E+00  0.49741378471E+03  0.49741378473E+03  0.50400001928E-02 0. -1.
        1   -1    0    0  501    0  0.00000000000E+00  0.00000000000E+00 -0.12192888710E+04  0.12192888710E+04  0.50400001928E-02 0.  1.
    10030    2    1    2    0    0  0.00000000000E+00  0.00000000000E+00 -0.72187508632E+03  0.17167026558E+04  0.15575507594E+04 0.  0.
        2    1    3    3  502    0 -0.52816896706E+03  0.27553805640E+03  0.19192171534E+03  0.62587348811E+03  0.25500000920E-02 0. -1.
       -2    1    3    3    0  502  0.52816896706E+03 -0.27553805640E+03 -0.91379680166E+03  0.10908291677E+04  0.25500000920E-02 0.  1.
</event>
<event>
 5   0  0.1815400E-04  0.2079772E+04  0.7818609E-02  0.8570207E-01
        2   -1    0    0  501    0  0.00000000000E+00  0.00000000000E+00  0.10365280094E+04  0.10365280094E+04  0.25500000920E-02 0.  1.
       -2   -1    0    0    0  501  0.00000000000E+00  0.00000000000E+00 -0.10432546996E+04  0.10432546996E+04  0.25500000920E-02 0. -1.
    10030    2    1    2    0    0  0.00000000000E+00  0.00000000000E+00 -0.67266902572E+01  0.20797827090E+04  0.20797718308E+04 0.  0.
        3    1    3    3  502    0 -0.11123104381E+03  0.34874404386E+03 -0.97669672277E+03  0.10430394296E+04  0.10100000352E+00 0. -1.
       -3    1    3    3    0  502  0.11123104381E+03 -0.34874404386E+03  0.96997003251E+03  0.10367432794E+04  0.10100000352E+00 0.  1.
</event>
<event>
 5   0  0.8755004E-05  0.2115704E+04  0.7818609E-02  0.8554357E-01
       -1   -1    0    0    0  501  0.00000000000E+00  0.00000000000E+00  0.18742951039E+04  0.18742951039E+04  0.50400001928E-02 0.  1.
        1   -1    0    0  501    0  0.00000000000E+00  0.00000000000E+00 -0.59705174480E+03  0.59705174482E+03  0.50400001928E-02 0. -1.
    10030    2    1    2    0    0  0.00000000000E+00  0.00000000000E+00  0.12772433591E+04  0.24713468487E+04  0.21157042913E+04 0.  0.
        3    1    3    3  502    0  0.63756982453E+03  0.57531012196E+03 -0.82931257683E+02  0.86275988623E+03  0.10100000352E+00 0. -1.
       -3    1    3    3    0  502 -0.63756982453E+03 -0.57531012196E+03  0.13601746168E+04  0.16085869625E+04  0.10100000352E+00 0.  1.
</event>
<event>
 5   0  0.8755004E-05  0.2103821E+04  0.7818609E-02  0.8559562E-01
       -1   -1    0    0    0  501  0.00000000000E+00  0.00000000000E+00  0.16125784119E+04  0.16125784119E+04  0.50400001928E-02 0. -1.
        1   -1    0    0  501    0  0.00000000000E+00  0.00000000000E+00 -0.68617805862E+03  0.68617805864E+03  0.50400001928E-02 0.  1.
    10030    2    1    2    0    0  0.00000000000E+00  0.00000000000E+00  0.92640035328E+03  0.22987564705E+04  0.21038212130E+04 0.  0.
        3    1    3    3  502    0 -0.55022232212E+02 -0.10293312449E+04  0.23409182859E+03  0.10570474219E+04  0.10100000352E+00 0.  1.
       -3    1    3    3    0  502  0.55022232212E+02  0.10293312449E+04  0.69230852469E+03  0.12417090486E+04  0.10100000352E+00 0. -1.
</event>
<event>
 5   0  0.8755004E-05  0.2133579E+04  0.7818609E-02  0.8546594E-01
        1   -1    0    0  501    0  0.00000000000E+00  0.00000000000E+00  0.14383731064E+04  0.14383731064E+04  0.50400001928E-02 0.  1.
       -1   -1    0    0    0  501  0.00000000000E+00  0.00000000000E+00 -0.79119908786E+03  0.79119908788E+03  0.50400001928E-02 0. -1.
    10030    2    1    2    0    0  0.00000000000E+00  0.00000000000E+00  0.64717401854E+03  0.22295721943E+04  0.21335786743E+04 0.  0.
        3    1    3    3  502    0 -0.98478104954E+03 -0.37517077926E+03  0.49685613460E+03  0.11650806229E+04  0.10100000352E+00 0. -1.
       -3    1    3    3    0  502  0.98478104954E+03  0.37517077926E+03  0.15031788394E+03  0.10644915714E+04  0.10100000352E+00 0.  1.
</event>
<event>
 5   0  0.8271069E-05  0.2069431E+04  0.7818609E-02  0.8574830E-01
        1   -1    0    0  501    0  0.00000000000E+00  0.00000000000E+00  0.14489548348E+04  0.14489548348E+04  0.50400001928E-02 0. -1.
       -1   -1    0    0    0  501  0.00000000000E+00  0.00000000000E+00 -0.73890241041E+03  0.73890241043E+03  0.50400001928E-02 0.  1.
    10030    2    1    2    0    0  0.00000000000E+00  0.00000000000E+00  0.71005242438E+03  0.21878572452E+04  0.20694310523E+04 0.  0.
        2    1    3    3  502    0 -0.47367430762E+02 -0.10332304900E+04  0.32461737432E+03  0.10840596656E+04  0.25500000920E-02 0.  1.
       -2    1    3    3    0  502  0.47367430762E+02  0.10332304900E+04  0.38543505006E+03  0.11037975796E+04  0.25500000920E-02 0. -1.
</event>
<event>
 5   0  0.8525278E-05  0.2138043E+04  0.7818609E-02  0.8544668E-01
        1   -1    0    0  501    0  0.00000000000E+00  0.00000000000E+00  0.13996901533E+04  0.13996901533E+04  0.50400001928E-02 0. -1.
       -1   -1    0    0    0  501  0.00000000000E+00  0.00000000000E+00 -0.81647108800E+03  0.81647108802E+03  0.50400001928E-02 0.  1.
    10030    2    1    2    0    0  0.00000000000E+00  0.00000000000E+00  0.58321906529E+03  0.22161612413E+04  0.21380426023E+04 0.  0.
        4    1    3    3  502    0 -0.22034209337E+03  0.96441193259E+03  0.71158493196E+03  0.12186040137E+04  0.12699999809E+01 0. -1.
       -4    1    3    3    0  502  0.22034209337E+03 -0.96441193259E+03 -0.12836586666E+03  0.99755722766E+03  0.12699999809E+01 0.  1.
</event>
<event>
 5   0  0.8525278E-05  0.2152006E+04  0.7818609E-02  0.8538674E-01
       -1   -1    0    0    0  501  0.00000000000E+00  0.00000000000E+00  0.16330775004E+04  0.16330775004E+04  0.50400001928E-02 0. -1.
        1   -1    0    0  501    0  0.00000000000E+00  0.00000000000E+00 -0.70895715494E+03  0.70895715496E+03  0.50400001928E-02 0.  1.
    10030    2    1    2    0    0  0.00000000000E+00  0.00000000000E+00  0.92412034547E+03  0.23420346554E+04  0.21520055562E+04 0.  0.
        4    1    3    3  502    0  0.10675668179E+04 -0.82005946251E+01  0.31599136579E+03  0.11133814784E+04  0.12699999809E+01 0. -1.
       -4    1    3    3    0  502 -0.10675668179E+04  0.82005946251E+01  0.60812897968E+03  0.12286531769E+04  0.12699999809E+01 0.  1.
</event>
<event>
 5   0  0.1815400E-04  0.2074780E+04  0.7818609E-02  0.8572435E-01
       -2   -1    0    0    0  501  0.00000000000E+00  0.00000000000E+00  0.11189922233E+04  0.11189922233E+04  0.25500000920E-02 0.  1.
        2   -1    0    0  501    0  0.00000000000E+00  0.00000000000E+00 -0.96173833378E+03  0.96173833379E+03  0.25500000920E-02 0. -1.
    10030    2    1    2    0    0  0.00000000000E+00  0.00000000000E+00  0.15725388948E+03  0.20807305571E+04  0.20747797149E+04 0.  0.
        3    1    3    3  502    0 -0.84133736366E+03 -0.59045756792E+03 -0.62093033642E+02  0.10297301851E+04  0.10100000352E+00 0.  1.
       -3    1    3    3    0  502  0.84133736366E+03  0.59045756792E+03  0.21934692312E+03  0.10510003720E+04  0.10100000352E+00 0. -1.
</event>
<event>
 5   0  0.1777590E-04  0.2093117E+04  0.7818609E-02  0.8564281E-01
       -2   -1    0    0    0  501  0.00000000000E+00  0.00000000000E+00  0.13914559947E+04  0.13914559947E+04  0.25500000920E-02 0.  1.
        2   -1    0    0  501    0  0.00000000000E+00  0.00000000000E+00 -0.78715002479E+03  0.78715002480E+03  0.25500000920E-02 0. -1.
    10030    2    1    2    0    0  0.00000000000E+00  0.00000000000E+00  0.60430596994E+03  0.21786060195E+04  0.20931169301E+04 0.  0.
        4    1    3    3  502    0  0.20077480318E+03  0.68716675915E+03 -0.49242296568E+03  0.86890198901E+03  0.12699999809E+01 0. -1.
       -4    1    3    3    0  502 -0.20077480318E+03 -0.68716675915E+03  0.10967289356E+04  0.13097040305E+04  0.12699999809E+01 0.  1.
</event>
<event>
 5   0  0.1777590E-04  0.2091554E+04  0.7818609E-02  0.8564973E-01
        2   -1    0    0  501    0  0.00000000000E+00  0.00000000000E+00  0.18851511582E+04  0.18851511582E+04  0.25500000920E-02 0.  1.
       -2   -1    0    0    0  501  0.00000000000E+00  0.00000000000E+00 -0.58013909440E+03  0.58013909440E+03  0.25500000920E-02 0. -1.
    10030    2    1    2    0    0  0.00000000000E+00  0.00000000000E+00  0.13050120638E+04  0.24652902526E+04  0.20915543366E+04 0.  0.
        4    1    3    3  502    0 -0.88236968007E+03  0.51723771271E+03  0.39551642234E+03  0.10966065644E+04  0.12699999809E+01 0. -1.
       -4    1    3    3    0  502  0.88236968007E+03 -0.51723771271E+03  0.90949564149E+03  0.13686836883E+04  0.12699999809E+01 0.  1.
</event>
<event>
 5   0  0.8486612E-05  0.2095638E+04  0.7818609E-02  0.8563167E-01
        1   -1    0    0  501    0  0.00000000000E+00  0.00000000000E+00  0.17123199594E+04  0.17123199594E+04  0.50400001928E-02 0. -1.
       -1   -1    0    0    0  501  0.00000000000E+00  0.00000000000E+00 -0.64119146746E+03  0.64119146748E+03  0.50400001928E-02 0.  1.
    10030    2    1    2    0    0  0.00000000000E+00  0.00000000000E+00  0.10711284920E+04  0.23535114269E+04  0.20956382775E+04 0.  0.
        5    1    3    3  502    0  0.71655089072E+03 -0.63628423229E+02  0.13911569967E+04  0.15661524941E+04  0.46999998093E+01 0. -1.
       -5    1    3    3    0  502 -0.71655089072E+03  0.63628423229E+02 -0.32002850475E+03  0.78735893282E+03  0.46999998093E+01 0.  1.
</event>
<event>
 5   0  0.8755004E-05  0.2013567E+04  0.7818609E-02  0.8600304E-01
        1   -1    0    0  501    0  0.00000000000E+00  0.00000000000E+00  0.14430346674E+04  0.14430346674E+04  0.50400001928E-02 0. -1.
       -1   -1    0    0    0  501  0.00000000000E+00  0.00000000000E+00 -0.70241749688E+03  0.70241749690E+03  0.50400001928E-02 0.  1.
    10030    2    1    2    0    0  0.00000000000E+00  0.00000000000E+00  0.74061717055E+03  0.21454521643E+04  0.20135667846E+04 0.  0.
        3    1    3    3  502    0  0.41154518718E+03  0.87013401837E+03  0.55832845352E+02  0.96416801847E+03  0.10100000352E+00 0.  1.
       -3    1    3    3    0  502 -0.41154518718E+03 -0.87013401837E+03  0.68478432520E+03  0.11812841459E+04  0.10100000352E+00 0. -1.
</event>
<event>
 5   0  0.1777590E-04  0.2095634E+04  0.7818609E-02  0.8563169E-01
        2   -1    0    0  501    0  0.00000000000E+00  0.00000000000E+00  0.92105441927E+03  0.92105441927E+03  0.25500000920E-02 0. -1.
       -2   -1    0    0    0  501  0.00000000000E+00  0.00000000000E+00 -0.11920259238E+04  0.11920259238E+04  0.25500000920E-02 0.  1.
    10030    2    1    2    0    0  0.00000000000E+00  0.00000000000E+00 -0.27097150453E+03  0.21130803431E+04  0.20956342668E+04 0.  0.
        4    1    3    3  502    0  0.78246620954E+03 -0.10603818269E+03  0.55903108097E+03  0.96747859286E+03  0.12699999809E+01 0. -1.
       -4    1    3    3    0  502 -0.78246620954E+03  0.10603818269E+03 -0.83000258549E+03  0.11456017502E+04  0.12699999809E+01 0.  1.
</event>
<event>
 5   0  0.1921687E-04  0.2079017E+04  0.7818609E-02  0.8570543E-01
       -2   -1    0    0    0  501  0.00000000000E+00  0.00000000000E+00  0.58898887300E+03  0.58898887300E+03  0.25500000920E-02 0.  1.
        2   -1    0    0  501    0  0.00000000000E+00  0.00000000000E+00 -0.18346327475E+04  0.18346327475E+04  0.25500000920E-02 0. -1.
    10030    2    1    2    0    0  0.00000000000E+00  0.00000000000E+00 -0.12456438745E+04  0.24236216205E+04  0.20790173393E+04 0.  0.
        5    1    3    3  502    0  0.22396252859E+03 -0.48245812323E+03  0.41831475925E+03  0.67670849167E+03  0.46999998093E+01 0.  1.
       -5    1    3    3    0  502 -0.22396252859E+03  0.48245812323E+03 -0.16639586337E+04  0.17469131288E+04  0.46999998093E+01 0. -1.
</event>
<event>
 5   0  0.8486612E-05  0.1809502E+04  0.7818609E-02  0.8701263E-01
        1   -1    0    0  501    0  0.00000000000E+00  0.00000000000E+00  0.28674447262E+04  0.28674447262E+04  0.50400001928E-02 0. -1.
       -1   -1    0    0    0  501  0.00000000000E+00  0.00000000000E+00 -0.28547170685E+03  0.28547170689E+03  0.50400001928E-02 0.  1.
    10030    2    1    2    0    0  0.00000000000E+00  0.00000000000E+00  0.25819730194E+04  0.31529164331E+04  0.18095019650E+04 0.  0.
        5    1    3    3  502    0 -0.36800630411E+03 -0.20442822273E+03  0.26863748740E+04  0.27191637670E+04  0.46999998093E+01 0. -1.
       -5    1    3    3    0  502  0.36800630411E+03  0.20442822273E+03 -0.10440185463E+03  0.43375266611E+03  0.46999998093E+01 0.  1.
</event>
<event>
 5   0  0.8755004E-05  0.2093855E+04  0.7818609E-02  0.8563955E-01
       -1   -1    0    0    0  501  0.00000000000E+00  0.00000000000E+00  0.14019114957E+04  0.14019114957E+04  0.50400001928E-02 0. -1.
        1   -1    0    0  501    0  0.00000000000E+00  0.00000000000E+00 -0.78183030182E+03  0.78183030184E+03  0.50400001928E-02 0.  1.
    10030    2    1    2    0    0  0.00000000000E+00  0.00000000000E+00  0.62008119389E+03  0.21837417976E+04  0.20938547111E+04 0.  0.
        3    1    3    3  502    0  0.64713995235E+03 -0.77504244476E+03  0.21437496415E+02  0.10099210294E+04  0.10100000352E+00 0.  1.
       -3    1    3    3    0  502 -0.64713995235E+03  0.77504244476E+03  0.59864369748E+03  0.11738207682E+04  0.10100000352E+00 0. -1.
</event>
<event>
 5   0  0.1886323E-04  0.2021421E+04  0.7818609E-02  0.8596671E-01
       -2   -1    0    0    0  501  0.00000000000E+00  0.00000000000E+00  0.37359802538E+03  0.37359802539E+03  0.25500000920E-02 0. -1.
        2   -1    0    0  501    0  0.00000000000E+00  0.00000000000E+00 -0.27343170294E+04  0.27343170294E+04  0.25500000920E-02 0.  1.
    10030    2    1    2    0    0  0.00000000000E+00  0.00000000000E+00 -0.23607190040E+04  0.31079150548E+04  0.20214207310E+04 0.  0.
        2    1    3    3  502    0  0.46050742105E+02 -0.65082981062E+03 -0.23671540711E+04  0.24554263397E+04  0.25500000920E-02 0.  1.
       -2    1    3    3    0  502 -0.46050742105E+02  0.65082981062E+03  0.64350671017E+01  0.65248871510E+03  0.25500000920E-02 0. -1.
</event>
<event>
 5   0  0.1921687E-04  0.2075961E+04  0.7818609E-02  0.8571907E-01
        2   -1    0    0  501    0  0.00000000000E+00  0.00000000000E+00  0.11147661783E+04  0.11147661783E+04  0.25500000920E-02 0. -1.
       -2   -1    0    0    0  501  0.00000000000E+00  0.00000000000E+00 -0.96648379095E+03  0.96648379096E+03  0.25500000920E-02 0.  1.
    10030    2    1    2    0    0  0.00000000000E+00  0.00000000000E+00  0.14828238737E+03  0.20812499693E+04  0.20759609265E+04 0.  0.
        5    1    3    3  502    0  0.58848169540E+03 -0.34057645194E+03  0.86040861553E+03  0.10966440175E+04  0.46999998093E+01 0. -1.
       -5    1    3    3    0  502 -0.58848169540E+03  0.34057645194E+03 -0.71212622816E+03  0.98460595178E+03  0.46999998093E+01 0.  1.
</event>
<event>
 5   0  0.1810875E-04  0.2060820E+04  0.7818609E-02  0.8578702E-01
        2   -1    0    0  501    0  0.00000000000E+00  0.00000000000E+00  0.10311969300E+04  0.10311969300E+04  0.25500000920E-02 0.  1.
       -2   -1    0    0    0  501  0.00000000000E+00  0.00000000000E+00 -0.10296232111E+04  0.10296232111E+04  0.25500000920E-02 0. -1.
    10030    2    1    2    0    0  0.00000000000E+00  0.00000000000E+00  0.15737189581E+01  0.20608201411E+04  0.20608195402E+04 0.  0.
        1    1    3    3  502    0  0.16505069744E+03 -0.92644940995E+03  0.42054173457E+03  0.10307306110E+04  0.50400001928E-02 0.  1.
       -1    1    3    3    0  502 -0.16505069744E+03  0.92644940995E+03 -0.41896801561E+03  0.10300895301E+04  0.50400001928E-02 0. -1.
</event>
<event>
 5   0  0.1777590E-04  0.2094625E+04  0.7818609E-02  0.8563615E-01
        2   -1    0    0  501    0  0.00000000000E+00  0.00000000000E+00  0.66819723102E+03  0.66819723103E+03  0.25500000920E-02 0.  1.
       -2   -1    0    0    0  501  0.00000000000E+00  0.00000000000E+00 -0.16415262415E+04  0.16415262415E+04  0.25500000920E-02 0. -1.
    10030    2    1    2    0    0  0.00000000000E+00  0.00000000000E+00 -0.97332901045E+03  0.23097234725E+04  0.20946248248E+04 0.  0.
        4    1    3    3  502    0  0.54123044747E+03 -0.31049588377E+03 -0.14141864686E+04  0.15457241254E+04  0.12699999809E+01 0. -1.
       -4    1    3    3    0  502 -0.54123044747E+03  0.31049588377E+03  0.44085745810E+03  0.76399934710E+03  0.12699999809E+01 0.  1.
</event>
<event>
 5   0  0.1921687E-04  0.2112812E+04  0.7818609E-02  0.8555620E-01
        2   -1    0    0  501    0  0.00000000000E+00  0.00000000000E+00  0.94181442186E+03  0.94181442187E+03  0.25500000920E-02 0.  1.
       -2   -1    0    0    0  501  0.00000000000E+00  0.00000000000E+00 -0.11849403878E+04  0.11849403878E+04  0.25500000920E-02 0. -1.
    10030    2    1    2    0    0  0.00000000000E+00  0.00000000000E+00 -0.24312596597E+03  0.21267548097E+04  0.21128122930E+04 0.  0.
        5    1    3    3  502    0 -0.54875391682E+03 -0.83064104013E+03 -0.47727357202E+03  0.11040414627E+04  0.46999998093E+01 0. -1.
       -5    1    3    3    0  502  0.54875391682E+03  0.83064104013E+03  0.23414760604E+03  0.10227133470E+04  0.46999998093E+01 0.  1.
</event>
<event>
 5   0  0.1815400E-04  0.2092811E+04  0.7818609E-02  0.8564417E-01
       -2   -1    0    0    0  501  0.00000000000E+00  0.00000000000E+00  0.79522192564E+03  0.79522192565E+03  0.25500000920E-02 0.  1.
        2   -1    0    0  501    0  0.00000000000E+00  0.00000000000E+00 -0.13769299160E+04  0.13769299160E+04  0.25500000920E-02 0. -1.
    10030    2    1    2    0    0  0.00000000000E+00  0.00000000000E+00 -0.58170799034E+03  0.21721518416E+04  0.20928113716E+04 0.  0.
        3    1    3    3  502    0 -0.22648994383E+03  0.43074783657E+03 -0.12523223193E+04  0.13435596731E+04  0.10100000352E+00 0. -1.
       -3    1    3    3    0  502  0.22648994383E+03 -0.43074783657E+03  0.67061432900E+03  0.82859216857E+03  0.10100000352E+00 0.  1.
</event>
<event>
 5   0  0.8525278E-05  0.2112118E+04  0.7818609E-02  0.8555924E-01
       -1   -1    0    0    0  501  0.00000000000E+00  0.00000000000E+00  0.11173407224E+04  0.11173407224E+04  0.50400001928E-02 0. -1.
        1   -1    0    0  501    0  0.00000000000E+00  0.00000000000E+00 -0.99813860244E+03  0.99813860245E+03  0.50400001928E-02 0.  1.
    10030    2    1    2    0    0  0.00000000000E+00  0.00000000000E+00  0.11920211999E+03  0.21154793249E+04  0.21121182800E+04 0.  0.
        4    1    3    3  502    0 -0.70655776224E+03  0.12089281075E+03 -0.71714598524E+03  0.10139718537E+04  0.12699999809E+01 0.  1.
       -4    1    3    3    0  502  0.70655776224E+03 -0.12089281075E+03  0.83634810522E+03  0.11015074712E+04  0.12699999809E+01 0. -1.
</event>
<event>
 5   0  0.1921687E-04  0.1759995E+04  0.7818609E-02  0.8727868E-01
        2   -1    0    0  501    0  0.00000000000E+00  0.00000000000E+00  0.11952795657E+04  0.11952795657E+04  0.25500000920E-02 0. -1.
       -2   -1    0    0    0  501  0.00000000000E+00  0.00000000000E+00 -0.64787787115E+03  0.64787787115E+03  0.25500000920E-02 0.  1.
    10030    2    1    2    0    0  0.00000000000E+00  0.00000000000E+00  0.54740169456E+03  0.18431574369E+04  0.17599945232E+04 0.  0.
        5    1    3    3  502    0 -0.81809033387E+03 -0.22195999910E+03  0.26241085642E+02  0.84808532598E+03  0.46999998093E+01 0.  1.
       -5    1    3    3    0  502  0.81809033387E+03  0.22195999910E+03  0.52116060892E+03  0.99507211088E+03  0.46999998093E+01 0. -1.
</event>
<event>
 5   0  0.8486612E-05  0.2052430E+04  0.7818609E-02  0.8582493E-01
        1   -1    0    0  501    0  0.00000000000E+00  0.00000000000E+00  0.19591225036E+04  0.19591225036E+04  0.50400001928E-02 0. -1.
       -1   -1    0    0    0  501  0.00000000000E+00  0.00000000000E+00 -0.53754522469E+03  0.53754522471E+03  0.50400001928E-02 0.  1.
    10030    2    1    2    0    0  0.00000000000E+00  0.00000000000E+00  0.14215772789E+04  0.24966677283E+04  0.20524297274E+04 0.  0.
        5    1    3    3  502    0 -0.94213110779E+03 -0.27567357066E+03  0.34689484872E+03  0.10411364310E+04  0.46999998093E+01 0.  1.
       -5    1    3    3    0  502  0.94213110779E+03  0.27567357066E+03  0.10746824302E+04  0.14555312974E+04  0.46999998093E+01 0. -1.
</event>
<event>
 5   0  0.8486612E-05  0.2086360E+04  0.7818609E-02  0.8567276E-01
       -1   -1    0    0    0  501  0.00000000000E+00  0.00000000000E+00  0.70897953828E+03  0.70897953830E+03  0.50400001928E-02 0.  1.
        1   -1    0    0  501    0  0.00000000000E+00  0.00000000000E+00 -0.15349167923E+04  0.15349167923E+04  0.50400001928E-02 0. -1.
    10030    2    1    2    0    0  0.00000000000E+00  0.00000000000E+00 -0.82593725404E+03  0.22438963306E+04  0.20863600828E+04 0.  0.
        5    1    3    3  502    0 -0.10081500561E+04 -0.19986407673E+03 -0.60503130897E+03  0.11926429305E+04  0.46999998093E+01 0.  1.
       -5    1    3    3    0  502  0.10081500561E+04  0.19986407673E+03 -0.22090594507E+03  0.10512534002E+04  0.46999998093E+01 0. -1.
</event>
<event>
 5   0  0.8486612E-05  0.2157744E+04  0.7818609E-02  0.8536225E-01
        1   -1    0    0  501    0  0.00000000000E+00  0.00000000000E+00  0.15203244114E+04  0.15203244114E+04  0.50400001928E-02 0.  1.
       -1   -1    0    0    0  501  0.00000000000E+00  0.00000000000E+00 -0.76560303923E+03  0.76560303925E+03  0.50400001928E-02 0. -1.
    10030    2    1    2    0    0  0.00000000000E+00  0.00000000000E+00  0.75472137217E+03  0.22859274507E+04  0.21577441832E+04 0.  0.
        5    1    3    3  502    0  0.18890998726E+03 -0.83613079390E+03  0.10713656874E+04  0.13720962845E+04  0.46999998093E+01 0.  1.
       -5    1    3    3    0  502 -0.18890998726E+03  0.83613079390E+03 -0.31664431527E+03  0.91383116613E+03  0.46999998093E+01 0. -1.
</event>
<event>
 5   0  0.8237966E-05  0.2113122E+04  0.7818609E-02  0.8555485E-01
        1   -1    0    0  501    0  0.00000000000E+00  0.00000000000E+00  0.15186600725E+04  0.15186600725E+04  0.50400001928E-02 0.  1.
       -1   -1    0    0    0  501  0.00000000000E+00  0.00000000000E+00 -0.73507000149E+03  0.73507000151E+03  0.50400001928E-02 0. -1.
    10030    2    1    2    0    0  0.00000000000E+00  0.00000000000E+00  0.78359007099E+03  0.22537300740E+04  0.21131222982E+04 0.  0.
        1    1    3    3  502    0  0.79409357826E+02  0.91212888153E+02 -0.72766377551E+03  0.73764504153E+03  0.50400001928E-02 0. -1.
       -1    1    3    3    0  502 -0.79409357826E+02 -0.91212888153E+02  0.15112538465E+04  0.15160850325E+04  0.50400001928E-02 0.  1.
</event>
<event>
 5   0  0.1815400E-04  0.2101549E+04  0.7818609E-02  0.8560561E-01
       -2   -1    0    0    0  501  0.00000000000E+00  0.00000000000E+00  0.55167775035E+03  0.55167775035E+03  0.25500000920E-02 0. -1.
        2   -1    0    0  501    0  0.00000000000E+00  0.00000000000E+00 -0.20013988447E+04  0.20013988447E+04  0.25500000920E-02 0.  1.
    10030    2    1    2    0    0  0.00000000000E+00  0.00000000000E+00 -0.14497210944E+04  0.25530765951E+04  0.21015491545E+04 0.  0.
        3    1    3    3  502    0  0.89939256326E+03  0.35124780085E+03 -0.22125211079E+03  0.99057281771E+03  0.10100000352E+00 0. -1.
       -3    1    3    3    0  502 -0.89939256326E+03 -0.35124780085E+03 -0.12284689836E+04  0.15625037774E+04  0.10100000352E+00 0.  1.
</event>
<event>
 5   0  0.8271069E-05  0.2161113E+04  0.7818609E-02  0.8534790E-01
        1   -1    0    0  501    0  0.00000000000E+00  0.00000000000E+00  0.95279119537E+03  0.95279119538E+03  0.50400001928E-02 0.  1.
       -1   -1    0    0    0  501  0.00000000000E+00  0.00000000000E+00 -0.12254547796E+04  0.12254547796E+04  0.50400001928E-02 0. -1.
    10030    2    1    2    0    0  0.00000000000E+00  0.00000000000E+00 -0.27266358422E+03  0.21782459750E+04  0.21611131616E+04 0.  0.
        2    1    3    3  502    0 -0.41347861544E+03  0.97264348891E+03 -0.36306536832E+03  0.11175045340E+04  0.25500000920E-02 0. -1.
       -2    1    3    3    0  502  0.41347861544E+03 -0.97264348891E+03  0.90401784093E+02  0.10607414409E+04  0.25500000920E-02 0.  1.
</event>
<event>
 5   0  0.8525278E-05  0.2099836E+04  0.7818609E-02  0.8561315E-01
       -1   -1    0    0    0  501  0.00000000000E+00  0.00000000000E+00  0.72319649834E+03  0.72319649836E+03  0.50400001928E-02 0.  1.
        1   -1    0    0  501    0  0.00000000000E+00  0.00000000000E+00 -0.15242445386E+04  0.15242445386E+04  0.50400001928E-02 0. -1.
    10030    2    1    2    0    0  0.00000000000E+00  0.00000000000E+00 -0.80104804028E+03  0.22474410370E+04  0.20998364822E+04 0.  0.
        4    1    3    3  502    0 -0.94867154887E+03 -0.21817151023E+03 -0.82155923150E+03  0.12737887185E+04  0.12699999809E+01 0. -1.
       -4    1    3    3    0  502  0.94867154887E+03  0.21817151023E+03  0.20511191224E+02  0.97365231852E+03  0.12699999809E+01 0.  1.
</event>
<event>
 5   0  0.1777590E-04  0.1764692E+04  0.7818609E-02  0.8725304E-01
        2   -1    0    0  501    0  0.00000000000E+00  0.00000000000E+00  0.53210375901E+03  0.53210375901E+03  0.25500000920E-02 0.  1.
       -2   -1    0    0    0  501  0.00000000000E+00  0.00000000000E+00 -0.14631257450E+04  0.14631257450E+04  0.25500000920E-02 0. -1.
    10030    2    1    2    0    0  0.00000000000E+00  0.00000000000E+00 -0.93102198600E+03  0.19952295040E+04  0.17646922778E+04 0.  0.
        4    1    3    3  502    0  0.81098987818E+03  0.21388691162E+03 -0.77531613024E+03  0.11421772665E+04  0.12699999809E+01 0. -1.
       -4    1    3    3    0  502 -0.81098987818E+03 -0.21388691162E+03 -0.15570585576E+03  0.85305223749E+03  0.12699999809E+01 0.  1.
</event>
<event>
 5   0  0.1886323E-04  0.2101678E+04  0.7818609E-02  0.8560505E-01
        2   -1    0    0  501    0  0.00000000000E+00  0.00000000000E+00  0.15076830920E+04  0.15076830920E+04  0.25500000920E-02 0.  1.
       -2   -1    0    0    0  501  0.00000000000E+00  0.00000000000E+00 -0.73242357613E+03  0.73242357614E+03  0.25500000920E-02 0. -1.
    10030    2    1    2    0    0  0.00000000000E+00  0.00000000000E+00  0.77525951591E+03  0.22401066682E+04  0.21016780362E+04 0.  0.
        2    1    3    3  502    0 -0.97727577120E+03 -0.21782951862E+03  0.72761422217E+03  0.12377156735E+04  0.25500000920E-02 0.  1.
       -2    1    3    3    0  502  0.97727577120E+03  0.21782951862E+03  0.47645293744E+02  0.10023909947E+04  0.25500000920E-02 0. -1.
</event>
<event>
 5   0  0.8237966E-05  0.2094801E+04  0.7818609E-02  0.8563537E-01
       -1   -1    0    0    0  501  0.00000000000E+00  0.00000000000E+00  0.91381509162E+03  0.91381509163E+03  0.50400001928E-02 0. -1.
        1   -1    0    0  501    0  0.00000000000E+00  0.00000000000E+00 -0.12005141603E+04  0.12005141603E+04  0.50400001928E-02 0.  1.
    10030    2    1    2    0    0  0.00000000000E+00  0.00000000000E+00 -0.28669906865E+03  0.21143292519E+04  0.20948011432E+04 0.  0.
        1    1    3    3  502    0 -0.21178050064E+03 -0.16280112057E+03 -0.11655556234E+04  0.11957738485E+04  0.50400001928E-02 0.  1.
       -1    1    3    3    0  502  0.21178050064E+03  0.16280112057E+03  0.87885655478E+03  0.91855540346E+03  0.50400001928E-02 0. -1.
</event>
<event>
 5   0  0.1921687E-04  0.2108129E+04  0.7818609E-02  0.8557671E-01
       -2   -1    0    0    0  501  0.00000000000E+00  0.00000000000E+00  0.14608108297E+04  0.14608108297E+04  0.25500000920E-02 0. -1.
        2   -1    0    0  501    0  0.00000000000E+00  0.00000000000E+00 -0.76057219066E+03  0.76057219067E+03  0.25500000920E-02 0.  1.
    10030    2    1    2    0    0  0.00000000000E+00  0.00000000000E+00  0.70023863907E+03  0.22213830204E+04  0.21081291165E+04 0.  0.
        5    1    3    3  502    0 -0.44073114681E+03 -0.14895265333E+03  0.13467643048E+04  0.14248603508E+04  0.46999998093E+01 0. -1.
       -5    1    3    3    0  502  0.44073114681E+03  0.14895265333E+03 -0.64652566573E+03  0.79652266957E+03  0.46999998093E+01 0.  1.
</event>
<event>
 5   0  0.8755004E-05  0.1506093E+04  0.7818609E-02  0.8880411E-01
        1   -1    0    0  501    0  0.00000000000E+00  0.00000000000E+00  0.17295252690E+04  0.17295252690E+04  0.50400001928E-02 0. -1.
       -1   -1    0    0    0  501  0.00000000000E+00  0.00000000000E+00 -0.32788138587E+03  0.32788138591E+03  0.50400001928E-02 0.  1.
    10030    2    1    2    0    0  0.00000000000E+00  0.00000000000E+00  0.14016438831E+04  0.20574066549E+04  0.15060931474E+04 0.  0.
        3    1    3    3  502    0  0.27713480896E+03 -0.59863181367E+03  0.20466847936E+03  0.69069019634E+03  0.10100000352E+00 0.  1.
       -3    1    3    3    0  502 -0.27713480896E+03  0.59863181367E+03  0.11969754037E+04  0.13667164585E+04  0.10100000352E+00 0. -1.
</event>
<event>
 5   0  0.1777590E-04  0.2057419E+04  0.7818609E-02  0.8580236E-01
        2   -1    0    0  501    0  0.00000000000E+00  0.00000000000E+00  0.11643446851E+04  0.11643446851E+04  0.25500000920E-02 0. -1.
       -2   -1    0    0    0  501  0.00000000000E+00  0.00000000000E+00 -0.90887423651E+03  0.90887423651E+03  0.25500000920E-02 0.  1.
    10030    2    1    2    0    0  0.00000000000E+00  0.00000000000E+00  0.25547044863E+03  0.20732189216E+04  0.20574186611E+04 0.  0.
        4    1    3    3  502    0  0.21714253972E+03 -0.67848119738E+02  0.11386780145E+04  0.11611819338E+04  0.12699999809E+01 0. -1.
       -4    1    3    3    0  502 -0.21714253972E+03  0.67848119738E+02 -0.88320756584E+03  0.91203698782E+03  0.12699999809E+01 0.  1.
</event>
<event>
 5   0  0.8271069E-05  0.2062829E+04  0.7818609E-02  0.8577797E-01
       -1   -1    0    0    0  501  0.00000000000E+00  0.00000000000E+00  0.74302172430E+03  0.74302172432E+03  0.50400001928E-02 0.  1.
        1   -1    0    0  501    0  0.00000000000E+00  0.00000000000E+00 -0.14317423729E+04  0.14317423729E+04  0.50400001928E-02 0. -1.
    10030    2    1    2    0    0  0.00000000000E+00  0.00000000000E+00 -0.68872064860E+03  0.21747640972E+04  0.20628288215E+04 0.  0.
        2    1    3    3  502    0  0.15503244196E+03  0.89297106261E+03  0.17467906831E+03  0.92300875058E+03  0.25500000920E-02 0.  1.
       -2    1    3    3    0  502 -0.15503244196E+03 -0.89297106261E+03 -0.86339971690E+03  0.12517553467E+04  0.25500000920E-02 0. -1.
</event>
<event>
 5   0  0.8237966E-05  0.1996707E+04  0.7818609E-02  0.8608162E-01
        1   -1    0    0  501    0  0.00000000000E+00  0.00000000000E+00  0.57443551834E+03  0.57443551836E+03  0.50400001928E-02 0. -1.
       -1   -1    0    0    0  501  0.00000000000E+00  0.00000000000E+00 -0.17351111740E+04  0.17351111740E+04  0.50400001928E-02 0.  1.
    10030    2    1    2    0    0  0.00000000000E+00  0.00000000000E+00 -0.11606756557E+04  0.23095466924E+04  0.19967067753E+04 0.  0.
        1    1    3    3  502    0 -0.48502956003E+03 -0.45028165650E+03  0.28423715048E+03  0.72027633726E+03  0.50400001928E-02 0. -1.
       -1    1    3    3    0  502  0.48502956003E+03  0.45028165650E+03 -0.14449128062E+04  0.15892703551E+04  0.50400001928E-02 0.  1.
</event>
<event>
 5   0  0.8237966E-05  0.2037996E+04  0.7818609E-02  0.8589059E-01
       -1   -1    0    0    0  501  0.00000000000E+00  0.00000000000E+00  0.75617680401E+03  0.75617680402E+03  0.50400001928E-02 0. -1.
        1   -1    0    0  501    0  0.00000000000E+00  0.00000000000E+00 -0.13731672357E+04  0.13731672357E+04  0.50400001928E-02 0.  1.
    10030    2    1    2    0    0  0.00000000000E+00  0.00000000000E+00 -0.61699043173E+03  0.21293440398E+04  0.20379962823E+04 0.  0.
        1    1    3    3  502    0 -0.58224786570E+03  0.16846528625E+03  0.54734380761E+03  0.81668743932E+03  0.50400001928E-02 0. -1.
       -1    1    3    3    0  502  0.58224786570E+03 -0.16846528625E+03 -0.11643342393E+04  0.13126566004E+04  0.50400001928E-02 0.  1.
</event>
<event>
 5   0  0.8755004E-05  0.2124636E+04  0.7818609E-02  0.8550468E-01
        1   -1    0    0  501    0  0.00000000000E+00  0.00000000000E+00  0.17033448647E+04  0.17033448647E+04  0.50400001928E-02 0. -1.
       -1   -1    0    0    0  501  0.00000000000E+00  0.00000000000E+00 -0.66253172838E+03  0.66253172840E+03  0.50400001928E-02 0.  1.
    10030    2    1    2    0    0  0.00000000000E+00  0.00000000000E+00  0.10408131363E+04  0.23658765931E+04  0.21246364558E+04 0.  0.
        3    1    3    3  502    0 -0.20060477349E+03  0.42152392022E+03 -0.54219429571E+03  0.71547142149E+03  0.10100000352E+00 0.  1.
       -3    1    3    3    0  502  0.20060477349E+03 -0.42152392022E+03  0.15830074320E+04  0.16504051716E+04  0.10100000352E+00 0. -1.
</event>
<event>
 5   0  0.1777590E-04  0.2090141E+04  0.7818609E-02  0.8565599E-01
        2   -1    0    0  501    0  0.00000000000E+00  0.00000000000E+00  0.18836056261E+04  0.18836056261E+04  0.25500000920E-02 0. -1.
       -2   -1    0    0    0  501  0.00000000000E+00  0.00000000000E+00 -0.57983088619E+03  0.57983088619E+03  0.25500000920E-02 0.  1.
    10030    2    1    2    0    0  0.00000000000E+00  0.00000000000E+00  0.13037747399E+04  0.24634365123E+04  0.20901413535E+04 0.  0.
        4    1    3    3  502    0 -0.20229028209E+03  0.94437337084E+03  0.11224546277E+04  0.14807661618E+04  0.12699999809E+01 0.  1.
       -4    1    3    3    0  502  0.20229028209E+03 -0.94437337084E+03  0.18132011223E+03  0.98267035051E+03  0.12699999809E+01 0. -1.
</event>
<event>
 5   0  0.1810875E-04  0.2123740E+04  0.7818609E-02  0.8550857E-01
        2   -1    0    0  501    0  0.00000000000E+00  0.00000000000E+00  0.13683461647E+04  0.13683461647E+04  0.25500000920E-02 0. -1.
       -2   -1    0    0    0  501  0.00000000000E+00  0.00000000000E+00 -0.82403670993E+03  0.82403670993E+03  0.25500000920E-02 0.  1.
    10030    2    1    2    0    0  0.00000000000E+00  0.00000000000E+00  0.54430945477E+03  0.21923828746E+04  0.21237395995E+04 0.  0.
        1    1    3    3  502    0  0.35083279970E+03  0.97080042964E+03  0.52926369883E+03  0.11600246508E+04  0.50400001928E-02 0. -1.
       -1    1    3    3    0  502 -0.35083279970E+03 -0.97080042964E+03  0.15045755945E+02  0.10323582238E+04  0.50400001928E-02 0.  1.
</event>
<event>
 5   0  0.8271069E-05  0.2033864E+04  0.7818609E-02  0.8590950E-01
        1   -1    0    0  501    0  0.00000000000E+00  0.00000000000E+00  0.15164616762E+04  0.15164616762E+04  0.50400001928E-02 0. -1.
       -1   -1    0    0    0  501  0.00000000000E+00  0.00000000000E+00 -0.68195005289E+03  0.68195005291E+03  0.50400001928E-02 0.  1.
    10030    2    1    2    0    0  0.00000000000E+00  0.00000000000E+00  0.83451162331E+03  0.21984117291E+04  0.20338644206E+04 0.  0.
        2    1    3    3  502    0 -0.96906250044E+02 -0.44801417852E+03  0.13984661771E+04  0.14716708783E+04  0.25500000920E-02 0. -1.
       -2    1    3    3    0  502  0.96906250044E+02  0.44801417852E+03 -0.56395455382E+03  0.72674085081E+03  0.25500000920E-02 0.  1.
</event>
<event>
 5   0  0.8271069E-05  0.2057334E+04  0.7818609E-02  0.8580274E-01
       -1   -1    0    0    0  501  0.00000000000E+00  0.00000000000E+00  0.93260446425E+03  0.93260446426E+03  0.50400001928E-02 0. -1.
        1   -1    0    0  501    0  0.00000000000E+00  0.00000000000E+00 -0.11346249472E+04  0.11346249472E+04  0.50400001928E-02 0.  1.
    10030    2    1    2    0    0  0.00000000000E+00  0.00000000000E+00 -0.20202048295E+03  0.20672294115E+04  0.20573344804E+04 0.  0.
        2    1    3    3  502    0 -0.16114326161E+03  0.72657909373E+03 -0.81454672014E+03  0.11033452268E+04  0.25500000920E-02 0.  1.
       -2    1    3    3    0  502  0.16114326161E+03 -0.72657909373E+03  0.61252623719E+03  0.96388418467E+03  0.25500000920E-02 0. -1.
</event>
<event>
 5   0  0.6441125E-05  0.2035986E+04  0.7818609E-02  0.8589978E-01
        3   -1    0    0  501    0  0.00000000000E+00  0.00000000000E+00  0.22185782775E+04  0.22185782798E+04  0.10100000352E+00 0.  1.
       -3   -1    0    0    0  501  0.00000000000E+00  0.00000000000E+00 -0.46710538046E+03  0.46710539138E+03  0.10100000352E+00 0. -1.
    10030    2    1    2    0    0  0.00000000000E+00  0.00000000000E+00  0.17514728971E+04  0.26856836712E+04  0.20359861180E+04 0.  0.
        2    1    3    3  502    0 -0.45290798773E+03 -0.19234482102E+03 -0.29981494996E+03  0.57620411292E+03  0.25500000920E-02 0. -1.
       -2    1    3    3    0  502  0.45290798773E+03  0.19234482102E+03  0.20512878470E+04  0.21094795583E+04  0.25500000920E-02 0.  1.
</event>
<event>
 5   0  0.1777590E-04  0.2369240E+04  0.7818609E-02  0.8451110E-01
       -2   -1    0    0    0  501  0.00000000000E+00  0.00000000000E+00  0.97235536595E+03  0.97235536596E+03  0.25500000920E-02 0. -1.
        2   -1    0    0  501    0  0.00000000000E+00  0.00000000000E+00 -0.14432222838E+04  0.14432222838E+04  0.25500000920E-02 0.  1.
    10030    2    1    2    0    0  0.00000000000E+00  0.00000000000E+00 -0.47086691782E+03  0.24155776497E+04  0.23692403271E+04 0.  0.
        4    1    3    3  502    0 -0.77668981767E+03 -0.88534937986E+03 -0.36533298239E+03  0.12331100511E+04  0.12699999809E+01 0.  1.
       -4    1    3    3    0  502  0.77668981767E+03  0.88534937986E+03 -0.10553393543E+03  0.11824675986E+04  0.12699999809E+01 0. -1.
</event>
<event>
 5   0  0.8755004E-05  0.2058788E+04  0.7818609E-02  0.8579618E-01
        1   -1    0    0  501    0  0.00000000000E+00  0.00000000000E+00  0.12091566261E+04  0.12091566261E+04  0.50400001928E-02 0.  1.
       -1   -1    0    0    0  501  0.00000000000E+00  0.00000000000E+00 -0.87635661528E+03  0.87635661529E+03  0.50400001928E-02 0. -1.
    10030    2    1    2    0    0  0.00000000000E+00  0.00000000000E+00  0.33280001081E+03  0.20855132414E+04  0.20587883895E+04 0.  0.
        3    1    3    3  502    0 -0.86761485848E+03  0.25237697183E+03  0.66595747215E+03  0.11224745180E+04  0.10100000352E+00 0.  1.
       -3    1    3    3    0  502  0.86761485848E+03 -0.25237697183E+03 -0.33315746134E+03  0.96303872343E+03  0.10100000352E+00 0. -1.
</event>
<event>
 5   0  0.1777590E-04  0.1935947E+04  0.7818609E-02  0.8637167E-01
       -2   -1    0    0    0  501  0.00000000000E+00  0.00000000000E+00  0.95446074887E+03  0.95446074888E+03  0.25500000920E-02 0.  1.
        2   -1    0    0  501    0  0.00000000000E+00  0.00000000000E+00 -0.98167716901E+03  0.98167716901E+03  0.25500000920E-02 0. -1.
    10030    2    1    2    0    0  0.00000000000E+00  0.00000000000E+00 -0.27216420140E+02  0.19361379179E+04  0.19359466169E+04 0.  0.
        4    1    3    3  502    0 -0.17331962157E+03 -0.63714634909E+03  0.69425799516E+03  0.95811843638E+03  0.12699999809E+01 0.  1.
       -4    1    3    3    0  502  0.17331962157E+03  0.63714634909E+03 -0.72147441530E+03  0.97801948151E+03  0.12699999809E+01 0. -1.
</event>
<event>
 5   0  0.8755004E-05  0.2063124E+04  0.7818609E-02  0.8577664E-01
       -1   -1    0    0    0  501  0.00000000000E+00  0.00000000000E+00  0.12264584956E+04  0.12264584956E+04  0.50400001928E-02 0.  1.
        1   -1    0    0  501    0  0.00000000000E+00  0.00000000000E+00 -0.86763674742E+03  0.86763674743E+03  0.50400001928E-02 0. -1.
    10030    2    1    2    0    0  0.00000000000E+00  0.00000000000E+00  0.35882174817E+03  0.20940952430E+04  0.20631242910E+04 0.  0.
        3    1    3    3  502    0  0.34544396988E+03  0.37530685254E+03 -0.73067243501E+03  0.89110548611E+03  0.10100000352E+00 0. -1.
       -3    1    3    3    0  502 -0.34544396988E+03 -0.37530685254E+03  0.10894941832E+04  0.12029897569E+04  0.10100000352E+00 0.  1.
</event>
<event>
 5   0  0.8755004E-05  0.2274719E+04  0.7818609E-02  0.8487956E-01
       -1   -1    0    0    0  501  0.00000000000E+00  0.00000000000E+00  0.63501571182E+03  0.63501571184E+03  0.50400001928E-02 0. -1.
        1   -1    0    0  501    0  0.00000000000E+00  0.00000000000E+00 -0.20370932806E+04  0.20370932806E+04  0.50400001928E-02 0.  1.
    10030    2    1    2    0    0  0.00000000000E+00  0.00000000000E+00 -0.14020775687E+04  0.26721089924E+04  0.22747186548E+04 0.  0.
        3    1    3    3  502    0 -0.16182267432E+03 -0.78956116611E+03  0.24164707121E+03  0.84141947337E+03  0.10100000352E+00 0. -1.
       -3    1    3    3    0  502  0.16182267432E+03  0.78956116611E+03 -0.16437246399E+04  0.18306895190E+04  0.10100000352E+00 0.  1.
</event>
<event>
 5   0  0.1777590E-04  0.2064561E+04  0.7818609E-02  0.8577017E-01
        2   -1    0    0  501    0  0.00000000000E+00  0.00000000000E+00  0.15707000740E+04  0.15707000740E+04  0.25500000920E-02 0.  1.
       -2   -1    0    0    0  501  0.00000000000E+00  0.00000000000E+00 -0.67842560207E+03  0.67842560208E+03  0.25500000920E-02 0. -1.
    10030    2    1    2    0    0  0.00000000000E+00  0.00000000000E+00  0.89227447195E+03  0.22491256761E+04  0.20645611092E+04 0.  0.
        4    1    3    3  502    0 -0.63983587151E+03  0.38013506681E+03  0.12254243137E+04  0.14337220696E+04  0.12699999809E+01 0.  1.
       -4    1    3    3    0  502  0.63983587151E+03 -0.38013506681E+03 -0.33314984174E+03  0.81540360647E+03  0.12699999809E+01 0. -1.
</event>
<event>
 5   0  0.1810875E-04  0.2064668E+04  0.7818609E-02  0.8576969E-01
        2   -1    0    0  501    0  0.00000000000E+00  0.00000000000E+00  0.11482746978E+04  0.11482746978E+04  0.25500000920E-02 0. -1.
       -2   -1    0    0    0  501  0.00000000000E+00  0.00000000000E+00 -0.92809960045E+03  0.92809960046E+03  0.25500000920E-02 0.  1.
    10030    2    1    2    0    0  0.00000000000E+00  0.00000000000E+00  0.22017509733E+03  0.20763742983E+04  0.20646678069E+04 0.  0.
        1    1    3    3  502    0  0.15733820372E+03 -0.70830664643E+03 -0.62841913496E+03  0.95987719264E+03  0.50400001928E-02 0.  1.
       -1    1    3    3    0  502 -0.15733820372E+03  0.70830664643E+03  0.84859423230E+03  0.11164971056E+04  0.50400001928E-02 0. -1.
</event>
<event>
 5   0  0.1777590E-04  0.1920382E+04  0.7818609E-02  0.8644777E-01
        2   -1    0    0  501    0  0.00000000000E+00  0.00000000000E+00  0.32408393523E+03  0.32408393524E+03  0.25500000920E-02 0. -1.
       -2   -1    0    0    0  501  0.00000000000E+00  0.00000000000E+00 -0.28448408464E+04  0.28448408464E+04  0.25500000920E-02 0.  1.
    10030    2    1    2    0    0  0.00000000000E+00  0.00000000000E+00 -0.25207569112E+04  0.31689247817E+04  0.19203824792E+04 0.  0.
        4    1    3    3  502    0  0.58551602745E+03  0.51825803421E+03 -0.34080462622E+03  0.85297703051E+03  0.12699999809E+01 0. -1.
       -4    1    3    3    0  502 -0.58551602745E+03 -0.51825803421E+03 -0.21799522850E+04  0.23159477512E+04  0.12699999809E+01 0.  1.
</event>
<event>
 5   0  0.1777590E-04  0.2007811E+04  0.7818609E-02  0.8602977E-01
       -2   -1    0    0    0  501  0.00000000000E+00  0.00000000000E+00  0.81837192390E+03  0.81837192390E+03  0.25500000920E-02 0. -1.
        2   -1    0    0  501    0  0.00000000000E+00  0.00000000000E+00 -0.12315016164E+04  0.12315016164E+04  0.25500000920E-02 0.  1.
    10030    2    1    2    0    0  0.00000000000E+00  0.00000000000E+00 -0.41312969246E+03  0.20498735403E+04  0.20078110938E+04 0.  0.
        4    1    3    3  502    0 -0.40954590215E+03 -0.85490629093E+03 -0.54399151566E+03  0.10929414414E+04  0.12699999809E+01 0.  1.
       -4    1    3    3    0  502  0.40954590215E+03  0.85490629093E+03  0.13086182320E+03  0.95693209890E+03  0.12699999809E+01 0. -1.
</event>
<event>
 5   0  0.8237966E-05  0.2436128E+04  0.7818609E-02  0.8426100E-01
        1   -1    0    0  501    0  0.00000000000E+00  0.00000000000E+00  0.24996176491E+04  0.24996176491E+04  0.50400001928E-02 0. -1.
       -1   -1    0    0    0  501  0.00000000000E+00  0.00000000000E+00 -0.59356270660E+03  0.59356270662E+03  0.50400001928E-02 0.  1.
    10030    2    1    2    0    0  0.00000000000E+00  0.00000000000E+00  0.19060549425E+04  0.30931803557E+04  0.24361279255E+04 0.  0.
        1    1    3    3  502    0 -0.40277106226E+03  0.63066050002E+03 -0.26729875017E+03  0.79461048115E+03  0.50400001928E-02 0.  1.
       -1    1    3    3    0  502  0.40277106226E+03 -0.63066050002E+03  0.21733536926E+04  0.22985698746E+04  0.50400001928E-02 0. -1.
</event>
<event>
 5   0  0.8755004E-05  0.2021132E+04  0.7818609E-02  0.8596804E-01
        1   -1    0    0  501    0  0.00000000000E+00  0.00000000000E+00  0.15337549816E+04  0.15337549816E+04  0.50400001928E-02 0. -1.
       -1   -1    0    0    0  501  0.00000000000E+00  0.00000000000E+00 -0.66584518263E+03  0.66584518265E+03  0.50400001928E-02 0.  1.
    10030    2    1    2    0    0  0.00000000000E+00  0.00000000000E+00  0.86790979898E+03  0.21996001643E+04  0.20211317284E+04 0.  0.
        3    1    3    3  502    0 -0.41563176314E+03 -0.77137299591E+03 -0.11396699520E+03  0.88360316180E+03  0.10100000352E+00 0.  1.
       -3    1    3    3    0  502  0.41563176314E+03  0.77137299591E+03  0.98187679418E+03  0.13159970025E+04  0.10100000352E+00 0. -1.
</event>
<event>
 5   0  0.1886323E-04  0.2097140E+04  0.7818609E-02  0.8562504E-01
        2   -1    0    0  501    0  0.00000000000E+00  0.00000000000E+00  0.20958154732E+04  0.20958154732E+04  0.25500000920E-02 0. -1.
       -2   -1    0    0    0  501  0.00000000000E+00  0.00000000000E+00 -0.52461638406E+03  0.52461638407E+03  0.25500000920E-02 0.  1.
    10030    2    1    2    0    0  0.00000000000E+00  0.00000000000E+00  0.15711990892E+04  0.26204318573E+04  0.20971400862E+04 0.  0.
        2    1    3    3  502    0 -0.95989695988E+03  0.29166202016E+03  0.40448329094E+03  0.10817003468E+04  0.25500000920E-02 0.  1.
       -2    1    3    3    0  502  0.95989695988E+03 -0.29166202016E+03  0.11667157982E+04  0.15387315105E+04  0.25500000920E-02 0. -1.
</event>
<event>
 5   0  0.8271069E-05  0.2115859E+04  0.7818609E-02  0.8554289E-01
       -1   -1    0    0    0  501  0.00000000000E+00  0.00000000000E+00  0.71885508055E+03  0.71885508056E+03  0.50400001928E-02 0. -1.
        1   -1    0    0  501    0  0.00000000000E+00  0.00000000000E+00 -0.15569410753E+04  0.15569410753E+04  0.50400001928E-02 0.  1.
    10030    2    1    2    0    0  0.00000000000E+00  0.00000000000E+00 -0.83808599476E+03  0.22757961559E+04  0.21158591656E+04 0.  0.
        2    1    3    3  502    0 -0.58944674857E+03  0.11853786515E+03  0.51722444041E+03  0.79310769549E+03  0.25500000920E-02 0. -1.
       -2    1    3    3    0  502  0.58944674857E+03 -0.11853786515E+03 -0.13553104352E+04  0.14826884604E+04  0.25500000920E-02 0.  1.
</event>
<event>
 5   0  0.8525278E-05  0.2131112E+04  0.7818609E-02  0.8547661E-01
       -1   -1    0    0    0  501  0.00000000000E+00  0.00000000000E+00  0.71571970962E+03  0.71571970964E+03  0.50400001928E-02 0. -1.
        1   -1    0    0  501    0  0.00000000000E+00  0.00000000000E+00 -0.15863886346E+04  0.15863886346E+04  0.50400001928E-02 0.  1.
    10030    2    1    2    0    0  0.00000000000E+00  0.00000000000E+00 -0.87066892498E+03  0.23021083443E+04  0.21311120223E+04 0.  0.
        4    1    3    3  502    0 -0.78725804720E+03  0.38719471635E+03 -0.10885999133E+04  0.13981224429E+04  0.12699999809E+01 0.  1.
       -4    1    3    3    0  502  0.78725804720E+03 -0.38719471635E+03  0.21793098831E+03  0.90398590134E+03  0.12699999809E+01 0. -1.
</event>
<event>
 5   0  0.8525278E-05  0.2084457E+04  0.7818609E-02  0.8568121E-01
       -1   -1    0    0    0  501  0.00000000000E+00  0.00000000000E+00  0.10126648211E+04  0.10126648211E+04  0.50400001928E-02 0.  1.
        1   -1    0    0  501    0  0.00000000000E+00  0.00000000000E+00 -0.10726552094E+04  0.10726552094E+04  0.50400001928E-02 0. -1.
    10030    2    1    2    0    0  0.00000000000E+00  0.00000000000E+00 -0.59990388248E+02  0.20853200305E+04  0.20844569516E+04 0.  0.
        4    1    3    3  502    0 -0.13926685458E+01  0.47685654434E+03 -0.95711753968E+03  0.10693314271E+04  0.12699999809E+01 0. -1.
       -4    1    3    3    0  502  0.13926685458E+01 -0.47685654434E+03  0.89712715143E+03  0.10159886033E+04  0.12699999809E+01 0.  1.
</event>
<event>
 5   0  0.1886323E-04  0.2074572E+04  0.7818609E-02  0.8572528E-01
        2   -1    0    0  501    0  0.00000000000E+00  0.00000000000E+00  0.14479105575E+04  0.14479105575E+04  0.25500000920E-02 0. -1.
       -2   -1    0    0    0  501  0.00000000000E+00  0.00000000000E+00 -0.74311403702E+03  0.74311403702E+03  0.25500000920E-02 0.  1.
    10030    2    1    2    0    0  0.00000000000E+00  0.00000000000E+00  0.70479652044E+03  0.21910245945E+04  0.20745723989E+04 0.  0.
        2    1    3    3  502    0  0.14020365537E+03 -0.73374112120E+03  0.11124689877E+04  0.13400075920E+04  0.25500000920E-02 0. -1.
       -2    1    3    3    0  502 -0.14020365537E+03  0.73374112120E+03 -0.40767246730E+03  0.85101700249E+03  0.25500000920E-02 0.  1.
</event>
<event>
 5   0  0.8237966E-05  0.2127495E+04  0.7818609E-02  0.8549227E-01
        1   -1    0    0  501    0  0.00000000000E+00  0.00000000000E+00  0.21626937440E+04  0.21626937440E+04  0.50400001928E-02 0.  1.
       -1   -1    0    0    0  501  0.00000000000E+00  0.00000000000E+00 -0.52321729218E+03  0.52321729220E+03  0.50400001928E-02 0. -1.
    10030    2    1    2    0    0  0.00000000000E+00  0.00000000000E+00  0.16394764518E+04  0.26859110362E+04  0.21274950196E+04 0.  0.
        1    1    3    3  502    0  0.98130472548E+03  0.39978459763E+03  0.93798090454E+03  0.14151306887E+04  0.50400001928E-02 0. -1.
       -1    1    3    3    0  502 -0.98130472548E+03 -0.39978459763E+03  0.70149554727E+03  0.12707803475E+04  0.50400001928E-02 0.  1.
</event>
<event>
 5   0  0.1886323E-04  0.2087720E+04  0.7818609E-02  0.8566672E-01
        2   -1    0    0  501    0  0.00000000000E+00  0.00000000000E+00  0.18976784495E+04  0.18976784495E+04  0.25500000920E-02 0.  1.
       -2   -1    0    0    0  501  0.00000000000E+00  0.00000000000E+00 -0.57419831409E+03  0.57419831410E+03  0.25500000920E-02 0. -1.
    10030    2    1    2    0    0  0.00000000000E+00  0.00000000000E+00  0.13234801354E+04  0.24718767636E+04  0.20877200640E+04 0.  0.
        2    1    3    3  502    0  0.54031914996E+03  0.17548066512E+03  0.16986128668E+04  0.17910957314E+04  0.25500000920E-02 0.  1.
       -2    1    3    3    0  502 -0.54031914996E+03 -0.17548066512E+03 -0.37513273141E+03  0.68078103222E+03  0.25500000920E-02 0. -1.
</event>
<event>
 5   0  0.1886323E-04  0.2064286E+04  0.7818609E-02  0.8577141E-01
        2   -1    0    0  501    0  0.00000000000E+00  0.00000000000E+00  0.80237036198E+03  0.80237036199E+03  0.25500000920E-02 0.  1.
       -2   -1    0    0    0  501  0.00000000000E+00  0.00000000000E+00 -0.13277156009E+04  0.13277156009E+04  0.25500000920E-02 0. -1.
    10030    2    1    2    0    0  0.00000000000E+00  0.00000000000E+00 -0.52534523895E+03  0.21300859629E+04  0.20642864601E+04 0.  0.
        2    1    3    3  502    0 -0.67279647022E+03 -0.76025680381E+03 -0.70527183338E+02  0.10176539597E+04  0.25500000920E-02 0. -1.
       -2    1    3    3    0  502  0.67279647022E+03  0.76025680381E+03 -0.45481805561E+03  0.11124320032E+04  0.25500000920E-02 0.  1.
</event>
<event>
 5   0  0.1886323E-04  0.2092383E+04  0.7818609E-02  0.8564606E-01
       -2   -1    0    0    0  501  0.00000000000E+00  0.00000000000E+00  0.11354574288E+04  0.11354574288E+04  0.25500000920E-02 0. -1.
        2   -1    0    0  501    0  0.00000000000E+00  0.00000000000E+00 -0.96394363750E+03  0.96394363750E+03  0.25500000920E-02 0.  1.
    10030    2    1    2    0    0  0.00000000000E+00  0.00000000000E+00  0.17151379128E+03  0.20994010663E+04  0.20923832958E+04 0.  0.
        2    1    3    3  502    0  0.47691961177E+03  0.28332155541E+03  0.97574574026E+03  0.11224095373E+04  0.25500000920E-02 0. -1.
       -2    1    3    3    0  502 -0.47691961177E+03 -0.28332155541E+03 -0.80423194899E+03  0.97699152894E+03  0.25500000920E-02 0.  1.
</event>
<event>
 5   0  0.1810875E-04  0.2148019E+04  0.7818609E-02  0.8540381E-01
        2   -1    0    0  501    0  0.00000000000E+00  0.00000000000E+00  0.20282241391E+04  0.20282241391E+04  0.25500000920E-02 0. -1.
       -2   -1    0    0    0  501  0.00000000000E+00  0.00000000000E+00 -0.56872228391E+03  0.56872228392E+03  0.25500000920E-02 0.  1.
    10030    2    1    2    0    0  0.00000000000E+00  0.00000000000E+00  0.14595018552E+04  0.25969464230E+04  0.21480188683E+04 0.  0.
        1    1    3    3  502    0  0.37999332230E+03 -0.44184620067E+03  0.18204458512E+04  0.19114513039E+04  0.50400001928E-02 0. -1.
       -1    1    3    3    0  502 -0.37999332230E+03  0.44184620067E+03 -0.36094399601E+03  0.68549511911E+03  0.50400001928E-02 0.  1.
</event>
<event>
 5   0  0.8271069E-05  0.2142143E+04  0.7818609E-02  0.8542903E-01
        1   -1    0    0  501    0  0.00000000000E+00  0.00000000000E+00  0.16600477702E+04  0.16600477702E+04  0.50400001928E-02 0.  1.
       -1   -1    0    0    0  501  0.00000000000E+00  0.00000000000E+00 -0.69106109633E+03  0.69106109635E+03  0.50400001928E-02 0. -1.
    10030    2    1    2    0    0  0.00000000000E+00  0.00000000000E+00  0.96898667388E+03  0.23511088666E+04  0.21421432558E+04 0.  0.
        2    1    3    3  502    0  0.44955962979E+03 -0.45013166403E+03 -0.46123038996E+03  0.78578358874E+03  0.25500000920E-02 0. -1.
       -2    1    3    3    0  502 -0.44955962979E+03  0.45013166403E+03  0.14302170638E+04  0.15653252778E+04  0.25500000920E-02 0.  1.
</event>
<event>
 5   0  0.1777590E-04  0.2101687E+04  0.7818609E-02  0.8560501E-01
        2   -1    0    0  501    0  0.00000000000E+00  0.00000000000E+00  0.93152622571E+03  0.93152622571E+03  0.25500000920E-02 0. -1.
       -2   -1    0    0    0  501  0.00000000000E+00  0.00000000000E+00 -0.11854433152E+04  0.11854433152E+04  0.25500000920E-02 0.  1.
    10030    2    1    2    0    0  0.00000000000E+00  0.00000000000E+00 -0.25391708954E+03  0.21169695410E+04  0.21016865011E+04 0.  0.
        4    1    3    3  502    0  0.30005512144E+03 -0.71644451231E+03 -0.83987938713E+03  0.11439951105E+04  0.12699999809E+01 0.  1.
       -4    1    3    3    0  502 -0.30005512144E+03  0.71644451231E+03  0.58596229759E+03  0.97297443041E+03  0.12699999809E+01 0. -1.
</event>
<event>
 5   0  0.1921687E-04  0.2080346E+04  0.7818609E-02  0.8569951E-01
        2   -1    0    0  501    0  0.00000000000E+00  0.00000000000E+00  0.11471234364E+04  0.11471234364E+04  0.25500000920E-02 0. -1.
       -2   -1    0    0    0  501  0.00000000000E+00  0.00000000000E+00 -0.94319367632E+03  0.94319367632E+03  0.25500000920E-02 0.  1.
    10030    2    1    2    0    0  0.00000000000E+00  0.00000000000E+00  0.20392976007E+03  0.20903171127E+04  0.20803457128E+04 0.  0.
        5    1    3    3  502    0 -0.89867697365E+03  0.47895742167E+03 -0.11098719316E+03  0.10243831128E+04  0.46999998093E+01 0. -1.
       -5    1    3    3    0  502  0.89867697365E+03 -0.47895742167E+03  0.31491695323E+03  0.10659339999E+04  0.46999998093E+01 0.  1.
</event>
<event>
 5   0  0.8755004E-05  0.2162023E+04  0.7818609E-02  0.8534403E-01
        1   -1    0    0  501    0  0.00000000000E+00  0.00000000000E+00  0.19882223270E+04  0.19882223270E+04  0.50400001928E-02 0.  1.
       -1   -1    0    0    0  501  0.00000000000E+00  0.00000000000E+00 -0.58775431370E+03  0.58775431372E+03  0.50400001928E-02 0. -1.
    10030    2    1    2    0    0  0.00000000000E+00  0.00000000000E+00  0.14004680133E+04  0.25759766407E+04  0.21620233572E+04 0.  0.
        3    1    3    3  502    0 -0.45630309577E+03 -0.97961312564E+03  0.73246635726E+03  0.13055119172E+04  0.10100000352E+00 0. -1.
       -3    1    3    3    0  502  0.45630309577E+03  0.97961312564E+03  0.66800165603E+03  0.12704647236E+04  0.10100000352E+00 0.  1.
</event>
<event>
 5   0  0.1921687E-04  0.1938144E+04  0.7818609E-02  0.8636099E-01
        2   -1    0    0  501    0  0.00000000000E+00  0.00000000000E+00  0.16624007829E+04  0.16624007829E+04  0.25500000920E-02 0.  1.
       -2   -1    0    0    0  501  0.00000000000E+00  0.00000000000E+00 -0.56490596447E+03  0.56490596448E+03  0.25500000920E-02 0. -1.
    10030    2    1    2    0    0  0.00000000000E+00  0.00000000000E+00  0.10974948184E+04  0.22273067473E+04  0.19381435629E+04 0.  0.
        5    1    3    3  502    0  0.19814455977E+03 -0.94534598399E+03  0.63877964502E+03  0.11580163302E+04  0.46999998093E+01 0. -1.
       -5    1    3    3    0  502 -0.19814455977E+03  0.94534598399E+03  0.45871517336E+03  0.10692904172E+04  0.46999998093E+01 0.  1.
</event>
<event>
 5   0  0.8486612E-05  0.2061035E+04  0.7818609E-02  0.8578605E-01
        1   -1    0    0  501    0  0.00000000000E+00  0.00000000000E+00  0.13750503199E+04  0.13750503199E+04  0.50400001928E-02 0.  1.
       -1   -1    0    0    0  501  0.00000000000E+00  0.00000000000E+00 -0.77231067154E+03  0.77231067156E+03  0.50400001928E-02 0. -1.
    10030    2    1    2    0    0  0.00000000000E+00  0.00000000000E+00  0.60273964837E+03  0.21473609915E+04  0.20610347265E+04 0.  0.
        5    1    3    3  502    0 -0.10176883985E+04  0.10861697703E+01  0.13255524071E+03  0.10262961747E+04  0.46999998093E+01 0. -1.
       -5    1    3    3    0  502  0.10176883985E+04 -0.10861697703E+01  0.47018440766E+03  0.11210648168E+04  0.46999998093E+01 0.  1.
</event>
<event>
 5   0  0.1921687E-04  0.2043190E+04  0.7818609E-02  0.8586690E-01
        2   -1    0    0  501    0  0.00000000000E+00  0.00000000000E+00  0.11735205336E+04  0.11735205336E+04  0.25500000920E-02 0.  1.
       -2   -1    0    0    0  501  0.00000000000E+00  0.00000000000E+00 -0.88933801031E+03  0.88933801031E+03  0.25500000920E-02 0. -1.
    10030    2    1    2    0    0  0.00000000000E+00  0.00000000000E+00  0.28418252326E+03  0.20628585439E+04  0.20431900708E+04 0.  0.
        5    1    3    3  502    0  0.51131039421E+03 -0.67483193472E+03 -0.43507413487E+03  0.95191809111E+03  0.46999998093E+01 0. -1.
       -5    1    3    3    0  502 -0.51131039421E+03  0.67483193472E+03  0.71925665813E+03  0.11109404528E+04  0.46999998093E+01 0.  1.
</event>
<event>
 5   0  0.1886323E-04  0.2119119E+04  0.7818609E-02  0.8552868E-01
        2   -1    0    0  501    0  0.00000000000E+00  0.00000000000E+00  0.19801027796E+04  0.19801027796E+04  0.25500000920E-02 0. -1.
       -2   -1    0    0    0  501  0.00000000000E+00  0.00000000000E+00 -0.56697365995E+03  0.56697365995E+03  0.25500000920E-02 0.  1.
    10030    2    1    2    0    0  0.00000000000E+00  0.00000000000E+00  0.14131291197E+04  0.25470764396E+04  0.21191187980E+04 0.  0.
        2    1    3    3  502    0  0.70244713982E+03  0.23786329860E+03 -0.20299946352E+03  0.76890813188E+03  0.25500000920E-02 0.  1.
       -2    1    3    3    0  502 -0.70244713982E+03 -0.23786329860E+03  0.16161285832E+04  0.17781683077E+04  0.25500000920E-02 0. -1.
</event>
<event>
 5   0  0.8237966E-05  0.2050973E+04  0.7818609E-02  0.8583153E-01
        1   -1    0    0  501    0  0.00000000000E+00  0.00000000000E+00  0.14453849076E+04  0.14453849077E+04  0.50400001928E-02 0. -1.
       -1   -1    0    0    0  501  0.00000000000E+00  0.00000000000E+00 -0.72757295193E+03  0.72757295195E+03  0.50400001928E-02 0.  1.
    10030    2    1    2    0    0  0.00000000000E+00  0.00000000000E+00  0.71781195572E+03  0.21729578596E+04  0.20509733923E+04 0.  0.
        1    1    3    3  502    0 -0.81782088312E+03  0.60757502583E+03  0.23514863761E+03  0.10455970977E+04  0.50400001928E-02 0.  1.
       -1    1    3    3    0  502  0.81782088312E+03 -0.60757502583E+03  0.48266331810E+03  0.11273607619E+04  0.50400001928E-02 0. -1.
</event>
<event>
 5   0  0.8755004E-05  0.2062851E+04  0.7818609E-02  0.8577787E-01
        1   -1    0    0  501    0  0.00000000000E+00  0.00000000000E+00  0.81063157864E+03  0.81063157866E+03  0.50400001928E-02 0. -1.
       -1   -1    0    0    0  501  0.00000000000E+00  0.00000000000E+00 -0.13123581188E+04  0.13123581188E+04  0.50400001928E-02 0.  1.
    10030    2    1    2    0    0  0.00000000000E+00  0.00000000000E+00 -0.50172654017E+03  0.21229896975E+04  0.20628513603E+04 0.  0.
        3    1    3    3  502    0 -0.84367059682E+03  0.54714202313E+03 -0.14618389980E+02  0.10056630534E+04  0.10100000352E+00 0. -1.
       -3    1    3    3    0  502  0.84367059682E+03 -0.54714202313E+03 -0.48710815019E+03  0.11173266441E+04  0.10100000352E+00 0.  1.
</event>
<event>
 5   0  0.1777590E-04  0.2052739E+04  0.7818609E-02  0.8582353E-01
        2   -1    0    0  501    0  0.00000000000E+00  0.00000000000E+00  0.12851125610E+04  0.12851125610E+04  0.25500000920E-02 0.  1.
       -2   -1    0    0    0  501  0.00000000000E+00  0.00000000000E+00 -0.81972148841E+03  0.81972148841E+03  0.25500000920E-02 0. -1.
    10030    2    1    2    0    0  0.00000000000E+00  0.00000000000E+00  0.46539107258E+03  0.21048340494E+04  0.20527390300E+04 0.  0.
        4    1    3    3  502    0  0.32411031817E+03  0.67808861584E+03 -0.48402929618E+03  0.89394498810E+03  0.12699999809E+01 0. -1.
       -4    1    3    3    0  502 -0.32411031817E+03 -0.67808861584E+03  0.94942036876E+03  0.12108890613E+04  0.12699999809E+01 0.  1.
</event>
<event>
 5   0  0.1777590E-04  0.1718315E+04  0.7818609E-02  0.8750987E-01
       -2   -1    0    0    0  501  0.00000000000E+00  0.00000000000E+00  0.14702026004E+04  0.14702026004E+04  0.25500000920E-02 0. -1.
        2   -1    0    0  501    0  0.00000000000E+00  0.00000000000E+00 -0.50207453019E+03  0.50207453019E+03  0.25500000920E-02 0.  1.
    10030    2    1    2    0    0  0.00000000000E+00  0.00000000000E+00  0.96812807021E+03  0.19722771306E+04  0.17183146160E+04 0.  0.
        4    1    3    3  502    0  0.60146147228E+03  0.30868306969E+03  0.10926224392E+04  0.12848605168E+04  0.12699999809E+01 0. -1.
       -4    1    3    3    0  502 -0.60146147228E+03 -0.30868306969E+03 -0.12449436894E+03  0.68741661381E+03  0.12699999809E+01 0.  1.
</event>
<event>
 5   0  0.1810875E-04  0.2073002E+04  0.7818609E-02  0.8573231E-01
       -2   -1    0    0    0  501  0.00000000000E+00  0.00000000000E+00  0.13188040796E+04  0.13188040796E+04  0.25500000920E-02 0.  1.
        2   -1    0    0  501    0  0.00000000000E+00  0.00000000000E+00 -0.81462734222E+03  0.81462734222E+03  0.25500000920E-02 0. -1.
    10030    2    1    2    0    0  0.00000000000E+00  0.00000000000E+00  0.50417673735E+03  0.21334314218E+04  0.20730015555E+04 0.  0.
        1    1    3    3  502    0 -0.13445875216E+02  0.57351613860E+03 -0.63634507180E+03  0.85675936133E+03  0.50400001928E-02 0. -1.
       -1    1    3    3    0  502  0.13445875216E+02 -0.57351613860E+03  0.11405218092E+04  0.12766720605E+04  0.50400001928E-02 0.  1.
</event>
<event>
 5   0  0.6441125E-05  0.2083571E+04  0.7818609E-02  0.8568515E-01
       -4   -1    0    0    0  501  0.00000000000E+00  0.00000000000E+00  0.39851781758E+03  0.39851984119E+03  0.12699999809E+01 0.  1.
        4   -1    0    0  501    0  0.00000000000E+00  0.00000000000E+00 -0.27233740992E+04  0.27233743953E+04  0.12699999809E+01 0. -1.
    10030    2    1    2    0    0  0.00000000000E+00  0.00000000000E+00 -0.23248562816E+04  0.31218942365E+04  0.20835707076E+04 0.  0.
        1    1    3    3  502    0 -0.24834731787E+03  0.31866872131E+03  0.27635962151E+03  0.48949033153E+03  0.50400001928E-02 0.  1.
       -1    1    3    3    0  502  0.24834731787E+03 -0.31866872131E+03 -0.26012159031E+04  0.26324039050E+04  0.50400001928E-02 0. -1.
</event>
<event>
 5   0  0.8755004E-05  0.2096163E+04  0.7818609E-02  0.8562936E-01
        1   -1    0    0  501    0  0.00000000000E+00  0.00000000000E+00  0.13826167549E+04  0.13826167549E+04  0.50400001928E-02 0.  1.
       -1   -1    0    0    0  501  0.00000000000E+00  0.00000000000E+00 -0.79448956879E+03  0.79448956881E+03  0.50400001928E-02 0. -1.
    10030    2    1    2    0    0  0.00000000000E+00  0.00000000000E+00  0.58812718606E+03  0.21771063237E+04  0.20961627698E+04 0.  0.
        3    1    3    3  502    0  0.75837274523E+03 -0.58210736946E+03 -0.15205317548E+03  0.96803842314E+03  0.10100000352E+00 0. -1.
       -3    1    3    3    0  502 -0.75837274523E+03  0.58210736946E+03  0.74018036153E+03  0.12090679005E+04  0.10100000352E+00 0.  1.
</event>
<event>
 5   0  0.8237966E-05  0.2110697E+04  0.7818609E-02  0.8556546E-01
        1   -1    0    0  501    0  0.00000000000E+00  0.00000000000E+00  0.83406283079E+03  0.83406283081E+03  0.50400001928E-02 0.  1.
       -1   -1    0    0    0  501  0.00000000000E+00  0.00000000000E+00 -0.13353440664E+04  0.13353440664E+04  0.50400001928E-02 0. -1.
    10030    2    1    2    0    0  0.00000000000E+00  0.00000000000E+00 -0.50128123559E+03  0.21694068972E+04  0.21106973749E+04 0.  0.
        1    1    3    3  502    0 -0.16528409647E+03 -0.10366198112E+04 -0.13870126878E+03  0.10588378098E+04  0.50400001928E-02 0.  1.
       -1    1    3    3    0  502  0.16528409647E+03  0.10366198112E+04 -0.36257996681E+03  0.11105690874E+04  0.50400001928E-02 0. -1.
</event>
<event>
 5   0  0.1886323E-04  0.1882882E+04  0.7818609E-02  0.8663424E-01
       -2   -1    0    0    0  501  0.00000000000E+00  0.00000000000E+00  0.52228086526E+03  0.52228086526E+03  0.25500000920E-02 0.  1.
        2   -1    0    0  501    0  0.00000000000E+00  0.00000000000E+00 -0.16970015933E+04  0.16970015933E+04  0.25500000920E-02 0. -1.
    10030    2    1    2    0    0  0.00000000000E+00  0.00000000000E+00 -0.11747207281E+04  0.22192824586E+04  0.18828823229E+04 0.  0.
        2    1    3    3  502    0  0.52590917971E+03  0.28381503313E+03  0.27005472557E+03  0.65579035762E+03  0.25500000920E-02 0.  1.
       -2    1    3    3    0  502 -0.52590917971E+03 -0.28381503313E+03 -0.14447754536E+04  0.15634921010E+04  0.25500000920E-02 0. -1.
</event>
<event>
 5   0  0.8486612E-05  0.2061585E+04  0.7818609E-02  0.8578357E-01
        1   -1    0    0  501    0  0.00000000000E+00  0.00000000000E+00  0.69359247526E+03  0.69359247528E+03  0.50400001928E-02 0. -1.
       -1   -1    0    0    0  501  0.00000000000E+00  0.00000000000E+00 -0.15319276169E+04  0.15319276170E+04  0.50400001928E-02 0.  1.
    10030    2    1    2    0    0  0.00000000000E+00  0.00000000000E+00 -0.83833514168E+03  0.22255200922E+04  0.20615852811E+04 0.  0.
        5    1    3    3  502    0  0.16044755730E+03  0.74150446149E+03 -0.11724668221E+04  0.13965216876E+04  0.46999998093E+01 0.  1.
       -5    1    3    3    0  502 -0.16044755730E+03 -0.74150446149E+03  0.33413168040E+03  0.82899840464E+03  0.46999998093E+01 0. -1.
</event>
<event>
 5   0  0.8755004E-05  0.2077895E+04  0.7818609E-02  0.8571044E-01
        1   -1    0    0  501    0  0.00000000000E+00  0.00000000000E+00  0.17621910588E+04  0.17621910588E+04  0.50400001928E-02 0. -1.
       -1   -1    0    0    0  501  0.00000000000E+00  0.00000000000E+00 -0.61253957582E+03  0.61253957584E+03  0.50400001928E-02 0.  1.
    10030    2    1    2    0    0  0.00000000000E+00  0.00000000000E+00  0.11496514830E+04  0.23747306346E+04  0.20778948613E+04 0.  0.
        3    1    3    3  502    0 -0.60673993302E+03  0.16454834780E+03  0.15201548573E+04  0.16450168101E+04  0.10100000352E+00 0. -1.
       -3    1    3    3    0  502  0.60673993302E+03 -0.16454834780E+03 -0.37050337436E+03  0.72971382452E+03  0.10100000352E+00 0.  1.
</event>
<event>
 5   0  0.8271069E-05  0.2127740E+04  0.7818609E-02  0.8549121E-01
       -1   -1    0    0    0  501  0.00000000000E+00  0.00000000000E+00  0.61708350795E+03  0.61708350797E+03  0.50400001928E-02 0.  1.
        1   -1    0    0  501    0  0.00000000000E+00  0.00000000000E+00 -0.18341424039E+04  0.18341424039E+04  0.50400001928E-02 0. -1.
    10030    2    1    2    0    0  0.00000000000E+00  0.00000000000E+00 -0.12170588959E+04  0.24512259118E+04  0.21277396727E+04 0.  0.
        2    1    3    3  502    0 -0.30698053764E+03  0.25554392278E+03 -0.17444824493E+04  0.17896253136E+04  0.25500000920E-02 0. -1.
       -2    1    3    3    0  502  0.30698053764E+03 -0.25554392278E+03  0.52742355340E+03  0.66160059828E+03  0.25500000920E-02 0.  1.
</event>
<event>
 5   0  0.1886323E-04  0.2068258E+04  0.7818609E-02  0.8575356E-01
        2   -1    0    0  501    0  0.00000000000E+00  0.00000000000E+00  0.20111815956E+04  0.20111815956E+04  0.25500000920E-02 0. -1.
       -2   -1    0    0    0  501  0.00000000000E+00  0.00000000000E+00 -0.53173867227E+03  0.53173867228E+03  0.25500000920E-02 0.  1.
    10030    2    1    2    0    0  0.00000000000E+00  0.00000000000E+00  0.14794429233E+04  0.25429202678E+04  0.20682582347E+04 0.  0.
        2    1    3    3  502    0  0.47707944171E+03 -0.20557715249E+03  0.18391132742E+04  0.19110741468E+04  0.25500000920E-02 0. -1.
       -2    1    3    3    0  502 -0.47707944171E+03  0.20557715249E+03 -0.35967035090E+03  0.63184612102E+03  0.25500000920E-02 0.  1.
</event>
<event>
 5   0  0.1815400E-04  0.2093261E+04  0.7818609E-02  0.8564218E-01
       -2   -1    0    0    0  501  0.00000000000E+00  0.00000000000E+00  0.88094854195E+03  0.88094854195E+03  0.25500000920E-02 0.  1.
        2   -1    0    0  501    0  0.00000000000E+00  0.00000000000E+00 -0.12434728211E+04  0.12434728211E+04  0.25500000920E-02 0. -1.
    10030    2    1    2    0    0  0.00000000000E+00  0.00000000000E+00 -0.36252427914E+03  0.21244213630E+04  0.20932611578E+04 0.  0.
        3    1    3    3  502    0  0.27485936547E+03  0.78695465896E+03  0.46108150849E+03  0.95259722534E+03  0.10100000352E+00 0.  1.
       -3    1    3    3    0  502 -0.27485936547E+03 -0.78695465896E+03 -0.82360578763E+03  0.11718241377E+04  0.10100000352E+00 0. -1.
</event>
<event>
 5   0  0.8486612E-05  0.2142671E+04  0.7818609E-02  0.8542676E-01
       -1   -1    0    0    0  501  0.00000000000E+00  0.00000000000E+00  0.92375123634E+03  0.92375123635E+03  0.50400001928E-02 0. -1.
        1   -1    0    0  501    0  0.00000000000E+00  0.00000000000E+00 -0.12424982226E+04  0.12424982226E+04  0.50400001928E-02 0.  1.
    10030    2    1    2    0    0  0.00000000000E+00  0.00000000000E+00 -0.31874698622E+03  0.21662494589E+04  0.21426705480E+04 0.  0.
        5    1    3    3  502    0  0.20361731335E+03  0.34752507750E+03 -0.11630231729E+04  0.12308040788E+04  0.46999998093E+01 0.  1.
       -5    1    3    3    0  502 -0.20361731335E+03 -0.34752507750E+03  0.84427618666E+03  0.93544538010E+03  0.46999998093E+01 0. -1.
</event>
<event>
 5   0  0.8237966E-05  0.2084111E+04  0.7818609E-02  0.8568275E-01
       -1   -1    0    0    0  501  0.00000000000E+00  0.00000000000E+00  0.56284528918E+03  0.56284528920E+03  0.50400001928E-02 0.  1.
        1   -1    0    0  501    0  0.00000000000E+00  0.00000000000E+00 -0.19292693069E+04  0.19292693069E+04  0.50400001928E-02 0. -1.
    10030    2    1    2    0    0  0.00000000000E+00  0.00000000000E+00 -0.13664240177E+04  0.24921145961E+04  0.20841114567E+04 0.  0.
        1    1    3    3  502    0  0.32815422017E+03 -0.75469333778E+03 -0.14475997976E+04  0.16651703818E+04  0.50400001928E-02 0. -1.
       -1    1    3    3    0  502 -0.32815422017E+03  0.75469333778E+03  0.81175779907E+02  0.82694421431E+03  0.50400001928E-02 0.  1.
</event>
<event>
 5   0  0.8486612E-05  0.1549609E+04  0.7818609E-02  0.8852118E-01
       -1   -1    0    0    0  501  0.00000000000E+00  0.00000000000E+00  0.83525356314E+03  0.83525356315E+03  0.50400001928E-02 0. -1.
        1   -1    0    0  501    0  0.00000000000E+00  0.00000000000E+00 -0.71873016071E+03  0.71873016073E+03  0.50400001928E-02 0.  1.
    10030    2    1    2    0    0  0.00000000000E+00  0.00000000000E+00  0.11652340243E+03  0.15539837239E+04  0.15496088896E+04 0.  0.
        5    1    3    3  502    0  0.40223094906E+03 -0.34157273465E+03 -0.51064773930E+03  0.73433294430E+03  0.46999998093E+01 0.  1.
       -5    1    3    3    0  502 -0.40223094906E+03  0.34157273465E+03  0.62717114173E+03  0.81965077957E+03  0.46999998093E+01 0. -1.
</event>
<event>
 5   0  0.1921687E-04  0.1698403E+04  0.7818609E-02  0.8762276E-01
       -2   -1    0    0    0  501  0.00000000000E+00  0.00000000000E+00  0.36237769664E+03  0.36237769665E+03  0.25500000920E-02 0. -1.
        2   -1    0    0  501    0  0.00000000000E+00  0.00000000000E+00 -0.19900327584E+04  0.19900327584E+04  0.25500000920E-02 0.  1.
    10030    2    1    2    0    0  0.00000000000E+00  0.00000000000E+00 -0.16276550617E+04  0.23524104550E+04  0.16984033529E+04 0.  0.
        5    1    3    3  502    0 -0.32722925556E+03  0.25246668632E+03 -0.18413071031E+04  0.18871280696E+04  0.46999998093E+01 0.  1.
       -5    1    3    3    0  502  0.32722925556E+03 -0.25246668632E+03  0.21365204133E+03  0.46528238540E+03  0.46999998093E+01 0. -1.
</event>
<event>
 5   0  0.6441125E-05  0.1975580E+04  0.7818609E-02  0.8618124E-01
        3   -1    0    0  501    0  0.00000000000E+00  0.00000000000E+00  0.15778668524E+04  0.15778668556E+04  0.10100000352E+00 0. -1.
       -3   -1    0    0    0  501  0.00000000000E+00  0.00000000000E+00 -0.61838474083E+03  0.61838474908E+03  0.10100000352E+00 0.  1.
    10030    2    1    2    0    0  0.00000000000E+00  0.00000000000E+00  0.95948211156E+03  0.21962516047E+04  0.19755797095E+04 0.  0.
        3    1    3    3  502    0 -0.26987953695E+03  0.69734825325E+03  0.11972821350E+04  0.14115998271E+04  0.10100000352E+00 0. -1.
       -3    1    3    3    0  502  0.26987953695E+03 -0.69734825325E+03 -0.23780002346E+03  0.78465177763E+03  0.10100000352E+00 0.  1.
</event>
<event>
 5   0  0.1886323E-04  0.1793363E+04  0.7818609E-02  0.8709837E-01
       -2   -1    0    0    0  501  0.00000000000E+00  0.00000000000E+00  0.86067189885E+03  0.86067189885E+03  0.25500000920E-02 0.  1.
        2   -1    0    0  501    0  0.00000000000E+00  0.00000000000E+00 -0.93419772559E+03  0.93419772559E+03  0.25500000920E-02 0. -1.
    10030    2    1    2    0    0  0.00000000000E+00  0.00000000000E+00 -0.73525826741E+02  0.17948696244E+04  0.17933630200E+04 0.  0.
        2    1    3    3  502    0 -0.25348492504E+03  0.48424150725E+02 -0.89622657699E+03  0.93264225880E+03  0.25500000920E-02 0. -1.
       -2    1    3    3    0  502  0.25348492504E+03 -0.48424150725E+02  0.82270075025E+03  0.86222736564E+03  0.25500000920E-02 0.  1.
</event>
<event>
 5   0  0.1886323E-04  0.2147953E+04  0.7818609E-02  0.8540409E-01
       -2   -1    0    0    0  501  0.00000000000E+00  0.00000000000E+00  0.11094856630E+04  0.11094856630E+04  0.25500000920E-02 0.  1.
        2   -1    0    0  501    0  0.00000000000E+00  0.00000000000E+00 -0.10396042729E+04  0.10396042729E+04  0.25500000920E-02 0. -1.
    10030    2    1    2    0    0  0.00000000000E+00  0.00000000000E+00  0.69881390113E+02  0.21490899359E+04  0.21479534781E+04 0.  0.
        2    1    3    3  502    0  0.37233944179E+03  0.13658139276E+03 -0.96365294874E+03  0.10420739620E+04  0.25500000920E-02 0. -1.
       -2    1    3    3    0  502 -0.37233944179E+03 -0.13658139276E+03  0.10335343389E+04  0.11070159738E+04  0.25500000920E-02 0.  1.
</event>
<event>
 5   0  0.1921687E-04  0.2155451E+04  0.7818609E-02  0.8537202E-01
        2   -1    0    0  501    0  0.00000000000E+00  0.00000000000E+00  0.77215714201E+03  0.77215714202E+03  0.25500000920E-02 0. -1.
       -2   -1    0    0    0  501  0.00000000000E+00  0.00000000000E+00 -0.15042180036E+04  0.15042180036E+04  0.25500000920E-02 0.  1.
    10030    2    1    2    0    0  0.00000000000E+00  0.00000000000E+00 -0.73206086163E+03  0.22763751457E+04  0.21554513909E+04 0.  0.
        5    1    3    3  502    0 -0.15829097569E+02  0.35739811507E+03 -0.14396688141E+04  0.14834595907E+04  0.46999998093E+01 0.  1.
       -5    1    3    3    0  502  0.15829097569E+02 -0.35739811507E+03  0.70760795244E+03  0.79291555498E+03  0.46999998093E+01 0. -1.
</event>
<event>
 5   0  0.1810875E-04  0.2102369E+04  0.7818609E-02  0.8560201E-01
       -2   -1    0    0    0  501  0.00000000000E+00  0.00000000000E+00  0.11553531513E+04  0.11553531513E+04  0.25500000920E-02 0.  1.
        2   -1    0    0  501    0  0.00000000000E+00  0.00000000000E+00 -0.95640760763E+03  0.95640760764E+03  0.25500000920E-02 0. -1.
    10030    2    1    2    0    0  0.00000000000E+00  0.00000000000E+00  0.19894554365E+03  0.21117607589E+04  0.21023687054E+04 0.  0.
        1    1    3    3  502    0  0.92017139763E+03 -0.49162653569E+03 -0.29852125799E+02  0.10436968914E+04  0.50400001928E-02 0.  1.
       -1    1    3    3    0  502 -0.92017139763E+03  0.49162653569E+03  0.22879766945E+03  0.10680638676E+04  0.50400001928E-02 0. -1.
</event>
<event>
 5   0  0.1886323E-04  0.1988491E+04  0.7818609E-02  0.8612021E-01
       -2   -1    0    0    0  501  0.00000000000E+00  0.00000000000E+00  0.77419822898E+03  0.77419822899E+03  0.25500000920E-02 0.  1.
        2   -1    0    0  501    0  0.00000000000E+00  0.00000000000E+00 -0.12768353705E+04  0.12768353705E+04  0.25500000920E-02 0. -1.
    10030    2    1    2    0    0  0.00000000000E+00  0.00000000000E+00 -0.50263714150E+03  0.20510335995E+04  0.19884905658E+04 0.  0.
        2    1    3    3  502    0  0.41366986009E+03  0.79218828013E+03 -0.70072736626E+03  0.11356512960E+04  0.25500000920E-02 0. -1.
       -2    1    3    3    0  502 -0.41366986009E+03 -0.79218828013E+03  0.19809022476E+03  0.91538230345E+03  0.25500000920E-02 0.  1.
</event>
<event>
 5   0  0.1810875E-04  0.2116545E+04  0.7818609E-02  0.8553990E-01
       -2   -1    0    0    0  501  0.00000000000E+00  0.00000000000E+00  0.28969935717E+04  0.28969935717E+04  0.25500000920E-02 0. -1.
        2   -1    0    0  501    0  0.00000000000E+00  0.00000000000E+00 -0.38658704155E+03  0.38658704155E+03  0.25500000920E-02 0.  1.
    10030    2    1    2    0    0  0.00000000000E+00  0.00000000000E+00  0.25104065302E+04  0.32835806133E+04  0.21165445181E+04 0.  0.
        1    1    3    3  502    0 -0.19273906350E+02  0.76790992652E+03  0.12590078197E+03  0.77840101853E+03  0.50400001928E-02 0. -1.
       -1    1    3    3    0  502  0.19273906350E+02 -0.76790992652E+03  0.23845057482E+04  0.25051795947E+04  0.50400001928E-02 0.  1.
</event>
<event>
 5   0  0.8525278E-05  0.2141134E+04  0.7818609E-02  0.8543337E-01
        1   -1    0    0  501    0  0.00000000000E+00  0.00000000000E+00  0.12795221461E+04  0.12795221461E+04  0.50400001928E-02 0. -1.
       -1   -1    0    0    0  501  0.00000000000E+00  0.00000000000E+00 -0.89573604183E+03  0.89573604185E+03  0.50400001928E-02 0.  1.
    10030    2    1    2    0    0  0.00000000000E+00  0.00000000000E+00  0.38378610430E+03  0.21752581880E+04  0.21411343747E+04 0.  0.
        4    1    3    3  502    0 -0.41912578149E+03  0.82013581440E+03 -0.36253632625E+03  0.98980976734E+03  0.12699999809E+01 0.  1.
       -4    1    3    3    0  502  0.41912578149E+03 -0.82013581440E+03  0.74632243055E+03  0.11854484206E+04  0.12699999809E+01 0. -1.
</event>
<event>
 5   0  0.8525278E-05  0.2103369E+04  0.7818609E-02  0.8559761E-01
        1   -1    0    0  501    0  0.00000000000E+00  0.00000000000E+00  0.98021913358E+03  0.98021913359E+03  0.50400001928E-02 0.  1.
       -1   -1    0    0    0  501  0.00000000000E+00  0.00000000000E+00 -0.11283605606E+04  0.11283605606E+04  0.50400001928E-02 0. -1.
    10030    2    1    2    0    0  0.00000000000E+00  0.00000000000E+00 -0.14814142698E+03  0.21085796942E+04  0.21033693076E+04 0.  0.
        4    1    3    3  502    0  0.37057229931E+03  0.29945744409E+03  0.86582335150E+03  0.98825618073E+03  0.12699999809E+01 0.  1.
       -4    1    3    3    0  502 -0.37057229931E+03 -0.29945744409E+03 -0.10139647785E+04  0.11203235134E+04  0.12699999809E+01 0. -1.
</event>
<event>
 5   0  0.8525278E-05  0.2201003E+04  0.7818609E-02  0.8518011E-01
        1   -1    0    0  501    0  0.00000000000E+00  0.00000000000E+00  0.25211794492E+04  0.25211794492E+04  0.50400001928E-02 0.  1.
       -1   -1    0    0    0  501  0.00000000000E+00  0.00000000000E+00 -0.48037190010E+03  0.48037190013E+03  0.50400001928E-02 0. -1.
    10030    2    1    2    0    0  0.00000000000E+00  0.00000000000E+00  0.20408075491E+04  0.30015513493E+04  0.22010031918E+04 0.  0.
        4    1    3    3  502    0 -0.96271267807E+03 -0.30569739907E+03  0.42466654031E+03  0.10957234522E+04  0.12699999809E+01 0. -1.
       -4    1    3    3    0  502  0.96271267807E+03  0.30569739907E+03  0.16161410088E+04  0.19058278971E+04  0.12699999809E+01 0.  1.
</event>
<event>
 5   0  0.1777590E-04  0.2072363E+04  0.7818609E-02  0.8573516E-01
        2   -1    0    0  501    0  0.00000000000E+00  0.00000000000E+00  0.17909065733E+04  0.17909065733E+04  0.25500000920E-02 0.  1.
       -2   -1    0    0    0  501  0.00000000000E+00  0.00000000000E+00 -0.59951346033E+03  0.59951346033E+03  0.25500000920E-02 0. -1.
    10030    2    1    2    0    0  0.00000000000E+00  0.00000000000E+00  0.11913931130E+04  0.23904200336E+04  0.20723634786E+04 0.  0.
        4    1    3    3  502    0  0.95453474532E+03  0.34390605093E+03  0.83837369758E+03  0.13161610926E+04  0.12699999809E+01 0.  1.
       -4    1    3    3    0  502 -0.95453474532E+03 -0.34390605093E+03  0.35301941537E+03  0.10742589411E+04  0.12699999809E+01 0. -1.
</event>
<event>
 5   0  0.8486612E-05  0.2104054E+04  0.7818609E-02  0.8559459E-01
        1   -1    0    0  501    0  0.00000000000E+00  0.00000000000E+00  0.13187999739E+04  0.13187999739E+04  0.50400001928E-02 0.  1.
       -1   -1    0    0    0  501  0.00000000000E+00  0.00000000000E+00 -0.83921847571E+03  0.83921847572E+03  0.50400001928E-02 0. -1.
    10030    2    1    2    0    0  0.00000000000E+00  0.00000000000E+00  0.47958149822E+03  0.21580184497E+04  0.21040544707E+04 0.  0.
        5    1    3    3  502    0  0.50646947197E+03  0.13948279444E+03  0.11746348984E+04  0.12867618313E+04  0.46999998093E+01 0.  1.
       -5    1    3    3    0  502 -0.50646947197E+03 -0.13948279444E+03 -0.69505340016E+03  0.87125661837E+03  0.46999998093E+01 0. -1.
</event>
<event>
 5   0  0.8271069E-05  0.1744025E+04  0.7818609E-02  0.8736646E-01
       -1   -1    0    0    0  501  0.00000000000E+00  0.00000000000E+00  0.45599300621E+03  0.45599300624E+03  0.50400001928E-02 0. -1.
        1   -1    0    0  501    0  0.00000000000E+00  0.00000000000E+00 -0.16675820788E+04  0.16675820788E+04  0.50400001928E-02 0.  1.
    10030    2    1    2    0    0  0.00000000000E+00  0.00000000000E+00 -0.12115890725E+04  0.21235750850E+04  0.17440249600E+04 0.  0.
        2    1    3    3  502    0  0.26345668624E+03 -0.73902615980E+03 -0.10691925821E+04  0.13261756550E+04  0.25500000920E-02 0. -1.
       -2    1    3    3    0  502 -0.26345668624E+03  0.73902615980E+03 -0.14239649043E+03  0.79739942996E+03  0.25500000920E-02 0.  1.
</event>
<event>
 5   0  0.8525278E-05  0.2101123E+04  0.7818609E-02  0.8560749E-01
        1   -1    0    0  501    0  0.00000000000E+00  0.00000000000E+00  0.14949168592E+04  0.14949168592E+04  0.50400001928E-02 0. -1.
       -1   -1    0    0    0  501  0.00000000000E+00  0.00000000000E+00 -0.73828835918E+03  0.73828835919E+03  0.50400001928E-02 0.  1.
    10030    2    1    2    0    0  0.00000000000E+00  0.00000000000E+00  0.75662850005E+03  0.22332052184E+04  0.21011232378E+04 0.  0.
        4    1    3    3  502    0  0.31864433098E+01  0.83317145667E+03  0.10584576588E+04  0.13470408524E+04  0.12699999809E+01 0. -1.
       -4    1    3    3    0  502 -0.31864433098E+01 -0.83317145667E+03 -0.30182915877E+03  0.88616436602E+03  0.12699999809E+01 0.  1.
</event>
<event>
 5   0  0.8525278E-05  0.2097404E+04  0.7818609E-02  0.8562388E-01
       -1   -1    0    0    0  501  0.00000000000E+00  0.00000000000E+00  0.10606943213E+04  0.10606943213E+04  0.50400001928E-02 0. -1.
        1   -1    0    0  501    0  0.00000000000E+00  0.00000000000E+00 -0.10368454811E+04  0.10368454811E+04  0.50400001928E-02 0.  1.
    10030    2    1    2    0    0  0.00000000000E+00  0.00000000000E+00  0.23848840221E+02  0.20975398024E+04  0.20974042184E+04 0.  0.
        4    1    3    3  502    0 -0.76774971983E+03 -0.13087642264E+02 -0.70237911631E+03  0.10406483338E+04  0.12699999809E+01 0.  1.
       -4    1    3    3    0  502  0.76774971983E+03  0.13087642264E+02  0.72622795653E+03  0.10568914686E+04  0.12699999809E+01 0. -1.
</event>
<event>
 5   0  0.1815400E-04  0.2066089E+04  0.7818609E-02  0.8576330E-01
       -2   -1    0    0    0  501  0.00000000000E+00  0.00000000000E+00  0.79889703885E+03  0.79889703886E+03  0.25500000920E-02 0.  1.
        2   -1    0    0  501    0  0.00000000000E+00  0.00000000000E+00 -0.13358174770E+04  0.13358174770E+04  0.25500000920E-02 0. -1.
    10030    2    1    2    0    0  0.00000000000E+00  0.00000000000E+00 -0.53692043816E+03  0.21347145159E+04  0.20660886978E+04 0.  0.
        3    1    3    3  502    0  0.56486175099E+03 -0.68016706443E+03  0.28359455708E+03  0.92850520531E+03  0.10100000352E+00 0.  1.
       -3    1    3    3    0  502 -0.56486175099E+03  0.68016706443E+03 -0.82051499524E+03  0.12062093106E+04  0.10100000352E+00 0. -1.
</event>
<event>
 5   0  0.8271069E-05  0.2112264E+04  0.7818609E-02  0.8555860E-01
        1   -1    0    0  501    0  0.00000000000E+00  0.00000000000E+00  0.13674891222E+04  0.13674891222E+04  0.50400001928E-02 0. -1.
       -1   -1    0    0    0  501  0.00000000000E+00  0.00000000000E+00 -0.81566640712E+03  0.81566640714E+03  0.50400001928E-02 0.  1.
    10030    2    1    2    0    0  0.00000000000E+00  0.00000000000E+00  0.55182271509E+03  0.21831555294E+04  0.21122641304E+04 0.  0.
        2    1    3    3  502    0 -0.10548457212E+04  0.43366411846E+00  0.32976831386E+03  0.11051908543E+04  0.25500000920E-02 0. -1.
       -2    1    3    3    0  502  0.10548457212E+04 -0.43366411846E+00  0.22205440123E+03  0.10779646751E+04  0.25500000920E-02 0.  1.
</event>
<event>
 5   0  0.1815400E-04  0.2133022E+04  0.7818609E-02  0.8546835E-01
        2   -1    0    0  501    0  0.00000000000E+00  0.00000000000E+00  0.17577895611E+04  0.17577895611E+04  0.25500000920E-02 0. -1.
       -2   -1    0    0    0  501  0.00000000000E+00  0.00000000000E+00 -0.64708858593E+03  0.64708858593E+03  0.25500000920E-02 0.  1.
    10030    2    1    2    0    0  0.00000000000E+00  0.00000000000E+00  0.11107009752E+04  0.24048781470E+04  0.21330218578E+04 0.  0.
        3    1    3    3  502    0  0.95590360928E+03 -0.13701597794E+03  0.10657267112E+04  0.14381580308E+04  0.10100000352E+00 0. -1.
       -3    1    3    3    0  502 -0.95590360928E+03  0.13701597794E+03  0.44974263956E+02  0.96672011620E+03  0.10100000352E+00 0.  1.
</event>
<event>
 5   0  0.8486612E-05  0.2063820E+04  0.7818609E-02  0.8577351E-01
       -1   -1    0    0    0  501  0.00000000000E+00  0.00000000000E+00  0.58231137890E+03  0.58231137892E+03  0.50400001928E-02 0. -1.
        1   -1    0    0  501    0  0.00000000000E+00  0.00000000000E+00 -0.18286399689E+04  0.18286399689E+04  0.50400001928E-02 0.  1.
    10030    2    1    2    0    0  0.00000000000E+00  0.00000000000E+00 -0.12463285900E+04  0.24109513479E+04  0.20638196257E+04 0.  0.
        5    1    3    3  502    0  0.74184591701E+03  0.71727254549E+03 -0.62233598195E+03  0.12050474819E+04  0.46999998093E+01 0.  1.
       -5    1    3    3    0  502 -0.74184591701E+03 -0.71727254549E+03 -0.62399260808E+03  0.12059038660E+04  0.46999998093E+01 0. -1.
</event>
<event>
 5   0  0.1815400E-04  0.2015476E+04  0.7818609E-02  0.8599419E-01
       -2   -1    0    0    0  501  0.00000000000E+00  0.00000000000E+00  0.10486253905E+04  0.10486253905E+04  0.25500000920E-02 0. -1.
        2   -1    0    0  501    0  0.00000000000E+00  0.00000000000E+00 -0.96844475718E+03  0.96844475719E+03  0.25500000920E-02 0.  1.
    10030    2    1    2    0    0  0.00000000000E+00  0.00000000000E+00  0.80180633326E+02  0.20170701477E+04  0.20154758859E+04 0.  0.
        3    1    3    3  502    0  0.63869554689E+02  0.15444656591E+03 -0.95447778814E+03  0.96899995871E+03  0.10100000352E+00 0.  1.
       -3    1    3    3    0  502 -0.63869554689E+02 -0.15444656591E+03  0.10346584215E+04  0.10480701890E+04  0.10100000352E+00 0. -1.
</event>
<event>
 5   0  0.8755004E-05  0.2106603E+04  0.7818609E-02  0.8558340E-01
        1   -1    0    0  501    0  0.00000000000E+00  0.00000000000E+00  0.28139233086E+04  0.28139233086E+04  0.50400001928E-02 0. -1.
       -1   -1    0    0    0  501  0.00000000000E+00  0.00000000000E+00 -0.39426964216E+03  0.39426964220E+03  0.50400001928E-02 0.  1.
    10030    2    1    2    0    0  0.00000000000E+00  0.00000000000E+00  0.24196536664E+04  0.32081929508E+04  0.21066034615E+04 0.  0.
        3    1    3    3  502    0 -0.96555744456E+03 -0.91205871473E+02  0.18355696245E+04  0.20760384260E+04  0.10100000352E+00 0. -1.
       -3    1    3    3    0  502  0.96555744456E+03  0.91205871473E+02  0.58408404195E+03  0.11321545248E+04  0.10100000352E+00 0.  1.
</event>
<event>
 5   0  0.8486612E-05  0.2117017E+04  0.7818609E-02  0.8553784E-01
       -1   -1    0    0    0  501  0.00000000000E+00  0.00000000000E+00  0.75026968441E+03  0.75026968443E+03  0.50400001928E-02 0.  1.
        1   -1    0    0  501    0  0.00000000000E+00  0.00000000000E+00 -0.14933831850E+04  0.14933831850E+04  0.50400001928E-02 0. -1.
    10030    2    1    2    0    0  0.00000000000E+00  0.00000000000E+00 -0.74311350059E+03  0.22436528694E+04  0.21170168926E+04 0.  0.
        5    1    3    3  502    0  0.11909118090E+03  0.41643524557E+03 -0.13951550881E+04  0.14608493533E+04  0.46999998093E+01 0. -1.
       -5    1    3    3    0  502 -0.11909118090E+03 -0.41643524557E+03  0.65204158749E+03  0.78280351618E+03  0.46999998093E+01 0.  1.
</event>
<event>
 5   0  0.1921687E-04  0.2096939E+04  0.7818609E-02  0.8562593E-01
       -2   -1    0    0    0  501  0.00000000000E+00  0.00000000000E+00  0.15616365043E+04  0.15616365043E+04  0.25500000920E-02 0.  1.
        2   -1    0    0  501    0  0.00000000000E+00  0.00000000000E+00 -0.70393372597E+03  0.70393372597E+03  0.25500000920E-02 0. -1.
    10030    2    1    2    0    0  0.00000000000E+00  0.00000000000E+00  0.85770277835E+03  0.22655702303E+04  0.20969392963E+04 0.  0.
        5    1    3    3  502    0  0.65780311553E+03  0.30090661219E+03 -0.39113990300E+03  0.82235165336E+03  0.46999998093E+01 0. -1.
       -5    1    3    3    0  502 -0.65780311553E+03 -0.30090661219E+03  0.12488426813E+04  0.14432185769E+04  0.46999998093E+01 0.  1.
</event>
<event>
 5   0  0.8755004E-05  0.2079965E+04  0.7818609E-02  0.8570121E-01
       -1   -1    0    0    0  501  0.00000000000E+00  0.00000000000E+00  0.12411396191E+04  0.12411396191E+04  0.50400001928E-02 0.  1.
        1   -1    0    0  501    0  0.00000000000E+00  0.00000000000E+00 -0.87142787895E+03  0.87142787896E+03  0.50400001928E-02 0. -1.
    10030    2    1    2    0    0  0.00000000000E+00  0.00000000000E+00  0.36971174019E+03  0.21125674981E+04  0.20799650630E+04 0.  0.
        3    1    3    3  502    0 -0.94894140247E+02  0.52563293991E+03  0.10911817788E+04  0.12148961149E+04  0.10100000352E+00 0.  1.
       -3    1    3    3    0  502  0.94894140247E+02 -0.52563293991E+03 -0.72147003864E+03  0.89767138320E+03  0.10100000352E+00 0. -1.
</event>
<event>
 5   0  0.8271069E-05  0.2115870E+04  0.7818609E-02  0.8554285E-01
       -1   -1    0    0    0  501  0.00000000000E+00  0.00000000000E+00  0.10398290593E+04  0.10398290593E+04  0.50400001928E-02 0. -1.
        1   -1    0    0  501    0  0.00000000000E+00  0.00000000000E+00 -0.10763560077E+04  0.10763560078E+04  0.50400001928E-02 0.  1.
    10030    2    1    2    0    0  0.00000000000E+00  0.00000000000E+00 -0.36526948484E+02  0.21161850670E+04  0.21158698022E+04 0.  0.
        2    1    3    3  502    0 -0.34562755080E+02 -0.10564018972E+04 -0.63510711226E+02  0.10588735349E+04  0.25500000920E-02 0. -1.
       -2    1    3    3    0  502  0.34562755080E+02  0.10564018972E+04  0.26983762741E+02  0.10573115321E+04  0.25500000920E-02 0.  1.
</event>
<event>
 5   0  0.1886323E-04  0.2120717E+04  0.7818609E-02  0.8552172E-01
        2   -1    0    0  501    0  0.00000000000E+00  0.00000000000E+00  0.13785205811E+04  0.13785205811E+04  0.25500000920E-02 0. -1.
       -2   -1    0    0    0  501  0.00000000000E+00  0.00000000000E+00 -0.81562844650E+03  0.81562844650E+03  0.25500000920E-02 0.  1.
    10030    2    1    2    0    0  0.00000000000E+00  0.00000000000E+00  0.56289213458E+03  0.21941490276E+04  0.21207174258E+04 0.  0.
        2    1    3    3  502    0 -0.40073054706E+03  0.95596732812E+03  0.51256882534E+03  0.11563672879E+04  0.25500000920E-02 0.  1.
       -2    1    3    3    0  502  0.40073054706E+03 -0.95596732812E+03  0.50323309237E+02  0.10377817397E+04  0.25500000920E-02 0. -1.
</event>
<event>
 5   0  0.1886323E-04  0.2093454E+04  0.7818609E-02  0.8564132E-01
        2   -1    0    0  501    0  0.00000000000E+00  0.00000000000E+00  0.93298800919E+03  0.93298800919E+03  0.25500000920E-02 0.  1.
       -2   -1    0    0    0  501  0.00000000000E+00  0.00000000000E+00 -0.11743316389E+04  0.11743316389E+04  0.25500000920E-02 0. -1.
    10030    2    1    2    0    0  0.00000000000E+00  0.00000000000E+00 -0.24134362967E+03  0.21073196481E+04  0.20934539287E+04 0.  0.
        2    1    3    3  502    0 -0.38315287294E+02  0.82097728318E+03 -0.77316689781E+03  0.11283877049E+04  0.25500000920E-02 0. -1.
       -2    1    3    3    0  502  0.38315287294E+02 -0.82097728318E+03  0.53182326814E+03  0.97893194313E+03  0.25500000920E-02 0.  1.
</event>
<event>
 5   0  0.1777590E-04  0.2084883E+04  0.7818609E-02  0.8567932E-01
       -2   -1    0    0    0  501  0.00000000000E+00  0.00000000000E+00  0.60161985272E+03  0.60161985272E+03  0.25500000920E-02 0. -1.
        2   -1    0    0  501    0  0.00000000000E+00  0.00000000000E+00 -0.18062636059E+04  0.18062636059E+04  0.25500000920E-02 0.  1.
    10030    2    1    2    0    0  0.00000000000E+00  0.00000000000E+00 -0.12046437532E+04  0.24078834586E+04  0.20848827733E+04 0.  0.
        4    1    3    3  502    0  0.88639219912E+03 -0.14379835067E+03 -0.12137926472E+04  0.15098553903E+04  0.12699999809E+01 0.  1.
       -4    1    3    3    0  502 -0.88639219912E+03  0.14379835067E+03  0.91488940357E+01  0.89802806831E+03  0.12699999809E+01 0. -1.
</event>
<event>
 5   0  0.1810875E-04  0.1947361E+04  0.7818609E-02  0.8631634E-01
       -2   -1    0    0    0  501  0.00000000000E+00  0.00000000000E+00  0.10155396074E+04  0.10155396074E+04  0.25500000920E-02 0.  1.
        2   -1    0    0  501    0  0.00000000000E+00  0.00000000000E+00 -0.93354661397E+03  0.93354661398E+03  0.25500000920E-02 0. -1.
    10030    2    1    2    0    0  0.00000000000E+00  0.00000000000E+00  0.81992993383E+02  0.19490862213E+04  0.19473608416E+04 0.  0.
        1    1    3    3  502    0 -0.50832975075E+03 -0.80093216826E+03  0.26064956416E+03  0.98378334453E+03  0.50400001928E-02 0.  1.
       -1    1    3    3    0  502  0.50832975075E+03  0.80093216826E+03 -0.17865657078E+03  0.96530287680E+03  0.50400001928E-02 0. -1.
</event>
<event>
 5   0  0.8271069E-05  0.1741539E+04  0.7818609E-02  0.8738021E-01
        1   -1    0    0  501    0  0.00000000000E+00  0.00000000000E+00  0.10948900725E+04  0.10948900725E+04  0.50400001928E-02 0. -1.
       -1   -1    0    0    0  501  0.00000000000E+00  0.00000000000E+00 -0.69252597203E+03  0.69252597205E+03  0.50400001928E-02 0.  1.
    10030    2    1    2    0    0  0.00000000000E+00  0.00000000000E+00  0.40236410044E+03  0.17874160445E+04  0.17415393326E+04 0.  0.
        2    1    3    3  502    0  0.20962011637E+03  0.75377798685E+03  0.59350541411E+03  0.98202368771E+03  0.25500000920E-02 0. -1.
       -2    1    3    3    0  502 -0.20962011637E+03 -0.75377798685E+03 -0.19114131367E+03  0.80539235683E+03  0.25500000920E-02 0.  1.
</event>
<event>
 5   0  0.1777590E-04  0.1984684E+04  0.7818609E-02  0.8613815E-01
        2   -1    0    0  501    0  0.00000000000E+00  0.00000000000E+00  0.19905503539E+04  0.19905503539E+04  0.25500000920E-02 0. -1.
       -2   -1    0    0    0  501  0.00000000000E+00  0.00000000000E+00 -0.49470876071E+03  0.49470876072E+03  0.25500000920E-02 0.  1.
    10030    2    1    2    0    0  0.00000000000E+00  0.00000000000E+00  0.14958415932E+04  0.24852591146E+04  0.19846840542E+04 0.  0.
        4    1    3    3  502    0  0.20290384452E+03 -0.89704950448E+03  0.28127250938E+03  0.96176068803E+03  0.12699999809E+01 0. -1.
       -4    1    3    3    0  502 -0.20290384452E+03  0.89704950448E+03  0.12145690838E+04  0.15234984266E+04  0.12699999809E+01 0.  1.
</event>
<event>
 5   0  0.1815400E-04  0.2019582E+04  0.7818609E-02  0.8597520E-01
       -2   -1    0    0    0  501  0.00000000000E+00  0.00000000000E+00  0.74808578289E+03  0.74808578289E+03  0.25500000920E-02 0.  1.
        2   -1    0    0  501    0  0.00000000000E+00  0.00000000000E+00 -0.13630493931E+04  0.13630493931E+04  0.25500000920E-02 0. -1.
    10030    2    1    2    0    0  0.00000000000E+00  0.00000000000E+00 -0.61496361017E+03  0.21111351760E+04  0.20195820086E+04 0.  0.
        3    1    3    3  502    0 -0.50637330074E+02 -0.99920766714E+03 -0.16454326256E+03  0.10139302721E+04  0.10100000352E+00 0.  1.
       -3    1    3    3    0  502  0.50637330074E+02  0.99920766714E+03 -0.45042034761E+03  0.10972049038E+04  0.10100000352E+00 0. -1.
</event>
<event>
 5   0  0.6441125E-05  0.2093398E+04  0.7818609E-02  0.8564157E-01
       -3   -1    0    0    0  501  0.00000000000E+00  0.00000000000E+00  0.73108724266E+03  0.73108724964E+03  0.10100000352E+00 0.  1.
        3   -1    0    0  501    0  0.00000000000E+00  0.00000000000E+00 -0.14985607976E+04  0.14985608010E+04  0.10100000352E+00 0. -1.
    10030    2    1    2    0    0  0.00000000000E+00  0.00000000000E+00 -0.76747355490E+03  0.22296480506E+04  0.20933979010E+04 0.  0.
        5    1    3    3  502    0  0.49331660206E+03 -0.86952451924E+03 -0.53521674785E+02  0.10011597371E+04  0.46999998093E+01 0. -1.
       -5    1    3    3    0  502 -0.49331660206E+03  0.86952451924E+03 -0.71395188012E+03  0.12284883136E+04  0.46999998093E+01 0.  1.
</event>
<event>
 5   0  0.8755004E-05  0.2080199E+04  0.7818609E-02  0.8570016E-01
        1   -1    0    0  501    0  0.00000000000E+00  0.00000000000E+00  0.19018211972E+04  0.19018211972E+04  0.50400001928E-02 0. -1.
       -1   -1    0    0    0  501  0.00000000000E+00  0.00000000000E+00 -0.56882706665E+03  0.56882706668E+03  0.50400001928E-02 0.  1.
    10030    2    1    2    0    0  0.00000000000E+00  0.00000000000E+00  0.13329941305E+04  0.24706482639E+04  0.20801993875E+04 0.  0.
        3    1    3    3  502    0  0.16845124687E+03 -0.10260873326E+04  0.69500987878E+03  0.12507077111E+04  0.10100000352E+00 0.  1.
       -3    1    3    3    0  502 -0.16845124687E+03  0.10260873326E+04  0.63798425176E+03  0.12199405528E+04  0.10100000352E+00 0. -1.
</event>
<event>
 5   0  0.1921687E-04  0.2126528E+04  0.7818609E-02  0.8549647E-01
       -2   -1    0    0    0  501  0.00000000000E+00  0.00000000000E+00  0.78560582248E+03  0.78560582249E+03  0.25500000920E-02 0.  1.
        2   -1    0    0  501    0  0.00000000000E+00  0.00000000000E+00 -0.14390551757E+04  0.14390551757E+04  0.25500000920E-02 0. -1.
    10030    2    1    2    0    0  0.00000000000E+00  0.00000000000E+00 -0.65344935320E+03  0.22246609982E+04  0.21265278036E+04 0.  0.
        5    1    3    3  502    0  0.11859590247E+03  0.13304325988E+03  0.76985639453E+03  0.79023189968E+03  0.46999998093E+01 0.  1.
       -5    1    3    3    0  502 -0.11859590247E+03 -0.13304325988E+03 -0.14233057477E+04  0.14344290985E+04  0.46999998093E+01 0. -1.
</event>
<event>
 5   0  0.8525278E-05  0.1923428E+04  0.7818609E-02  0.8643282E-01
       -1   -1    0    0    0  501  0.00000000000E+00  0.00000000000E+00  0.86949187200E+03  0.86949187201E+03  0.50400001928E-02 0.  1.
        1   -1    0    0  501    0  0.00000000000E+00  0.00000000000E+00 -0.10637172909E+04  0.10637172909E+04  0.50400001928E-02 0. -1.
    10030    2    1    2    0    0  0.00000000000E+00  0.00000000000E+00 -0.19422541891E+03  0.19332091629E+04  0.19234277097E+04 0.  0.
        4    1    3    3  502    0  0.64517394116E+03 -0.62428152546E+03 -0.44370704276E+03  0.10014261780E+04  0.12699999809E+01 0. -1.
       -4    1    3    3    0  502 -0.64517394116E+03  0.62428152546E+03  0.24948162385E+03  0.93178298489E+03  0.12699999809E+01 0.  1.
</event>
<event>
 5   0  0.1810875E-04  0.2124010E+04  0.7818609E-02  0.8550740E-01
       -2   -1    0    0    0  501  0.00000000000E+00  0.00000000000E+00  0.63220400257E+03  0.63220400258E+03  0.25500000920E-02 0.  1.
        2   -1    0    0  501    0  0.00000000000E+00  0.00000000000E+00 -0.17840041413E+04  0.17840041413E+04  0.25500000920E-02 0. -1.
    10030    2    1    2    0    0  0.00000000000E+00  0.00000000000E+00 -0.11518001388E+04  0.24162081439E+04  0.21240099423E+04 0.  0.
        1    1    3    3  502    0 -0.50706711695E+03  0.89776494366E+03 -0.28642146090E+03  0.10701103721E+04  0.50400001928E-02 0.  1.
       -1    1    3    3    0  502  0.50706711695E+03 -0.89776494366E+03 -0.86537867786E+03  0.13460977718E+04  0.50400001928E-02 0. -1.
</event>
<event>
 5   0  0.1886323E-04  0.1927119E+04  0.7818609E-02  0.8641474E-01
        2   -1    0    0  501    0  0.00000000000E+00  0.00000000000E+00  0.13492065217E+04  0.13492065217E+04  0.25500000920E-02 0.  1.
       -2   -1    0    0    0  501  0.00000000000E+00  0.00000000000E+00 -0.68814322349E+03  0.68814322350E+03  0.25500000920E-02 0. -1.
    10030    2    1    2    0    0  0.00000000000E+00  0.00000000000E+00  0.66106329820E+03  0.20373497452E+04  0.19271194307E+04 0.  0.
        2    1    3    3  502    0 -0.39445671241E+02  0.43572377919E+03  0.12381460006E+04  0.13131704731E+04  0.25500000920E-02 0.  1.
       -2    1    3    3    0  502  0.39445671241E+02 -0.43572377919E+03 -0.57708270237E+03  0.72417927208E+03  0.25500000920E-02 0. -1.
</event>
<event>
 5   0  0.8486612E-05  0.1928993E+04  0.7818609E-02  0.8640558E-01
        1   -1    0    0  501    0  0.00000000000E+00  0.00000000000E+00  0.46756769756E+03  0.46756769758E+03  0.50400001928E-02 0.  1.
       -1   -1    0    0    0  501  0.00000000000E+00  0.00000000000E+00 -0.19895594706E+04  0.19895594706E+04  0.50400001928E-02 0. -1.
    10030    2    1    2    0    0  0.00000000000E+00  0.00000000000E+00 -0.15219917730E+04  0.24571271682E+04  0.19289932513E+04 0.  0.
        5    1    3    3  502    0  0.35117348316E+03  0.26882563803E+03  0.33078299088E+03  0.55229477274E+03  0.46999998093E+01 0.  1.
       -5    1    3    3    0  502 -0.35117348316E+03 -0.26882563803E+03 -0.18527747639E+04  0.19048323954E+04  0.46999998093E+01 0. -1.
</event>
<event>
 5   0  0.1777590E-04  0.2091092E+04  0.7818609E-02  0.8565177E-01
       -2   -1    0    0    0  501  0.00000000000E+00  0.00000000000E+00  0.54259785994E+03  0.54259785994E+03  0.25500000920E-02 0.  1.
        2   -1    0    0  501    0  0.00000000000E+00  0.00000000000E+00 -0.20146905688E+04  0.20146905688E+04  0.25500000920E-02 0. -1.
    10030    2    1    2    0    0  0.00000000000E+00  0.00000000000E+00 -0.14720927089E+04  0.25572884288E+04  0.20910923376E+04 0.  0.
        4    1    3    3  502    0  0.10024926356E+03  0.93318233451E+03 -0.17258105745E+03  0.95428770220E+03  0.12699999809E+01 0.  1.
       -4    1    3    3    0  502 -0.10024926356E+03 -0.93318233451E+03 -0.12995116514E+04  0.16030007266E+04  0.12699999809E+01 0. -1.
</event>
<event>
 5   0  0.1921687E-04  0.2082193E+04  0.7818609E-02  0.8569128E-01
       -2   -1    0    0    0  501  0.00000000000E+00  0.00000000000E+00  0.47914303108E+03  0.47914303109E+03  0.25500000920E-02 0. -1.
        2   -1    0    0  501    0  0.00000000000E+00  0.00000000000E+00 -0.22621263844E+04  0.22621263844E+04  0.25500000920E-02 0.  1.
    10030    2    1    2    0    0  0.00000000000E+00  0.00000000000E+00 -0.17829833533E+04  0.27412694155E+04  0.20821931635E+04 0.  0.
        5    1    3    3  502    0 -0.30084189264E+03  0.27813632515E+03  0.36852734139E+03  0.55108996641E+03  0.46999998093E+01 0. -1.
       -5    1    3    3    0  502  0.30084189264E+03 -0.27813632515E+03 -0.21515106947E+04  0.21901794491E+04  0.46999998093E+01 0.  1.
</event>
<event>
 5   0  0.8525278E-05  0.2133909E+04  0.7818609E-02  0.8546452E-01
       -1   -1    0    0    0  501  0.00000000000E+00  0.00000000000E+00  0.10513295940E+04  0.10513295940E+04  0.50400001928E-02 0. -1.
        1   -1    0    0  501    0  0.00000000000E+00  0.00000000000E+00 -0.10828114161E+04  0.10828114161E+04  0.50400001928E-02 0.  1.
    10030    2    1    2    0    0  0.00000000000E+00  0.00000000000E+00 -0.31481822100E+02  0.21341410100E+04  0.21339087950E+04 0.  0.
        4    1    3    3  502    0 -0.72907565964E+02  0.82207227327E+03 -0.69203320376E+03  0.10770468438E+04  0.12699999809E+01 0.  1.
       -4    1    3    3    0  502  0.72907565964E+02 -0.82207227327E+03  0.66055138166E+03  0.10570941663E+04  0.12699999809E+01 0. -1.
</event>
<event>
 5   0  0.1815400E-04  0.2054823E+04  0.7818609E-02  0.8581410E-01
       -2   -1    0    0    0  501  0.00000000000E+00  0.00000000000E+00  0.10689484620E+04  0.10689484620E+04  0.25500000920E-02 0. -1.
        2   -1    0    0  501    0  0.00000000000E+00  0.00000000000E+00 -0.98748815403E+03  0.98748815403E+03  0.25500000920E-02 0.  1.
    10030    2    1    2    0    0  0.00000000000E+00  0.00000000000E+00  0.81460308001E+02  0.20564366161E+04  0.20548225651E+04 0.  0.
        3    1    3    3  502    0 -0.56598030419E+03 -0.51705664645E+03  0.72529424556E+03  0.10553355074E+04  0.10100000352E+00 0. -1.
       -3    1    3    3    0  502  0.56598030419E+03  0.51705664645E+03 -0.64383393756E+03  0.10011011086E+04  0.10100000352E+00 0.  1.
</event>
<event>
 5   0  0.6441125E-05  0.2111369E+04  0.7818609E-02  0.8556252E-01
       -3   -1    0    0    0  501  0.00000000000E+00  0.00000000000E+00  0.94209463515E+03  0.94209464057E+03  0.10100000352E+00 0.  1.
        3   -1    0    0  501    0  0.00000000000E+00  0.00000000000E+00 -0.11829701603E+04  0.11829701646E+04  0.10100000352E+00 0. -1.
    10030    2    1    2    0    0  0.00000000000E+00  0.00000000000E+00 -0.24087552512E+03  0.21250648052E+04  0.21113690837E+04 0.  0.
        2    1    3    3  502    0 -0.49331264634E+03 -0.24742435227E+03 -0.10262162968E+04  0.11652021562E+04  0.25500000920E-02 0. -1.
       -2    1    3    3    0  502  0.49331264634E+03  0.24742435227E+03  0.78534077166E+03  0.95986264891E+03  0.25500000920E-02 0.  1.
</event>
<event>
 5   0  0.8755004E-05  0.1966331E+04  0.7818609E-02  0.8622526E-01
       -1   -1    0    0    0  501  0.00000000000E+00  0.00000000000E+00  0.85843877896E+03  0.85843877897E+03  0.50400001928E-02 0. -1.
        1   -1    0    0  501    0  0.00000000000E+00  0.00000000000E+00 -0.11260147804E+04  0.11260147804E+04  0.50400001928E-02 0.  1.
    10030    2    1    2    0    0  0.00000000000E+00  0.00000000000E+00 -0.26757600145E+03  0.19844535594E+04  0.19663313589E+04 0.  0.
        3    1    3    3  502    0  0.14280336503E+03 -0.93401025582E+03  0.14046414099E+03  0.95524768733E+03  0.10100000352E+00 0. -1.
       -3    1    3    3    0  502 -0.14280336503E+03  0.93401025582E+03 -0.40804014244E+03  0.10292058721E+04  0.10100000352E+00 0.  1.
</event>
<event>
 5   0  0.8755004E-05  0.2091835E+04  0.7818609E-02  0.8564849E-01
        1   -1    0    0  501    0  0.00000000000E+00  0.00000000000E+00  0.20153198206E+04  0.20153198206E+04  0.50400001928E-02 0.  1.
       -1   -1    0    0    0  501  0.00000000000E+00  0.00000000000E+00 -0.54281370146E+03  0.54281370148E+03  0.50400001928E-02 0. -1.
    10030    2    1    2    0    0  0.00000000000E+00  0.00000000000E+00  0.14725061191E+04  0.25581335221E+04  0.20918348037E+04 0.  0.
        3    1    3    3  502    0  0.70609222775E+03  0.65297557537E+03  0.23351819630E+03  0.98968383553E+03  0.10100000352E+00 0. -1.
       -3    1    3    3    0  502 -0.70609222775E+03 -0.65297557537E+03  0.12389879228E+04  0.15684496866E+04  0.10100000352E+00 0.  1.
</event>
<event>
 5   0  0.8237966E-05  0.2111564E+04  0.7818609E-02  0.8556166E-01
        1   -1    0    0  501    0  0.00000000000E+00  0.00000000000E+00  0.21560248937E+04  0.21560248937E+04  0.50400001928E-02 0. -1.
       -1   -1    0    0    0  501  0.00000000000E+00  0.00000000000E+00 -0.51700491314E+03  0.51700491317E+03  0.50400001928E-02 0.  1.
    10030    2    1    2    0    0  0.00000000000E+00  0.00000000000E+00  0.16390199805E+04  0.26730298069E+04  0.21115638403E+04 0.  0.
        1    1    3    3  502    0 -0.93468336261E+03 -0.44467346283E+03  0.10829511195E+04  0.14980489325E+04  0.50400001928E-02 0.  1.
       -1    1    3    3    0  502  0.93468336261E+03  0.44467346283E+03  0.55606886105E+03  0.11749808744E+04  0.50400001928E-02 0. -1.
</event>
<event>
 5   0  0.1815400E-04  0.1946008E+04  0.7818609E-02  0.8632288E-01
        2   -1    0    0  501    0  0.00000000000E+00  0.00000000000E+00  0.24892777388E+04  0.24892777388E+04  0.25500000920E-02 0.  1.
       -2   -1    0    0    0  501  0.00000000000E+00  0.00000000000E+00 -0.38032586118E+03  0.38032586119E+03  0.25500000920E-02 0. -1.
    10030    2    1    2    0    0  0.00000000000E+00  0.00000000000E+00  0.21089518776E+04  0.28696036000E+04  0.19460079134E+04 0.  0.
        3    1    3    3  502    0 -0.22908144236E+02 -0.54137694771E+03  0.22461974112E+04  0.23106312131E+04  0.10100000352E+00 0.  1.
       -3    1    3    3    0  502  0.22908144236E+02  0.54137694771E+03 -0.13724553362E+03  0.55897238687E+03  0.10100000352E+00 0. -1.
</event>
<event>
 5   0  0.6441125E-05  0.2157785E+04  0.7818609E-02  0.8536207E-01
        3   -1    0    0  501    0  0.00000000000E+00  0.00000000000E+00  0.12405870399E+04  0.12405870440E+04  0.10100000352E+00 0. -1.
       -3   -1    0    0    0  501  0.00000000000E+00  0.00000000000E+00 -0.93827280414E+03  0.93827280957E+03  0.10100000352E+00 0.  1.
    10030    2    1    2    0    0  0.00000000000E+00  0.00000000000E+00  0.30231423579E+03  0.21788598536E+04  0.21577850599E+04 0.  0.
        1    1    3    3  502    0  0.83481125429E+03  0.63736576737E+03  0.40027325328E+03  0.11239944969E+04  0.50400001928E-02 0.  1.
       -1    1    3    3    0  502 -0.83481125429E+03 -0.63736576737E+03 -0.97959017488E+02  0.10548653567E+04  0.50400001928E-02 0. -1.
</event>
<event>
 5   0  0.1815400E-04  0.1651837E+04  0.7818609E-02  0.8789321E-01
        2   -1    0    0  501    0  0.00000000000E+00  0.00000000000E+00  0.11818833273E+04  0.11818833273E+04  0.25500000920E-02 0. -1.
       -2   -1    0    0    0  501  0.00000000000E+00  0.00000000000E+00 -0.57716464297E+03  0.57716464298E+03  0.25500000920E-02 0.  1.
    10030    2    1    2    0    0  0.00000000000E+00  0.00000000000E+00  0.60471868437E+03  0.17590479703E+04  0.16518368789E+04 0.  0.
        3    1    3    3  502    0  0.58513405763E+03 -0.42437143633E+03 -0.12316052784E+03  0.73324041568E+03  0.10100000352E+00 0.  1.
       -3    1    3    3    0  502 -0.58513405763E+03  0.42437143633E+03  0.72787921221E+03  0.10258075546E+04  0.10100000352E+00 0. -1.
</event>
<event>
 5   0  0.1921687E-04  0.2206887E+04  0.7818609E-02  0.8515567E-01
        2   -1    0    0  501    0  0.00000000000E+00  0.00000000000E+00  0.13483805046E+04  0.13483805046E+04  0.25500000920E-02 0.  1.
       -2   -1    0    0    0  501  0.00000000000E+00  0.00000000000E+00 -0.90299989814E+03  0.90299989814E+03  0.25500000920E-02 0. -1.
    10030    2    1    2    0    0  0.00000000000E+00  0.00000000000E+00  0.44538060649E+03  0.22513804028E+04  0.22068869100E+04 0.  0.
        5    1    3    3  502    0  0.27718197578E+03 -0.10634282945E+04  0.12141247667E+03  0.11056548578E+04  0.46999998093E+01 0. -1.
       -5    1    3    3    0  502 -0.27718197578E+03  0.10634282945E+04  0.32396812982E+03  0.11457255449E+04  0.46999998093E+01 0.  1.
</event>
<event>
 5   0  0.8271069E-05  0.1935425E+04  0.7818609E-02  0.8637421E-01
       -1   -1    0    0    0  501  0.00000000000E+00  0.00000000000E+00  0.86338331101E+03  0.86338331103E+03  0.50400001928E-02 0. -1.
        1   -1    0    0  501    0  0.00000000000E+00  0.00000000000E+00 -0.10846489624E+04  0.10846489624E+04  0.50400001928E-02 0.  1.
    10030    2    1    2    0    0  0.00000000000E+00  0.00000000000E+00 -0.22126565136E+03  0.19480322734E+04  0.19354253408E+04 0.  0.
        2    1    3    3  502    0  0.33727982990E+03  0.48694355829E+02 -0.10222581919E+04  0.10775623578E+04  0.25500000920E-02 0.  1.
       -2    1    3    3    0  502 -0.33727982990E+03 -0.48694355829E+02  0.80099254057E+03  0.87046991562E+03  0.25500000920E-02 0. -1.
</event>
<event>
 5   0  0.8525278E-05  0.2101046E+04  0.7818609E-02  0.8560783E-01
        1   -1    0    0  501    0  0.00000000000E+00  0.00000000000E+00  0.71876549878E+03  0.71876549880E+03  0.50400001928E-02 0. -1.
       -1   -1    0    0    0  501  0.00000000000E+00  0.00000000000E+00 -0.15354087412E+04  0.15354087412E+04  0.50400001928E-02 0.  1.
    10030    2    1    2    0    0  0.00000000000E+00  0.00000000000E+00 -0.81664324237E+03  0.22541742400E+04  0.21010462439E+04 0.  0.
        4    1    3    3  502    0 -0.75352852258E+03 -0.21935551562E+03  0.34091186584E+03  0.85565448035E+03  0.12699999809E+01 0. -1.
       -4    1    3    3    0  502  0.75352852258E+03  0.21935551562E+03 -0.11575551082E+04  0.13985197596E+04  0.12699999809E+01 0.  1.
</event>
<event>
 5   0  0.1886323E-04  0.2063766E+04  0.7818609E-02  0.8577375E-01
       -2   -1    0    0    0  501  0.00000000000E+00  0.00000000000E+00  0.75844734878E+03  0.75844734878E+03  0.25500000920E-02 0. -1.
        2   -1    0    0  501    0  0.00000000000E+00  0.00000000000E+00 -0.14038971413E+04  0.14038971413E+04  0.25500000920E-02 0.  1.
    10030    2    1    2    0    0  0.00000000000E+00  0.00000000000E+00 -0.64544979256E+03  0.21623444901E+04  0.20637655534E+04 0.  0.
        2    1    3    3  502    0  0.49757671131E+03  0.73168341128E+03  0.23351862632E+03  0.91513613568E+03  0.25500000920E-02 0. -1.
       -2    1    3    3    0  502 -0.49757671131E+03 -0.73168341128E+03 -0.87896841888E+03  0.12472083544E+04  0.25500000920E-02 0.  1.
</event>
<event>
 5   0  0.1815400E-04  0.2095461E+04  0.7818609E-02  0.8563245E-01
        2   -1    0    0  501    0  0.00000000000E+00  0.00000000000E+00  0.13496341103E+04  0.13496341103E+04  0.25500000920E-02 0. -1.
       -2   -1    0    0    0  501  0.00000000000E+00  0.00000000000E+00 -0.81336097571E+03  0.81336097571E+03  0.25500000920E-02 0.  1.
    10030    2    1    2    0    0  0.00000000000E+00  0.00000000000E+00  0.53627313459E+03  0.21629950860E+04  0.20954614927E+04 0.  0.
        3    1    3    3  502    0  0.74963406025E+03 -0.32956822202E+02  0.10229365590E+04  0.12686357201E+04  0.10100000352E+00 0. -1.
       -3    1    3    3    0  502 -0.74963406025E+03  0.32956822202E+02 -0.48666342444E+03  0.89435936587E+03  0.10100000352E+00 0.  1.
</event>
<event>
 5   0  0.8237966E-05  0.2087728E+04  0.7818609E-02  0.8566669E-01
       -1   -1    0    0    0  501  0.00000000000E+00  0.00000000000E+00  0.81672333039E+03  0.81672333041E+03  0.50400001928E-02 0.  1.
        1   -1    0    0  501    0  0.00000000000E+00  0.00000000000E+00 -0.13341751033E+04  0.13341751033E+04  0.50400001928E-02 0. -1.
    10030    2    1    2    0    0  0.00000000000E+00  0.00000000000E+00 -0.51745177291E+03  0.21508984337E+04  0.20877278881E+04 0.  0.
        1    1    3    3  502    0 -0.13937402208E+03 -0.93632744379E+03  0.19449132603E+03  0.96641661614E+03  0.50400001928E-02 0.  1.
       -1    1    3    3    0  502  0.13937402208E+03  0.93632744379E+03 -0.71194309894E+03  0.11844818176E+04  0.50400001928E-02 0. -1.
</event>
<event>
 5   0  0.1921687E-04  0.2115939E+04  0.7818609E-02  0.8554255E-01
       -2   -1    0    0    0  501  0.00000000000E+00  0.00000000000E+00  0.11726833897E+04  0.11726833897E+04  0.25500000920E-02 0.  1.
        2   -1    0    0  501    0  0.00000000000E+00  0.00000000000E+00 -0.95447689683E+03  0.95447689684E+03  0.25500000920E-02 0. -1.
    10030    2    1    2    0    0  0.00000000000E+00  0.00000000000E+00  0.21820649286E+03  0.21271602865E+04  0.21159387541E+04 0.  0.
        5    1    3    3  502    0  0.47414314348E+03  0.84966265312E+03  0.52668399637E+03  0.11064160459E+04  0.46999998093E+01 0.  1.
       -5    1    3    3    0  502 -0.47414314348E+03 -0.84966265312E+03 -0.30847750350E+03  0.10207442406E+04  0.46999998093E+01 0. -1.
</event>
<event>
 5   0  0.8525278E-05  0.2084648E+04  0.7818609E-02  0.8568036E-01
        1   -1    0    0  501    0  0.00000000000E+00  0.00000000000E+00  0.16565195223E+04  0.16565195224E+04  0.50400001928E-02 0. -1.
       -1   -1    0    0    0  501  0.00000000000E+00  0.00000000000E+00 -0.65585673687E+03  0.65585673689E+03  0.50400001928E-02 0.  1.
    10030    2    1    2    0    0  0.00000000000E+00  0.00000000000E+00  0.10006627855E+04  0.23123762592E+04  0.20846481607E+04 0.  0.
        4    1    3    3  502    0 -0.82290525279E+03 -0.25709720648E+03  0.11501284863E+04  0.14373827523E+04  0.12699999809E+01 0. -1.
       -4    1    3    3    0  502  0.82290525279E+03  0.25709720648E+03 -0.14946570079E+03  0.87499350698E+03  0.12699999809E+01 0.  1.
</event>
<event>
 5   0  0.8486612E-05  0.2084844E+04  0.7818609E-02  0.8567949E-01
        1   -1    0    0  501    0  0.00000000000E+00  0.00000000000E+00  0.56599045371E+03  0.56599045373E+03  0.50400001928E-02 0. -1.
       -1   -1    0    0    0  501  0.00000000000E+00  0.00000000000E+00 -0.19198970547E+04  0.19198970547E+04  0.50400001928E-02 0.  1.
    10030    2    1    2    0    0  0.00000000000E+00  0.00000000000E+00 -0.13539066010E+04  0.24858875084E+04  0.20848437880E+04 0.  0.
        5    1    3    3  502    0  0.14663251496E+03  0.10312020934E+04 -0.62718076490E+03  0.12158357840E+04  0.46999998093E+01 0. -1.
       -5    1    3    3    0  502 -0.14663251496E+03 -0.10312020934E+04 -0.72672583607E+03  0.12700517244E+04  0.46999998093E+01 0.  1.
</event>
<event>
 5   0  0.1886323E-04  0.2081404E+04  0.7818609E-02  0.8569480E-01
        2   -1    0    0  501    0  0.00000000000E+00  0.00000000000E+00  0.20800589083E+04  0.20800589083E+04  0.25500000920E-02 0. -1.
       -2   -1    0    0    0  501  0.00000000000E+00  0.00000000000E+00 -0.52068744958E+03  0.52068744959E+03  0.25500000920E-02 0.  1.
    10030    2    1    2    0    0  0.00000000000E+00  0.00000000000E+00  0.15593714588E+04  0.26007463579E+04  0.20814039185E+04 0.  0.
        2    1    3    3  502    0  0.86059180851E+03 -0.32331251904E+03  0.17022014543E+03  0.93494606463E+03  0.25500000920E-02 0.  1.
       -2    1    3    3    0  502 -0.86059180851E+03  0.32331251904E+03  0.13891513133E+04  0.16658002933E+04  0.25500000920E-02 0. -1.
</event>
<event>
 5   0  0.8237966E-05  0.2099474E+04  0.7818609E-02  0.8561475E-01
        1   -1    0    0  501    0  0.00000000000E+00  0.00000000000E+00  0.17405938452E+04  0.17405938452E+04  0.50400001928E-02 0.  1.
       -1   -1    0    0    0  501  0.00000000000E+00  0.00000000000E+00 -0.63308734105E+03  0.63308734107E+03  0.50400001928E-02 0. -1.
    10030    2    1    2    0    0  0.00000000000E+00  0.00000000000E+00  0.11075065041E+04  0.23736811862E+04  0.20994741525E+04 0.  0.
        1    1    3    3  502    0 -0.79647906208E+02 -0.90466571335E+03  0.11489985901E+04  0.14645687426E+04  0.50400001928E-02 0.  1.
       -1    1    3    3    0  502  0.79647906208E+02  0.90466571335E+03 -0.41492085976E+02  0.90911244359E+03  0.50400001928E-02 0. -1.
</event>
<event>
 5   0  0.8271069E-05  0.2075015E+04  0.7818609E-02  0.8572330E-01
       -1   -1    0    0    0  501  0.00000000000E+00  0.00000000000E+00  0.87831655531E+03  0.87831655533E+03  0.50400001928E-02 0.  1.
        1   -1    0    0  501    0  0.00000000000E+00  0.00000000000E+00 -0.12255512648E+04  0.12255512648E+04  0.50400001928E-02 0. -1.
    10030    2    1    2    0    0  0.00000000000E+00  0.00000000000E+00 -0.34723470949E+03  0.21038678201E+04  0.20750151472E+04 0.  0.
        2    1    3    3  502    0  0.60209447864E+03 -0.64410718266E+03 -0.72805749231E+03  0.11434419688E+04  0.25500000920E-02 0. -1.
       -2    1    3    3    0  502 -0.60209447864E+03  0.64410718266E+03  0.38082278281E+03  0.96042585132E+03  0.25500000920E-02 0.  1.
</event>
<event>
 5   0  0.1921687E-04  0.2156424E+04  0.7818609E-02  0.8536787E-01
       -2   -1    0    0    0  501  0.00000000000E+00  0.00000000000E+00  0.79929932112E+03  0.79929932112E+03  0.25500000920E-02 0. -1.
        2   -1    0    0  501    0  0.00000000000E+00  0.00000000000E+00 -0.14544507345E+04  0.14544507345E+04  0.25500000920E-02 0.  1.
    10030    2    1    2    0    0  0.00000000000E+00  0.00000000000E+00 -0.65515141341E+03  0.22537500557E+04  0.21564243411E+04 0.  0.
        5    1    3    3  502    0 -0.10354986577E+04  0.10198886872E+03 -0.32225887617E+02  0.10410186344E+04  0.46999998093E+01 0.  1.
       -5    1    3    3    0  502  0.10354986577E+04 -0.10198886872E+03 -0.62292552580E+03  0.12127314212E+04  0.46999998093E+01 0. -1.
</event>
<event>
 5   0  0.1777590E-04  0.2069083E+04  0.7818609E-02  0.8574986E-01
        2   -1    0    0  501    0  0.00000000000E+00  0.00000000000E+00  0.14639666168E+04  0.14639666168E+04  0.25500000920E-02 0. -1.
       -2   -1    0    0    0  501  0.00000000000E+00  0.00000000000E+00 -0.73107987870E+03  0.73107987871E+03  0.25500000920E-02 0.  1.
    10030    2    1    2    0    0  0.00000000000E+00  0.00000000000E+00  0.73288673812E+03  0.21950464955E+04  0.20690834074E+04 0.  0.
        4    1    3    3  502    0 -0.52455802766E+03  0.82014157725E+03 -0.48362744196E+01  0.97355961994E+03  0.12699999809E+01 0.  1.
       -4    1    3    3    0  502  0.52455802766E+03 -0.82014157725E+03  0.73772301254E+03  0.12214868756E+04  0.12699999809E+01 0. -1.
</event>
<event>
 5   0  0.8271069E-05  0.2135073E+04  0.7818609E-02  0.8545949E-01
       -1   -1    0    0    0  501  0.00000000000E+00  0.00000000000E+00  0.14364837715E+04  0.14364837715E+04  0.50400001928E-02 0.  1.
        1   -1    0    0  501    0  0.00000000000E+00  0.00000000000E+00 -0.79334950404E+03  0.79334950405E+03  0.50400001928E-02 0. -1.
    10030    2    1    2    0    0  0.00000000000E+00  0.00000000000E+00  0.64313426749E+03  0.22298332756E+04  0.21350725400E+04 0.  0.
        2    1    3    3  502    0  0.60851260274E+03  0.82947270213E+03  0.23741909985E+02  0.10290171182E+04  0.25500000920E-02 0. -1.
       -2    1    3    3    0  502 -0.60851260274E+03 -0.82947270213E+03  0.61939235750E+03  0.12008161574E+04  0.25500000920E-02 0.  1.
</event>
<event>
 5   0  0.8755004E-05  0.2053233E+04  0.7818609E-02  0.8582129E-01
        1   -1    0    0  501    0  0.00000000000E+00  0.00000000000E+00  0.16615083580E+04  0.16615083580E+04  0.50400001928E-02 0.  1.
       -1   -1    0    0    0  501  0.00000000000E+00  0.00000000000E+00 -0.63432807546E+03  0.63432807548E+03  0.50400001928E-02 0. -1.
    10030    2    1    2    0    0  0.00000000000E+00  0.00000000000E+00  0.10271802825E+04  0.22958364335E+04  0.20532329621E+04 0.  0.
        3    1    3    3  502    0 -0.82606804048E+03  0.58335390397E+03  0.31592226613E+03  0.10594796238E+04  0.10100000352E+00 0.  1.
       -3    1    3    3    0  502  0.82606804048E+03 -0.58335390397E+03  0.71125801638E+03  0.12363568097E+04  0.10100000352E+00 0. -1.
</event>
<event>
 5   0  0.8271069E-05  0.2012274E+04  0.7818609E-02  0.8600903E-01
        1   -1    0    0  501    0  0.00000000000E+00  0.00000000000E+00  0.76995575850E+03  0.76995575852E+03  0.50400001928E-02 0.  1.
       -1   -1    0    0    0  501  0.00000000000E+00  0.00000000000E+00 -0.13147663935E+04  0.13147663935E+04  0.50400001928E-02 0. -1.
    10030    2    1    2    0    0  0.00000000000E+00  0.00000000000E+00 -0.54481063495E+03  0.20847221520E+04  0.20122742912E+04 0.  0.
        2    1    3    3  502    0  0.48359172191E+03  0.76407366259E+03 -0.72947221901E+03  0.11618086046E+04  0.25500000920E-02 0. -1.
       -2    1    3    3    0  502 -0.48359172191E+03 -0.76407366259E+03  0.18466158406E+03  0.92291354741E+03  0.25500000920E-02 0.  1.
</event>
<event>
 5   0  0.1815400E-04  0.2186611E+04  0.7818609E-02  0.8524022E-01
       -2   -1    0    0    0  501  0.00000000000E+00  0.00000000000E+00  0.28906922841E+04  0.28906922841E+04  0.25500000920E-02 0.  1.
        2   -1    0    0  501    0  0.00000000000E+00  0.00000000000E+00 -0.41350551964E+03  0.41350551965E+03  0.25500000920E-02 0. -1.
    10030    2    1    2    0    0  0.00000000000E+00  0.00000000000E+00  0.24771867644E+04  0.33041978037E+04  0.21866112732E+04 0.  0.
        3    1    3    3  502    0 -0.84806803397E+03 -0.59022564958E+03  0.17786551787E+04  0.20569880803E+04  0.10100000352E+00 0. -1.
       -3    1    3    3    0  502  0.84806803397E+03  0.59022564958E+03  0.69853158570E+03  0.12472097234E+04  0.10100000352E+00 0.  1.
</event>
<event>
 5   0  0.6441125E-05  0.2069553E+04  0.7818609E-02  0.8574775E-01
       -3   -1    0    0    0  501  0.00000000000E+00  0.00000000000E+00  0.51765079271E+03  0.51765080256E+03  0.10100000352E+00 0.  1.
        3   -1    0    0  501    0  0.00000000000E+00  0.00000000000E+00 -0.20685038871E+04  0.20685038896E+04  0.10100000352E+00 0. -1.
    10030    2    1    2    0    0  0.00000000000E+00  0.00000000000E+00 -0.15508530944E+04  0.25861546921E+04  0.20695532782E+04 0.  0.
        2    1    3    3  502    0 -0.69793239553E+03  0.44880290896E+03 -0.28532166842E+01  0.82978420126E+03  0.25500000920E-02 0.  1.
       -2    1    3    3    0  502  0.69793239553E+03 -0.44880290896E+03 -0.15479998777E+04  0.17563704909E+04  0.25500000920E-02 0. -1.
</event>
<event>
 5   0  0.8525278E-05  0.2115568E+04  0.7818609E-02  0.8554416E-01
       -1   -1    0    0    0  501  0.00000000000E+00  0.00000000000E+00  0.10462599105E+04  0.10462599106E+04  0.50400001928E-02 0.  1.
        1   -1    0    0  501    0  0.00000000000E+00  0.00000000000E+00 -0.10694351564E+04  0.10694351564E+04  0.50400001928E-02 0. -1.
    10030    2    1    2    0    0  0.00000000000E+00  0.00000000000E+00 -0.23175245816E+02  0.21156950669E+04  0.21155681327E+04 0.  0.
        4    1    3    3  502    0  0.58964797609E+03 -0.66990186396E+03  0.55629526167E+03  0.10516269653E+04  0.12699999809E+01 0. -1.
       -4    1    3    3    0  502 -0.58964797609E+03  0.66990186396E+03 -0.57947050749E+03  0.10640681017E+04  0.12699999809E+01 0.  1.
</event>
<event>
 5   0  0.8755004E-05  0.2117281E+04  0.7818609E-02  0.8553669E-01
       -1   -1    0    0    0  501  0.00000000000E+00  0.00000000000E+00  0.74970262807E+03  0.74970262808E+03  0.50400001928E-02 0.  1.
        1   -1    0    0  501    0  0.00000000000E+00  0.00000000000E+00 -0.14948850100E+04  0.14948850100E+04  0.50400001928E-02 0. -1.
    10030    2    1    2    0    0  0.00000000000E+00  0.00000000000E+00 -0.74518238194E+03  0.22445876381E+04  0.21172805395E+04 0.  0.
        3    1    3    3  502    0 -0.53507077380E+03  0.81533902268E+03  0.64048549357E+02  0.97733345474E+03  0.10100000352E+00 0.  1.
       -3    1    3    3    0  502  0.53507077380E+03 -0.81533902268E+03 -0.80923093130E+03  0.12672541834E+04  0.10100000352E+00 0. -1.
</event>
<event>
 5   0  0.1810875E-04  0.2131030E+04  0.7818609E-02  0.8547696E-01
       -2   -1    0    0    0  501  0.00000000000E+00  0.00000000000E+00  0.47412195051E+03  0.47412195052E+03  0.25500000920E-02 0. -1.
        2   -1    0    0  501    0  0.00000000000E+00  0.00000000000E+00 -0.23945794704E+04  0.23945794704E+04  0.25500000920E-02 0.  1.
    10030    2    1    2    0    0  0.00000000000E+00  0.00000000000E+00 -0.19204575199E+04  0.28687014209E+04  0.21310304448E+04 0.  0.
        1    1    3    3  502    0  0.36960666856E+03  0.97001082641E+03 -0.12838461099E+04  0.16509969493E+04  0.50400001928E-02 0.  1.
       -1    1    3    3    0  502 -0.36960666856E+03 -0.97001082641E+03 -0.63661141001E+03  0.12177044716E+04  0.50400001928E-02 0. -1.
</event>
<event>
 5   0  0.8237966E-05  0.2133970E+04  0.7818609E-02  0.8546425E-01
        1   -1    0    0  501    0  0.00000000000E+00  0.00000000000E+00  0.18944949718E+04  0.18944949718E+04  0.50400001928E-02 0.  1.
       -1   -1    0    0    0  501  0.00000000000E+00  0.00000000000E+00 -0.60092903562E+03  0.60092903564E+03  0.50400001928E-02 0. -1.
    10030    2    1    2    0    0  0.00000000000E+00  0.00000000000E+00  0.12935659362E+04  0.24954240075E+04  0.21339700433E+04 0.  0.
        1    1    3    3  502    0 -0.10370025581E+03  0.98800779684E+02 -0.58963585551E+03  0.60678314022E+03  0.50400001928E-02 0. -1.
       -1    1    3    3    0  502  0.10370025581E+03 -0.98800779684E+02  0.18832017917E+04  0.18886408672E+04  0.50400001928E-02 0.  1.
</event>
<event>
 5   0  0.1815400E-04  0.1833556E+04  0.7818609E-02  0.8688656E-01
       -2   -1    0    0    0  501  0.00000000000E+00  0.00000000000E+00  0.10061768382E+04  0.10061768382E+04  0.25500000920E-02 0.  1.
        2   -1    0    0  501    0  0.00000000000E+00  0.00000000000E+00 -0.83532221715E+03  0.83532221715E+03  0.25500000920E-02 0. -1.
    10030    2    1    2    0    0  0.00000000000E+00  0.00000000000E+00  0.17085462103E+03  0.18414990553E+04  0.18335559630E+04 0.  0.
        3    1    3    3  502    0 -0.76306103625E+03  0.94542796993E+02  0.58687108445E+03  0.96727357323E+03  0.10100000352E+00 0.  1.
       -3    1    3    3    0  502  0.76306103625E+03 -0.94542796993E+02 -0.41601646343E+03  0.87422548210E+03  0.10100000352E+00 0. -1.
</event>
<event>
 5   0  0.1815400E-04  0.2081315E+04  0.7818609E-02  0.8569519E-01
       -2   -1    0    0    0  501  0.00000000000E+00  0.00000000000E+00  0.29626167387E+04  0.29626167387E+04  0.25500000920E-02 0.  1.
        2   -1    0    0  501    0  0.00000000000E+00  0.00000000000E+00 -0.36554459459E+03  0.36554459460E+03  0.25500000920E-02 0. -1.
    10030    2    1    2    0    0  0.00000000000E+00  0.00000000000E+00  0.25970721441E+04  0.33281613333E+04  0.20813154828E+04 0.  0.
        3    1    3    3  502    0  0.77128539755E+03  0.19532011477E+03  0.22592442352E+03  0.82708703717E+03  0.10100000352E+00 0. -1.
       -3    1    3    3    0  502 -0.77128539755E+03 -0.19532011477E+03  0.23711477206E+04  0.25010742961E+04  0.10100000352E+00 0.  1.
</event>
<event>
 5   0  0.1777590E-04  0.2105225E+04  0.7818609E-02  0.8558945E-01
        2   -1    0    0  501    0  0.00000000000E+00  0.00000000000E+00  0.15634217201E+04  0.15634217201E+04  0.25500000920E-02 0.  1.
       -2   -1    0    0    0  501  0.00000000000E+00  0.00000000000E+00 -0.70869747002E+03  0.70869747002E+03  0.25500000920E-02 0. -1.
    10030    2    1    2    0    0  0.00000000000E+00  0.00000000000E+00  0.85472425011E+03  0.22721191902E+04  0.21052249454E+04 0.  0.
        4    1    3    3  502    0 -0.74289326694E+03  0.41412072402E+03  0.10966917986E+04  0.13878475760E+04  0.12699999809E+01 0.  1.
       -4    1    3    3    0  502  0.74289326694E+03 -0.41412072402E+03 -0.24196754854E+03  0.88427161414E+03  0.12699999809E+01 0. -1.
</event>
<event>
 5   0  0.8755004E-05  0.2124054E+04  0.7818609E-02  0.8550721E-01
       -1   -1    0    0    0  501  0.00000000000E+00  0.00000000000E+00  0.97575419745E+03  0.97575419747E+03  0.50400001928E-02 0.  1.
        1   -1    0    0  501    0  0.00000000000E+00  0.00000000000E+00 -0.11559279852E+04  0.11559279852E+04  0.50400001928E-02 0. -1.
    10030    2    1    2    0    0  0.00000000000E+00  0.00000000000E+00 -0.18017378775E+03  0.21316821827E+04  0.21240542211E+04 0.  0.
        3    1    3    3  502    0 -0.33380983770E+03 -0.12354385225E+03 -0.10942848507E+04  0.11507177915E+04  0.10100000352E+00 0. -1.
       -3    1    3    3    0  502  0.33380983770E+03  0.12354385225E+03  0.91411106291E+03  0.98096439115E+03  0.10100000352E+00 0.  1.
</event>
<event>
 5   0  0.1777590E-04  0.1725738E+04  0.7818609E-02  0.8746820E-01
        2   -1    0    0  501    0  0.00000000000E+00  0.00000000000E+00  0.12385075981E+04  0.12385075981E+04  0.25500000920E-02 0.  1.
       -2   -1    0    0    0  501  0.00000000000E+00  0.00000000000E+00 -0.60116120692E+03  0.60116120692E+03  0.25500000920E-02 0. -1.
    10030    2    1    2    0    0  0.00000000000E+00  0.00000000000E+00  0.63734639117E+03  0.18396688050E+04  0.17257377813E+04 0.  0.
        4    1    3    3  502    0 -0.83152473459E+03  0.98761951110E+02  0.54063509549E+03  0.99673227428E+03  0.12699999809E+01 0.  1.
       -4    1    3    3    0  502  0.83152473459E+03 -0.98761951110E+02  0.96711295671E+02  0.84293653072E+03  0.12699999809E+01 0. -1.
</event>
<event>
 5   0  0.8486612E-05  0.2110376E+04  0.7818609E-02  0.8556687E-01
       -1   -1    0    0    0  501  0.00000000000E+00  0.00000000000E+00  0.11022358231E+04  0.11022358231E+04  0.50400001928E-02 0. -1.
        1   -1    0    0  501    0  0.00000000000E+00  0.00000000000E+00 -0.10101479312E+04  0.10101479312E+04  0.50400001928E-02 0.  1.
    10030    2    1    2    0    0  0.00000000000E+00  0.00000000000E+00  0.92087891887E+02  0.21123837543E+04  0.21103755461E+04 0.  0.
        5    1    3    3  502    0  0.84715065724E+03  0.43246237659E+03  0.50332789089E+03  0.10761268508E+04  0.46999998093E+01 0. -1.
       -5    1    3    3    0  502 -0.84715065724E+03 -0.43246237659E+03 -0.41123999901E+03  0.10362569035E+04  0.46999998093E+01 0.  1.
</event>
<event>
 5   0  0.1810875E-04  0.2009109E+04  0.7818609E-02  0.8602374E-01
        2   -1    0    0  501    0  0.00000000000E+00  0.00000000000E+00  0.11129628860E+04  0.11129628860E+04  0.25500000920E-02 0.  1.
       -2   -1    0    0    0  501  0.00000000000E+00  0.00000000000E+00 -0.90670559885E+03  0.90670559886E+03  0.25500000920E-02 0. -1.
    10030    2    1    2    0    0  0.00000000000E+00  0.00000000000E+00  0.20625728715E+03  0.20196684849E+04  0.20091089369E+04 0.  0.
        1    1    3    3  502    0  0.13030426312E+03  0.55392954725E+03 -0.72905838341E+03  0.92484770138E+03  0.50400001928E-02 0. -1.
       -1    1    3    3    0  502 -0.13030426312E+03 -0.55392954725E+03  0.93531567057E+03  0.10948207835E+04  0.50400001928E-02 0.  1.
</event>
<event>
 5   0  0.8271069E-05  0.2118509E+04  0.7818609E-02  0.8553134E-01
        1   -1    0    0  501    0  0.00000000000E+00  0.00000000000E+00  0.13067653060E+04  0.13067653060E+04  0.50400001928E-02 0.  1.
       -1   -1    0    0    0  501  0.00000000000E+00  0.00000000000E+00 -0.85862402939E+03  0.85862402941E+03  0.50400001928E-02 0. -1.
    10030    2    1    2    0    0  0.00000000000E+00  0.00000000000E+00  0.44814127662E+03  0.21653893354E+04  0.21185089970E+04 0.  0.
        2    1    3    3  502    0  0.23321659789E+03 -0.83043767129E+03  0.85249574183E+03  0.12127512924E+04  0.25500000920E-02 0. -1.
       -2    1    3    3    0  502 -0.23321659789E+03  0.83043767129E+03 -0.40435446522E+03  0.95263804300E+03  0.25500000920E-02 0.  1.
</event>
<event>
 5   0  0.1921687E-04  0.2148721E+04  0.7818609E-02  0.8540080E-01
        2   -1    0    0  501    0  0.00000000000E+00  0.00000000000E+00  0.26290906269E+04  0.26290906269E+04  0.25500000920E-02 0.  1.
       -2   -1    0    0    0  501  0.00000000000E+00  0.00000000000E+00 -0.43903014369E+03  0.43903014369E+03  0.25500000920E-02 0. -1.
    10030    2    1    2    0    0  0.00000000000E+00  0.00000000000E+00  0.21900604832E+04  0.30681207706E+04  0.21487205828E+04 0.  0.
        5    1    3    3  502    0  0.10799265725E+03 -0.10609691641E+04  0.90935078619E+03  0.14015202188E+04  0.46999998093E+01 0.  1.
       -5    1    3    3    0  502 -0.10799265725E+03  0.10609691641E+04  0.12807096970E+04  0.16666005518E+04  0.46999998093E+01 0. -1.
</event>
<event>
 5   0  0.8755004E-05  0.2052478E+04  0.7818609E-02  0.8582471E-01
        1   -1    0    0  501    0  0.00000000000E+00  0.00000000000E+00  0.17731054903E+04  0.17731054903E+04  0.50400001928E-02 0.  1.
       -1   -1    0    0    0  501  0.00000000000E+00  0.00000000000E+00 -0.59396731562E+03  0.59396731564E+03  0.50400001928E-02 0. -1.
    10030    2    1    2    0    0  0.00000000000E+00  0.00000000000E+00  0.11791381747E+04  0.23670728059E+04  0.20524782176E+04 0.  0.
        3    1    3    3  502    0  0.31155041098E+03  0.45667005686E+03  0.15867059678E+04  0.16802520756E+04  0.10100000352E+00 0.  1.
       -3    1    3    3    0  502 -0.31155041098E+03 -0.45667005686E+03 -0.40756779308E+03  0.68682073030E+03  0.10100000352E+00 0. -1.
</event>
<event>
 5   0  0.8755004E-05  0.2209342E+04  0.7818609E-02  0.8514550E-01
       -1   -1    0    0    0  501  0.00000000000E+00  0.00000000000E+00  0.14262495582E+04  0.14262495582E+04  0.50400001928E-02 0. -1.
        1   -1    0    0  501    0  0.00000000000E+00  0.00000000000E+00 -0.85559914109E+03  0.85559914110E+03  0.50400001928E-02 0.  1.
    10030    2    1    2    0    0  0.00000000000E+00  0.00000000000E+00  0.57065041707E+03  0.22818486993E+04  0.22093418902E+04 0.  0.
        3    1    3    3  502    0 -0.48891079673E+03  0.99030714258E+03  0.26097427600E+03  0.11348346077E+04  0.10100000352E+00 0. -1.
       -3    1    3    3    0  502  0.48891079673E+03 -0.99030714258E+03  0.30967614107E+03  0.11470140916E+04  0.10100000352E+00 0.  1.
</event>
<event>
 5   0  0.6441125E-05  0.2070222E+04  0.7818609E-02  0.8574475E-01
       -3   -1    0    0    0  501  0.00000000000E+00  0.00000000000E+00  0.98784221101E+03  0.98784221617E+03  0.10100000352E+00 0.  1.
        3   -1    0    0  501    0  0.00000000000E+00  0.00000000000E+00 -0.10846417411E+04  0.10846417458E+04  0.10100000352E+00 0. -1.
    10030    2    1    2    0    0  0.00000000000E+00  0.00000000000E+00 -0.96799530113E+02  0.20724839620E+04  0.20702221194E+04 0.  0.
        3    1    3    3  502    0 -0.26955027096E+03 -0.75355704222E+03  0.60878477675E+03  0.10055468557E+04  0.10100000352E+00 0.  1.
       -3    1    3    3    0  502  0.26955027096E+03  0.75355704222E+03 -0.70558430687E+03  0.10669371063E+04  0.10100000352E+00 0. -1.
</event>
<event>
 5   0  0.8755004E-05  0.2083325E+04  0.7818609E-02  0.8568624E-01
        1   -1    0    0  501    0  0.00000000000E+00  0.00000000000E+00  0.12935814159E+04  0.12935814159E+04  0.50400001928E-02 0. -1.
       -1   -1    0    0    0  501  0.00000000000E+00  0.00000000000E+00 -0.83880381937E+03  0.83880381938E+03  0.50400001928E-02 0.  1.
    10030    2    1    2    0    0  0.00000000000E+00  0.00000000000E+00  0.45477759657E+03  0.21323852353E+04  0.20833252577E+04 0.  0.
        3    1    3    3  502    0 -0.17299447066E+03  0.59367042505E+03  0.10853947036E+04  0.12491810651E+04  0.10100000352E+00 0. -1.
       -3    1    3    3    0  502  0.17299447066E+03 -0.59367042505E+03 -0.63061710706E+03  0.88320417026E+03  0.10100000352E+00 0.  1.
</event>
<event>
 5   0  0.8271069E-05  0.2084175E+04  0.7818609E-02  0.8568246E-01
       -1   -1    0    0    0  501  0.00000000000E+00  0.00000000000E+00  0.96960567714E+03  0.96960567715E+03  0.50400001928E-02 0. -1.
        1   -1    0    0  501    0  0.00000000000E+00  0.00000000000E+00 -0.11199881041E+04  0.11199881041E+04  0.50400001928E-02 0.  1.
    10030    2    1    2    0    0  0.00000000000E+00  0.00000000000E+00 -0.15038242692E+03  0.20895937812E+04  0.20841754476E+04 0.  0.
        2    1    3    3  502    0  0.25747179737E+02 -0.24350212815E+03 -0.10907364815E+04  0.11178829437E+04  0.25500000920E-02 0.  1.
       -2    1    3    3    0  502 -0.25747179737E+02  0.24350212815E+03  0.94035405462E+03  0.97171083751E+03  0.25500000920E-02 0. -1.
</event>
<event>
 5   0  0.8486612E-05  0.2048304E+04  0.7818609E-02  0.8584364E-01
        1   -1    0    0  501    0  0.00000000000E+00  0.00000000000E+00  0.17555023882E+04  0.17555023882E+04  0.50400001928E-02 0. -1.
       -1   -1    0    0    0  501  0.00000000000E+00  0.00000000000E+00 -0.59748580432E+03  0.59748580435E+03  0.50400001928E-02 0.  1.
    10030    2    1    2    0    0  0.00000000000E+00  0.00000000000E+00  0.11580165839E+04  0.23529881926E+04  0.20483044270E+04 0.  0.
        5    1    3    3  502    0 -0.31748389728E+03  0.39579175573E+03 -0.44293865553E+03  0.67354575308E+03  0.46999998093E+01 0.  1.
       -5    1    3    3    0  502  0.31748389728E+03 -0.39579175573E+03  0.16009552394E+04  0.16794424395E+04  0.46999998093E+01 0. -1.
</event>
<event>
 5   0  0.1921687E-04  0.2209898E+04  0.7818609E-02  0.8514320E-01
        2   -1    0    0  501    0  0.00000000000E+00  0.00000000000E+00  0.18234903318E+04  0.18234903318E+04  0.25500000920E-02 0.  1.
       -2   -1    0    0    0  501  0.00000000000E+00  0.00000000000E+00 -0.66954696617E+03  0.66954696617E+03  0.25500000920E-02 0. -1.
    10030    2    1    2    0    0  0.00000000000E+00  0.00000000000E+00  0.11539433656E+04  0.24930372979E+04  0.22098981148E+04 0.  0.
        5    1    3    3  502    0 -0.68720256387E+03 -0.29444713617E+03  0.14948119357E+04  0.16713561239E+04  0.46999998093E+01 0.  1.
       -5    1    3    3    0  502  0.68720256387E+03  0.29444713617E+03 -0.34086857006E+03  0.82168117408E+03  0.46999998093E+01 0. -1.
</event>
<event>
 5   0  0.6441125E-05  0.2088128E+04  0.7818609E-02  0.8566491E-01
        3   -1    0    0  501    0  0.00000000000E+00  0.00000000000E+00  0.90740187392E+03  0.90740187954E+03  0.10100000352E+00 0.  1.
       -3   -1    0    0    0  501  0.00000000000E+00  0.00000000000E+00 -0.12013089024E+04  0.12013089066E+04  0.10100000352E+00 0. -1.
    10030    2    1    2    0    0  0.00000000000E+00  0.00000000000E+00 -0.29390702845E+03  0.21087107862E+04  0.20881283098E+04 0.  0.
        2    1    3    3  502    0  0.94234993857E+03 -0.16500706933E+03  0.27528167729E+03  0.99550526946E+03  0.25500000920E-02 0.  1.
       -2    1    3    3    0  502 -0.94234993857E+03  0.16500706933E+03 -0.56918870574E+03  0.11132055167E+04  0.25500000920E-02 0. -1.
</event>
<event>
 5   0  0.1810875E-04  0.2089939E+04  0.7818609E-02  0.8565688E-01
       -2   -1    0    0    0  501  0.00000000000E+00  0.00000000000E+00  0.59963256202E+03  0.59963256202E+03  0.25500000920E-02 0. -1.
        2   -1    0    0  501    0  0.00000000000E+00  0.00000000000E+00 -0.18210511735E+04  0.18210511735E+04  0.25500000920E-02 0.  1.
    10030    2    1    2    0    0  0.00000000000E+00  0.00000000000E+00 -0.12214186114E+04  0.24206837355E+04  0.20899393108E+04 0.  0.
        1    1    3    3  502    0 -0.95176903479E+03 -0.29040117731E+03 -0.98019906292E+03  0.13967774849E+04  0.50400001928E-02 0.  1.
       -1    1    3    3    0  502  0.95176903479E+03  0.29040117731E+03 -0.24121954853E+03  0.10239062506E+04  0.50400001928E-02 0. -1.
</event>
<event>
 5   0  0.8237966E-05  0.2050292E+04  0.7818609E-02  0.8583462E-01
        1   -1    0    0  501    0  0.00000000000E+00  0.00000000000E+00  0.20059425745E+04  0.20059425745E+04  0.50400001928E-02 0. -1.
       -1   -1    0    0    0  501  0.00000000000E+00  0.00000000000E+00 -0.52390571700E+03  0.52390571702E+03  0.50400001928E-02 0.  1.
    10030    2    1    2    0    0  0.00000000000E+00  0.00000000000E+00  0.14820368575E+04  0.25298482915E+04  0.20502924501E+04 0.  0.
        1    1    3    3  502    0 -0.69352081797E+00  0.86299050932E+03  0.14237675917E+04  0.16648925657E+04  0.50400001928E-02 0. -1.
       -1    1    3    3    0  502  0.69352081797E+00 -0.86299050932E+03  0.58269265726E+02  0.86495572575E+03  0.50400001928E-02 0.  1.
</event>
<event>
 5   0  0.1777590E-04  0.2086464E+04  0.7818609E-02  0.8567230E-01
        2   -1    0    0  501    0  0.00000000000E+00  0.00000000000E+00  0.10340636921E+04  0.10340636921E+04  0.25500000920E-02 0. -1.
       -2   -1    0    0    0  501  0.00000000000E+00  0.00000000000E+00 -0.10524816121E+04  0.10524816121E+04  0.25500000920E-02 0.  1.
    10030    2    1    2    0    0  0.00000000000E+00  0.00000000000E+00 -0.18417919959E+02  0.20865453042E+04  0.20864640152E+04 0.  0.
        4    1    3    3  502    0  0.89508479222E+03 -0.37364986761E+03  0.37491588512E+03  0.10398819850E+04  0.12699999809E+01 0.  1.
       -4    1    3    3    0  502 -0.89508479222E+03  0.37364986761E+03 -0.39333380507E+03  0.10466633193E+04  0.12699999809E+01 0. -1.
</event>
<event>
 5   0  0.1815400E-04  0.2065529E+04  0.7818609E-02  0.8576582E-01
        2   -1    0    0  501    0  0.00000000000E+00  0.00000000000E+00  0.96288481065E+03  0.96288481066E+03  0.25500000920E-02 0.  1.
       -2   -1    0    0    0  501  0.00000000000E+00  0.00000000000E+00 -0.11077152810E+04  0.11077152810E+04  0.25500000920E-02 0. -1.
    10030    2    1    2    0    0  0.00000000000E+00  0.00000000000E+00 -0.14483047035E+03  0.20706000917E+04  0.20655287155E+04 0.  0.
        3    1    3    3  502    0 -0.86701418561E+03 -0.56054903174E+03 -0.98428772611E+02  0.10371195922E+04  0.10100000352E+00 0. -1.
       -3    1    3    3    0  502  0.86701418561E+03  0.56054903174E+03 -0.46401697735E+02  0.10334804995E+04  0.10100000352E+00 0.  1.
</event>
<event>
 5   0  0.8755004E-05  0.2121511E+04  0.7818609E-02  0.8551826E-01
        1   -1    0    0  501    0  0.00000000000E+00  0.00000000000E+00  0.10488611821E+04  0.10488611821E+04  0.50400001928E-02 0.  1.
       -1   -1    0    0    0  501  0.00000000000E+00  0.00000000000E+00 -0.10727849718E+04  0.10727849718E+04  0.50400001928E-02 0. -1.
    10030    2    1    2    0    0  0.00000000000E+00  0.00000000000E+00 -0.23923789694E+02  0.21216461538E+04  0.21215112666E+04 0.  0.
        3    1    3    3  502    0 -0.95229736116E+02 -0.38630955727E+03 -0.99533450117E+03  0.10719116363E+04  0.10100000352E+00 0. -1.
       -3    1    3    3    0  502  0.95229736116E+02  0.38630955727E+03  0.97141071148E+03  0.10497345175E+04  0.10100000352E+00 0.  1.
</event>
<event>
 5   0  0.8486612E-05  0.2073045E+04  0.7818609E-02  0.8573211E-01
        1   -1    0    0  501    0  0.00000000000E+00  0.00000000000E+00  0.12260244053E+04  0.12260244053E+04  0.50400001928E-02 0. -1.
       -1   -1    0    0    0  501  0.00000000000E+00  0.00000000000E+00 -0.87631089026E+03  0.87631089028E+03  0.50400001928E-02 0.  1.
    10030    2    1    2    0    0  0.00000000000E+00  0.00000000000E+00  0.34971351507E+03  0.21023352956E+04  0.20730446576E+04 0.  0.
        5    1    3    3  502    0  0.29738688476E+03 -0.28551579769E+03 -0.78957870890E+03  0.89073837769E+03  0.46999998093E+01 0.  1.
       -5    1    3    3    0  502 -0.29738688476E+03  0.28551579769E+03  0.11392922240E+04  0.12115969179E+04  0.46999998093E+01 0. -1.
</event>
<event>
 5   0  0.8525278E-05  0.2099976E+04  0.7818609E-02  0.8561254E-01
       -1   -1    0    0    0  501  0.00000000000E+00  0.00000000000E+00  0.62931826791E+03  0.62931826793E+03  0.50400001928E-02 0. -1.
        1   -1    0    0  501    0  0.00000000000E+00  0.00000000000E+00 -0.17518550554E+04  0.17518550554E+04  0.50400001928E-02 0.  1.
    10030    2    1    2    0    0  0.00000000000E+00  0.00000000000E+00 -0.11225367875E+04  0.23811733233E+04  0.20999756086E+04 0.  0.
        4    1    3    3  502    0 -0.45758571289E+03 -0.53736890757E+03 -0.14427458901E+04  0.16061342858E+04  0.12699999809E+01 0.  1.
       -4    1    3    3    0  502  0.45758571289E+03  0.53736890757E+03  0.32020910265E+03  0.77503903759E+03  0.12699999809E+01 0. -1.
</event>
<event>
 5   0  0.1921687E-04  0.2107147E+04  0.7818609E-02  0.8558101E-01
        2   -1    0    0  501    0  0.00000000000E+00  0.00000000000E+00  0.12910821008E+04  0.12910821008E+04  0.25500000920E-02 0.  1.
       -2   -1    0    0    0  501  0.00000000000E+00  0.00000000000E+00 -0.85975748973E+03  0.85975748974E+03  0.25500000920E-02 0. -1.
    10030    2    1    2    0    0  0.00000000000E+00  0.00000000000E+00  0.43132461105E+03  0.21508395905E+04  0.21071473665E+04 0.  0.
        5    1    3    3  502    0 -0.25791573786E+03 -0.10068351613E+03 -0.82194794421E+03  0.86733973231E+03  0.46999998093E+01 0. -1.
       -5    1    3    3    0  502  0.25791573786E+03  0.10068351613E+03  0.12532725553E+04  0.12834998582E+04  0.46999998093E+01 0.  1.
</event>
<event>
 5   0  0.1886323E-04  0.2101002E+04  0.7818609E-02  0.8560802E-01
       -2   -1    0    0    0  501  0.00000000000E+00  0.00000000000E+00  0.10360126554E+04  0.10360126554E+04  0.25500000920E-02 0.  1.
        2   -1    0    0  501    0  0.00000000000E+00  0.00000000000E+00 -0.10651915174E+04  0.10651915174E+04  0.25500000920E-02 0. -1.
    10030    2    1    2    0    0  0.00000000000E+00  0.00000000000E+00 -0.29178861987E+02  0.21012041728E+04  0.21010015635E+04 0.  0.
        2    1    3    3  502    0  0.91159751353E+03  0.46087339431E+03  0.23066386544E+03  0.10471963193E+04  0.25500000920E-02 0. -1.
       -2    1    3    3    0  502 -0.91159751353E+03 -0.46087339431E+03 -0.25984272742E+03  0.10540078535E+04  0.25500000920E-02 0.  1.
</event>
<event>
 5   0  0.1815400E-04  0.1413930E+04  0.7818609E-02  0.8943797E-01
       -2   -1    0    0    0  501  0.00000000000E+00  0.00000000000E+00  0.43434953203E+03  0.43434953203E+03  0.25500000920E-02 0. -1.
        2   -1    0    0  501    0  0.00000000000E+00  0.00000000000E+00 -0.11506847181E+04  0.11506847181E+04  0.25500000920E-02 0.  1.
    10030    2    1    2    0    0  0.00000000000E+00  0.00000000000E+00 -0.71633518605E+03  0.15850342501E+04  0.14139297986E+04 0.  0.
        3    1    3    3  502    0  0.21018770475E+03 -0.18973895028E+03  0.36800306370E+03  0.46433393756E+03  0.10100000352E+00 0. -1.
       -3    1    3    3    0  502 -0.21018770475E+03  0.18973895028E+03 -0.10843382497E+04  0.11207003125E+04  0.10100000352E+00 0.  1.
</event>
<event>
 5   0  0.1886323E-04  0.2146112E+04  0.7818609E-02  0.8541198E-01
        2   -1    0    0  501    0  0.00000000000E+00  0.00000000000E+00  0.14198752068E+04  0.14198752068E+04  0.25500000920E-02 0.  1.
       -2   -1    0    0    0  501  0.00000000000E+00  0.00000000000E+00 -0.81095099038E+03  0.81095099038E+03  0.25500000920E-02 0. -1.
    10030    2    1    2    0    0  0.00000000000E+00  0.00000000000E+00  0.60892421637E+03  0.22308261971E+04  0.21461120242E+04 0.  0.
        2    1    3    3  502    0 -0.43858169711E+03 -0.81969516661E+03  0.86152199508E+03  0.12674676403E+04  0.25500000920E-02 0.  1.
       -2    1    3    3    0  502  0.43858169711E+03  0.81969516661E+03 -0.25259777870E+03  0.96335855683E+03  0.25500000920E-02 0. -1.
</event>
<event>
 5   0  0.1815400E-04  0.2121335E+04  0.7818609E-02  0.8551903E-01
        2   -1    0    0  501    0  0.00000000000E+00  0.00000000000E+00  0.10245152786E+04  0.10245152786E+04  0.25500000920E-02 0. -1.
       -2   -1    0    0    0  501  0.00000000000E+00  0.00000000000E+00 -0.10980950205E+04  0.10980950205E+04  0.25500000920E-02 0.  1.
    10030    2    1    2    0    0  0.00000000000E+00  0.00000000000E+00 -0.73579741866E+02  0.21226102991E+04  0.21213346043E+04 0.  0.
        3    1    3    3  502    0 -0.86509324610E+03 -0.61294766860E+03 -0.67204642731E+02  0.10623594698E+04  0.10100000352E+00 0. -1.
       -3    1    3    3    0  502  0.86509324610E+03  0.61294766860E+03 -0.63750991344E+01  0.10602508293E+04  0.10100000352E+00 0.  1.
</event>
<event>
 5   0  0.1921687E-04  0.2064350E+04  0.7818609E-02  0.8577112E-01
        2   -1    0    0  501    0  0.00000000000E+00  0.00000000000E+00  0.77002804255E+03  0.77002804256E+03  0.25500000920E-02 0.  1.
       -2   -1    0    0    0  501  0.00000000000E+00  0.00000000000E+00 -0.13835664949E+04  0.13835664949E+04  0.25500000920E-02 0. -1.
    10030    2    1    2    0    0  0.00000000000E+00  0.00000000000E+00 -0.61353845240E+03  0.21535945375E+04  0.20643497764E+04 0.  0.
        5    1    3    3  502    0 -0.57200499684E+03 -0.35018440836E+03 -0.11252533006E+04  0.13099755405E+04  0.46999998093E+01 0. -1.
       -5    1    3    3    0  502  0.57200499684E+03  0.35018440836E+03  0.51171484817E+03  0.84361899701E+03  0.46999998093E+01 0.  1.
</event>
<event>
 5   0  0.1777590E-04  0.2193970E+04  0.7818609E-02  0.8520942E-01
       -2   -1    0    0    0  501  0.00000000000E+00  0.00000000000E+00  0.65562602413E+03  0.65562602414E+03  0.25500000920E-02 0.  1.
        2   -1    0    0  501    0  0.00000000000E+00  0.00000000000E+00 -0.18354608994E+04  0.18354608994E+04  0.25500000920E-02 0. -1.
    10030    2    1    2    0    0  0.00000000000E+00  0.00000000000E+00 -0.11798348753E+04  0.24910869236E+04  0.21939698557E+04 0.  0.
        4    1    3    3  502    0 -0.62424207914E+03 -0.64439795434E+03  0.12679301183E+03  0.90609324999E+03  0.12699999809E+01 0.  1.
       -4    1    3    3    0  502  0.62424207914E+03  0.64439795434E+03 -0.13066278871E+04  0.15849936736E+04  0.12699999809E+01 0. -1.
</event>
<event>
 5   0  0.1777590E-04  0.1567501E+04  0.7818609E-02  0.8840766E-01
       -2   -1    0    0    0  501  0.00000000000E+00  0.00000000000E+00  0.64465749147E+03  0.64465749147E+03  0.25500000920E-02 0. -1.
        2   -1    0    0  501    0  0.00000000000E+00  0.00000000000E+00 -0.95285436190E+03  0.95285436191E+03  0.25500000920E-02 0.  1.
    10030    2    1    2    0    0  0.00000000000E+00  0.00000000000E+00 -0.30819687044E+03  0.15975118534E+04  0.15675008168E+04 0.  0.
        4    1    3    3  502    0  0.16751884074E+03  0.75794335037E+03 -0.26444140844E+03  0.82004363041E+03  0.12699999809E+01 0. -1.
       -4    1    3    3    0  502 -0.16751884074E+03 -0.75794335037E+03 -0.43755461999E+02  0.77746822297E+03  0.12699999809E+01 0.  1.
</event>
<event>
 5   0  0.8237966E-05  0.2145410E+04  0.7818609E-02  0.8541500E-01
       -1   -1    0    0    0  501  0.00000000000E+00  0.00000000000E+00  0.12843312596E+04  0.12843312596E+04  0.50400001928E-02 0.  1.
        1   -1    0    0  501    0  0.00000000000E+00  0.00000000000E+00 -0.89594930244E+03  0.89594930246E+03  0.50400001928E-02 0. -1.
    10030    2    1    2    0    0  0.00000000000E+00  0.00000000000E+00  0.38838195715E+03  0.21802805621E+04  0.21454097009E+04 0.  0.
        1    1    3    3  502    0  0.13420090598E+03 -0.74041446584E+03 -0.58274294426E+03  0.95174198368E+03  0.50400001928E-02 0. -1.
       -1    1    3    3    0  502 -0.13420090598E+03  0.74041446584E+03  0.97112490142E+03  0.12285385784E+04  0.50400001928E-02 0.  1.
</event>
<event>
 5   0  0.1886323E-04  0.2104427E+04  0.7818609E-02  0.8559296E-01
       -2   -1    0    0    0  501  0.00000000000E+00  0.00000000000E+00  0.40738788118E+03  0.40738788119E+03  0.25500000920E-02 0.  1.
        2   -1    0    0  501    0  0.00000000000E+00  0.00000000000E+00 -0.27176885536E+04  0.27176885536E+04  0.25500000920E-02 0. -1.
    10030    2    1    2    0    0  0.00000000000E+00  0.00000000000E+00 -0.23103006724E+04  0.31250764348E+04  0.21044271254E+04 0.  0.
        2    1    3    3  502    0 -0.18784301797E+02  0.10286305148E+04 -0.82737257717E+03  0.13202192876E+04  0.25500000920E-02 0. -1.
       -2    1    3    3    0  502  0.18784301797E+02 -0.10286305148E+04 -0.14829280953E+04  0.18048571472E+04  0.25500000920E-02 0.  1.
</event>
<event>
 5   0  0.8486612E-05  0.2107979E+04  0.7818609E-02  0.8557737E-01
       -1   -1    0    0    0  501  0.00000000000E+00  0.00000000000E+00  0.72920742272E+03  0.72920742274E+03  0.50400001928E-02 0. -1.
        1   -1    0    0  501    0  0.00000000000E+00  0.00000000000E+00 -0.15234265004E+04  0.15234265004E+04  0.50400001928E-02 0.  1.
    10030    2    1    2    0    0  0.00000000000E+00  0.00000000000E+00 -0.79421907771E+03  0.22526339232E+04  0.21079790436E+04 0.  0.
        5    1    3    3  502    0 -0.32868779968E+03  0.74122182213E+03  0.32246819189E+03  0.87261290618E+03  0.46999998093E+01 0. -1.
       -5    1    3    3    0  502  0.32868779968E+03 -0.74122182213E+03 -0.11166872696E+04  0.13800210170E+04  0.46999998093E+01 0.  1.
</event>
<event>
 5   0  0.8237966E-05  0.2022467E+04  0.7818609E-02  0.8596188E-01
       -1   -1    0    0    0  501  0.00000000000E+00  0.00000000000E+00  0.63373111018E+03  0.63373111020E+03  0.50400001928E-02 0. -1.
        1   -1    0    0  501    0  0.00000000000E+00  0.00000000000E+00 -0.16136074252E+04  0.16136074252E+04  0.50400001928E-02 0.  1.
    10030    2    1    2    0    0  0.00000000000E+00  0.00000000000E+00 -0.97987631498E+03  0.22473385354E+04  0.20224670331E+04 0.  0.
        1    1    3    3  502    0  0.67854663762E+03 -0.30456281596E+03 -0.12512504380E+04  0.14556138591E+04  0.50400001928E-02 0.  1.
       -1    1    3    3    0  502 -0.67854663762E+03  0.30456281596E+03  0.27137412301E+03  0.79172467624E+03  0.50400001928E-02 0. -1.
</event>
<event>
 5   0  0.8486612E-05  0.2117332E+04  0.7818609E-02  0.8553647E-01
       -1   -1    0    0    0  501  0.00000000000E+00  0.00000000000E+00  0.13400931883E+04  0.13400931883E+04  0.50400001928E-02 0.  1.
        1   -1    0    0  501    0  0.00000000000E+00  0.00000000000E+00 -0.83633977361E+03  0.83633977362E+03  0.50400001928E-02 0. -1.
    10030    2    1    2    0    0  0.00000000000E+00  0.00000000000E+00  0.50375341473E+03  0.21764329620E+04  0.21173315600E+04 0.  0.
        5    1    3    3  502    0  0.50807169602E+03 -0.46629238009E+03 -0.57377863278E+03  0.89711172184E+03  0.46999998093E+01 0. -1.
       -5    1    3    3    0  502 -0.50807169602E+03  0.46629238009E+03  0.10775320475E+04  0.12793212401E+04  0.46999998093E+01 0.  1.
</event>
<event>
 5   0  0.1810875E-04  0.2119695E+04  0.7818609E-02  0.8552617E-01
        2   -1    0    0  501    0  0.00000000000E+00  0.00000000000E+00  0.12556105200E+04  0.12556105200E+04  0.25500000920E-02 0.  1.
       -2   -1    0    0    0  501  0.00000000000E+00  0.00000000000E+00 -0.89460601579E+03  0.89460601580E+03  0.25500000920E-02 0. -1.
    10030    2    1    2    0    0  0.00000000000E+00  0.00000000000E+00  0.36100450424E+03  0.21502165358E+04  0.21196950014E+04 0.  0.
        1    1    3    3  502    0 -0.43777167859E+03  0.94155980695E+03 -0.34918013935E+02  0.10389408936E+04  0.50400001928E-02 0.  1.
       -1    1    3    3    0  502  0.43777167859E+03 -0.94155980695E+03  0.39592251818E+03  0.11112756423E+04  0.50400001928E-02 0. -1.
</event>
<event>
 5   0  0.1815400E-04  0.2103522E+04  0.7818609E-02  0.8559694E-01
        2   -1    0    0  501    0  0.00000000000E+00  0.00000000000E+00  0.12625313752E+04  0.12625313752E+04  0.25500000920E-02 0. -1.
       -2   -1    0    0    0  501  0.00000000000E+00  0.00000000000E+00 -0.87617713336E+03  0.87617713337E+03  0.25500000920E-02 0.  1.
    10030    2    1    2    0    0  0.00000000000E+00  0.00000000000E+00  0.38635424184E+03  0.21387085086E+04  0.21035219239E+04 0.  0.
        3    1    3    3  502    0 -0.35047204625E+03  0.94191551702E+03  0.50847021615E+03  0.11263114433E+04  0.10100000352E+00 0. -1.
       -3    1    3    3    0  502  0.35047204625E+03 -0.94191551702E+03 -0.12211597430E+03  0.10123970653E+04  0.10100000352E+00 0.  1.
</event>
<event>
 5   0  0.1921687E-04  0.2180157E+04  0.7818609E-02  0.8526733E-01
        2   -1    0    0  501    0  0.00000000000E+00  0.00000000000E+00  0.10995946250E+04  0.10995946250E+04  0.25500000920E-02 0.  1.
       -2   -1    0    0    0  501  0.00000000000E+00  0.00000000000E+00 -0.10806442378E+04  0.10806442379E+04  0.25500000920E-02 0. -1.
    10030    2    1    2    0    0  0.00000000000E+00  0.00000000000E+00  0.18950387123E+02  0.21802388628E+04  0.21801565040E+04 0.  0.
        5    1    3    3  502    0 -0.43673993758E+03  0.89773298093E+03 -0.42824241202E+03  0.10863148400E+04  0.46999998093E+01 0. -1.
       -5    1    3    3    0  502  0.43673993758E+03 -0.89773298093E+03  0.44719279914E+03  0.10939240228E+04  0.46999998093E+01 0.  1.
</event>
<event>
 5   0  0.8486612E-05  0.2071455E+04  0.7818609E-02  0.8573923E-01
        1   -1    0    0  501    0  0.00000000000E+00  0.00000000000E+00  0.16546933132E+04  0.16546933132E+04  0.50400001928E-02 0.  1.
       -1   -1    0    0    0  501  0.00000000000E+00  0.00000000000E+00 -0.64829650013E+03  0.64829650015E+03  0.50400001928E-02 0. -1.
    10030    2    1    2    0    0  0.00000000000E+00  0.00000000000E+00  0.10063968130E+04  0.23029898133E+04  0.20714554147E+04 0.  0.
        5    1    3    3  502    0  0.34800905176E+03  0.27065918654E+03  0.15451523518E+04  0.16068243761E+04  0.46999998093E+01 0.  1.
       -5    1    3    3    0  502 -0.34800905176E+03 -0.27065918654E+03 -0.53875553879E+03  0.69616543719E+03  0.46999998093E+01 0. -1.
</event>
<event>
 5   0  0.1815400E-04  0.2105057E+04  0.7818609E-02  0.8559019E-01
        2   -1    0    0  501    0  0.00000000000E+00  0.00000000000E+00  0.12241453400E+04  0.12241453400E+04  0.25500000920E-02 0. -1.
       -2   -1    0    0    0  501  0.00000000000E+00  0.00000000000E+00 -0.90497130290E+03  0.90497130290E+03  0.25500000920E-02 0.  1.
    10030    2    1    2    0    0  0.00000000000E+00  0.00000000000E+00  0.31917403712E+03  0.21291166429E+04  0.21050571520E+04 0.  0.
        3    1    3    3  502    0 -0.20571906117E+03  0.34321759585E+03 -0.82503713818E+03  0.91695416450E+03  0.10100000352E+00 0.  1.
       -3    1    3    3    0  502  0.20571906117E+03 -0.34321759585E+03  0.11442111753E+04  0.12121624784E+04  0.10100000352E+00 0. -1.
</event>
<event>
 5   0  0.1777590E-04  0.1720953E+04  0.7818609E-02  0.8749504E-01
        2   -1    0    0  501    0  0.00000000000E+00  0.00000000000E+00  0.13531384237E+04  0.13531384237E+04  0.25500000920E-02 0.  1.
       -2   -1    0    0    0  501  0.00000000000E+00  0.00000000000E+00 -0.54718695272E+03  0.54718695273E+03  0.25500000920E-02 0. -1.
    10030    2    1    2    0    0  0.00000000000E+00  0.00000000000E+00  0.80595147103E+03  0.19003253765E+04  0.17209528648E+04 0.  0.
        4    1    3    3  502    0 -0.24961426824E+03 -0.29035348241E+03 -0.44792942019E+03  0.58928329862E+03  0.12699999809E+01 0. -1.
       -4    1    3    3    0  502  0.24961426824E+03  0.29035348241E+03  0.12538808912E+04  0.13110420779E+04  0.12699999809E+01 0.  1.
</event>
<event>
 5   0  0.1921687E-04  0.2109436E+04  0.7818609E-02  0.8557098E-01
       -2   -1    0    0    0  501  0.00000000000E+00  0.00000000000E+00  0.53940918193E+03  0.53940918194E+03  0.25500000920E-02 0.  1.
        2   -1    0    0  501    0  0.00000000000E+00  0.00000000000E+00 -0.20623113060E+04  0.20623113060E+04  0.25500000920E-02 0. -1.
    10030    2    1    2    0    0  0.00000000000E+00  0.00000000000E+00 -0.15229021241E+04  0.26017204879E+04  0.21094356160E+04 0.  0.
        5    1    3    3  502    0  0.35497862530E+03  0.66656233304E+03  0.14664338569E+03  0.76931238182E+03  0.46999998093E+01 0.  1.
       -5    1    3    3    0  502 -0.35497862530E+03 -0.66656233304E+03 -0.16695455098E+04  0.18324081061E+04  0.46999998093E+01 0. -1.
</event>
<event>
 5   0  0.8486612E-05  0.1964870E+04  0.7818609E-02  0.8623224E-01
       -1   -1    0    0    0  501  0.00000000000E+00  0.00000000000E+00  0.12221666157E+04  0.12221666157E+04  0.50400001928E-02 0.  1.
        1   -1    0    0  501    0  0.00000000000E+00  0.00000000000E+00 -0.78972737060E+03  0.78972737062E+03  0.50400001928E-02 0. -1.
    10030    2    1    2    0    0  0.00000000000E+00  0.00000000000E+00  0.43243924513E+03  0.20118939864E+04  0.19648698969E+04 0.  0.
        5    1    3    3  502    0  0.80181321939E+03 -0.24569331037E+03  0.74021567123E+03  0.11185754206E+04  0.46999998093E+01 0.  1.
       -5    1    3    3    0  502 -0.80181321939E+03  0.24569331037E+03 -0.30777642610E+03  0.89331856580E+03  0.46999998093E+01 0. -1.
</event>
<event>
 5   0  0.1815400E-04  0.2134163E+04  0.7818609E-02  0.8546342E-01
       -2   -1    0    0    0  501  0.00000000000E+00  0.00000000000E+00  0.76803861675E+03  0.76803861675E+03  0.25500000920E-02 0. -1.
        2   -1    0    0  501    0  0.00000000000E+00  0.00000000000E+00 -0.14825600302E+04  0.14825600302E+04  0.25500000920E-02 0.  1.
    10030    2    1    2    0    0  0.00000000000E+00  0.00000000000E+00 -0.71452141342E+03  0.22505986469E+04  0.21341634003E+04 0.  0.
        3    1    3    3  502    0  0.80191583596E+03  0.54429049592E+03 -0.82809707505E+03  0.12747807372E+04  0.10100000352E+00 0.  1.
       -3    1    3    3    0  502 -0.80191583596E+03 -0.54429049592E+03  0.11357566163E+03  0.97581790977E+03  0.10100000352E+00 0. -1.
</event>
<event>
 5   0  0.1810875E-04  0.1973187E+04  0.7818609E-02  0.8619260E-01
        2   -1    0    0  501    0  0.00000000000E+00  0.00000000000E+00  0.16569600950E+04  0.16569600950E+04  0.25500000920E-02 0.  1.
       -2   -1    0    0    0  501  0.00000000000E+00  0.00000000000E+00 -0.58744133695E+03  0.58744133695E+03  0.25500000920E-02 0. -1.
    10030    2    1    2    0    0  0.00000000000E+00  0.00000000000E+00  0.10695187580E+04  0.22444014319E+04  0.19731871208E+04 0.  0.
        1    1    3    3  502    0 -0.82082059389E+03 -0.54550437725E+03  0.58620155356E+03  0.11467143212E+04  0.50400001928E-02 0. -1.
       -1    1    3    3    0  502  0.82082059389E+03  0.54550437725E+03  0.48331720446E+03  0.10976871108E+04  0.50400001928E-02 0.  1.
</event>
<event>
 5   0  0.1777590E-04  0.2060537E+04  0.7818609E-02  0.8578829E-01
        2   -1    0    0  501    0  0.00000000000E+00  0.00000000000E+00  0.81687094563E+03  0.81687094563E+03  0.25500000920E-02 0. -1.
       -2   -1    0    0    0  501  0.00000000000E+00  0.00000000000E+00 -0.12994133858E+04  0.12994133858E+04  0.25500000920E-02 0.  1.
    10030    2    1    2    0    0  0.00000000000E+00  0.00000000000E+00 -0.48254244017E+03  0.21162843314E+04  0.20605368633E+04 0.  0.
        4    1    3    3  502    0  0.43011169084E+03  0.40921406170E+03  0.62353042022E+03  0.86095529079E+03  0.12699999809E+01 0. -1.
       -4    1    3    3    0  502 -0.43011169084E+03 -0.40921406170E+03 -0.11060728604E+04  0.12553290406E+04  0.12699999809E+01 0.  1.
</event>
<event>
 5   0  0.1810875E-04  0.2089660E+04  0.7818609E-02  0.8565812E-01
        2   -1    0    0  501    0  0.00000000000E+00  0.00000000000E+00  0.97015368061E+03  0.97015368061E+03  0.25500000920E-02 0. -1.
       -2   -1    0    0    0  501  0.00000000000E+00  0.00000000000E+00 -0.11252548829E+04  0.11252548829E+04  0.25500000920E-02 0.  1.
    10030    2    1    2    0    0  0.00000000000E+00  0.00000000000E+00 -0.15510120225E+03  0.20954085635E+04  0.20896604186E+04 0.  0.
        1    1    3    3  502    0  0.41318759951E+03 -0.11244836697E+03  0.87811955238E+03  0.97696600551E+03  0.50400001928E-02 0. -1.
       -1    1    3    3    0  502 -0.41318759951E+03  0.11244836697E+03 -0.10332207546E+04  0.11184425580E+04  0.50400001928E-02 0.  1.
</event>
<event>
 5   0  0.1815400E-04  0.2079146E+04  0.7818609E-02  0.8570486E-01
        2   -1    0    0  501    0  0.00000000000E+00  0.00000000000E+00  0.73649557353E+03  0.73649557353E+03  0.25500000920E-02 0. -1.
       -2   -1    0    0    0  501  0.00000000000E+00  0.00000000000E+00 -0.14673703094E+04  0.14673703094E+04  0.25500000920E-02 0.  1.
    10030    2    1    2    0    0  0.00000000000E+00  0.00000000000E+00 -0.73087473585E+03  0.22038658829E+04  0.20791457261E+04 0.  0.
        3    1    3    3  502    0 -0.45533842423E+03 -0.44474099341E+03  0.50580691337E+03  0.81299955449E+03  0.10100000352E+00 0. -1.
       -3    1    3    3    0  502  0.45533842423E+03  0.44474099341E+03 -0.12366816492E+04  0.13908663284E+04  0.10100000352E+00 0.  1.
</event>
<event>
 5   0  0.1886323E-04  0.2090269E+04  0.7818609E-02  0.8565542E-01
        2   -1    0    0  501    0  0.00000000000E+00  0.00000000000E+00  0.10453758164E+04  0.10453758164E+04  0.25500000920E-02 0.  1.
       -2   -1    0    0    0  501  0.00000000000E+00  0.00000000000E+00 -0.10448927842E+04  0.10448927842E+04  0.25500000920E-02 0. -1.
    10030    2    1    2    0    0  0.00000000000E+00  0.00000000000E+00  0.48303226897E+00  0.20902686006E+04  0.20902685448E+04 0.  0.
        2    1    3    3  502    0 -0.52692968043E+03  0.22636946828E+03  0.87397354818E+03  0.10453362077E+04  0.25500000920E-02 0.  1.
       -2    1    3    3    0  502  0.52692968043E+03 -0.22636946828E+03 -0.87349051591E+03  0.10449323929E+04  0.25500000920E-02 0. -1.
</event>
<event>
 5   0  0.1810875E-04  0.2011148E+04  0.7818609E-02  0.8601426E-01
       -2   -1    0    0    0  501  0.00000000000E+00  0.00000000000E+00  0.17964120772E+04  0.17964120773E+04  0.25500000920E-02 0. -1.
        2   -1    0    0  501    0  0.00000000000E+00  0.00000000000E+00 -0.56288795878E+03  0.56288795878E+03  0.25500000920E-02 0.  1.
    10030    2    1    2    0    0  0.00000000000E+00  0.00000000000E+00  0.12335241185E+04  0.23593000360E+04  0.20111476597E+04 0.  0.
        1    1    3    3  502    0  0.47079827318E+03 -0.62828028808E+03  0.13538565484E+04  0.15650286541E+04  0.50400001928E-02 0. -1.
       -1    1    3    3    0  502 -0.47079827318E+03  0.62828028808E+03 -0.12033242995E+03  0.79427138193E+03  0.50400001928E-02 0.  1.
</event>
<event>
 5   0  0.1886323E-04  0.2163938E+04  0.7818609E-02  0.8533590E-01
       -2   -1    0    0    0  501  0.00000000000E+00  0.00000000000E+00  0.94812670515E+03  0.94812670515E+03  0.25500000920E-02 0.  1.
        2   -1    0    0  501    0  0.00000000000E+00  0.00000000000E+00 -0.12347048960E+04  0.12347048960E+04  0.25500000920E-02 0. -1.
    10030    2    1    2    0    0  0.00000000000E+00  0.00000000000E+00 -0.28657819081E+03  0.21828316011E+04  0.21639377855E+04 0.  0.
        2    1    3    3  502    0  0.10807572030E+04  0.51097938868E+02 -0.14017123067E+03  0.10910064643E+04  0.25500000920E-02 0. -1.
       -2    1    3    3    0  502 -0.10807572030E+04 -0.51097938868E+02 -0.14640696013E+03  0.10918251368E+04  0.25500000920E-02 0.  1.
</event>
<event>
 5   0  0.8237966E-05  0.2107338E+04  0.7818609E-02  0.8558018E-01
       -1   -1    0    0    0  501  0.00000000000E+00  0.00000000000E+00  0.69501670015E+03  0.69501670017E+03  0.50400001928E-02 0.  1.
        1   -1    0    0  501    0  0.00000000000E+00  0.00000000000E+00 -0.15973986397E+04  0.15973986397E+04  0.50400001928E-02 0. -1.
    10030    2    1    2    0    0  0.00000000000E+00  0.00000000000E+00 -0.90238193951E+03  0.22924153398E+04  0.21073383510E+04 0.  0.
        1    1    3    3  502    0  0.20721263409E+03 -0.40761103922E+03 -0.14838428474E+04  0.15526987573E+04  0.50400001928E-02 0. -1.
       -1    1    3    3    0  502 -0.20721263409E+03  0.40761103922E+03  0.58146090792E+03  0.73971658254E+03  0.50400001928E-02 0.  1.
</event>
<event>
 5   0  0.8271069E-05  0.2103017E+04  0.7818609E-02  0.8559916E-01
       -1   -1    0    0    0  501  0.00000000000E+00  0.00000000000E+00  0.60270848113E+03  0.60270848115E+03  0.50400001928E-02 0.  1.
        1   -1    0    0  501    0  0.00000000000E+00  0.00000000000E+00 -0.18345022570E+04  0.18345022570E+04  0.50400001928E-02 0. -1.
    10030    2    1    2    0    0  0.00000000000E+00  0.00000000000E+00 -0.12317937759E+04  0.24372107382E+04  0.21030169462E+04 0.  0.
        2    1    3    3  502    0  0.10091953812E+03 -0.34475333270E+02 -0.18282185597E+04  0.18313264056E+04  0.25500000920E-02 0. -1.
       -2    1    3    3    0  502 -0.10091953812E+03  0.34475333270E+02  0.59642478378E+03  0.60588433260E+03  0.25500000920E-02 0.  1.
</event>
<event>
 5   0  0.8525278E-05  0.1374602E+04  0.7818609E-02  0.8972411E-01
       -1   -1    0    0    0  501  0.00000000000E+00  0.00000000000E+00  0.29396507967E+03  0.29396507971E+03  0.50400001928E-02 0. -1.
        1   -1    0    0  501    0  0.00000000000E+00  0.00000000000E+00 -0.16069346858E+04  0.16069346858E+04  0.50400001928E-02 0.  1.
    10030    2    1    2    0    0  0.00000000000E+00  0.00000000000E+00 -0.13129696062E+04  0.19008997655E+04  0.13746020268E+04 0.  0.
        4    1    3    3  502    0  0.40819566910E+03 -0.42265232560E+03 -0.11495373886E+04  0.12910060082E+04  0.12699999809E+01 0.  1.
       -4    1    3    3    0  502 -0.40819566910E+03  0.42265232560E+03 -0.16343221762E+03  0.60989375736E+03  0.12699999809E+01 0. -1.
</event>
<event>
 5   0  0.8486612E-05  0.2088187E+04  0.7818609E-02  0.8566465E-01
        1   -1    0    0  501    0  0.00000000000E+00  0.00000000000E+00  0.13992446988E+04  0.13992446988E+04  0.50400001928E-02 0.  1.
       -1   -1    0    0    0  501  0.00000000000E+00  0.00000000000E+00 -0.77908527645E+03  0.77908527647E+03  0.50400001928E-02 0. -1.
    10030    2    1    2    0    0  0.00000000000E+00  0.00000000000E+00  0.62015942237E+03  0.21783299753E+04  0.20881867187E+04 0.  0.
        5    1    3    3  502    0 -0.89778883564E+03  0.33936071608E+03 -0.11865907272E+03  0.96710524482E+03  0.46999998093E+01 0. -1.
       -5    1    3    3    0  502  0.89778883564E+03 -0.33936071608E+03  0.73881849510E+03  0.12112247305E+04  0.46999998093E+01 0.  1.
</event>
<event>
 5   0  0.1815400E-04  0.2081438E+04  0.7818609E-02  0.8569464E-01
        2   -1    0    0  501    0  0.00000000000E+00  0.00000000000E+00  0.20608157718E+04  0.20608157718E+04  0.25500000920E-02 0.  1.
       -2   -1    0    0    0  501  0.00000000000E+00  0.00000000000E+00 -0.52556678777E+03  0.52556678778E+03  0.25500000920E-02 0. -1.
    10030    2    1    2    0    0  0.00000000000E+00  0.00000000000E+00  0.15352489840E+04  0.25863825596E+04  0.20814382771E+04 0.  0.
        3    1    3    3  502    0 -0.51973284870E+03 -0.21719780604E+03 -0.31976887305E+03  0.64772622561E+03  0.10100000352E+00 0. -1.
       -3    1    3    3    0  502  0.51973284870E+03  0.21719780604E+03  0.18550178571E+04  0.19386563340E+04  0.10100000352E+00 0.  1.
</event>
<event>
 5   0  0.1815400E-04  0.2007450E+04  0.7818609E-02  0.8603145E-01
       -2   -1    0    0    0  501  0.00000000000E+00  0.00000000000E+00  0.12240076237E+04  0.12240076237E+04  0.25500000920E-02 0.  1.
        2   -1    0    0  501    0  0.00000000000E+00  0.00000000000E+00 -0.82308627344E+03  0.82308627344E+03  0.25500000920E-02 0. -1.
    10030    2    1    2    0    0  0.00000000000E+00  0.00000000000E+00  0.40092135027E+03  0.20470938972E+04  0.20074499980E+04 0.  0.
        3    1    3    3  502    0  0.83952335742E+03 -0.46812113257E+03 -0.94257195942E+02  0.96582673995E+03  0.10100000352E+00 0. -1.
       -3    1    3    3    0  502 -0.83952335742E+03  0.46812113257E+03  0.49517854621E+03  0.10812671572E+04  0.10100000352E+00 0.  1.
</event>
<event>
 5   0  0.8755004E-05  0.2133115E+04  0.7818609E-02  0.8546795E-01
       -1   -1    0    0    0  501  0.00000000000E+00  0.00000000000E+00  0.11993333106E+04  0.11993333106E+04  0.50400001928E-02 0.  1.
        1   -1    0    0  501    0  0.00000000000E+00  0.00000000000E+00 -0.94848066024E+03  0.94848066026E+03  0.50400001928E-02 0. -1.
    10030    2    1    2    0    0  0.00000000000E+00  0.00000000000E+00  0.25085265032E+03  0.21478139708E+04  0.21331145776E+04 0.  0.
        3    1    3    3  502    0  0.86054021386E+03 -0.26226629422E+03  0.70228911097E+03  0.11412813301E+04  0.10100000352E+00 0.  1.
       -3    1    3    3    0  502 -0.86054021386E+03  0.26226629422E+03 -0.45143646064E+03  0.10065326408E+04  0.10100000352E+00 0. -1.
</event>
<event>
 5   0  0.8525278E-05  0.2110603E+04  0.7818609E-02  0.8556587E-01
        1   -1    0    0  501    0  0.00000000000E+00  0.00000000000E+00  0.12464596403E+04  0.12464596403E+04  0.50400001928E-02 0. -1.
       -1   -1    0    0    0  501  0.00000000000E+00  0.00000000000E+00 -0.89345931718E+03  0.89345931719E+03  0.50400001928E-02 0.  1.
    10030    2    1    2    0    0  0.00000000000E+00  0.00000000000E+00  0.35300032311E+03  0.21399189575E+04  0.21106027377E+04 0.  0.
        4    1    3    3  502    0 -0.42659081018E+03  0.75833594112E+03 -0.42895962384E+03  0.97008303290E+03  0.12699999809E+01 0.  1.
       -4    1    3    3    0  502  0.42659081018E+03 -0.75833594112E+03  0.78195994695E+03  0.11698359246E+04  0.12699999809E+01 0. -1.
</event>
<event>
 5   0  0.8486612E-05  0.2110396E+04  0.7818609E-02  0.8556678E-01
       -1   -1    0    0    0  501  0.00000000000E+00  0.00000000000E+00  0.98430225436E+03  0.98430225437E+03  0.50400001928E-02 0. -1.
        1   -1    0    0  501    0  0.00000000000E+00  0.00000000000E+00 -0.11311999262E+04  0.11311999262E+04  0.50400001928E-02 0.  1.
    10030    2    1    2    0    0  0.00000000000E+00  0.00000000000E+00 -0.14689767181E+03  0.21155021805E+04  0.21103958278E+04 0.  0.
        5    1    3    3  502    0 -0.18433229773E+03  0.45237808800E+02  0.96703940185E+03  0.98550096400E+03  0.46999998093E+01 0. -1.
       -5    1    3    3    0  502  0.18433229773E+03 -0.45237808800E+02 -0.11139370737E+04  0.11300012165E+04  0.46999998093E+01 0.  1.
</event>
<event>
 5   0  0.1777590E-04  0.2005967E+04  0.7818609E-02  0.8603836E-01
        2   -1    0    0  501    0  0.00000000000E+00  0.00000000000E+00  0.23187038082E+04  0.23187038082E+04  0.25500000920E-02 0. -1.
       -2   -1    0    0    0  501  0.00000000000E+00  0.00000000000E+00 -0.43385274705E+03  0.43385274706E+03  0.25500000920E-02 0.  1.
    10030    2    1    2    0    0  0.00000000000E+00  0.00000000000E+00  0.18848510611E+04  0.27525565552E+04  0.20059671152E+04 0.  0.
        4    1    3    3  502    0  0.89521391224E+03 -0.27930888629E+03  0.14305703295E+04  0.17105421606E+04  0.12699999809E+01 0.  1.
       -4    1    3    3    0  502 -0.89521391224E+03  0.27930888629E+03  0.45428073163E+03  0.10420143946E+04  0.12699999809E+01 0. -1.
</event>
<event>
 5   0  0.1777590E-04  0.2128792E+04  0.7818609E-02  0.8548665E-01
       -2   -1    0    0    0  501  0.00000000000E+00  0.00000000000E+00  0.82070480194E+03  0.82070480194E+03  0.25500000920E-02 0. -1.
        2   -1    0    0  501    0  0.00000000000E+00  0.00000000000E+00 -0.13804467824E+04  0.13804467824E+04  0.25500000920E-02 0.  1.
    10030    2    1    2    0    0  0.00000000000E+00  0.00000000000E+00 -0.55974198049E+03  0.22011515844E+04  0.21287924306E+04 0.  0.
        4    1    3    3  502    0  0.33445677294E+03  0.33456991936E+03  0.70602671672E+03  0.84986687283E+03  0.12699999809E+01 0. -1.
       -4    1    3    3    0  502 -0.33445677294E+03 -0.33456991936E+03 -0.12657686972E+04  0.13512847115E+04  0.12699999809E+01 0.  1.
</event>
<event>
 5   0  0.1815400E-04  0.2066128E+04  0.7818609E-02  0.8576313E-01
       -2   -1    0    0    0  501  0.00000000000E+00  0.00000000000E+00  0.67088329641E+03  0.67088329642E+03  0.25500000920E-02 0.  1.
        2   -1    0    0  501    0  0.00000000000E+00  0.00000000000E+00 -0.15907698988E+04  0.15907698988E+04  0.25500000920E-02 0. -1.
    10030    2    1    2    0    0  0.00000000000E+00  0.00000000000E+00 -0.91988660241E+03  0.22616531952E+04  0.20661277343E+04 0.  0.
        3    1    3    3  502    0  0.87785200116E+03 -0.43971372299E+02  0.13425565726E+03  0.88914689969E+03  0.10100000352E+00 0.  1.
       -3    1    3    3    0  502 -0.87785200116E+03  0.43971372299E+02 -0.10541422597E+04  0.13725062956E+04  0.10100000352E+00 0. -1.
</event>
<event>
 5   0  0.8237966E-05  0.2119144E+04  0.7818609E-02  0.8552857E-01
       -1   -1    0    0    0  501  0.00000000000E+00  0.00000000000E+00  0.10442837182E+04  0.10442837182E+04  0.50400001928E-02 0.  1.
        1   -1    0    0  501    0  0.00000000000E+00  0.00000000000E+00 -0.10750844374E+04  0.10750844374E+04  0.50400001928E-02 0. -1.
    10030    2    1    2    0    0  0.00000000000E+00  0.00000000000E+00 -0.30800719211E+02  0.21193681556E+04  0.21191443308E+04 0.  0.
        1    1    3    3  502    0 -0.10543730214E+03  0.73865218523E+03 -0.76778899609E+03  0.10706185212E+04  0.50400001928E-02 0.  1.
       -1    1    3    3    0  502  0.10543730214E+03 -0.73865218523E+03  0.73698827688E+03  0.10487496344E+04  0.50400001928E-02 0. -1.
</event>
<event>
 5   0  0.1777590E-04  0.1998854E+04  0.7818609E-02  0.8607157E-01
       -2   -1    0    0    0  501  0.00000000000E+00  0.00000000000E+00  0.10140659179E+04  0.10140659179E+04  0.25500000920E-02 0. -1.
        2   -1    0    0  501    0  0.00000000000E+00  0.00000000000E+00 -0.98499947708E+03  0.98499947709E+03  0.25500000920E-02 0.  1.
    10030    2    1    2    0    0  0.00000000000E+00  0.00000000000E+00  0.29066440793E+02  0.19990653950E+04  0.19988540706E+04 0.  0.
        4    1    3    3  502    0 -0.31067753019E+03  0.89919205683E+03 -0.29174399845E+03  0.99507942213E+03  0.12699999809E+01 0. -1.
       -4    1    3    3    0  502  0.31067753019E+03 -0.89919205683E+03  0.32081043924E+03  0.10039859728E+04  0.12699999809E+01 0.  1.
</event>
<event>
 5   0  0.8525278E-05  0.1997175E+04  0.7818609E-02  0.8607942E-01
       -1   -1    0    0    0  501  0.00000000000E+00  0.00000000000E+00  0.12959930886E+04  0.12959930886E+04  0.50400001928E-02 0. -1.
        1   -1    0    0  501    0  0.00000000000E+00  0.00000000000E+00 -0.76943115606E+03  0.76943115608E+03  0.50400001928E-02 0.  1.
    10030    2    1    2    0    0  0.00000000000E+00  0.00000000000E+00  0.52656193249E+03  0.20654242446E+04  0.19971754659E+04 0.  0.
        4    1    3    3  502    0 -0.41200557232E+03  0.94741204324E+02 -0.67231746644E+03  0.79418944591E+03  0.12699999809E+01 0.  1.
       -4    1    3    3    0  502  0.41200557232E+03 -0.94741204324E+02  0.11988793989E+04  0.12712347987E+04  0.12699999809E+01 0. -1.
</event>
<event>
 5   0  0.1810875E-04  0.2040844E+04  0.7818609E-02  0.8587759E-01
       -2   -1    0    0    0  501  0.00000000000E+00  0.00000000000E+00  0.63963136619E+03  0.63963136620E+03  0.25500000920E-02 0.  1.
        2   -1    0    0  501    0  0.00000000000E+00  0.00000000000E+00 -0.16279077839E+04  0.16279077840E+04  0.25500000920E-02 0. -1.
    10030    2    1    2    0    0  0.00000000000E+00  0.00000000000E+00 -0.98827641776E+03  0.22675391501E+04  0.20408438254E+04 0.  0.
        1    1    3    3  502    0 -0.50452068884E+03  0.14942413906E+03 -0.14655494847E+04  0.15571461045E+04  0.50400001928E-02 0. -1.
       -1    1    3    3    0  502  0.50452068884E+03 -0.14942413906E+03  0.47727306693E+03  0.71039304561E+03  0.50400001928E-02 0.  1.
</event>
<event>
 5   0  0.1921687E-04  0.2058920E+04  0.7818609E-02  0.8579559E-01
       -2   -1    0    0    0  501  0.00000000000E+00  0.00000000000E+00  0.76161311264E+03  0.76161311265E+03  0.25500000920E-02 0.  1.
        2   -1    0    0  501    0  0.00000000000E+00  0.00000000000E+00 -0.13915035906E+04  0.13915035906E+04  0.25500000920E-02 0. -1.
    10030    2    1    2    0    0  0.00000000000E+00  0.00000000000E+00 -0.62989047791E+03  0.21531167032E+04  0.20589195039E+04 0.  0.
        5    1    3    3  502    0 -0.29060651322E+03 -0.18324322148E+03 -0.13297735483E+04  0.13734445760E+04  0.46999998093E+01 0. -1.
       -5    1    3    3    0  502  0.29060651322E+03  0.18324322148E+03  0.69988307035E+03  0.77967212718E+03  0.46999998093E+01 0.  1.
</event>
<event>
 5   0  0.8237966E-05  0.1618869E+04  0.7818609E-02  0.8809039E-01
       -1   -1    0    0    0  501  0.00000000000E+00  0.00000000000E+00  0.60129577908E+03  0.60129577910E+03  0.50400001928E-02 0. -1.
        1   -1    0    0  501    0  0.00000000000E+00  0.00000000000E+00 -0.10896203408E+04  0.10896203408E+04  0.50400001928E-02 0.  1.
    10030    2    1    2    0    0  0.00000000000E+00  0.00000000000E+00 -0.48832456174E+03  0.16909161199E+04  0.16188688789E+04 0.  0.
        1    1    3    3  502    0  0.53990874578E+03  0.52251317748E+03  0.70340553862E+02  0.75463187579E+03  0.50400001928E-02 0. -1.
       -1    1    3    3    0  502 -0.53990874578E+03 -0.52251317748E+03 -0.55866511560E+03  0.93628424414E+03  0.50400001928E-02 0.  1.
</event>
<event>
 5   0  0.8237966E-05  0.2146860E+04  0.7818609E-02  0.8540877E-01
       -1   -1    0    0    0  501  0.00000000000E+00  0.00000000000E+00  0.12238608743E+04  0.12238608743E+04  0.50400001928E-02 0.  1.
        1   -1    0    0  501    0  0.00000000000E+00  0.00000000000E+00 -0.94148955193E+03  0.94148955195E+03  0.50400001928E-02 0. -1.
    10030    2    1    2    0    0  0.00000000000E+00  0.00000000000E+00  0.28237132235E+03  0.21653504262E+04  0.21468602434E+04 0.  0.
        1    1    3    3  502    0 -0.96511736307E+03  0.17489683871E+02  0.61479865014E+03  0.11444364525E+04  0.50400001928E-02 0.  1.
       -1    1    3    3    0  502  0.96511736307E+03 -0.17489683871E+02 -0.33242732779E+03  0.10209139738E+04  0.50400001928E-02 0. -1.
</event>
<event>
 5   0  0.8525278E-05  0.2153570E+04  0.7818609E-02  0.8538006E-01
       -1   -1    0    0    0  501  0.00000000000E+00  0.00000000000E+00  0.67955692856E+03  0.67955692858E+03  0.50400001928E-02 0. -1.
        1   -1    0    0  501    0  0.00000000000E+00  0.00000000000E+00 -0.17062092528E+04  0.17062092528E+04  0.50400001928E-02 0.  1.
    10030    2    1    2    0    0  0.00000000000E+00  0.00000000000E+00 -0.10266523242E+04  0.23857661814E+04  0.21535703558E+04 0.  0.
        4    1    3    3  502    0 -0.80487929889E+03  0.37910057580E+03 -0.11852864508E+04  0.14820436956E+04  0.12699999809E+01 0.  1.
       -4    1    3    3    0  502  0.80487929889E+03 -0.37910057580E+03  0.15863412653E+03  0.90372248581E+03  0.12699999809E+01 0. -1.
</event>
<event>
 5   0  0.1777590E-04  0.2088416E+04  0.7818609E-02  0.8566364E-01
        2   -1    0    0  501    0  0.00000000000E+00  0.00000000000E+00  0.42642973184E+03  0.42642973184E+03  0.25500000920E-02 0. -1.
       -2   -1    0    0    0  501  0.00000000000E+00  0.00000000000E+00 -0.25569744773E+04  0.25569744773E+04  0.25500000920E-02 0.  1.
    10030    2    1    2    0    0  0.00000000000E+00  0.00000000000E+00 -0.21305447454E+04  0.29834042091E+04  0.20884156106E+04 0.  0.
        4    1    3    3  502    0 -0.67232729467E+03 -0.38461688282E+03 -0.20656792791E+04  0.22061248003E+04  0.12699999809E+01 0.  1.
       -4    1    3    3    0  502  0.67232729467E+03  0.38461688282E+03 -0.64865466353E+02  0.77727940879E+03  0.12699999809E+01 0. -1.
</event>
<event>
 5   0  0.8237966E-05  0.2088872E+04  0.7818609E-02  0.8566161E-01
        1   -1    0    0  501    0  0.00000000000E+00  0.00000000000E+00  0.12103640437E+04  0.12103640437E+04  0.50400001928E-02 0. -1.
       -1   -1    0    0    0  501  0.00000000000E+00  0.00000000000E+00 -0.90125526237E+03  0.90125526239E+03  0.50400001928E-02 0.  1.
    10030    2    1    2    0    0  0.00000000000E+00  0.00000000000E+00  0.30910878129E+03  0.21116193061E+04  0.20888723884E+04 0.  0.
        1    1    3    3  502    0  0.41544318622E+03 -0.87234523900E+03  0.55544279247E+03  0.11144935858E+04  0.50400001928E-02 0. -1.
       -1    1    3    3    0  502 -0.41544318622E+03  0.87234523900E+03 -0.24633401118E+03  0.99712572029E+03  0.50400001928E-02 0.  1.
</event>
<event>
 5   0  0.1810875E-04  0.1877688E+04  0.7818609E-02  0.8666043E-01
       -2   -1    0    0    0  501  0.00000000000E+00  0.00000000000E+00  0.50170434087E+03  0.50170434088E+03  0.25500000920E-02 0.  1.
        2   -1    0    0  501    0  0.00000000000E+00  0.00000000000E+00 -0.17568672457E+04  0.17568672457E+04  0.25500000920E-02 0. -1.
    10030    2    1    2    0    0  0.00000000000E+00  0.00000000000E+00 -0.12551629048E+04  0.22585715866E+04  0.18776878585E+04 0.  0.
        1    1    3    3  502    0 -0.35727351248E+03  0.78127650085E+03 -0.17209990431E+03  0.87615963762E+03  0.50400001928E-02 0. -1.
       -1    1    3    3    0  502  0.35727351248E+03 -0.78127650085E+03 -0.10830630005E+04  0.13824119489E+04  0.50400001928E-02 0.  1.
</event>
<event>
 5   0  0.6441125E-05  0.2087897E+04  0.7818609E-02  0.8566594E-01
       -3   -1    0    0    0  501  0.00000000000E+00  0.00000000000E+00  0.17399690713E+04  0.17399690742E+04  0.10100000352E+00 0.  1.
        3   -1    0    0  501    0  0.00000000000E+00  0.00000000000E+00 -0.62634944313E+03  0.62634945127E+03  0.10100000352E+00 0. -1.
    10030    2    1    2    0    0  0.00000000000E+00  0.00000000000E+00  0.11136196281E+04  0.23663185255E+04  0.20878971928E+04 0.  0.
        5    1    3    3  502    0 -0.54157235963E+02  0.54176308093E+03  0.15662973910E+04  0.16582369701E+04  0.46999998093E+01 0.  1.
       -5    1    3    3    0  502  0.54157235963E+02 -0.54176308093E+03 -0.45267776284E+03  0.70808155536E+03  0.46999998093E+01 0. -1.
</event>
<event>
 5   0  0.8486612E-05  0.2098085E+04  0.7818609E-02  0.8562087E-01
        1   -1    0    0  501    0  0.00000000000E+00  0.00000000000E+00  0.20313195376E+04  0.20313195376E+04  0.50400001928E-02 0.  1.
       -1   -1    0    0    0  501  0.00000000000E+00  0.00000000000E+00 -0.54176136050E+03  0.54176136052E+03  0.50400001928E-02 0. -1.
    10030    2    1    2    0    0  0.00000000000E+00  0.00000000000E+00  0.14895581771E+04  0.25730808982E+04  0.20980852569E+04 0.  0.
        5    1    3    3  502    0 -0.29683065505E+03  0.88206495535E+03  0.13384369376E+04  0.16302093574E+04  0.46999998093E+01 0.  1.
       -5    1    3    3    0  502  0.29683065505E+03 -0.88206495535E+03  0.15112123956E+03  0.94287154071E+03  0.46999998093E+01 0. -1.
</event>
<event>
 5   0  0.1815400E-04  0.2114554E+04  0.7818609E-02  0.8554859E-01
       -2   -1    0    0    0  501  0.00000000000E+00  0.00000000000E+00  0.32877340222E+03  0.32877340223E+03  0.25500000920E-02 0. -1.
        2   -1    0    0  501    0  0.00000000000E+00  0.00000000000E+00 -0.34000166553E+04  0.34000166553E+04  0.25500000920E-02 0.  1.
    10030    2    1    2    0    0  0.00000000000E+00  0.00000000000E+00 -0.30712432531E+04  0.37287900575E+04  0.21145543676E+04 0.  0.
        3    1    3    3  502    0  0.47804103445E+02 -0.99450227393E+03 -0.90840128570E+03  0.13477807356E+04  0.10100000352E+00 0. -1.
       -3    1    3    3    0  502 -0.47804103445E+02  0.99450227393E+03 -0.21628419674E+04  0.23810093219E+04  0.10100000352E+00 0.  1.
</event>
<event>
 5   0  0.8237966E-05  0.2085524E+04  0.7818609E-02  0.8567647E-01
       -1   -1    0    0    0  501  0.00000000000E+00  0.00000000000E+00  0.96951028116E+03  0.96951028117E+03  0.50400001928E-02 0. -1.
        1   -1    0    0  501    0  0.00000000000E+00  0.00000000000E+00 -0.11215485550E+04  0.11215485550E+04  0.50400001928E-02 0.  1.
    10030    2    1    2    0    0  0.00000000000E+00  0.00000000000E+00 -0.15203827381E+03  0.20910588361E+04  0.20855242553E+04 0.  0.
        1    1    3    3  502    0 -0.14604508760E+03  0.92215067692E+03  0.38960730695E+03  0.10116743014E+04  0.50400001928E-02 0. -1.
       -1    1    3    3    0  502  0.14604508760E+03 -0.92215067692E+03 -0.54164558076E+03  0.10793845347E+04  0.50400001928E-02 0.  1.
</event>
<event>
 5   0  0.8486612E-05  0.2062023E+04  0.7818609E-02  0.8578160E-01
        1   -1    0    0  501    0  0.00000000000E+00  0.00000000000E+00  0.12951159504E+04  0.12951159504E+04  0.50400001928E-02 0.  1.
       -1   -1    0    0    0  501  0.00000000000E+00  0.00000000000E+00 -0.82076380556E+03  0.82076380557E+03  0.50400001928E-02 0. -1.
    10030    2    1    2    0    0  0.00000000000E+00  0.00000000000E+00  0.47435214488E+03  0.21158797560E+04  0.20620225956E+04 0.  0.
        5    1    3    3  502    0 -0.88259129654E+03  0.93343266311E+02 -0.30120074133E+03  0.93724294538E+03  0.46999998093E+01 0. -1.
       -5    1    3    3    0  502  0.88259129654E+03 -0.93343266311E+02  0.77555288622E+03  0.11786368106E+04  0.46999998093E+01 0.  1.
</event>
<event>
 5   0  0.1921687E-04  0.2088830E+04  0.7818609E-02  0.8566180E-01
        2   -1    0    0  501    0  0.00000000000E+00  0.00000000000E+00  0.11646533126E+04  0.11646533126E+04  0.25500000920E-02 0.  1.
       -2   -1    0    0    0  501  0.00000000000E+00  0.00000000000E+00 -0.93659048416E+03  0.93659048416E+03  0.25500000920E-02 0. -1.
    10030    2    1    2    0    0  0.00000000000E+00  0.00000000000E+00  0.22806282843E+03  0.21012437968E+04  0.20888304957E+04 0.  0.
        5    1    3    3  502    0 -0.22412614489E+03 -0.23695900537E+03 -0.88403359839E+03  0.94229485414E+03  0.46999998093E+01 0. -1.
       -5    1    3    3    0  502  0.22412614489E+03  0.23695900537E+03  0.11120964268E+04  0.11589489426E+04  0.46999998093E+01 0.  1.
</event>
<event>
 5   0  0.8237966E-05  0.2208570E+04  0.7818609E-02  0.8514870E-01
        1   -1    0    0  501    0  0.00000000000E+00  0.00000000000E+00  0.19144870391E+04  0.19144870391E+04  0.50400001928E-02 0.  1.
       -1   -1    0    0    0  501  0.00000000000E+00  0.00000000000E+00 -0.63695657728E+03  0.63695657730E+03  0.50400001928E-02 0. -1.
    10030    2    1    2    0    0  0.00000000000E+00  0.00000000000E+00  0.12775304619E+04  0.25514436164E+04  0.22085697741E+04 0.  0.
        1    1    3    3  502    0 -0.37931663772E+01 -0.17501032692E+03 -0.62082601791E+03  0.64503329152E+03  0.50400001928E-02 0. -1.
       -1    1    3    3    0  502  0.37931663772E+01  0.17501032692E+03  0.18983564798E+04  0.19064103249E+04  0.50400001928E-02 0.  1.
</event>
<event>
 5   0  0.8486612E-05  0.2099426E+04  0.7818609E-02  0.8561496E-01
        1   -1    0    0  501    0  0.00000000000E+00  0.00000000000E+00  0.10482782696E+04  0.10482782696E+04  0.50400001928E-02 0.  1.
       -1   -1    0    0    0  501  0.00000000000E+00  0.00000000000E+00 -0.10511495841E+04  0.10511495841E+04  0.50400001928E-02 0. -1.
    10030    2    1    2    0    0  0.00000000000E+00  0.00000000000E+00 -0.28713145017E+01  0.20994278537E+04  0.20994258902E+04 0.  0.
        5    1    3    3  502    0 -0.97775048802E+03  0.62542712346E+02 -0.37822184984E+03  0.10502292442E+04  0.46999998093E+01 0. -1.
       -5    1    3    3    0  502  0.97775048802E+03 -0.62542712346E+02  0.37535053534E+03  0.10491986094E+04  0.46999998093E+01 0.  1.
</event>
<event>
 5   0  0.8755004E-05  0.2030401E+04  0.7818609E-02  0.8592538E-01
       -1   -1    0    0    0  501  0.00000000000E+00  0.00000000000E+00  0.11620261815E+04  0.11620261815E+04  0.50400001928E-02 0.  1.
        1   -1    0    0  501    0  0.00000000000E+00  0.00000000000E+00 -0.88692673876E+03  0.88692673877E+03  0.50400001928E-02 0. -1.
    10030    2    1    2    0    0  0.00000000000E+00  0.00000000000E+00  0.27509944278E+03  0.20489529203E+04  0.20304010358E+04 0.  0.
        3    1    3    3  502    0 -0.26478893360E+03 -0.96175123145E+03 -0.52729407793E+02  0.99892893201E+03  0.10100000352E+00 0. -1.
       -3    1    3    3    0  502  0.26478893360E+03  0.96175123145E+03  0.32782885057E+03  0.10500239883E+04  0.10100000352E+00 0.  1.
</event>
<event>
 5   0  0.1777590E-04  0.1619254E+04  0.7818609E-02  0.8808806E-01
        2   -1    0    0  501    0  0.00000000000E+00  0.00000000000E+00  0.22412116957E+04  0.22412116957E+04  0.25500000920E-02 0.  1.
       -2   -1    0    0    0  501  0.00000000000E+00  0.00000000000E+00 -0.29247400482E+03  0.29247400483E+03  0.25500000920E-02 0. -1.
    10030    2    1    2    0    0  0.00000000000E+00  0.00000000000E+00  0.19487376909E+04  0.25336857006E+04  0.16192543473E+04 0.  0.
        4    1    3    3  502    0 -0.41864317485E+01  0.69822434052E+03  0.16156379727E+04  0.17600631886E+04  0.12699999809E+01 0.  1.
       -4    1    3    3    0  502  0.41864317485E+01 -0.69822434052E+03  0.33309971816E+03  0.77362251198E+03  0.12699999809E+01 0. -1.
</event>
<event>
 5   0  0.8271069E-05  0.2105353E+04  0.7818609E-02  0.8558889E-01
        1   -1    0    0  501    0  0.00000000000E+00  0.00000000000E+00  0.23151342978E+04  0.23151342978E+04  0.50400001928E-02 0. -1.
       -1   -1    0    0    0  501  0.00000000000E+00  0.00000000000E+00 -0.47864537478E+03  0.47864537480E+03  0.50400001928E-02 0.  1.
    10030    2    1    2    0    0  0.00000000000E+00  0.00000000000E+00  0.18364889230E+04  0.27937796726E+04  0.21053534845E+04 0.  0.
        2    1    3    3  502    0 -0.30791235632E+03 -0.10038817508E+04  0.10170114058E+04  0.14618142113E+04  0.25500000920E-02 0. -1.
       -2    1    3    3    0  502  0.30791235632E+03  0.10038817508E+04  0.81947751722E+03  0.13319654613E+04  0.25500000920E-02 0.  1.
</event>
<event>
 5   0  0.6441125E-05  0.1615902E+04  0.7818609E-02  0.8810838E-01
       -3   -1    0    0    0  501  0.00000000000E+00  0.00000000000E+00  0.11959456833E+04  0.11959456875E+04  0.10100000352E+00 0.  1.
        3   -1    0    0  501    0  0.00000000000E+00  0.00000000000E+00 -0.54583131242E+03  0.54583132176E+03  0.10100000352E+00 0. -1.
    10030    2    1    2    0    0  0.00000000000E+00  0.00000000000E+00  0.65011437085E+03  0.17417770093E+04  0.16159017467E+04 0.  0.
        3    1    3    3  502    0 -0.29695361506E+03 -0.64352366968E+03  0.74319325290E+03  0.10269568561E+04  0.10100000352E+00 0.  1.
       -3    1    3    3    0  502  0.29695361506E+03  0.64352366968E+03 -0.93078882046E+02  0.71482015320E+03  0.10100000352E+00 0. -1.
</event>
<event>
 5   0  0.1810875E-04  0.2040550E+04  0.7818609E-02  0.8587893E-01
        2   -1    0    0  501    0  0.00000000000E+00  0.00000000000E+00  0.84477007794E+03  0.84477007794E+03  0.25500000920E-02 0.  1.
       -2   -1    0    0    0  501  0.00000000000E+00  0.00000000000E+00 -0.12322424424E+04  0.12322424424E+04  0.25500000920E-02 0. -1.
    10030    2    1    2    0    0  0.00000000000E+00  0.00000000000E+00 -0.38747236449E+03  0.20770125204E+04  0.20405504592E+04 0.  0.
        1    1    3    3  502    0  0.20965240460E+03  0.24770651621E+03  0.79083751728E+03  0.85483134459E+03  0.50400001928E-02 0.  1.
       -1    1    3    3    0  502 -0.20965240460E+03 -0.24770651621E+03 -0.11783098818E+04  0.12221811758E+04  0.50400001928E-02 0. -1.
</event>
<event>
 5   0  0.1777590E-04  0.2101462E+04  0.7818609E-02  0.8560600E-01
        2   -1    0    0  501    0  0.00000000000E+00  0.00000000000E+00  0.16497091201E+04  0.16497091201E+04  0.25500000920E-02 0. -1.
       -2   -1    0    0    0  501  0.00000000000E+00  0.00000000000E+00 -0.66923025641E+03  0.66923025642E+03  0.25500000920E-02 0.  1.
    10030    2    1    2    0    0  0.00000000000E+00  0.00000000000E+00  0.98047886371E+03  0.23189393765E+04  0.21014616413E+04 0.  0.
        4    1    3    3  502    0 -0.10983496824E+03  0.10149193331E+04  0.76480348082E+03  0.12755590736E+04  0.12699999809E+01 0.  1.
       -4    1    3    3    0  502  0.10983496824E+03 -0.10149193331E+04  0.21567538288E+03  0.10433803030E+04  0.12699999809E+01 0. -1.
</event>
<event>
 5   0  0.1777590E-04  0.2098404E+04  0.7818609E-02  0.8561947E-01
        2   -1    0    0  501    0  0.00000000000E+00  0.00000000000E+00  0.15892179998E+04  0.15892179998E+04  0.25500000920E-02 0.  1.
       -2   -1    0    0    0  501  0.00000000000E+00  0.00000000000E+00 -0.69268350564E+03  0.69268350565E+03  0.25500000920E-02 0. -1.
    10030    2    1    2    0    0  0.00000000000E+00  0.00000000000E+00  0.89653449416E+03  0.22819015055E+04  0.20984042464E+04 0.  0.
        4    1    3    3  502    0 -0.32403233628E+03 -0.27027924797E+03 -0.59634665847E+03  0.73053321403E+03  0.12699999809E+01 0. -1.
       -4    1    3    3    0  502  0.32403233628E+03  0.27027924797E+03  0.14928811526E+04  0.15513682914E+04  0.12699999809E+01 0.  1.
</event>
<event>
 5   0  0.1777590E-04  0.2111675E+04  0.7818609E-02  0.8556118E-01
       -2   -1    0    0    0  501  0.00000000000E+00  0.00000000000E+00  0.50270442360E+03  0.50270442361E+03  0.25500000920E-02 0. -1.
        2   -1    0    0  501    0  0.00000000000E+00  0.00000000000E+00 -0.22175901312E+04  0.22175901312E+04  0.25500000920E-02 0.  1.
    10030    2    1    2    0    0  0.00000000000E+00  0.00000000000E+00 -0.17148857076E+04  0.27202945548E+04  0.21116745665E+04 0.  0.
        4    1    3    3  502    0 -0.88161504960E+03  0.13549377333E+02 -0.10920948527E+03  0.88845765564E+03  0.12699999809E+01 0. -1.
       -4    1    3    3    0  502  0.88161504960E+03 -0.13549377333E+02 -0.16056762223E+04  0.18318368992E+04  0.12699999809E+01 0.  1.
</event>
<event>
 5   0  0.1815400E-04  0.1645465E+04  0.7818609E-02  0.8793094E-01
       -2   -1    0    0    0  501  0.00000000000E+00  0.00000000000E+00  0.48937954100E+03  0.48937954101E+03  0.25500000920E-02 0.  1.
        2   -1    0    0  501    0  0.00000000000E+00  0.00000000000E+00 -0.13831578910E+04  0.13831578910E+04  0.25500000920E-02 0. -1.
    10030    2    1    2    0    0  0.00000000000E+00  0.00000000000E+00 -0.89377834996E+03  0.18725374320E+04  0.16454654950E+04 0.  0.
        3    1    3    3  502    0  0.44652632787E+03 -0.45084287388E+03 -0.10428399364E+04  0.12207211809E+04  0.10100000352E+00 0. -1.
       -3    1    3    3    0  502 -0.44652632787E+03  0.45084287388E+03  0.14906158642E+03  0.65181625107E+03  0.10100000352E+00 0.  1.
</event>
<event>
 5   0  0.8755004E-05  0.2109459E+04  0.7818609E-02  0.8557088E-01
        1   -1    0    0  501    0  0.00000000000E+00  0.00000000000E+00  0.13579133002E+04  0.13579133002E+04  0.50400001928E-02 0. -1.
       -1   -1    0    0    0  501  0.00000000000E+00  0.00000000000E+00 -0.81923777050E+03  0.81923777051E+03  0.50400001928E-02 0.  1.
    10030    2    1    2    0    0  0.00000000000E+00  0.00000000000E+00  0.53867552968E+03  0.21771510707E+04  0.21094585700E+04 0.  0.
        3    1    3    3  502    0  0.33633075616E+03  0.62272761060E+03 -0.53777099166E+03  0.88887890301E+03  0.10100000352E+00 0.  1.
       -3    1    3    3    0  502 -0.33633075616E+03 -0.62272761060E+03  0.10764465213E+04  0.12882721677E+04  0.10100000352E+00 0. -1.
</event>
<event>
 5   0  0.8525278E-05  0.2130691E+04  0.7818609E-02  0.8547843E-01
        1   -1    0    0  501    0  0.00000000000E+00  0.00000000000E+00  0.11264010663E+04  0.11264010663E+04  0.50400001928E-02 0.  1.
       -1   -1    0    0    0  501  0.00000000000E+00  0.00000000000E+00 -0.10075996267E+04  0.10075996267E+04  0.50400001928E-02 0. -1.
    10030    2    1    2    0    0  0.00000000000E+00  0.00000000000E+00  0.11880143962E+03  0.21340006930E+04  0.21306912436E+04 0.  0.
        4    1    3    3  502    0  0.10507492638E+04  0.16522699939E+03  0.11937447809E+03  0.10703391312E+04  0.12699999809E+01 0. -1.
       -4    1    3    3    0  502 -0.10507492638E+04 -0.16522699939E+03 -0.57303847040E+00  0.10636615618E+04  0.12699999809E+01 0.  1.
</event>
<event>
 5   0  0.1815400E-04  0.2099845E+04  0.7818609E-02  0.8561312E-01
        2   -1    0    0  501    0  0.00000000000E+00  0.00000000000E+00  0.19398757988E+04  0.19398757988E+04  0.25500000920E-02 0. -1.
       -2   -1    0    0    0  501  0.00000000000E+00  0.00000000000E+00 -0.56825154557E+03  0.56825154557E+03  0.25500000920E-02 0.  1.
    10030    2    1    2    0    0  0.00000000000E+00  0.00000000000E+00  0.13716242532E+04  0.25081273443E+04  0.20998451570E+04 0.  0.
        3    1    3    3  502    0  0.78942778081E+03 -0.20324119305E+03  0.14761579390E+04  0.16862815526E+04  0.10100000352E+00 0. -1.
       -3    1    3    3    0  502 -0.78942778081E+03  0.20324119305E+03 -0.10453368581E+03  0.82184579170E+03  0.10100000352E+00 0.  1.
</event>
<event>
 5   0  0.1886323E-04  0.2110412E+04  0.7818609E-02  0.8556671E-01
        2   -1    0    0  501    0  0.00000000000E+00  0.00000000000E+00  0.17934022545E+04  0.17934022545E+04  0.25500000920E-02 0.  1.
       -2   -1    0    0    0  501  0.00000000000E+00  0.00000000000E+00 -0.62086421764E+03  0.62086421764E+03  0.25500000920E-02 0. -1.
    10030    2    1    2    0    0  0.00000000000E+00  0.00000000000E+00  0.11725380369E+04  0.24142664722E+04  0.21104116069E+04 0.  0.
        2    1    3    3  502    0 -0.40121580939E+03 -0.89360628638E+01 -0.53015440617E+03  0.66491929834E+03  0.25500000920E-02 0. -1.
       -2    1    3    3    0  502  0.40121580939E+03  0.89360628638E+01  0.17026924431E+04  0.17493471738E+04  0.25500000920E-02 0.  1.
</event>
<event>
 5   0  0.8237966E-05  0.2132116E+04  0.7818609E-02  0.8547227E-01
        1   -1    0    0  501    0  0.00000000000E+00  0.00000000000E+00  0.67458791688E+03  0.67458791690E+03  0.50400001928E-02 0. -1.
       -1   -1    0    0    0  501  0.00000000000E+00  0.00000000000E+00 -0.16847013960E+04  0.16847013960E+04  0.50400001928E-02 0.  1.
    10030    2    1    2    0    0  0.00000000000E+00  0.00000000000E+00 -0.10101134792E+04  0.23592893129E+04  0.21321155741E+04 0.  0.
        1    1    3    3  502    0 -0.30495748146E+03 -0.70906274475E+03 -0.13187350220E+04  0.15280154121E+04  0.50400001928E-02 0.  1.
       -1    1    3    3    0  502  0.30495748146E+03  0.70906274475E+03  0.30862154281E+03  0.83127390082E+03  0.50400001928E-02 0. -1.
</event>
<event>
 5   0  0.1810875E-04  0.2095787E+04  0.7818609E-02  0.8563102E-01
        2   -1    0    0  501    0  0.00000000000E+00  0.00000000000E+00  0.13704534840E+04  0.13704534840E+04  0.25500000920E-02 0.  1.
       -2   -1    0    0    0  501  0.00000000000E+00  0.00000000000E+00 -0.80125340662E+03  0.80125340662E+03  0.25500000920E-02 0. -1.
    10030    2    1    2    0    0  0.00000000000E+00  0.00000000000E+00  0.56920007739E+03  0.21717068906E+04  0.20957867474E+04 0.  0.
        1    1    3    3  502    0  0.70634705871E+03  0.19888446685E+02  0.10864259306E+04  0.12960104245E+04  0.50400001928E-02 0.  1.
       -1    1    3    3    0  502 -0.70634705871E+03 -0.19888446685E+02 -0.51722585318E+03  0.87569646618E+03  0.50400001928E-02 0. -1.
</event>
<event>
 5   0  0.8271069E-05  0.2100212E+04  0.7818609E-02  0.8561150E-01
       -1   -1    0    0    0  501  0.00000000000E+00  0.00000000000E+00  0.83216866360E+03  0.83216866361E+03  0.50400001928E-02 0.  1.
        1   -1    0    0  501    0  0.00000000000E+00  0.00000000000E+00 -0.13251189155E+04  0.13251189155E+04  0.50400001928E-02 0. -1.
    10030    2    1    2    0    0  0.00000000000E+00  0.00000000000E+00 -0.49295025190E+03  0.21572875791E+04  0.21002118341E+04 0.  0.
        2    1    3    3  502    0  0.13709172912E+03 -0.95038889561E+03  0.19015237840E+03  0.97887237274E+03  0.25500000920E-02 0.  1.
       -2    1    3    3    0  502 -0.13709172912E+03  0.95038889561E+03 -0.68310263029E+03  0.11784152064E+04  0.25500000920E-02 0. -1.
</event>
<event>
 5   0  0.1921687E-04  0.2085382E+04  0.7818609E-02  0.8567710E-01
        2   -1    0    0  501    0  0.00000000000E+00  0.00000000000E+00  0.19108386134E+04  0.19108386134E+04  0.25500000920E-02 0.  1.
       -2   -1    0    0    0  501  0.00000000000E+00  0.00000000000E+00 -0.56896729972E+03  0.56896729972E+03  0.25500000920E-02 0. -1.
    10030    2    1    2    0    0  0.00000000000E+00  0.00000000000E+00  0.13418713137E+04  0.24798059132E+04  0.20853821579E+04 0.  0.
        5    1    3    3  502    0  0.14902861656E+03  0.39556263689E+03 -0.46249585985E+03  0.62658107108E+03  0.46999998093E+01 0. -1.
       -5    1    3    3    0  502 -0.14902861656E+03 -0.39556263689E+03  0.18043671736E+04  0.18532248421E+04  0.46999998093E+01 0.  1.
</event>
<event>
 5   0  0.8271069E-05  0.2188065E+04  0.7818609E-02  0.8523412E-01
       -1   -1    0    0    0  501  0.00000000000E+00  0.00000000000E+00  0.77107466024E+03  0.77107466025E+03  0.50400001928E-02 0.  1.
        1   -1    0    0  501    0  0.00000000000E+00  0.00000000000E+00 -0.15522578335E+04  0.15522578336E+04  0.50400001928E-02 0. -1.
    10030    2    1    2    0    0  0.00000000000E+00  0.00000000000E+00 -0.78118317331E+03  0.23233324938E+04  0.21880646075E+04 0.  0.
        2    1    3    3  502    0 -0.68305739733E+02 -0.10721858724E+04 -0.17128391445E+03  0.10879275703E+04  0.25500000920E-02 0. -1.
       -2    1    3    3    0  502  0.68305739733E+02  0.10721858724E+04 -0.60989925886E+03  0.12354049235E+04  0.25500000920E-02 0.  1.
</event>
<event>
 5   0  0.8755004E-05  0.1463197E+04  0.7818609E-02  0.8909302E-01
        1   -1    0    0  501    0  0.00000000000E+00  0.00000000000E+00  0.10677691052E+04  0.10677691052E+04  0.50400001928E-02 0. -1.
       -1   -1    0    0    0  501  0.00000000000E+00  0.00000000000E+00 -0.50126599812E+03  0.50126599814E+03  0.50400001928E-02 0.  1.
    10030    2    1    2    0    0  0.00000000000E+00  0.00000000000E+00  0.56650310708E+03  0.15690351033E+04  0.14631969742E+04 0.  0.
        3    1    3    3  502    0  0.15855192485E+03  0.37463697519E+03  0.93530152404E+03  0.10199414332E+04  0.10100000352E+00 0. -1.
       -3    1    3    3    0  502 -0.15855192485E+03 -0.37463697519E+03 -0.36879841696E+03  0.54909367016E+03  0.10100000352E+00 0.  1.
</event>
<event>
 5   0  0.8486612E-05  0.2042828E+04  0.7818609E-02  0.8586855E-01
       -1   -1    0    0    0  501  0.00000000000E+00  0.00000000000E+00  0.91539733466E+03  0.91539733467E+03  0.50400001928E-02 0.  1.
        1   -1    0    0  501    0  0.00000000000E+00  0.00000000000E+00 -0.11397089578E+04  0.11397089578E+04  0.50400001928E-02 0. -1.
    10030    2    1    2    0    0  0.00000000000E+00  0.00000000000E+00 -0.22431162311E+03  0.20551062925E+04  0.20428279832E+04 0.  0.
        5    1    3    3  502    0 -0.77342551081E+03 -0.60079719144E+03 -0.40393381744E+03  0.10594002572E+04  0.46999998093E+01 0. -1.
       -5    1    3    3    0  502  0.77342551081E+03  0.60079719144E+03  0.17962219433E+03  0.99570603529E+03  0.46999998093E+01 0.  1.
</event>
<event>
 5   0  0.1810875E-04  0.2170906E+04  0.7818609E-02  0.8530636E-01
        2   -1    0    0  501    0  0.00000000000E+00  0.00000000000E+00  0.13690280389E+04  0.13690280389E+04  0.25500000920E-02 0.  1.
       -2   -1    0    0    0  501  0.00000000000E+00  0.00000000000E+00 -0.86061687608E+03  0.86061687609E+03  0.25500000920E-02 0. -1.
    10030    2    1    2    0    0  0.00000000000E+00  0.00000000000E+00  0.50841116284E+03  0.22296449150E+04  0.21709063859E+04 0.  0.
        1    1    3    3  502    0  0.28042104052E+03  0.73830426486E+03  0.10189870397E+04  0.12892105082E+04  0.50400001928E-02 0.  1.
       -1    1    3    3    0  502 -0.28042104052E+03 -0.73830426486E+03 -0.51057587682E+03  0.94043440680E+03  0.50400001928E-02 0. -1.
</event>
<event>
 5   0  0.8755004E-05  0.2043156E+04  0.7818609E-02  0.8586706E-01
        1   -1    0    0  501    0  0.00000000000E+00  0.00000000000E+00  0.12656101278E+04  0.12656101278E+04  0.50400001928E-02 0. -1.
       -1   -1    0    0    0  501  0.00000000000E+00  0.00000000000E+00 -0.82459947866E+03  0.82459947867E+03  0.50400001928E-02 0.  1.
    10030    2    1    2    0    0  0.00000000000E+00  0.00000000000E+00  0.44101064918E+03  0.20902096065E+04  0.20431558449E+04 0.  0.
        3    1    3    3  502    0  0.26086492637E+03  0.14104314595E+03  0.12206068400E+04  0.12561149418E+04  0.10100000352E+00 0. -1.
       -3    1    3    3    0  502 -0.26086492637E+03 -0.14104314595E+03 -0.77959619083E+03  0.83409466476E+03  0.10100000352E+00 0.  1.
</event>
<event>
 5   0  0.1886323E-04  0.2047964E+04  0.7818609E-02  0.8584519E-01
       -2   -1    0    0    0  501  0.00000000000E+00  0.00000000000E+00  0.66124661232E+03  0.66124661232E+03  0.25500000920E-02 0.  1.
        2   -1    0    0  501    0  0.00000000000E+00  0.00000000000E+00 -0.15857001562E+04  0.15857001562E+04  0.25500000920E-02 0. -1.
    10030    2    1    2    0    0  0.00000000000E+00  0.00000000000E+00 -0.92445354390E+03  0.22469467685E+04  0.20479637267E+04 0.  0.
        2    1    3    3  502    0 -0.14589572496E+03  0.43944081305E+03 -0.14642812109E+04  0.15357451791E+04  0.25500000920E-02 0. -1.
       -2    1    3    3    0  502  0.14589572496E+03 -0.43944081305E+03  0.53982766698E+03  0.71120158940E+03  0.25500000920E-02 0.  1.
</event>
<event>
 5   0  0.8525278E-05  0.2076375E+04  0.7818609E-02  0.8571722E-01
       -1   -1    0    0    0  501  0.00000000000E+00  0.00000000000E+00  0.11291284205E+04  0.11291284205E+04  0.50400001928E-02 0.  1.
        1   -1    0    0  501    0  0.00000000000E+00  0.00000000000E+00 -0.95457112581E+03  0.95457112582E+03  0.50400001928E-02 0. -1.
    10030    2    1    2    0    0  0.00000000000E+00  0.00000000000E+00  0.17455729470E+03  0.20836995463E+04  0.20763750986E+04 0.  0.
        4    1    3    3  502    0 -0.81980448571E+03 -0.22748717137E+03 -0.50980080077E+03  0.99183077049E+03  0.12699999809E+01 0. -1.
       -4    1    3    3    0  502  0.81980448571E+03  0.22748717137E+03  0.68435809547E+03  0.10918687758E+04  0.12699999809E+01 0.  1.
</event>
<event>
 5   0  0.8486612E-05  0.2089883E+04  0.7818609E-02  0.8565713E-01
       -1   -1    0    0    0  501  0.00000000000E+00  0.00000000000E+00  0.16178899676E+04  0.16178899676E+04  0.50400001928E-02 0. -1.
        1   -1    0    0  501    0  0.00000000000E+00  0.00000000000E+00 -0.67489295715E+03  0.67489295717E+03  0.50400001928E-02 0.  1.
    10030    2    1    2    0    0  0.00000000000E+00  0.00000000000E+00  0.94299701049E+03  0.22927829248E+04  0.20898828145E+04 0.  0.
        5    1    3    3  502    0  0.53175981658E+03 -0.20279149596E+03 -0.48993244114E+03  0.75096523238E+03  0.46999998093E+01 0.  1.
       -5    1    3    3    0  502 -0.53175981658E+03  0.20279149596E+03  0.14329294516E+04  0.15418176924E+04  0.46999998093E+01 0. -1.
</event>
<event>
 5   0  0.1921687E-04  0.2048375E+04  0.7818609E-02  0.8584332E-01
        2   -1    0    0  501    0  0.00000000000E+00  0.00000000000E+00  0.10063048479E+04  0.10063048479E+04  0.25500000920E-02 0.  1.
       -2   -1    0    0    0  501  0.00000000000E+00  0.00000000000E+00 -0.10423884138E+04  0.10423884138E+04  0.25500000920E-02 0. -1.
    10030    2    1    2    0    0  0.00000000000E+00  0.00000000000E+00 -0.36083565832E+02  0.20486932617E+04  0.20483754677E+04 0.  0.
        5    1    3    3  502    0  0.92930063275E+03 -0.30717955808E+03 -0.31971662337E+03  0.10296600197E+04  0.46999998093E+01 0. -1.
       -5    1    3    3    0  502 -0.92930063275E+03  0.30717955808E+03  0.28363305754E+03  0.10190332420E+04  0.46999998093E+01 0.  1.
</event>
<event>
 5   0  0.8486612E-05  0.2097490E+04  0.7818609E-02  0.8562350E-01
       -1   -1    0    0    0  501  0.00000000000E+00  0.00000000000E+00  0.94851868668E+03  0.94851868669E+03  0.50400001928E-02 0. -1.
        1   -1    0    0  501    0  0.00000000000E+00  0.00000000000E+00 -0.11595620231E+04  0.11595620231E+04  0.50400001928E-02 0.  1.
    10030    2    1    2    0    0  0.00000000000E+00  0.00000000000E+00 -0.21104333644E+03  0.21080807098E+04  0.20974901643E+04 0.  0.
        5    1    3    3  502    0  0.28753094103E+03 -0.95939955901E+03  0.20705120555E+03  0.10227481839E+04  0.46999998093E+01 0. -1.
       -5    1    3    3    0  502 -0.28753094103E+03  0.95939955901E+03 -0.41809454199E+03  0.10853325260E+04  0.46999998093E+01 0.  1.
</event>
<event>
 5   0  0.8271069E-05  0.1859592E+04  0.7818609E-02  0.8675235E-01
       -1   -1    0    0    0  501  0.00000000000E+00  0.00000000000E+00  0.78753723834E+03  0.78753723835E+03  0.50400001928E-02 0. -1.
        1   -1    0    0  501    0  0.00000000000E+00  0.00000000000E+00 -0.10977525573E+04  0.10977525573E+04  0.50400001928E-02 0.  1.
    10030    2    1    2    0    0  0.00000000000E+00  0.00000000000E+00 -0.31021531893E+03  0.18852897956E+04  0.18595924471E+04 0.  0.
        2    1    3    3  502    0  0.11128116341E+03  0.66602599039E+03  0.49290173651E+03  0.83601808537E+03  0.25500000920E-02 0. -1.
       -2    1    3    3    0  502 -0.11128116341E+03 -0.66602599039E+03 -0.80311705544E+03  0.10492717103E+04  0.25500000920E-02 0.  1.
</event>
<event>
 5   0  0.1810875E-04  0.1924148E+04  0.7818609E-02  0.8642929E-01
       -2   -1    0    0    0  501  0.00000000000E+00  0.00000000000E+00  0.77028476807E+03  0.77028476807E+03  0.25500000920E-02 0. -1.
        2   -1    0    0  501    0  0.00000000000E+00  0.00000000000E+00 -0.12016152681E+04  0.12016152681E+04  0.25500000920E-02 0.  1.
    10030    2    1    2    0    0  0.00000000000E+00  0.00000000000E+00 -0.43133050000E+03  0.19719000361E+04  0.19241475391E+04 0.  0.
        1    1    3    3  502    0 -0.13013250667E+03 -0.85412133196E+03  0.21807380540E+03  0.89107457804E+03  0.50400001928E-02 0. -1.
       -1    1    3    3    0  502  0.13013250667E+03  0.85412133196E+03 -0.64940430540E+03  0.10808254581E+04  0.50400001928E-02 0.  1.
</event>
<event>
 5   0  0.8525278E-05  0.2152875E+04  0.7818609E-02  0.8538303E-01
       -1   -1    0    0    0  501  0.00000000000E+00  0.00000000000E+00  0.14641662169E+04  0.14641662169E+04  0.50400001928E-02 0.  1.
        1   -1    0    0  501    0  0.00000000000E+00  0.00000000000E+00 -0.79138399611E+03  0.79138399612E+03  0.50400001928E-02 0. -1.
    10030    2    1    2    0    0  0.00000000000E+00  0.00000000000E+00  0.67278222083E+03  0.22555502131E+04  0.21528750189E+04 0.  0.
        4    1    3    3  502    0 -0.78884629214E+03  0.36502367439E+03 -0.32886892598E+03  0.92934231523E+03  0.12699999809E+01 0. -1.
       -4    1    3    3    0  502  0.78884629214E+03 -0.36502367439E+03  0.10016511468E+04  0.13262078978E+04  0.12699999809E+01 0.  1.
</event>
<event>
 5   0  0.1810875E-04  0.2103829E+04  0.7818609E-02  0.8559559E-01
       -2   -1    0    0    0  501  0.00000000000E+00  0.00000000000E+00  0.11641818038E+04  0.11641818038E+04  0.25500000920E-02 0.  1.
        2   -1    0    0  501    0  0.00000000000E+00  0.00000000000E+00 -0.95047352995E+03  0.95047352995E+03  0.25500000920E-02 0. -1.
    10030    2    1    2    0    0  0.00000000000E+00  0.00000000000E+00  0.21370827382E+03  0.21146553337E+04  0.21038288795E+04 0.  0.
        1    1    3    3  502    0  0.61985689519E+03  0.84742700007E+03  0.41954870017E+02  0.10507689099E+04  0.50400001928E-02 0.  1.
       -1    1    3    3    0  502 -0.61985689519E+03 -0.84742700007E+03  0.17175340380E+03  0.10638864238E+04  0.50400001928E-02 0. -1.
</event>
<event>
 5   0  0.1810875E-04  0.2108463E+04  0.7818609E-02  0.8557524E-01
        2   -1    0    0  501    0  0.00000000000E+00  0.00000000000E+00  0.18333860878E+04  0.18333860878E+04  0.25500000920E-02 0. -1.
       -2   -1    0    0    0  501  0.00000000000E+00  0.00000000000E+00 -0.60620310398E+03  0.60620310399E+03  0.25500000920E-02 0.  1.
    10030    2    1    2    0    0  0.00000000000E+00  0.00000000000E+00  0.12271829838E+04  0.24395891918E+04  0.21084632671E+04 0.  0.
        1    1    3    3  502    0 -0.33960880144E+03 -0.93150072280E+03  0.19902556904E+03  0.10112561059E+04  0.50400001928E-02 0.  1.
       -1    1    3    3    0  502  0.33960880144E+03  0.93150072280E+03  0.10281574147E+04  0.14283330858E+04  0.50400001928E-02 0. -1.
</event>
<event>
 5   0  0.8525278E-05  0.2065438E+04  0.7818609E-02  0.8576623E-01
       -1   -1    0    0    0  501  0.00000000000E+00  0.00000000000E+00  0.89728288857E+03  0.89728288859E+03  0.50400001928E-02 0.  1.
        1   -1    0    0  501    0  0.00000000000E+00  0.00000000000E+00 -0.11885980384E+04  0.11885980384E+04  0.50400001928E-02 0. -1.
    10030    2    1    2    0    0  0.00000000000E+00  0.00000000000E+00 -0.29131514986E+03  0.20858809270E+04  0.20654381436E+04 0.  0.
        4    1    3    3  502    0  0.33949508785E+03 -0.80447984879E+03 -0.70253373620E+03  0.11207140604E+04  0.12699999809E+01 0. -1.
       -4    1    3    3    0  502 -0.33949508785E+03  0.80447984879E+03  0.41121858633E+03  0.96516686663E+03  0.12699999809E+01 0.  1.
</event>
<event>
 5   0  0.8755004E-05  0.2093974E+04  0.7818609E-02  0.8563902E-01
        1   -1    0    0  501    0  0.00000000000E+00  0.00000000000E+00  0.14319474700E+04  0.14319474700E+04  0.50400001928E-02 0. -1.
       -1   -1    0    0    0  501  0.00000000000E+00  0.00000000000E+00 -0.76551823001E+03  0.76551823002E+03  0.50400001928E-02 0.  1.
    10030    2    1    2    0    0  0.00000000000E+00  0.00000000000E+00  0.66642923998E+03  0.21974657000E+04  0.20939741094E+04 0.  0.
        3    1    3    3  502    0 -0.31048097915E+03  0.67390230800E+03 -0.44196714601E+03  0.86364212929E+03  0.10100000352E+00 0.  1.
       -3    1    3    3    0  502  0.31048097915E+03 -0.67390230800E+03  0.11083963860E+04  0.13338235707E+04  0.10100000352E+00 0. -1.
</event>
<event>
 5   0  0.1777590E-04  0.2102032E+04  0.7818609E-02  0.8560349E-01
        2   -1    0    0  501    0  0.00000000000E+00  0.00000000000E+00  0.20117968263E+04  0.20117968263E+04  0.25500000920E-02 0. -1.
       -2   -1    0    0    0  501  0.00000000000E+00  0.00000000000E+00 -0.54907861393E+03  0.54907861394E+03  0.25500000920E-02 0.  1.
    10030    2    1    2    0    0  0.00000000000E+00  0.00000000000E+00  0.14627182124E+04  0.25608754403E+04  0.21020319816E+04 0.  0.
        4    1    3    3  502    0 -0.66758977678E+03  0.60023261658E+03  0.13971694409E+04  0.16607345855E+04  0.12699999809E+01 0. -1.
       -4    1    3    3    0  502  0.66758977678E+03 -0.60023261658E+03  0.65548771527E+02  0.90014085477E+03  0.12699999809E+01 0.  1.
</event>
<event>
 5   0  0.8525278E-05  0.1620841E+04  0.7818609E-02  0.8807846E-01
        1   -1    0    0  501    0  0.00000000000E+00  0.00000000000E+00  0.11011658853E+04  0.11011658853E+04  0.50400001928E-02 0.  1.
       -1   -1    0    0    0  501  0.00000000000E+00  0.00000000000E+00 -0.59644146109E+03  0.59644146111E+03  0.50400001928E-02 0. -1.
    10030    2    1    2    0    0  0.00000000000E+00  0.00000000000E+00  0.50472442422E+03  0.16976073464E+04  0.16208405098E+04 0.  0.
        4    1    3    3  502    0 -0.15028562881E+03 -0.22498461206E+03 -0.54774005376E+03  0.61092112853E+03  0.12699999809E+01 0. -1.
       -4    1    3    3    0  502  0.15028562881E+03  0.22498461206E+03  0.10524644780E+04  0.10866862179E+04  0.12699999809E+01 0.  1.
</event>
<event>
 5   0  0.8237966E-05  0.2086307E+04  0.7818609E-02  0.8567300E-01
        1   -1    0    0  501    0  0.00000000000E+00  0.00000000000E+00  0.11645669698E+04  0.11645669698E+04  0.50400001928E-02 0. -1.
       -1   -1    0    0    0  501  0.00000000000E+00  0.00000000000E+00 -0.93439772469E+03  0.93439772470E+03  0.50400001928E-02 0.  1.
    10030    2    1    2    0    0  0.00000000000E+00  0.00000000000E+00  0.23016924511E+03  0.20989646945E+04  0.20863065229E+04 0.  0.
        1    1    3    3  502    0 -0.21248582120E+03  0.75971292613E+03  0.80176129232E+03  0.11247822564E+04  0.50400001928E-02 0. -1.
       -1    1    3    3    0  502  0.21248582120E+03 -0.75971292613E+03 -0.57159204721E+03  0.97418243815E+03  0.50400001928E-02 0.  1.
</event>
<event>
 5   0  0.8486612E-05  0.1434400E+04  0.7818609E-02  0.8929288E-01
        1   -1    0    0  501    0  0.00000000000E+00  0.00000000000E+00  0.10872230206E+04  0.10872230206E+04  0.50400001928E-02 0. -1.
       -1   -1    0    0    0  501  0.00000000000E+00  0.00000000000E+00 -0.47310987834E+03  0.47310987837E+03  0.50400001928E-02 0.  1.
    10030    2    1    2    0    0  0.00000000000E+00  0.00000000000E+00  0.61411314221E+03  0.15603328989E+04  0.14344001548E+04 0.  0.
        5    1    3    3  502    0 -0.38128001401E+03 -0.55210371391E+03  0.31518147649E+02  0.67172051005E+03  0.46999998093E+01 0.  1.
       -5    1    3    3    0  502  0.38128001401E+03  0.55210371391E+03  0.58259499456E+03  0.88861238888E+03  0.46999998093E+01 0. -1.
</event>
<event>
 5   0  0.1777590E-04  0.1396644E+04  0.7818609E-02  0.8956251E-01
       -2   -1    0    0    0  501  0.00000000000E+00  0.00000000000E+00  0.73709061602E+03  0.73709061602E+03  0.25500000920E-02 0.  1.
        2   -1    0    0  501    0  0.00000000000E+00  0.00000000000E+00 -0.66159252025E+03  0.66159252026E+03  0.25500000920E-02 0. -1.
    10030    2    1    2    0    0  0.00000000000E+00  0.00000000000E+00  0.75498095766E+02  0.13986831363E+04  0.13966440324E+04 0.  0.
        4    1    3    3  502    0  0.51462976855E+03 -0.48917057939E+02 -0.43242053001E+03  0.67396276225E+03  0.12699999809E+01 0. -1.
       -4    1    3    3    0  502 -0.51462976855E+03  0.48917057939E+02  0.50791862577E+03  0.72472037403E+03  0.12699999809E+01 0.  1.
</event>
<event>
 5   0  0.1886323E-04  0.2073802E+04  0.7818609E-02  0.8572872E-01
        2   -1    0    0  501    0  0.00000000000E+00  0.00000000000E+00  0.23911941281E+04  0.23911941281E+04  0.25500000920E-02 0. -1.
       -2   -1    0    0    0  501  0.00000000000E+00  0.00000000000E+00 -0.44963475658E+03  0.44963475658E+03  0.25500000920E-02 0.  1.
    10030    2    1    2    0    0  0.00000000000E+00  0.00000000000E+00  0.19415593716E+04  0.28408288847E+04  0.20738022951E+04 0.  0.
        2    1    3    3  502    0 -0.31552450215E+03  0.85425439206E+01 -0.38222474739E+03  0.49570600564E+03  0.25500000920E-02 0.  1.
       -2    1    3    3    0  502  0.31552450215E+03 -0.85425439206E+01  0.23237841189E+04  0.23451228791E+04  0.25500000920E-02 0. -1.
</event>
<event>
 5   0  0.8486612E-05  0.2116595E+04  0.7818609E-02  0.8553968E-01
        1   -1    0    0  501    0  0.00000000000E+00  0.00000000000E+00  0.20365617726E+04  0.20365617727E+04  0.50400001928E-02 0. -1.
       -1   -1    0    0    0  501  0.00000000000E+00  0.00000000000E+00 -0.54994352896E+03  0.54994352899E+03  0.50400001928E-02 0.  1.
    10030    2    1    2    0    0  0.00000000000E+00  0.00000000000E+00  0.14866182437E+04  0.25865053016E+04  0.21165953494E+04 0.  0.
        5    1    3    3  502    0  0.31152451778E+03  0.68500500409E+03  0.16526146990E+04  0.18158845817E+04  0.46999998093E+01 0. -1.
       -5    1    3    3    0  502 -0.31152451778E+03 -0.68500500409E+03 -0.16599645531E+03  0.77062071992E+03  0.46999998093E+01 0.  1.
</event>
<event>
 5   0  0.8237966E-05  0.2077515E+04  0.7818609E-02  0.8571214E-01
       -1   -1    0    0    0  501  0.00000000000E+00  0.00000000000E+00  0.10809981916E+04  0.10809981916E+04  0.50400001928E-02 0.  1.
        1   -1    0    0  501    0  0.00000000000E+00  0.00000000000E+00 -0.99816699361E+03  0.99816699362E+03  0.50400001928E-02 0. -1.
    10030    2    1    2    0    0  0.00000000000E+00  0.00000000000E+00  0.82831197966E+02  0.20791651852E+04  0.20775145872E+04 0.  0.
        1    1    3    3  502    0  0.39530934814E+03 -0.38728453684E+03 -0.83834933061E+03  0.10045339185E+04  0.50400001928E-02 0. -1.
       -1    1    3    3    0  502 -0.39530934814E+03  0.38728453684E+03  0.92118052857E+03  0.10746312667E+04  0.50400001928E-02 0.  1.
</event>
<event>
 5   0  0.1815400E-04  0.1341495E+04  0.7818609E-02  0.8997291E-01
        2   -1    0    0  501    0  0.00000000000E+00  0.00000000000E+00  0.13608639191E+04  0.13608639191E+04  0.25500000920E-02 0. -1.
       -2   -1    0    0    0  501  0.00000000000E+00  0.00000000000E+00 -0.33060046388E+03  0.33060046389E+03  0.25500000920E-02 0.  1.
    10030    2    1    2    0    0  0.00000000000E+00  0.00000000000E+00  0.10302634553E+04  0.16914643830E+04  0.13414950510E+04 0.  0.
        3    1    3    3  502    0  0.36597126318E+03  0.18274586389E+03 -0.15511969302E+03  0.43748502329E+03  0.10100000352E+00 0.  1.
       -3    1    3    3    0  502 -0.36597126318E+03 -0.18274586389E+03  0.11853831483E+04  0.12539793597E+04  0.10100000352E+00 0. -1.
</event>
<event>
 5   0  0.1777590E-04  0.2118612E+04  0.7818609E-02  0.8553089E-01
        2   -1    0    0  501    0  0.00000000000E+00  0.00000000000E+00  0.16076414039E+04  0.16076414039E+04  0.25500000920E-02 0.  1.
       -2   -1    0    0    0  501  0.00000000000E+00  0.00000000000E+00 -0.69799723482E+03  0.69799723483E+03  0.25500000920E-02 0. -1.
    10030    2    1    2    0    0  0.00000000000E+00  0.00000000000E+00  0.90964416908E+03  0.23056386387E+04  0.21186120499E+04 0.  0.
        4    1    3    3  502    0 -0.60874932443E+03  0.12216506555E+03  0.13888584743E+04  0.15213249218E+04  0.12699999809E+01 0.  1.
       -4    1    3    3    0  502  0.60874932443E+03 -0.12216506555E+03 -0.47921430525E+03  0.78431371688E+03  0.12699999809E+01 0. -1.
</event>
<event>
 5   0  0.1777590E-04  0.2139205E+04  0.7818609E-02  0.8544167E-01
       -2   -1    0    0    0  501  0.00000000000E+00  0.00000000000E+00  0.84335430378E+03  0.84335430378E+03  0.25500000920E-02 0.  1.
        2   -1    0    0  501    0  0.00000000000E+00  0.00000000000E+00 -0.13565470752E+04  0.13565470752E+04  0.25500000920E-02 0. -1.
    10030    2    1    2    0    0  0.00000000000E+00  0.00000000000E+00 -0.51319277145E+03  0.21999013790E+04  0.21392052862E+04 0.  0.
        4    1    3    3  502    0  0.36617553872E+03  0.85694323932E+03  0.28328677176E+03  0.97400680107E+03  0.12699999809E+01 0.  1.
       -4    1    3    3    0  502 -0.36617553872E+03 -0.85694323932E+03 -0.79647954321E+03  0.12258945779E+04  0.12699999809E+01 0. -1.
</event>
<event>
 5   0  0.8755004E-05  0.2059749E+04  0.7818609E-02  0.8579184E-01
        1   -1    0    0  501    0  0.00000000000E+00  0.00000000000E+00  0.12234571173E+04  0.12234571173E+04  0.50400001928E-02 0.  1.
       -1   -1    0    0    0  501  0.00000000000E+00  0.00000000000E+00 -0.86692187699E+03  0.86692187701E+03  0.50400001928E-02 0. -1.
    10030    2    1    2    0    0  0.00000000000E+00  0.00000000000E+00  0.35653524034E+03  0.20903789943E+04  0.20597492475E+04 0.  0.
        3    1    3    3  502    0  0.66571087346E+02 -0.92839032570E+03 -0.26908364649E+03  0.96888922253E+03  0.10100000352E+00 0.  1.
       -3    1    3    3    0  502 -0.66571087346E+02  0.92839032570E+03  0.62561888683E+03  0.11214897718E+04  0.10100000352E+00 0. -1.
</event>
<event>
 5   0  0.8755004E-05  0.2269913E+04  0.7818609E-02  0.8489879E-01
       -1   -1    0    0    0  501  0.00000000000E+00  0.00000000000E+00  0.12377077422E+04  0.12377077422E+04  0.50400001928E-02 0.  1.
        1   -1    0    0  501    0  0.00000000000E+00  0.00000000000E+00 -0.10407357269E+04  0.10407357269E+04  0.50400001928E-02 0. -1.
    10030    2    1    2    0    0  0.00000000000E+00  0.00000000000E+00  0.19697201529E+03  0.22784434691E+04  0.22699133611E+04 0.  0.
        3    1    3    3  502    0 -0.91234911263E+02  0.49882807237E+03 -0.92069825013E+03  0.10511129972E+04  0.10100000352E+00 0. -1.
       -3    1    3    3    0  502  0.91234911263E+02 -0.49882807237E+03  0.11176702654E+04  0.12273304719E+04  0.10100000352E+00 0.  1.
</event>
<event>
 5   0  0.8237966E-05  0.2063488E+04  0.7818609E-02  0.8577500E-01
        1   -1    0    0  501    0  0.00000000000E+00  0.00000000000E+00  0.10500057327E+04  0.10500057327E+04  0.50400001928E-02 0. -1.
       -1   -1    0    0    0  501  0.00000000000E+00  0.00000000000E+00 -0.10138001135E+04  0.10138001135E+04  0.50400001928E-02 0.  1.
    10030    2    1    2    0    0  0.00000000000E+00  0.00000000000E+00  0.36205619121E+02  0.20638058462E+04  0.20634882418E+04 0.  0.
        1    1    3    3  502    0  0.84344684391E+03  0.58984523700E+03 -0.53852331319E+02  0.10306406045E+04  0.50400001928E-02 0.  1.
       -1    1    3    3    0  502 -0.84344684391E+03 -0.58984523700E+03  0.90057950440E+02  0.10331652417E+04  0.50400001928E-02 0. -1.
</event>
<event>
 5   0  0.8271069E-05  0.1940530E+04  0.7818609E-02  0.8634941E-01
       -1   -1    0    0    0  501  0.00000000000E+00  0.00000000000E+00  0.44230037816E+03  0.44230037819E+03  0.50400001928E-02 0. -1.
        1   -1    0    0  501    0  0.00000000000E+00  0.00000000000E+00 -0.21284505182E+04  0.21284505183E+04  0.50400001928E-02 0.  1.
    10030    2    1    2    0    0  0.00000000000E+00  0.00000000000E+00 -0.16861501401E+04  0.25707508964E+04  0.19405303081E+04 0.  0.
        2    1    3    3  502    0  0.12969284049E+03  0.76069853360E+03 -0.63900230249E+02  0.77431629928E+03  0.25500000920E-02 0. -1.
       -2    1    3    3    0  502 -0.12969284049E+03 -0.76069853360E+03 -0.16222499098E+04  0.17964345972E+04  0.25500000920E-02 0.  1.
</event>
<event>
 5   0  0.1815400E-04  0.2094476E+04  0.7818609E-02  0.8563681E-01
        2   -1    0    0  501    0  0.00000000000E+00  0.00000000000E+00  0.80267664875E+03  0.80267664875E+03  0.25500000920E-02 0.  1.
       -2   -1    0    0    0  501  0.00000000000E+00  0.00000000000E+00 -0.13663122787E+04  0.13663122787E+04  0.25500000920E-02 0. -1.
    10030    2    1    2    0    0  0.00000000000E+00  0.00000000000E+00 -0.56363562998E+03  0.21689889275E+04  0.20944755535E+04 0.  0.
        3    1    3    3  502    0  0.76246766864E+03  0.68920035057E+03 -0.48984462882E+03  0.11385525194E+04  0.10100000352E+00 0.  1.
       -3    1    3    3    0  502 -0.76246766864E+03 -0.68920035057E+03 -0.73791001153E+02  0.10304364080E+04  0.10100000352E+00 0. -1.
</event>
<event>
 5   0  0.1815400E-04  0.1759994E+04  0.7818609E-02  0.8727868E-01
        2   -1    0    0  501    0  0.00000000000E+00  0.00000000000E+00  0.14700819525E+04  0.14700819525E+04  0.25500000920E-02 0.  1.
       -2   -1    0    0    0  501  0.00000000000E+00  0.00000000000E+00 -0.52676997417E+03  0.52676997418E+03  0.25500000920E-02 0. -1.
    10030    2    1    2    0    0  0.00000000000E+00  0.00000000000E+00  0.94331197833E+03  0.19968519267E+04  0.17599943547E+04 0.  0.
        3    1    3    3  502    0  0.59711525740E+03  0.60514419996E+03  0.21380721142E+03  0.87661831331E+03  0.10100000352E+00 0. -1.
       -3    1    3    3    0  502 -0.59711525740E+03 -0.60514419996E+03  0.72950476691E+03  0.11202336134E+04  0.10100000352E+00 0.  1.
</event>
<event>
 5   0  0.8755004E-05  0.2108670E+04  0.7818609E-02  0.8557434E-01
       -1   -1    0    0    0  501  0.00000000000E+00  0.00000000000E+00  0.12027750720E+04  0.12027750720E+04  0.50400001928E-02 0. -1.
        1   -1    0    0  501    0  0.00000000000E+00  0.00000000000E+00 -0.92421419986E+03  0.92421419988E+03  0.50400001928E-02 0.  1.
    10030    2    1    2    0    0  0.00000000000E+00  0.00000000000E+00  0.27856087210E+03  0.21269892719E+04  0.21086695339E+04 0.  0.
        3    1    3    3  502    0 -0.45724372067E+03 -0.30365790885E+03  0.10472910162E+04  0.11824121229E+04  0.10100000352E+00 0. -1.
       -3    1    3    3    0  502  0.45724372067E+03  0.30365790885E+03 -0.76873014406E+03  0.94457714893E+03  0.10100000352E+00 0.  1.
</event>
<event>
 5   0  0.1886323E-04  0.2124143E+04  0.7818609E-02  0.8550682E-01
        2   -1    0    0  501    0  0.00000000000E+00  0.00000000000E+00  0.11371048918E+04  0.11371048918E+04  0.25500000920E-02 0.  1.
       -2   -1    0    0    0  501  0.00000000000E+00  0.00000000000E+00 -0.99198963226E+03  0.99198963227E+03  0.25500000920E-02 0. -1.
    10030    2    1    2    0    0  0.00000000000E+00  0.00000000000E+00  0.14511525956E+03  0.21290945241E+04  0.21241433694E+04 0.  0.
        2    1    3    3  502    0  0.90126021242E+03 -0.55466296731E+03 -0.17514423881E+02  0.10584081126E+04  0.25500000920E-02 0.  1.
       -2    1    3    3    0  502 -0.90126021242E+03  0.55466296731E+03  0.16262968344E+03  0.10706864115E+04  0.25500000920E-02 0. -1.
</event>
<event>
 5   0  0.1810875E-04  0.2076810E+04  0.7818609E-02  0.8571528E-01
        2   -1    0    0  501    0  0.00000000000E+00  0.00000000000E+00  0.16103124821E+04  0.16103124821E+04  0.25500000920E-02 0. -1.
       -2   -1    0    0    0  501  0.00000000000E+00  0.00000000000E+00 -0.66961195105E+03  0.66961195106E+03  0.25500000920E-02 0.  1.
    10030    2    1    2    0    0  0.00000000000E+00  0.00000000000E+00  0.94070053104E+03  0.22799244332E+04  0.20768095560E+04 0.  0.
        1    1    3    3  502    0 -0.83436915079E+03 -0.61315945413E+02 -0.20491178960E+03  0.86134799384E+03  0.50400001928E-02 0.  1.
       -1    1    3    3    0  502  0.83436915079E+03  0.61315945413E+02  0.11456123206E+04  0.14185764393E+04  0.50400001928E-02 0. -1.
</event>
<event>
 5   0  0.1777590E-04  0.2163097E+04  0.7818609E-02  0.8533947E-01
       -2   -1    0    0    0  501  0.00000000000E+00  0.00000000000E+00  0.86328652130E+03  0.86328652130E+03  0.25500000920E-02 0.  1.
        2   -1    0    0  501    0  0.00000000000E+00  0.00000000000E+00 -0.13549927980E+04  0.13549927980E+04  0.25500000920E-02 0. -1.
    10030    2    1    2    0    0  0.00000000000E+00  0.00000000000E+00 -0.49170627672E+03  0.22182793193E+04  0.21630968716E+04 0.  0.
        4    1    3    3  502    0 -0.29647806540E+03 -0.62860747166E+02 -0.13105560145E+04  0.13451428909E+04  0.12699999809E+01 0. -1.
       -4    1    3    3    0  502  0.29647806540E+03  0.62860747166E+02  0.81884973777E+03  0.87313642848E+03  0.12699999809E+01 0.  1.
</event>
<event>
 5   0  0.8486612E-05  0.1529987E+04  0.7818609E-02  0.8864753E-01
       -1   -1    0    0    0  501  0.00000000000E+00  0.00000000000E+00  0.77953405788E+03  0.77953405790E+03  0.50400001928E-02 0. -1.
        1   -1    0    0  501    0  0.00000000000E+00  0.00000000000E+00 -0.75072426558E+03  0.75072426560E+03  0.50400001928E-02 0.  1.
    10030    2    1    2    0    0  0.00000000000E+00  0.00000000000E+00  0.28809792296E+02  0.15302583235E+04  0.15299871021E+04 0.  0.
        5    1    3    3  502    0  0.51653082098E+03  0.16814782003E+03 -0.52431407655E+03  0.75498683383E+03  0.46999998093E+01 0.  1.
       -5    1    3    3    0  502 -0.51653082098E+03 -0.16814782003E+03  0.55312386884E+03  0.77527148966E+03  0.46999998093E+01 0. -1.
</event>
<event>
 5   0  0.1810875E-04  0.2097134E+04  0.7818609E-02  0.8562507E-01
       -2   -1    0    0    0  501  0.00000000000E+00  0.00000000000E+00  0.93167864590E+03  0.93167864591E+03  0.25500000920E-02 0. -1.
        2   -1    0    0  501    0  0.00000000000E+00  0.00000000000E+00 -0.11801205633E+04  0.11801205633E+04  0.25500000920E-02 0.  1.
    10030    2    1    2    0    0  0.00000000000E+00  0.00000000000E+00 -0.24844191743E+03  0.21117992092E+04  0.20971343576E+04 0.  0.
        1    1    3    3  502    0 -0.47104334308E+03 -0.56397396535E+03 -0.87747894811E+03  0.11445163909E+04  0.50400001928E-02 0.  1.
       -1    1    3    3    0  502  0.47104334308E+03  0.56397396535E+03  0.62903703068E+03  0.96728281833E+03  0.50400001928E-02 0. -1.
</event>
<event>
 5   0  0.1815400E-04  0.2161403E+04  0.7818609E-02  0.8534667E-01
       -2   -1    0    0    0  501  0.00000000000E+00  0.00000000000E+00  0.69614589715E+03  0.69614589715E+03  0.25500000920E-02 0.  1.
        2   -1    0    0  501    0  0.00000000000E+00  0.00000000000E+00 -0.16776883536E+04  0.16776883536E+04  0.25500000920E-02 0. -1.
    10030    2    1    2    0    0  0.00000000000E+00  0.00000000000E+00 -0.98154245642E+03  0.23738342507E+04  0.21614031221E+04 0.  0.
        3    1    3    3  502    0 -0.33958159083E+03  0.24100877879E+03  0.60449646775E+03  0.73404146886E+03  0.10100000352E+00 0.  1.
       -3    1    3    3    0  502  0.33958159083E+03 -0.24100877879E+03 -0.15860389242E+04  0.16397927819E+04  0.10100000352E+00 0. -1.
</event>
<event>
 5   0  0.8525278E-05  0.1942560E+04  0.7818609E-02  0.8633957E-01
       -1   -1    0    0    0  501  0.00000000000E+00  0.00000000000E+00  0.56974512719E+03  0.56974512722E+03  0.50400001928E-02 0.  1.
        1   -1    0    0  501    0  0.00000000000E+00  0.00000000000E+00 -0.16558020896E+04  0.16558020896E+04  0.50400001928E-02 0. -1.
    10030    2    1    2    0    0  0.00000000000E+00  0.00000000000E+00 -0.10860569624E+04  0.22255472168E+04  0.19425603437E+04 0.  0.
        4    1    3    3  502    0  0.50562937020E+03  0.81938321406E+03 -0.39660730631E+03  0.10413207382E+04  0.12699999809E+01 0. -1.
       -4    1    3    3    0  502 -0.50562937020E+03 -0.81938321406E+03 -0.68944965610E+03  0.11842264786E+04  0.12699999809E+01 0.  1.
</event>
<event>
 5   0  0.1921687E-04  0.1375782E+04  0.7818609E-02  0.8971538E-01
        2   -1    0    0  501    0  0.00000000000E+00  0.00000000000E+00  0.17192315174E+04  0.17192315174E+04  0.25500000920E-02 0.  1.
       -2   -1    0    0    0  501  0.00000000000E+00  0.00000000000E+00 -0.27523575257E+03  0.27523575258E+03  0.25500000920E-02 0. -1.
    10030    2    1    2    0    0  0.00000000000E+00  0.00000000000E+00  0.14439957648E+04  0.19944672700E+04  0.13757819312E+04 0.  0.
        5    1    3    3  502    0  0.42530472662E+03 -0.35070995085E+03  0.13184744169E+04  0.14290830830E+04  0.46999998093E+01 0.  1.
       -5    1    3    3    0  502 -0.42530472662E+03  0.35070995085E+03  0.12552134794E+03  0.56538418699E+03  0.46999998093E+01 0. -1.
</event>
<event>
 5   0  0.1886323E-04  0.2062460E+04  0.7818609E-02  0.8577963E-01
       -2   -1    0    0    0  501  0.00000000000E+00  0.00000000000E+00  0.11364752958E+04  0.11364752958E+04  0.25500000920E-02 0.  1.
        2   -1    0    0  501    0  0.00000000000E+00  0.00000000000E+00 -0.93573150417E+03  0.93573150417E+03  0.25500000920E-02 0. -1.
    10030    2    1    2    0    0  0.00000000000E+00  0.00000000000E+00  0.20074379168E+03  0.20722068000E+04  0.20624604123E+04 0.  0.
        2    1    3    3  502    0 -0.86387853750E+03  0.19906868900E+03  0.62966423535E+03  0.10873782781E+04  0.25500000920E-02 0.  1.
       -2    1    3    3    0  502  0.86387853750E+03 -0.19906868900E+03 -0.42892044367E+03  0.98482852188E+03  0.25500000920E-02 0. -1.
</event>
<event>
 5   0  0.1886323E-04  0.2079458E+04  0.7818609E-02  0.8570347E-01
       -2   -1    0    0    0  501  0.00000000000E+00  0.00000000000E+00  0.90211538750E+03  0.90211538750E+03  0.25500000920E-02 0. -1.
        2   -1    0    0  501    0  0.00000000000E+00  0.00000000000E+00 -0.11983346520E+04  0.11983346520E+04  0.25500000920E-02 0.  1.
    10030    2    1    2    0    0  0.00000000000E+00  0.00000000000E+00 -0.29621926452E+03  0.21004500395E+04  0.20794577456E+04 0.  0.
        2    1    3    3  502    0  0.55548281994E+03 -0.43641722733E+02  0.73857342004E+03  0.92517915023E+03  0.25500000920E-02 0. -1.
       -2    1    3    3    0  502 -0.55548281994E+03  0.43641722733E+02 -0.10347926846E+04  0.11752708893E+04  0.25500000920E-02 0.  1.
</event>
<event>
 5   0  0.8755004E-05  0.2087098E+04  0.7818609E-02  0.8566948E-01
       -1   -1    0    0    0  501  0.00000000000E+00  0.00000000000E+00  0.10315540170E+04  0.10315540171E+04  0.50400001928E-02 0. -1.
        1   -1    0    0  501    0  0.00000000000E+00  0.00000000000E+00 -0.10556830092E+04  0.10556830092E+04  0.50400001928E-02 0.  1.
    10030    2    1    2    0    0  0.00000000000E+00  0.00000000000E+00 -0.24128992146E+02  0.20872370263E+04  0.20870975529E+04 0.  0.
        3    1    3    3  502    0  0.79661593968E+03  0.31433255900E+03  0.58429081176E+03  0.10367244937E+04  0.10100000352E+00 0. -1.
       -3    1    3    3    0  502 -0.79661593968E+03 -0.31433255900E+03 -0.60841980391E+03  0.10505125325E+04  0.10100000352E+00 0.  1.
</event>
<event>
 5   0  0.8271069E-05  0.2196124E+04  0.7818609E-02  0.8520043E-01
       -1   -1    0    0    0  501  0.00000000000E+00  0.00000000000E+00  0.18256503951E+04  0.18256503951E+04  0.50400001928E-02 0.  1.
        1   -1    0    0  501    0  0.00000000000E+00  0.00000000000E+00 -0.66044444461E+03  0.66044444463E+03  0.50400001928E-02 0. -1.
    10030    2    1    2    0    0  0.00000000000E+00  0.00000000000E+00  0.11652059505E+04  0.24860948397E+04  0.21961244603E+04 0.  0.
        2    1    3    3  502    0 -0.22891754169E+03 -0.93402610014E+03 -0.17411685754E+02  0.96182699247E+03  0.25500000920E-02 0. -1.
       -2    1    3    3    0  502  0.22891754169E+03  0.93402610014E+03  0.11826176362E+04  0.15242678472E+04  0.25500000920E-02 0.  1.
</event>
<event>
 5   0  0.1810875E-04  0.2113866E+04  0.7818609E-02  0.8555160E-01
       -2   -1    0    0    0  501  0.00000000000E+00  0.00000000000E+00  0.11389906731E+04  0.11389906731E+04  0.25500000920E-02 0. -1.
        2   -1    0    0  501    0  0.00000000000E+00  0.00000000000E+00 -0.98078700908E+03  0.98078700908E+03  0.25500000920E-02 0.  1.
    10030    2    1    2    0    0  0.00000000000E+00  0.00000000000E+00  0.15820366398E+03  0.21197776821E+04  0.21138658951E+04 0.  0.
        1    1    3    3  502    0 -0.58805578948E+01  0.31680561889E+03 -0.93203693959E+03  0.98442533384E+03  0.50400001928E-02 0.  1.
       -1    1    3    3    0  502  0.58805578948E+01 -0.31680561889E+03  0.10902406036E+04  0.11353523483E+04  0.50400001928E-02 0. -1.
</event>
<event>
 5   0  0.8271069E-05  0.2109453E+04  0.7818609E-02  0.8557091E-01
        1   -1    0    0  501    0  0.00000000000E+00  0.00000000000E+00  0.15483839465E+04  0.15483839465E+04  0.50400001928E-02 0. -1.
       -1   -1    0    0    0  501  0.00000000000E+00  0.00000000000E+00 -0.71845753147E+03  0.71845753149E+03  0.50400001928E-02 0.  1.
    10030    2    1    2    0    0  0.00000000000E+00  0.00000000000E+00  0.82992641503E+03  0.22668414780E+04  0.21094531121E+04 0.  0.
        2    1    3    3  502    0 -0.43572922450E+03  0.80338075148E+03  0.98071044415E+03  0.13405497246E+04  0.25500000920E-02 0. -1.
       -2    1    3    3    0  502  0.43572922450E+03 -0.80338075148E+03 -0.15078402912E+03  0.92629175337E+03  0.25500000920E-02 0.  1.
</event>
<event>
 5   0  0.8486612E-05  0.2212052E+04  0.7818609E-02  0.8513429E-01
       -1   -1    0    0    0  501  0.00000000000E+00  0.00000000000E+00  0.88178998696E+03  0.88178998697E+03  0.50400001928E-02 0.  1.
        1   -1    0    0  501    0  0.00000000000E+00  0.00000000000E+00 -0.13872844155E+04  0.13872844155E+04  0.50400001928E-02 0. -1.
    10030    2    1    2    0    0  0.00000000000E+00  0.00000000000E+00 -0.50549442853E+03  0.22690744025E+04  0.22120519946E+04 0.  0.
        5    1    3    3  502    0 -0.26139768208E+02  0.51450701425E+03  0.75119066644E+03  0.91088432994E+03  0.46999998093E+01 0.  1.
       -5    1    3    3    0  502  0.26139768208E+02 -0.51450701425E+03 -0.12566850950E+04  0.13581900725E+04  0.46999998093E+01 0. -1.
</event>
<event>
 5   0  0.1921687E-04  0.2102141E+04  0.7818609E-02  0.8560301E-01
        2   -1    0    0  501    0  0.00000000000E+00  0.00000000000E+00  0.25022497968E+04  0.25022497968E+04  0.25500000920E-02 0.  1.
       -2   -1    0    0    0  501  0.00000000000E+00  0.00000000000E+00 -0.44150226408E+03  0.44150226409E+03  0.25500000920E-02 0. -1.
    10030    2    1    2    0    0  0.00000000000E+00  0.00000000000E+00  0.20607475327E+04  0.29437520609E+04  0.21021407666E+04 0.  0.
        5    1    3    3  502    0 -0.71666061867E+03 -0.75290837297E+03  0.12484587436E+04  0.16245444853E+04  0.46999998093E+01 0.  1.
       -5    1    3    3    0  502  0.71666061867E+03  0.75290837297E+03  0.81228878915E+03  0.13192075756E+04  0.46999998093E+01 0. -1.
</event>
<event>
 5   0  0.8271069E-05  0.2053976E+04  0.7818609E-02  0.8581793E-01
        1   -1    0    0  501    0  0.00000000000E+00  0.00000000000E+00  0.13339731123E+04  0.13339731123E+04  0.50400001928E-02 0.  1.
       -1   -1    0    0    0  501  0.00000000000E+00  0.00000000000E+00 -0.79064878727E+03  0.79064878728E+03  0.50400001928E-02 0. -1.
    10030    2    1    2    0    0  0.00000000000E+00  0.00000000000E+00  0.54332432504E+03  0.21246218996E+04  0.20539758748E+04 0.  0.
        2    1    3    3  502    0  0.34062004206E+03 -0.93374603942E+03  0.43145462880E+01  0.99394280243E+03  0.25500000920E-02 0.  1.
       -2    1    3    3    0  502 -0.34062004206E+03  0.93374603942E+03  0.53900977875E+03  0.11306790972E+04  0.25500000920E-02 0. -1.
</event>
<event>
 5   0  0.8755004E-05  0.2016695E+04  0.7818609E-02  0.8598855E-01
        1   -1    0    0  501    0  0.00000000000E+00  0.00000000000E+00  0.19164720050E+04  0.19164720050E+04  0.50400001928E-02 0. -1.
       -1   -1    0    0    0  501  0.00000000000E+00  0.00000000000E+00 -0.53053956390E+03  0.53053956392E+03  0.50400001928E-02 0.  1.
    10030    2    1    2    0    0  0.00000000000E+00  0.00000000000E+00  0.13859324411E+04  0.24470115690E+04  0.20166945449E+04 0.  0.
        3    1    3    3  502    0 -0.20562253697E+03 -0.95013198530E+03  0.10179448283E+04  0.14075663753E+04  0.10100000352E+00 0. -1.
       -3    1    3    3    0  502  0.20562253697E+03  0.95013198530E+03  0.36798761278E+03  0.10394451936E+04  0.10100000352E+00 0.  1.
</event>
<event>
 5   0  0.8486612E-05  0.2077716E+04  0.7818609E-02  0.8571124E-01
       -1   -1    0    0    0  501  0.00000000000E+00  0.00000000000E+00  0.70958724088E+03  0.70958724090E+03  0.50400001928E-02 0.  1.
        1   -1    0    0  501    0  0.00000000000E+00  0.00000000000E+00 -0.15209210260E+04  0.15209210260E+04  0.50400001928E-02 0. -1.
    10030    2    1    2    0    0  0.00000000000E+00  0.00000000000E+00 -0.81133378508E+03  0.22305082669E+04  0.20777162024E+04 0.  0.
        5    1    3    3  502    0  0.19790875109E+03 -0.10113053575E+04 -0.54685930113E+03  0.11666120114E+04  0.46999998093E+01 0. -1.
       -5    1    3    3    0  502 -0.19790875109E+03  0.10113053575E+04 -0.26447448395E+03  0.10638962555E+04  0.46999998093E+01 0.  1.
</event>
<event>
 5   0  0.1886323E-04  0.2096170E+04  0.7818609E-02  0.8562932E-01
       -2   -1    0    0    0  501  0.00000000000E+00  0.00000000000E+00  0.74891345040E+03  0.74891345040E+03  0.25500000920E-02 0.  1.
        2   -1    0    0  501    0  0.00000000000E+00  0.00000000000E+00 -0.14667676654E+04  0.14667676654E+04  0.25500000920E-02 0. -1.
    10030    2    1    2    0    0  0.00000000000E+00  0.00000000000E+00 -0.71785421501E+03  0.22156811158E+04  0.20961698722E+04 0.  0.
        2    1    3    3  502    0  0.10192014439E+04  0.98965465382E+01 -0.10085000178E+03  0.10242266584E+04  0.25500000920E-02 0.  1.
       -2    1    3    3    0  502 -0.10192014439E+04 -0.98965465382E+01 -0.61700421323E+03  0.11914544574E+04  0.25500000920E-02 0. -1.
</event>
<event>
 5   0  0.1810875E-04  0.2012337E+04  0.7818609E-02  0.8600874E-01
       -2   -1    0    0    0  501  0.00000000000E+00  0.00000000000E+00  0.46716015942E+03  0.46716015943E+03  0.25500000920E-02 0.  1.
        2   -1    0    0  501    0  0.00000000000E+00  0.00000000000E+00 -0.21670836355E+04  0.21670836355E+04  0.25500000920E-02 0. -1.
    10030    2    1    2    0    0  0.00000000000E+00  0.00000000000E+00 -0.16999234761E+04  0.26342437949E+04  0.20123370857E+04 0.  0.
        1    1    3    3  502    0 -0.31587893023E+03  0.36436069642E+03  0.30603639091E+03  0.57113613810E+03  0.50400001928E-02 0.  1.
       -1    1    3    3    0  502  0.31587893023E+03 -0.36436069642E+03 -0.20059598670E+04  0.20631076568E+04  0.50400001928E-02 0. -1.
</event>
<event>
 5   0  0.8755004E-05  0.1756665E+04  0.7818609E-02  0.8729690E-01
        1   -1    0    0  501    0  0.00000000000E+00  0.00000000000E+00  0.17160364887E+04  0.17160364887E+04  0.50400001928E-02 0. -1.
       -1   -1    0    0    0  501  0.00000000000E+00  0.00000000000E+00 -0.44956375721E+03  0.44956375724E+03  0.50400001928E-02 0.  1.
    10030    2    1    2    0    0  0.00000000000E+00  0.00000000000E+00  0.12664727315E+04  0.21656002459E+04  0.17566648074E+04 0.  0.
        3    1    3    3  502    0 -0.47564904705E+03 -0.68810413741E+03  0.96342755506E+03  0.12759004600E+04  0.10100000352E+00 0. -1.
       -3    1    3    3    0  502  0.47564904705E+03  0.68810413741E+03  0.30304517642E+03  0.88969978590E+03  0.10100000352E+00 0.  1.
</event>
<event>
 5   0  0.1810875E-04  0.1950201E+04  0.7818609E-02  0.8630264E-01
        2   -1    0    0  501    0  0.00000000000E+00  0.00000000000E+00  0.16188832453E+04  0.16188832453E+04  0.25500000920E-02 0.  1.
       -2   -1    0    0    0  501  0.00000000000E+00  0.00000000000E+00 -0.58733147451E+03  0.58733147451E+03  0.25500000920E-02 0. -1.
    10030    2    1    2    0    0  0.00000000000E+00  0.00000000000E+00  0.10315517708E+04  0.22062147198E+04  0.19502011009E+04 0.  0.
        1    1    3    3  502    0 -0.79418349770E+03  0.28109100198E+03  0.10712327351E+04  0.13628202934E+04  0.50400001928E-02 0.  1.
       -1    1    3    3    0  502  0.79418349770E+03 -0.28109100198E+03 -0.39680964359E+02  0.84339442633E+03  0.50400001928E-02 0. -1.
</event>
<event>
 5   0  0.1810875E-04  0.2001130E+04  0.7818609E-02  0.8606092E-01
       -2   -1    0    0    0  501  0.00000000000E+00  0.00000000000E+00  0.77579838728E+03  0.77579838729E+03  0.25500000920E-02 0.  1.
        2   -1    0    0  501    0  0.00000000000E+00  0.00000000000E+00 -0.12904521305E+04  0.12904521305E+04  0.25500000920E-02 0. -1.
    10030    2    1    2    0    0  0.00000000000E+00  0.00000000000E+00 -0.51465374318E+03  0.20662505178E+04  0.20011303623E+04 0.  0.
        1    1    3    3  502    0  0.84119363515E+03 -0.38679521622E+03  0.13437732709E+03  0.93556108147E+03  0.50400001928E-02 0.  1.
       -1    1    3    3    0  502 -0.84119363515E+03  0.38679521622E+03 -0.64903107027E+03  0.11306894363E+04  0.50400001928E-02 0. -1.
</event>
<event>
 5   0  0.1921687E-04  0.2073121E+04  0.7818609E-02  0.8573177E-01
       -2   -1    0    0    0  501  0.00000000000E+00  0.00000000000E+00  0.67232461399E+03  0.67232461399E+03  0.25500000920E-02 0.  1.
        2   -1    0    0  501    0  0.00000000000E+00  0.00000000000E+00 -0.15981239764E+04  0.15981239764E+04  0.25500000920E-02 0. -1.
    10030    2    1    2    0    0  0.00000000000E+00  0.00000000000E+00 -0.92579936237E+03  0.22704485904E+04  0.20731214007E+04 0.  0.
        5    1    3    3  502    0  0.73664846477E+03  0.21807568926E+03  0.29920021043E+03  0.82447002542E+03  0.46999998093E+01 0.  1.
       -5    1    3    3    0  502 -0.73664846477E+03 -0.21807568926E+03 -0.12249995728E+04  0.14459785649E+04  0.46999998093E+01 0. -1.
</event>
<event>
 5   0  0.1815400E-04  0.2133438E+04  0.7818609E-02  0.8546655E-01
        2   -1    0    0  501    0  0.00000000000E+00  0.00000000000E+00  0.11223209478E+04  0.11223209478E+04  0.25500000920E-02 0.  1.
       -2   -1    0    0    0  501  0.00000000000E+00  0.00000000000E+00 -0.10138719123E+04  0.10138719123E+04  0.25500000920E-02 0. -1.
    10030    2    1    2    0    0  0.00000000000E+00  0.00000000000E+00  0.10844903548E+03  0.21361928601E+04  0.21334382444E+04 0.  0.
        3    1    3    3  502    0  0.89048453868E+03 -0.50846051361E+01 -0.53381657813E+03  0.10382430911E+04  0.10100000352E+00 0. -1.
       -3    1    3    3    0  502 -0.89048453868E+03  0.50846051361E+01  0.64226561361E+03  0.10979497691E+04  0.10100000352E+00 0.  1.
</event>
<event>
 5   0  0.8237966E-05  0.2040058E+04  0.7818609E-02  0.8588118E-01
        1   -1    0    0  501    0  0.00000000000E+00  0.00000000000E+00  0.82661442661E+03  0.82661442663E+03  0.50400001928E-02 0. -1.
       -1   -1    0    0    0  501  0.00000000000E+00  0.00000000000E+00 -0.12586992283E+04  0.12586992283E+04  0.50400001928E-02 0.  1.
    10030    2    1    2    0    0  0.00000000000E+00  0.00000000000E+00 -0.43208480167E+03  0.20853136549E+04  0.20400577844E+04 0.  0.
        1    1    3    3  502    0 -0.19928386807E+02 -0.62382641959E+03  0.60864024205E+03  0.87177949428E+03  0.50400001928E-02 0. -1.
       -1    1    3    3    0  502  0.19928386807E+02  0.62382641959E+03 -0.10407250437E+04  0.12135341606E+04  0.50400001928E-02 0.  1.
</event>
<event>
 5   0  0.8237966E-05  0.2082000E+04  0.7818609E-02  0.8569214E-01
        1   -1    0    0  501    0  0.00000000000E+00  0.00000000000E+00  0.18314808818E+04  0.18314808819E+04  0.50400001928E-02 0.  1.
       -1   -1    0    0    0  501  0.00000000000E+00  0.00000000000E+00 -0.59169684822E+03  0.59169684824E+03  0.50400001928E-02 0. -1.
    10030    2    1    2    0    0  0.00000000000E+00  0.00000000000E+00  0.12397840336E+04  0.24231777301E+04  0.20820004471E+04 0.  0.
        1    1    3    3  502    0  0.27018555849E+02  0.73400569821E+03  0.14784676742E+04  0.16508667515E+04  0.50400001928E-02 0.  1.
       -1    1    3    3    0  502 -0.27018555849E+02 -0.73400569821E+03 -0.23868364061E+03  0.77231097861E+03  0.50400001928E-02 0. -1.
</event>
<event>
 5   0  0.8237966E-05  0.2085168E+04  0.7818609E-02  0.8567805E-01
       -1   -1    0    0    0  501  0.00000000000E+00  0.00000000000E+00  0.74763588216E+03  0.74763588218E+03  0.50400001928E-02 0. -1.
        1   -1    0    0  501    0  0.00000000000E+00  0.00000000000E+00 -0.14538914615E+04  0.14538914615E+04  0.50400001928E-02 0.  1.
    10030    2    1    2    0    0  0.00000000000E+00  0.00000000000E+00 -0.70625557938E+03  0.22015273437E+04  0.20851680272E+04 0.  0.
        1    1    3    3  502    0  0.97169984205E+03 -0.45835902161E+02  0.42875753291E+02  0.97372472662E+03  0.50400001928E-02 0. -1.
       -1    1    3    3    0  502 -0.97169984205E+03  0.45835902161E+02 -0.74913133267E+03  0.12278026171E+04  0.50400001928E-02 0.  1.
</event>
<event>
 5   0  0.1921687E-04  0.2046450E+04  0.7818609E-02  0.8585206E-01
       -2   -1    0    0    0  501  0.00000000000E+00  0.00000000000E+00  0.46551197857E+03  0.46551197857E+03  0.25500000920E-02 0. -1.
        2   -1    0    0  501    0  0.00000000000E+00  0.00000000000E+00 -0.22491140819E+04  0.22491140819E+04  0.25500000920E-02 0.  1.
    10030    2    1    2    0    0  0.00000000000E+00  0.00000000000E+00 -0.17836021034E+04  0.27146260605E+04  0.20464501424E+04 0.  0.
        5    1    3    3  502    0 -0.42618254621E+03  0.71547804941E+03 -0.10319747729E+03  0.83917352866E+03  0.46999998093E+01 0. -1.
       -5    1    3    3    0  502  0.42618254621E+03 -0.71547804941E+03 -0.16804046261E+04  0.18754525318E+04  0.46999998093E+01 0.  1.
</event>
<event>
 5   0  0.1810875E-04  0.2094051E+04  0.7818609E-02  0.8563869E-01
        2   -1    0    0  501    0  0.00000000000E+00  0.00000000000E+00  0.10955759760E+04  0.10955759760E+04  0.25500000920E-02 0.  1.
       -2   -1    0    0    0  501  0.00000000000E+00  0.00000000000E+00 -0.10006261267E+04  0.10006261267E+04  0.25500000920E-02 0. -1.
    10030    2    1    2    0    0  0.00000000000E+00  0.00000000000E+00  0.94949849374E+02  0.20962021027E+04  0.20940505680E+04 0.  0.
        1    1    3    3  502    0  0.31120557214E+03  0.80587107904E+03  0.63967792643E+03  0.10749255573E+04  0.50400001928E-02 0.  1.
       -1    1    3    3    0  502 -0.31120557214E+03 -0.80587107904E+03 -0.54472807706E+03  0.10212765454E+04  0.50400001928E-02 0. -1.
</event>
<event>
 5   0  0.8486612E-05  0.2098220E+04  0.7818609E-02  0.8562028E-01
        1   -1    0    0  501    0  0.00000000000E+00  0.00000000000E+00  0.33473753665E+03  0.33473753668E+03  0.50400001928E-02 0.  1.
       -1   -1    0    0    0  501  0.00000000000E+00  0.00000000000E+00 -0.32880436708E+04  0.32880436708E+04  0.50400001928E-02 0. -1.
    10030    2    1    2    0    0  0.00000000000E+00  0.00000000000E+00 -0.29533061342E+04  0.36227812075E+04  0.20982198539E+04 0.  0.
        5    1    3    3  502    0 -0.48907884461E+03  0.66767278543E+03 -0.36353386176E+03  0.90397125136E+03  0.46999998093E+01 0.  1.
       -5    1    3    3    0  502  0.48907884461E+03 -0.66767278543E+03 -0.25897722724E+04  0.27188099561E+04  0.46999998093E+01 0. -1.
</event>
<event>
 5   0  0.8486612E-05  0.2091566E+04  0.7818609E-02  0.8564968E-01
       -1   -1    0    0    0  501  0.00000000000E+00  0.00000000000E+00  0.95547887658E+03  0.95547887660E+03  0.50400001928E-02 0. -1.
        1   -1    0    0  501    0  0.00000000000E+00  0.00000000000E+00 -0.11446218245E+04  0.11446218246E+04  0.50400001928E-02 0.  1.
    10030    2    1    2    0    0  0.00000000000E+00  0.00000000000E+00 -0.18914294796E+03  0.21001007012E+04  0.20915658967E+04 0.  0.
        5    1    3    3  502    0  0.85369022981E+03 -0.19974326356E+02 -0.70073509787E+03  0.11046437206E+04  0.46999998093E+01 0.  1.
       -5    1    3    3    0  502 -0.85369022981E+03  0.19974326356E+02  0.51159214991E+03  0.99545698050E+03  0.46999998093E+01 0. -1.
</event>
<event>
 5   0  0.1810875E-04  0.2076914E+04  0.7818609E-02  0.8571482E-01
        2   -1    0    0  501    0  0.00000000000E+00  0.00000000000E+00  0.12502181932E+04  0.12502181932E+04  0.25500000920E-02 0. -1.
       -2   -1    0    0    0  501  0.00000000000E+00  0.00000000000E+00 -0.86256372650E+03  0.86256372651E+03  0.25500000920E-02 0.  1.
    10030    2    1    2    0    0  0.00000000000E+00  0.00000000000E+00  0.38765446666E+03  0.21127819197E+04  0.20769139257E+04 0.  0.
        1    1    3    3  502    0  0.11101472161E+03  0.70059473004E+03 -0.57771385374E+03  0.91482814834E+03  0.50400001928E-02 0.  1.
       -1    1    3    3    0  502 -0.11101472161E+03 -0.70059473004E+03  0.96536832040E+03  0.11979537713E+04  0.50400001928E-02 0. -1.
</event>
<event>
 5   0  0.8755004E-05  0.2129266E+04  0.7818609E-02  0.8548460E-01
        1   -1    0    0  501    0  0.00000000000E+00  0.00000000000E+00  0.75490292259E+03  0.75490292261E+03  0.50400001928E-02 0.  1.
       -1   -1    0    0    0  501  0.00000000000E+00  0.00000000000E+00 -0.15014427622E+04  0.15014427622E+04  0.50400001928E-02 0. -1.
    10030    2    1    2    0    0  0.00000000000E+00  0.00000000000E+00 -0.74653983963E+03  0.22563456848E+04  0.21292660983E+04 0.  0.
        3    1    3    3  502    0 -0.92292279382E+02  0.85337893149E+03 -0.10406763780E+04  0.13489925127E+04  0.10100000352E+00 0. -1.
       -3    1    3    3    0  502  0.92292279382E+02 -0.85337893149E+03  0.29413653833E+03  0.90735317211E+03  0.10100000352E+00 0.  1.
</event>
<event>
 5   0  0.8271069E-05  0.2094799E+04  0.7818609E-02  0.8563538E-01
       -1   -1    0    0    0  501  0.00000000000E+00  0.00000000000E+00  0.63663366222E+03  0.63663366224E+03  0.50400001928E-02 0.  1.
        1   -1    0    0  501    0  0.00000000000E+00  0.00000000000E+00 -0.17231983185E+04  0.17231983185E+04  0.50400001928E-02 0. -1.
    10030    2    1    2    0    0  0.00000000000E+00  0.00000000000E+00 -0.10865646563E+04  0.23598319807E+04  0.20947993281E+04 0.  0.
        2    1    3    3  502    0 -0.97504237415E+03  0.28933858989E+03 -0.82518601425E+03  0.13097161559E+04  0.25500000920E-02 0. -1.
       -2    1    3    3    0  502  0.97504237415E+03 -0.28933858989E+03 -0.26137864201E+03  0.10501158248E+04  0.25500000920E-02 0.  1.
</event>
<event>
 5   0  0.8525278E-05  0.1490928E+04  0.7818609E-02  0.8890508E-01
        1   -1    0    0  501    0  0.00000000000E+00  0.00000000000E+00  0.60632607195E+03  0.60632607197E+03  0.50400001928E-02 0.  1.
       -1   -1    0    0    0  501  0.00000000000E+00  0.00000000000E+00 -0.91653059318E+03  0.91653059319E+03  0.50400001928E-02 0. -1.
    10030    2    1    2    0    0  0.00000000000E+00  0.00000000000E+00 -0.31020452123E+03  0.15228566652E+04  0.14909277573E+04 0.  0.
        4    1    3    3  502    0  0.54508619986E+03 -0.45866442887E+03 -0.37940183551E+03  0.80711795251E+03  0.12699999809E+01 0. -1.
       -4    1    3    3    0  502 -0.54508619986E+03  0.45866442887E+03  0.69197314274E+02  0.71573871265E+03  0.12699999809E+01 0.  1.
</event>
<event>
 5   0  0.8525278E-05  0.2117500E+04  0.7818609E-02  0.8553574E-01
        1   -1    0    0  501    0  0.00000000000E+00  0.00000000000E+00  0.17268537548E+04  0.17268537548E+04  0.50400001928E-02 0.  1.
       -1   -1    0    0    0  501  0.00000000000E+00  0.00000000000E+00 -0.64912918096E+03  0.64912918098E+03  0.50400001928E-02 0. -1.
    10030    2    1    2    0    0  0.00000000000E+00  0.00000000000E+00  0.10777245739E+04  0.23759829358E+04  0.21174996232E+04 0.  0.
        4    1    3    3  502    0  0.65713536752E+03 -0.15548646855E+03  0.14538460053E+04  0.16030198854E+04  0.12699999809E+01 0.  1.
       -4    1    3    3    0  502 -0.65713536752E+03  0.15548646855E+03 -0.37612143142E+03  0.77296305036E+03  0.12699999809E+01 0. -1.
</event>
<event>
 5   0  0.8237966E-05  0.2095914E+04  0.7818609E-02  0.8563046E-01
       -1   -1    0    0    0  501  0.00000000000E+00  0.00000000000E+00  0.11019011519E+04  0.11019011519E+04  0.50400001928E-02 0. -1.
        1   -1    0    0  501    0  0.00000000000E+00  0.00000000000E+00 -0.99665350084E+03  0.99665350085E+03  0.50400001928E-02 0.  1.
    10030    2    1    2    0    0  0.00000000000E+00  0.00000000000E+00  0.10524765103E+03  0.20985546527E+04  0.20959137774E+04 0.  0.
        1    1    3    3  502    0  0.58255565320E+03 -0.52426289959E+02 -0.81800847935E+03  0.10056129858E+04  0.50400001928E-02 0.  1.
       -1    1    3    3    0  502 -0.58255565320E+03  0.52426289959E+02  0.92325613037E+03  0.10929416669E+04  0.50400001928E-02 0. -1.
</event>
<event>
 5   0  0.8755004E-05  0.2240161E+04  0.7818609E-02  0.8501896E-01
       -1   -1    0    0    0  501  0.00000000000E+00  0.00000000000E+00  0.30953744976E+04  0.30953744976E+04  0.50400001928E-02 0. -1.
        1   -1    0    0  501    0  0.00000000000E+00  0.00000000000E+00 -0.40530809446E+03  0.40530809450E+03  0.50400001928E-02 0.  1.
    10030    2    1    2    0    0  0.00000000000E+00  0.00000000000E+00  0.26900664031E+04  0.35006825921E+04  0.22401610115E+04 0.  0.
        3    1    3    3  502    0 -0.76814802905E+02 -0.23987159877E+03 -0.36048031660E+03  0.43975557609E+03  0.10100000352E+00 0.  1.
       -3    1    3    3    0  502  0.76814802905E+02  0.23987159877E+03  0.30505467197E+04  0.30609270160E+04  0.10100000352E+00 0. -1.
</event>
<event>
 5   0  0.8525278E-05  0.2118004E+04  0.7818609E-02  0.8553354E-01
       -1   -1    0    0    0  501  0.00000000000E+00  0.00000000000E+00  0.80546755185E+03  0.80546755187E+03  0.50400001928E-02 0.  1.
        1   -1    0    0  501    0  0.00000000000E+00  0.00000000000E+00 -0.13923406591E+04  0.13923406591E+04  0.50400001928E-02 0. -1.
    10030    2    1    2    0    0  0.00000000000E+00  0.00000000000E+00 -0.58687310723E+03  0.21978082110E+04  0.21180039868E+04 0.  0.
        4    1    3    3  502    0  0.23291844352E+03 -0.92570637302E+03 -0.76930069926E+03  0.12259724586E+04  0.12699999809E+01 0. -1.
       -4    1    3    3    0  502 -0.23291844352E+03  0.92570637302E+03  0.18242759203E+03  0.97183575239E+03  0.12699999809E+01 0.  1.
</event>
<event>
 5   0  0.1921687E-04  0.1478029E+04  0.7818609E-02  0.8899197E-01
        2   -1    0    0  501    0  0.00000000000E+00  0.00000000000E+00  0.12946547848E+04  0.12946547848E+04  0.25500000920E-02 0. -1.
       -2   -1    0    0    0  501  0.00000000000E+00  0.00000000000E+00 -0.42184378904E+03  0.42184378905E+03  0.25500000920E-02 0.  1.
    10030    2    1    2    0    0  0.00000000000E+00  0.00000000000E+00  0.87281099572E+03  0.17164985738E+04  0.14780285246E+04 0.  0.
        5    1    3    3  502    0 -0.95549985724E+02  0.31431915393E+03  0.12051706274E+04  0.12491535780E+04  0.46999998093E+01 0. -1.
       -5    1    3    3    0  502  0.95549985724E+02 -0.31431915393E+03 -0.33235963171E+03  0.46734499578E+03  0.46999998093E+01 0.  1.
</event>
<event>
 5   0  0.8271069E-05  0.2030125E+04  0.7818609E-02  0.8592664E-01
       -1   -1    0    0    0  501  0.00000000000E+00  0.00000000000E+00  0.71235552781E+03  0.71235552783E+03  0.50400001928E-02 0. -1.
        1   -1    0    0  501    0  0.00000000000E+00  0.00000000000E+00 -0.14464014503E+04  0.14464014503E+04  0.50400001928E-02 0.  1.
    10030    2    1    2    0    0  0.00000000000E+00  0.00000000000E+00 -0.73404592251E+03  0.21587569782E+04  0.20301251869E+04 0.  0.
        2    1    3    3  502    0 -0.80758524962E+03  0.49053146659E+03  0.27335106430E+02  0.94528422348E+03  0.25500000920E-02 0. -1.
       -2    1    3    3    0  502  0.80758524962E+03 -0.49053146659E+03 -0.76138102894E+03  0.12134727547E+04  0.25500000920E-02 0.  1.
</event>
<event>
 5   0  0.8755004E-05  0.2158229E+04  0.7818609E-02  0.8536018E-01
        1   -1    0    0  501    0  0.00000000000E+00  0.00000000000E+00  0.10072682603E+04  0.10072682603E+04  0.50400001928E-02 0. -1.
       -1   -1    0    0    0  501  0.00000000000E+00  0.00000000000E+00 -0.11560853742E+04  0.11560853742E+04  0.50400001928E-02 0.  1.
    10030    2    1    2    0    0  0.00000000000E+00  0.00000000000E+00 -0.14881711388E+03  0.21633536345E+04  0.21582289996E+04 0.  0.
        3    1    3    3  502    0 -0.91152859245E+03 -0.37474785420E+03 -0.51496070240E+03  0.11119824029E+04  0.10100000352E+00 0.  1.
       -3    1    3    3    0  502  0.91152859245E+03  0.37474785420E+03  0.36614358852E+03  0.10513712316E+04  0.10100000352E+00 0. -1.
</event>
<event>
 5   0  0.8271069E-05  0.2109805E+04  0.7818609E-02  0.8556937E-01
       -1   -1    0    0    0  501  0.00000000000E+00  0.00000000000E+00  0.13231422875E+04  0.13231422875E+04  0.50400001928E-02 0.  1.
        1   -1    0    0  501    0  0.00000000000E+00  0.00000000000E+00 -0.84104256708E+03  0.84104256710E+03  0.50400001928E-02 0. -1.
    10030    2    1    2    0    0  0.00000000000E+00  0.00000000000E+00  0.48209972038E+03  0.21641848546E+04  0.21098047171E+04 0.  0.
        2    1    3    3  502    0 -0.61191134119E+03  0.34804218608E+03 -0.56485298799E+03  0.90256731096E+03  0.25500000920E-02 0. -1.
       -2    1    3    3    0  502  0.61191134119E+03 -0.34804218608E+03  0.10469527084E+04  0.12616175436E+04  0.25500000920E-02 0.  1.
</event>
<event>
 5   0  0.1810875E-04  0.2087629E+04  0.7818609E-02  0.8566712E-01
        2   -1    0    0  501    0  0.00000000000E+00  0.00000000000E+00  0.11396247788E+04  0.11396247788E+04  0.25500000920E-02 0. -1.
       -2   -1    0    0    0  501  0.00000000000E+00  0.00000000000E+00 -0.95605955562E+03  0.95605955562E+03  0.25500000920E-02 0.  1.
    10030    2    1    2    0    0  0.00000000000E+00  0.00000000000E+00  0.18356522313E+03  0.20956843344E+04  0.20876294303E+04 0.  0.
        1    1    3    3  502    0  0.21688793815E+03  0.32646550790E+03 -0.87938439772E+03  0.96277568755E+03  0.50400001928E-02 0.  1.
       -1    1    3    3    0  502 -0.21688793815E+03 -0.32646550790E+03  0.10629496209E+04  0.11329086468E+04  0.50400001928E-02 0. -1.
</event>
<event>
 5   0  0.8237966E-05  0.2030877E+04  0.7818609E-02  0.8592319E-01
       -1   -1    0    0    0  501  0.00000000000E+00  0.00000000000E+00  0.13298018331E+04  0.13298018331E+04  0.50400001928E-02 0.  1.
        1   -1    0    0  501    0  0.00000000000E+00  0.00000000000E+00 -0.77539022958E+03  0.77539022960E+03  0.50400001928E-02 0. -1.
    10030    2    1    2    0    0  0.00000000000E+00  0.00000000000E+00  0.55441160349E+03  0.21051920627E+04  0.20308770014E+04 0.  0.
        1    1    3    3  502    0  0.15543677909E+03  0.63982692921E+03 -0.52411196003E+03  0.84156546882E+03  0.50400001928E-02 0. -1.
       -1    1    3    3    0  502 -0.15543677909E+03 -0.63982692921E+03  0.10785235635E+04  0.12636265939E+04  0.50400001928E-02 0.  1.
</event>
<event>
 5   0  0.1886323E-04  0.2117927E+04  0.7818609E-02  0.8553387E-01
        2   -1    0    0  501    0  0.00000000000E+00  0.00000000000E+00  0.49146744280E+03  0.49146744281E+03  0.25500000920E-02 0. -1.
       -2   -1    0    0    0  501  0.00000000000E+00  0.00000000000E+00 -0.22817448852E+04  0.22817448852E+04  0.25500000920E-02 0.  1.
    10030    2    1    2    0    0  0.00000000000E+00  0.00000000000E+00 -0.17902774424E+04  0.27732123280E+04  0.21179266502E+04 0.  0.
        2    1    3    3  502    0 -0.20109319922E+03 -0.30109975946E+02  0.46566595797E+03  0.50812387254E+03  0.25500000920E-02 0. -1.
       -2    1    3    3    0  502  0.20109319922E+03  0.30109975946E+02 -0.22559434004E+04  0.22650884555E+04  0.25500000920E-02 0.  1.
</event>
<event>
 5   0  0.6441125E-05  0.2091306E+04  0.7818609E-02  0.8565083E-01
        3   -1    0    0  501    0  0.00000000000E+00  0.00000000000E+00  0.20783663067E+04  0.20783663092E+04  0.10100000352E+00 0.  1.
       -3   -1    0    0    0  501  0.00000000000E+00  0.00000000000E+00 -0.52608176918E+03  0.52608177888E+03  0.10100000352E+00 0. -1.
    10030    2    1    2    0    0  0.00000000000E+00  0.00000000000E+00  0.15522845375E+04  0.26044480880E+04  0.20913064237E+04 0.  0.
        4    1    3    3  502    0  0.18773401296E+03  0.24908811667E+03 -0.46679588893E+03  0.56141692556E+03  0.12699999809E+01 0. -1.
       -4    1    3    3    0  502 -0.18773401296E+03 -0.24908811667E+03  0.20190804264E+04  0.20430311625E+04  0.12699999809E+01 0.  1.
</event>
<event>
 5   0  0.8237966E-05  0.2134301E+04  0.7818609E-02  0.8546282E-01
       -1   -1    0    0    0  501  0.00000000000E+00  0.00000000000E+00  0.91346411526E+03  0.91346411527E+03  0.50400001928E-02 0.  1.
        1   -1    0    0  501    0  0.00000000000E+00  0.00000000000E+00 -0.12466938050E+04  0.12466938050E+04  0.50400001928E-02 0. -1.
    10030    2    1    2    0    0  0.00000000000E+00  0.00000000000E+00 -0.33322968977E+03  0.21601579203E+04  0.21343008725E+04 0.  0.
        1    1    3    3  502    0  0.99422450179E+03  0.46359567522E+00 -0.55903295933E+03  0.11406140559E+04  0.50400001928E-02 0. -1.
       -1    1    3    3    0  502 -0.99422450179E+03 -0.46359567522E+00  0.22580326956E+03  0.10195438644E+04  0.50400001928E-02 0.  1.
</event>
<event>
 5   0  0.8755004E-05  0.2064239E+04  0.7818609E-02  0.8577162E-01
        1   -1    0    0  501    0  0.00000000000E+00  0.00000000000E+00  0.14616164402E+04  0.14616164402E+04  0.50400001928E-02 0. -1.
       -1   -1    0    0    0  501  0.00000000000E+00  0.00000000000E+00 -0.72883025348E+03  0.72883025350E+03  0.50400001928E-02 0.  1.
    10030    2    1    2    0    0  0.00000000000E+00  0.00000000000E+00  0.73278618669E+03  0.21904466937E+04  0.20642386302E+04 0.  0.
        3    1    3    3  502    0 -0.37112377815E+03  0.55427587677E+03 -0.46936224935E+03  0.81563198661E+03  0.10100000352E+00 0.  1.
       -3    1    3    3    0  502  0.37112377815E+03 -0.55427587677E+03  0.12021484360E+04  0.13748147071E+04  0.10100000352E+00 0. -1.
</event>
<event>
 5   0  0.1815400E-04  0.2069765E+04  0.7818609E-02  0.8574680E-01
        2   -1    0    0  501    0  0.00000000000E+00  0.00000000000E+00  0.79955561292E+03  0.79955561292E+03  0.25500000920E-02 0.  1.
       -2   -1    0    0    0  501  0.00000000000E+00  0.00000000000E+00 -0.13394712556E+04  0.13394712556E+04  0.25500000920E-02 0. -1.
    10030    2    1    2    0    0  0.00000000000E+00  0.00000000000E+00 -0.53991564267E+03  0.21390268685E+04  0.20697649729E+04 0.  0.
        3    1    3    3  502    0 -0.71495410371E+03 -0.37698229586E+03  0.39797216676E+03  0.90092001727E+03  0.10100000352E+00 0.  1.
       -3    1    3    3    0  502  0.71495410371E+03  0.37698229586E+03 -0.93788780943E+03  0.12381068512E+04  0.10100000352E+00 0. -1.
</event>
<event>
 5   0  0.1777590E-04  0.2198518E+04  0.7818609E-02  0.8519045E-01
       -2   -1    0    0    0  501  0.00000000000E+00  0.00000000000E+00  0.52192573577E+03  0.52192573578E+03  0.25500000920E-02 0.  1.
        2   -1    0    0  501    0  0.00000000000E+00  0.00000000000E+00 -0.23152161043E+04  0.23152161043E+04  0.25500000920E-02 0. -1.
    10030    2    1    2    0    0  0.00000000000E+00  0.00000000000E+00 -0.17932903686E+04  0.28371418401E+04  0.21985184727E+04 0.  0.
        4    1    3    3  502    0 -0.73335971501E+03 -0.70819582955E+02  0.15613366880E+03  0.75313426449E+03  0.12699999809E+01 0.  1.
       -4    1    3    3    0  502  0.73335971501E+03  0.70819582955E+02 -0.19494240374E+04  0.20840075756E+04  0.12699999809E+01 0. -1.
</event>
<event>
 5   0  0.8237966E-05  0.2076976E+04  0.7818609E-02  0.8571454E-01
       -1   -1    0    0    0  501  0.00000000000E+00  0.00000000000E+00  0.13645039067E+04  0.13645039067E+04  0.50400001928E-02 0. -1.
        1   -1    0    0  501    0  0.00000000000E+00  0.00000000000E+00 -0.79036557979E+03  0.79036557980E+03  0.50400001928E-02 0.  1.
    10030    2    1    2    0    0  0.00000000000E+00  0.00000000000E+00  0.57413832695E+03  0.21548694866E+04  0.20769756103E+04 0.  0.
        1    1    3    3  502    0  0.82973786719E+03  0.16837717907E+03 -0.33685021802E+03  0.91119913964E+03  0.50400001928E-02 0. -1.
       -1    1    3    3    0  502 -0.82973786719E+03 -0.16837717907E+03  0.91098854497E+03  0.12436703469E+04  0.50400001928E-02 0.  1.
</event>
<event>
 5   0  0.8486612E-05  0.2105787E+04  0.7818609E-02  0.8558698E-01
        1   -1    0    0  501    0  0.00000000000E+00  0.00000000000E+00  0.95619727352E+03  0.95619727353E+03  0.50400001928E-02 0. -1.
       -1   -1    0    0    0  501  0.00000000000E+00  0.00000000000E+00 -0.11593685858E+04  0.11593685858E+04  0.50400001928E-02 0.  1.
    10030    2    1    2    0    0  0.00000000000E+00  0.00000000000E+00 -0.20317131229E+03  0.21155658594E+04  0.21057873404E+04 0.  0.
        5    1    3    3  502    0 -0.63139814655E+02 -0.71225406405E+03 -0.87800719161E+03  0.11323476527E+04  0.46999998093E+01 0.  1.
       -5    1    3    3    0  502  0.63139814655E+02  0.71225406405E+03  0.67483587933E+03  0.98321820670E+03  0.46999998093E+01 0. -1.
</event>
<event>
 5   0  0.1815400E-04  0.1987938E+04  0.7818609E-02  0.8612281E-01
       -2   -1    0    0    0  501  0.00000000000E+00  0.00000000000E+00  0.10430190364E+04  0.10430190364E+04  0.25500000920E-02 0.  1.
        2   -1    0    0  501    0  0.00000000000E+00  0.00000000000E+00 -0.94722576994E+03  0.94722576994E+03  0.25500000920E-02 0. -1.
    10030    2    1    2    0    0  0.00000000000E+00  0.00000000000E+00  0.95793266483E+02  0.19902448064E+04  0.19879381377E+04 0.  0.
        3    1    3    3  502    0 -0.79558459726E+03 -0.47502625511E+03 -0.31220071895E+03  0.97779041392E+03  0.10100000352E+00 0. -1.
       -3    1    3    3    0  502  0.79558459726E+03  0.47502625511E+03  0.40799398543E+03  0.10124543924E+04  0.10100000352E+00 0.  1.
</event>
<event>
 5   0  0.8525278E-05  0.2135336E+04  0.7818609E-02  0.8545835E-01
        1   -1    0    0  501    0  0.00000000000E+00  0.00000000000E+00  0.16049912190E+04  0.16049912190E+04  0.50400001928E-02 0. -1.
       -1   -1    0    0    0  501  0.00000000000E+00  0.00000000000E+00 -0.71023116293E+03  0.71023116295E+03  0.50400001928E-02 0.  1.
    10030    2    1    2    0    0  0.00000000000E+00  0.00000000000E+00  0.89476005607E+03  0.23152223820E+04  0.21353358331E+04 0.  0.
        4    1    3    3  502    0  0.33027976997E+03 -0.95579323142E+03  0.81870386729E+03  0.13011160836E+04  0.12699999809E+01 0. -1.
       -4    1    3    3    0  502 -0.33027976997E+03  0.95579323142E+03  0.76056188785E+02  0.10141062984E+04  0.12699999809E+01 0.  1.
</event>
<event>
 5   0  0.1815400E-04  0.1882885E+04  0.7818609E-02  0.8663423E-01
        2   -1    0    0  501    0  0.00000000000E+00  0.00000000000E+00  0.21389688218E+04  0.21389688218E+04  0.25500000920E-02 0.  1.
       -2   -1    0    0    0  501  0.00000000000E+00  0.00000000000E+00 -0.41436490140E+03  0.41436490141E+03  0.25500000920E-02 0. -1.
    10030    2    1    2    0    0  0.00000000000E+00  0.00000000000E+00  0.17246039204E+04  0.25533337232E+04  0.18828846008E+04 0.  0.
        3    1    3    3  502    0 -0.26578831148E+03 -0.10763292963E+03 -0.35370187462E+03  0.45533866558E+03  0.10100000352E+00 0. -1.
       -3    1    3    3    0  502  0.26578831148E+03  0.10763292963E+03  0.20783057950E+04  0.20979950576E+04  0.10100000352E+00 0.  1.
</event>
<event>
 5   0  0.6441125E-05  0.2083593E+04  0.7818609E-02  0.8568506E-01
       -3   -1    0    0    0  501  0.00000000000E+00  0.00000000000E+00  0.10257485070E+04  0.10257485119E+04  0.10100000352E+00 0. -1.
        3   -1    0    0  501    0  0.00000000000E+00  0.00000000000E+00 -0.10580950858E+04  0.10580950906E+04  0.10100000352E+00 0.  1.
    10030    2    1    2    0    0  0.00000000000E+00  0.00000000000E+00 -0.32346578853E+02  0.20838436026E+04  0.20835925366E+04 0.  0.
        2    1    3    3  502    0 -0.10183496765E+04  0.16351035908E+03  0.13070407961E+03  0.10396418891E+04  0.25500000920E-02 0.  1.
       -2    1    3    3    0  502  0.10183496765E+04 -0.16351035908E+03 -0.16305065846E+03  0.10442017135E+04  0.25500000920E-02 0. -1.
</event>
<event>
 5   0  0.8271069E-05  0.2098884E+04  0.7818609E-02  0.8561735E-01
       -1   -1    0    0    0  501  0.00000000000E+00  0.00000000000E+00  0.19303684276E+04  0.19303684276E+04  0.50400001928E-02 0. -1.
        1   -1    0    0  501    0  0.00000000000E+00  0.00000000000E+00 -0.57052779274E+03  0.57052779276E+03  0.50400001928E-02 0.  1.
    10030    2    1    2    0    0  0.00000000000E+00  0.00000000000E+00  0.13598406349E+04  0.25008962204E+04  0.20988843115E+04 0.  0.
        2    1    3    3  502    0  0.25184510780E+03  0.42467320483E+03  0.17833338339E+04  0.18504196422E+04  0.25500000920E-02 0. -1.
       -2    1    3    3    0  502 -0.25184510780E+03 -0.42467320483E+03 -0.42349319897E+03  0.65047657821E+03  0.25500000920E-02 0.  1.
</event>
<event>
 5   0  0.1921687E-04  0.2118402E+04  0.7818609E-02  0.8553180E-01
        2   -1    0    0  501    0  0.00000000000E+00  0.00000000000E+00  0.11266551842E+04  0.11266551842E+04  0.25500000920E-02 0. -1.
       -2   -1    0    0    0  501  0.00000000000E+00  0.00000000000E+00 -0.99578496138E+03  0.99578496139E+03  0.25500000920E-02 0.  1.
    10030    2    1    2    0    0  0.00000000000E+00  0.00000000000E+00  0.13087022277E+03  0.21224401455E+04  0.21184015569E+04 0.  0.
        5    1    3    3  502    0 -0.79385188501E+03  0.17642310755E+03 -0.61450311437E+03  0.10192949013E+04  0.46999998093E+01 0.  1.
       -5    1    3    3    0  502  0.79385188501E+03 -0.17642310755E+03  0.74537333715E+03  0.11031452443E+04  0.46999998093E+01 0. -1.
</event>
<event>
 5   0  0.8237966E-05  0.2106671E+04  0.7818609E-02  0.8558310E-01
       -1   -1    0    0    0  501  0.00000000000E+00  0.00000000000E+00  0.55378774112E+03  0.55378774114E+03  0.50400001928E-02 0.  1.
        1   -1    0    0  501    0  0.00000000000E+00  0.00000000000E+00 -0.20035042236E+04  0.20035042236E+04  0.50400001928E-02 0. -1.
    10030    2    1    2    0    0  0.00000000000E+00  0.00000000000E+00 -0.14497164824E+04  0.25572919647E+04  0.21066713824E+04 0.  0.
        1    1    3    3  502    0  0.18478657403E+03 -0.73811826811E+03  0.15933514087E+03  0.77740101800E+03  0.50400001928E-02 0.  1.
       -1    1    3    3    0  502 -0.18478657403E+03  0.73811826811E+03 -0.16090516233E+04  0.17798909467E+04  0.50400001928E-02 0. -1.
</event>
<event>
 5   0  0.8237966E-05  0.2049414E+04  0.7818609E-02  0.8583860E-01
        1   -1    0    0  501    0  0.00000000000E+00  0.00000000000E+00  0.10090214377E+04  0.10090214378E+04  0.50400001928E-02 0.  1.
       -1   -1    0    0    0  501  0.00000000000E+00  0.00000000000E+00 -0.10406362369E+04  0.10406362369E+04  0.50400001928E-02 0. -1.
    10030    2    1    2    0    0  0.00000000000E+00  0.00000000000E+00 -0.31614799146E+02  0.20496576747E+04  0.20494138400E+04 0.  0.
        1    1    3    3  502    0  0.11879773927E+03 -0.10051608187E+04 -0.17571106075E+03  0.10272952600E+04  0.50400001928E-02 0.  1.
       -1    1    3    3    0  502 -0.11879773927E+03  0.10051608187E+04  0.14409626160E+03  0.10223624147E+04  0.50400001928E-02 0. -1.
</event>
<event>
 5   0  0.1815400E-04  0.2065712E+04  0.7818609E-02  0.8576500E-01
        2   -1    0    0  501    0  0.00000000000E+00  0.00000000000E+00  0.21767120750E+04  0.21767120750E+04  0.25500000920E-02 0. -1.
       -2   -1    0    0    0  501  0.00000000000E+00  0.00000000000E+00 -0.49009317195E+03  0.49009317196E+03  0.25500000920E-02 0.  1.
    10030    2    1    2    0    0  0.00000000000E+00  0.00000000000E+00  0.16866189030E+04  0.26668052469E+04  0.20657122019E+04 0.  0.
        3    1    3    3  502    0  0.28054279414E+03 -0.10771430720E+03  0.21190263046E+04  0.21402287544E+04  0.10100000352E+00 0. -1.
       -3    1    3    3    0  502 -0.28054279414E+03  0.10771430720E+03 -0.43240740160E+03  0.52657649253E+03  0.10100000352E+00 0.  1.
</event>
<event>
 5   0  0.8525278E-05  0.1925368E+04  0.7818609E-02  0.8642331E-01
       -1   -1    0    0    0  501  0.00000000000E+00  0.00000000000E+00  0.10881859778E+04  0.10881859778E+04  0.50400001928E-02 0.  1.
        1   -1    0    0  501    0  0.00000000000E+00  0.00000000000E+00 -0.85165618176E+03  0.85165618178E+03  0.50400001928E-02 0. -1.
    10030    2    1    2    0    0  0.00000000000E+00  0.00000000000E+00  0.23652979606E+03  0.19398421596E+04  0.19253678245E+04 0.  0.
        4    1    3    3  502    0  0.19220913433E+03  0.47850567738E+03 -0.70077118659E+03  0.87005396582E+03  0.12699999809E+01 0. -1.
       -4    1    3    3    0  502 -0.19220913433E+03 -0.47850567738E+03  0.93730098264E+03  0.10697881938E+04  0.12699999809E+01 0.  1.
</event>
<event>
 5   0  0.8237966E-05  0.2098260E+04  0.7818609E-02  0.8562010E-01
       -1   -1    0    0    0  501  0.00000000000E+00  0.00000000000E+00  0.15508318686E+04  0.15508318686E+04  0.50400001928E-02 0. -1.
        1   -1    0    0  501    0  0.00000000000E+00  0.00000000000E+00 -0.70973137326E+03  0.70973137328E+03  0.50400001928E-02 0.  1.
    10030    2    1    2    0    0  0.00000000000E+00  0.00000000000E+00  0.84110049531E+03  0.22605632419E+04  0.20982602620E+04 0.  0.
        1    1    3    3  502    0 -0.78639977644E+03  0.54370259526E+03  0.88598207165E+03  0.13034574607E+04  0.50400001928E-02 0. -1.
       -1    1    3    3    0  502  0.78639977644E+03 -0.54370259526E+03 -0.44881576333E+02  0.95710578120E+03  0.50400001928E-02 0.  1.
</event>
<event>
 5   0  0.1921687E-04  0.2124227E+04  0.7818609E-02  0.8550646E-01
       -2   -1    0    0    0  501  0.00000000000E+00  0.00000000000E+00  0.49749791281E+03  0.49749791282E+03  0.25500000920E-02 0.  1.
        2   -1    0    0  501    0  0.00000000000E+00  0.00000000000E+00 -0.22675169206E+04  0.22675169206E+04  0.25500000920E-02 0. -1.
    10030    2    1    2    0    0  0.00000000000E+00  0.00000000000E+00 -0.17700190078E+04  0.27650148334E+04  0.21242268573E+04 0.  0.
        5    1    3    3  502    0  0.16917380199E+03  0.62195221689E+03 -0.19838258703E+04  0.20859126321E+04  0.46999998093E+01 0. -1.
       -5    1    3    3    0  502 -0.16917380199E+03 -0.62195221689E+03  0.21380686246E+03  0.67910220130E+03  0.46999998093E+01 0.  1.
</event>
<event>
 5   0  0.8486612E-05  0.2096436E+04  0.7818609E-02  0.8562815E-01
       -1   -1    0    0    0  501  0.00000000000E+00  0.00000000000E+00  0.18254164878E+04  0.18254164878E+04  0.50400001928E-02 0.  1.
        1   -1    0    0  501    0  0.00000000000E+00  0.00000000000E+00 -0.60192347828E+03  0.60192347830E+03  0.50400001928E-02 0. -1.
    10030    2    1    2    0    0  0.00000000000E+00  0.00000000000E+00  0.12234930095E+04  0.24273399661E+04  0.20964360631E+04 0.  0.
        5    1    3    3  502    0  0.26096561021E+03 -0.86465862678E+03  0.12276933666E+04  0.15241360448E+04  0.46999998093E+01 0.  1.
       -5    1    3    3    0  502 -0.26096561021E+03  0.86465862678E+03 -0.42003570512E+01  0.90320392136E+03  0.46999998093E+01 0. -1.
</event>
<event>
 5   0  0.1815400E-04  0.1645383E+04  0.7818609E-02  0.8793143E-01
        2   -1    0    0  501    0  0.00000000000E+00  0.00000000000E+00  0.18696019679E+04  0.18696019679E+04  0.25500000920E-02 0.  1.
       -2   -1    0    0    0  501  0.00000000000E+00  0.00000000000E+00 -0.36201354282E+03  0.36201354283E+03  0.25500000920E-02 0. -1.
    10030    2    1    2    0    0  0.00000000000E+00  0.00000000000E+00  0.15075884251E+04  0.22316155108E+04  0.16453829124E+04 0.  0.
        3    1    3    3  502    0  0.30220372062E+03 -0.23496350314E+02 -0.28351637744E+03  0.41504302634E+03  0.10100000352E+00 0. -1.
       -3    1    3    3    0  502 -0.30220372062E+03  0.23496350314E+02  0.17911048025E+04  0.18165724844E+04  0.10100000352E+00 0.  1.
</event>
<event>
 5   0  0.8271069E-05  0.2095655E+04  0.7818609E-02  0.8563160E-01
       -1   -1    0    0    0  501  0.00000000000E+00  0.00000000000E+00  0.10726173048E+04  0.10726173048E+04  0.50400001928E-02 0.  1.
        1   -1    0    0  501    0  0.00000000000E+00  0.00000000000E+00 -0.10236110119E+04  0.10236110119E+04  0.50400001928E-02 0. -1.
    10030    2    1    2    0    0  0.00000000000E+00  0.00000000000E+00  0.49006292861E+02  0.20962283167E+04  0.20956553961E+04 0.  0.
        2    1    3    3  502    0 -0.84445018999E+03 -0.28242525343E+03  0.57699710160E+03  0.10610305379E+04  0.25500000920E-02 0.  1.
       -2    1    3    3    0  502  0.84445018999E+03  0.28242525343E+03 -0.52799080874E+03  0.10351977788E+04  0.25500000920E-02 0. -1.
</event>
<event>
 5   0  0.8525278E-05  0.2128273E+04  0.7818609E-02  0.8548890E-01
        1   -1    0    0  501    0  0.00000000000E+00  0.00000000000E+00  0.18607920597E+04  0.18607920597E+04  0.50400001928E-02 0.  1.
       -1   -1    0    0    0  501  0.00000000000E+00  0.00000000000E+00 -0.60855074895E+03  0.60855074897E+03  0.50400001928E-02 0. -1.
    10030    2    1    2    0    0  0.00000000000E+00  0.00000000000E+00  0.12522413107E+04  0.24693428087E+04  0.21282729163E+04 0.  0.
        4    1    3    3  502    0  0.85427050220E+03  0.51005294884E+03  0.18820609037E+03  0.10125982653E+04  0.12699999809E+01 0. -1.
       -4    1    3    3    0  502 -0.85427050220E+03 -0.51005294884E+03  0.10640352203E+04  0.14567445433E+04  0.12699999809E+01 0.  1.
</event>
<event>
 5   0  0.8237966E-05  0.2124953E+04  0.7818609E-02  0.8550331E-01
       -1   -1    0    0    0  501  0.00000000000E+00  0.00000000000E+00  0.86858136965E+03  0.86858136966E+03  0.50400001928E-02 0.  1.
        1   -1    0    0  501    0  0.00000000000E+00  0.00000000000E+00 -0.12996546335E+04  0.12996546335E+04  0.50400001928E-02 0. -1.
    10030    2    1    2    0    0  0.00000000000E+00  0.00000000000E+00 -0.43107326386E+03  0.21682360032E+04  0.21249525187E+04 0.  0.
        1    1    3    3  502    0  0.16737229432E+03  0.65050326621E+03  0.62444958603E+03  0.91711791487E+03  0.50400001928E-02 0.  1.
       -1    1    3    3    0  502 -0.16737229432E+03 -0.65050326621E+03 -0.10555228499E+04  0.12511180883E+04  0.50400001928E-02 0. -1.
</event>
<event>
 5   0  0.8525278E-05  0.1958778E+04  0.7818609E-02  0.8626139E-01
       -1   -1    0    0    0  501  0.00000000000E+00  0.00000000000E+00  0.57056925514E+03  0.57056925516E+03  0.50400001928E-02 0. -1.
        1   -1    0    0  501    0  0.00000000000E+00  0.00000000000E+00 -0.16811338458E+04  0.16811338458E+04  0.50400001928E-02 0.  1.
    10030    2    1    2    0    0  0.00000000000E+00  0.00000000000E+00 -0.11105645906E+04  0.22517031009E+04  0.19587784828E+04 0.  0.
        4    1    3    3  502    0 -0.38782350263E+03  0.81377521812E+03 -0.99537097191E+03  0.13429080979E+04  0.12699999809E+01 0.  1.
       -4    1    3    3    0  502  0.38782350263E+03 -0.81377521812E+03 -0.11519361871E+03  0.90879500301E+03  0.12699999809E+01 0. -1.
</event>
<event>
 5   0  0.1886323E-04  0.2081885E+04  0.7818609E-02  0.8569266E-01
        2   -1    0    0  501    0  0.00000000000E+00  0.00000000000E+00  0.58772647660E+03  0.58772647661E+03  0.25500000920E-02 0. -1.
       -2   -1    0    0    0  501  0.00000000000E+00  0.00000000000E+00 -0.18436483931E+04  0.18436483931E+04  0.25500000920E-02 0.  1.
    10030    2    1    2    0    0  0.00000000000E+00  0.00000000000E+00 -0.12559219165E+04  0.24313748697E+04  0.20818846982E+04 0.  0.
        2    1    3    3  502    0 -0.75592764153E+03  0.22754249459E+03 -0.14203591385E+04  0.16249991595E+04  0.25500000920E-02 0.  1.
       -2    1    3    3    0  502  0.75592764153E+03 -0.22754249459E+03  0.16443722196E+03  0.80637571023E+03  0.25500000920E-02 0. -1.
</event>
<event>
 5   0  0.1810875E-04  0.2172657E+04  0.7818609E-02  0.8529896E-01
        2   -1    0    0  501    0  0.00000000000E+00  0.00000000000E+00  0.22388897942E+04  0.22388897942E+04  0.25500000920E-02 0.  1.
       -2   -1    0    0    0  501  0.00000000000E+00  0.00000000000E+00 -0.52709583382E+03  0.52709583383E+03  0.25500000920E-02 0. -1.
    10030    2    1    2    0    0  0.00000000000E+00  0.00000000000E+00  0.17117939603E+04  0.27659856280E+04  0.21726568831E+04 0.  0.
        1    1    3    3  502    0 -0.57002749280E+02  0.52423762109E+03  0.20650199975E+04  0.21312864629E+04  0.50400001928E-02 0.  1.
       -1    1    3    3    0  502  0.57002749280E+02 -0.52423762109E+03 -0.35322603718E+03  0.63469916508E+03  0.50400001928E-02 0. -1.
</event>
<event>
 5   0  0.1815400E-04  0.2128531E+04  0.7818609E-02  0.8548778E-01
       -2   -1    0    0    0  501  0.00000000000E+00  0.00000000000E+00  0.14014807344E+04  0.14014807344E+04  0.25500000920E-02 0.  1.
        2   -1    0    0  501    0  0.00000000000E+00  0.00000000000E+00 -0.80818873010E+03  0.80818873010E+03  0.25500000920E-02 0. -1.
    10030    2    1    2    0    0  0.00000000000E+00  0.00000000000E+00  0.59329200432E+03  0.22096694645E+04  0.21285308877E+04 0.  0.
        3    1    3    3  502    0 -0.23999735053E+03 -0.12242354053E+03 -0.77220110662E+03  0.81785133784E+03  0.10100000352E+00 0. -1.
       -3    1    3    3    0  502  0.23999735053E+03  0.12242354053E+03  0.13654931109E+04  0.13918181267E+04  0.10100000352E+00 0.  1.
</event>
<event>
 5   0  0.1810875E-04  0.1828097E+04  0.7818609E-02  0.8691499E-01
       -2   -1    0    0    0  501  0.00000000000E+00  0.00000000000E+00  0.52711447300E+03  0.52711447300E+03  0.25500000920E-02 0.  1.
        2   -1    0    0  501    0  0.00000000000E+00  0.00000000000E+00 -0.15850152556E+04  0.15850152556E+04  0.25500000920E-02 0. -1.
    10030    2    1    2    0    0  0.00000000000E+00  0.00000000000E+00 -0.10579007826E+04  0.21121297286E+04  0.18280968039E+04 0.  0.
        1    1    3    3  502    0 -0.17932616736E+03  0.57118709532E+03  0.26906877588E+03  0.65636162162E+03  0.50400001928E-02 0.  1.
       -1    1    3    3    0  502  0.17932616736E+03 -0.57118709532E+03 -0.13269695584E+04  0.14557681069E+04  0.50400001928E-02 0. -1.
</event>
<event>
 5   0  0.1777590E-04  0.1974045E+04  0.7818609E-02  0.8618852E-01
        2   -1    0    0  501    0  0.00000000000E+00  0.00000000000E+00  0.81901648112E+03  0.81901648112E+03  0.25500000920E-02 0. -1.
       -2   -1    0    0    0  501  0.00000000000E+00  0.00000000000E+00 -0.11894918634E+04  0.11894918634E+04  0.25500000920E-02 0.  1.
    10030    2    1    2    0    0  0.00000000000E+00  0.00000000000E+00 -0.37047538231E+03  0.20085083446E+04  0.19740450251E+04 0.  0.
        4    1    3    3  502    0 -0.86084655268E+02 -0.65926837639E+03 -0.92747082743E+03  0.11411612982E+04  0.12699999809E+01 0.  1.
       -4    1    3    3    0  502  0.86084655268E+02  0.65926837639E+03  0.55699544512E+03  0.86734704632E+03  0.12699999809E+01 0. -1.
</event>
<event>
 5   0  0.8755004E-05  0.1798312E+04  0.7818609E-02  0.8707197E-01
        1   -1    0    0  501    0  0.00000000000E+00  0.00000000000E+00  0.22328976735E+04  0.22328976735E+04  0.50400001928E-02 0. -1.
       -1   -1    0    0    0  501  0.00000000000E+00  0.00000000000E+00 -0.36207739357E+03  0.36207739360E+03  0.50400001928E-02 0.  1.
    10030    2    1    2    0    0  0.00000000000E+00  0.00000000000E+00  0.18708202799E+04  0.25949750671E+04  0.17983122863E+04 0.  0.
        3    1    3    3  502    0 -0.54321509601E+03  0.67647022990E+03  0.12762380522E+04  0.15432038713E+04  0.10100000352E+00 0. -1.
       -3    1    3    3    0  502  0.54321509601E+03 -0.67647022990E+03  0.59458222774E+03  0.10517711958E+04  0.10100000352E+00 0.  1.
</event>
<event>
 5   0  0.8237966E-05  0.2125403E+04  0.7818609E-02  0.8550135E-01
        1   -1    0    0  501    0  0.00000000000E+00  0.00000000000E+00  0.89947219018E+03  0.89947219019E+03  0.50400001928E-02 0.  1.
       -1   -1    0    0    0  501  0.00000000000E+00  0.00000000000E+00 -0.12555527660E+04  0.12555527660E+04  0.50400001928E-02 0. -1.
    10030    2    1    2    0    0  0.00000000000E+00  0.00000000000E+00 -0.35608057585E+03  0.21550249562E+04  0.21254032995E+04 0.  0.
        1    1    3    3  502    0  0.64323123251E+03 -0.83596906132E+03 -0.30924273660E+03  0.10991914120E+04  0.50400001928E-02 0. -1.
       -1    1    3    3    0  502 -0.64323123251E+03  0.83596906132E+03 -0.46837839250E+02  0.10558335443E+04  0.50400001928E-02 0.  1.
</event>
<event>
 5   0  0.6441125E-05  0.1408882E+04  0.7818609E-02  0.8947414E-01
        3   -1    0    0  501    0  0.00000000000E+00  0.00000000000E+00  0.56916452657E+03  0.56916453553E+03  0.10100000352E+00 0.  1.
       -3   -1    0    0    0  501  0.00000000000E+00  0.00000000000E+00 -0.87186922670E+03  0.87186923255E+03  0.10100000352E+00 0. -1.
    10030    2    1    2    0    0  0.00000000000E+00  0.00000000000E+00 -0.30270470013E+03  0.14410337681E+04  0.14088818919E+04 0.  0.
        4    1    3    3  502    0  0.41151766901E+03 -0.18361972296E+03  0.40245809257E+03  0.60418302172E+03  0.12699999809E+01 0.  1.
       -4    1    3    3    0  502 -0.41151766901E+03  0.18361972296E+03 -0.70516279270E+03  0.83685074635E+03  0.12699999809E+01 0. -1.
</event>
<event>
 5   0  0.8237966E-05  0.1780482E+04  0.7818609E-02  0.8716748E-01
        1   -1    0    0  501    0  0.00000000000E+00  0.00000000000E+00  0.14462778529E+04  0.14462778529E+04  0.50400001928E-02 0. -1.
       -1   -1    0    0    0  501  0.00000000000E+00  0.00000000000E+00 -0.54797834740E+03  0.54797834743E+03  0.50400001928E-02 0.  1.
    10030    2    1    2    0    0  0.00000000000E+00  0.00000000000E+00  0.89829950547E+03  0.19942562003E+04  0.17804818985E+04 0.  0.
        1    1    3    3  502    0  0.25356570724E+03 -0.29227555734E+03 -0.44886640865E+03  0.59262266422E+03  0.50400001928E-02 0.  1.
       -1    1    3    3    0  502 -0.25356570724E+03  0.29227555734E+03  0.13471659141E+04  0.14016335361E+04  0.50400001928E-02 0. -1.
</event>
<event>
 5   0  0.8525278E-05  0.2132881E+04  0.7818609E-02  0.8546896E-01
       -1   -1    0    0    0  501  0.00000000000E+00  0.00000000000E+00  0.65441524561E+03  0.65441524562E+03  0.50400001928E-02 0. -1.
        1   -1    0    0  501    0  0.00000000000E+00  0.00000000000E+00 -0.17378802901E+04  0.17378802901E+04  0.50400001928E-02 0.  1.
    10030    2    1    2    0    0  0.00000000000E+00  0.00000000000E+00 -0.10834650445E+04  0.23922955358E+04  0.21328810158E+04 0.  0.
        4    1    3    3  502    0 -0.13051890553E+03 -0.10325365784E+04 -0.80268070149E+03  0.13143305870E+04  0.12699999809E+01 0.  1.
       -4    1    3    3    0  502  0.13051890553E+03  0.10325365784E+04 -0.28078434305E+03  0.10779649488E+04  0.12699999809E+01 0. -1.
</event>
<event>
 5   0  0.8755004E-05  0.2110942E+04  0.7818609E-02  0.8556439E-01
        1   -1    0    0  501    0  0.00000000000E+00  0.00000000000E+00  0.22949561637E+04  0.22949561637E+04  0.50400001928E-02 0. -1.
       -1   -1    0    0    0  501  0.00000000000E+00  0.00000000000E+00 -0.48542043696E+03  0.48542043699E+03  0.50400001928E-02 0.  1.
    10030    2    1    2    0    0  0.00000000000E+00  0.00000000000E+00  0.18095357267E+04  0.27803766007E+04  0.21109416134E+04 0.  0.
        3    1    3    3  502    0 -0.86447087498E+03 -0.18624899021E+03  0.14582418449E+03  0.89624956515E+03  0.10100000352E+00 0.  1.
       -3    1    3    3    0  502  0.86447087498E+03  0.18624899021E+03  0.16637115422E+04  0.18841270355E+04  0.10100000352E+00 0. -1.
</event>
<event>
 5   0  0.1777590E-04  0.2174456E+04  0.7818609E-02  0.8529136E-01
       -2   -1    0    0    0  501  0.00000000000E+00  0.00000000000E+00  0.11083459148E+04  0.11083459148E+04  0.25500000920E-02 0. -1.
        2   -1    0    0  501    0  0.00000000000E+00  0.00000000000E+00 -0.10665128294E+04  0.10665128294E+04  0.25500000920E-02 0.  1.
    10030    2    1    2    0    0  0.00000000000E+00  0.00000000000E+00  0.41833085444E+02  0.21748587442E+04  0.21744563804E+04 0.  0.
        4    1    3    3  502    0 -0.56514601682E+03  0.57721045672E+03  0.74871979241E+03  0.11014285597E+04  0.12699999809E+01 0. -1.
       -4    1    3    3    0  502  0.56514601682E+03 -0.57721045672E+03 -0.70688670697E+03  0.10734301845E+04  0.12699999809E+01 0.  1.
</event>
<event>
 5   0  0.8271069E-05  0.2135975E+04  0.7818609E-02  0.8545560E-01
        1   -1    0    0  501    0  0.00000000000E+00  0.00000000000E+00  0.88030373531E+03  0.88030373532E+03  0.50400001928E-02 0. -1.
       -1   -1    0    0    0  501  0.00000000000E+00  0.00000000000E+00 -0.12956857620E+04  0.12956857620E+04  0.50400001928E-02 0.  1.
    10030    2    1    2    0    0  0.00000000000E+00  0.00000000000E+00 -0.41538202670E+03  0.21759894973E+04  0.21359747340E+04 0.  0.
        2    1    3    3  502    0 -0.41098105506E+03 -0.49406768764E+03  0.66127673699E+03  0.92211454303E+03  0.25500000920E-02 0. -1.
       -2    1    3    3    0  502  0.41098105506E+03  0.49406768764E+03 -0.10766587637E+04  0.12538749543E+04  0.25500000920E-02 0.  1.
</event>
<event>
 5   0  0.8755004E-05  0.2080771E+04  0.7818609E-02  0.8569761E-01
        1   -1    0    0  501    0  0.00000000000E+00  0.00000000000E+00  0.12971605399E+04  0.12971605400E+04  0.50400001928E-02 0.  1.
       -1   -1    0    0    0  501  0.00000000000E+00  0.00000000000E+00 -0.83443971724E+03  0.83443971725E+03  0.50400001928E-02 0. -1.
    10030    2    1    2    0    0  0.00000000000E+00  0.00000000000E+00  0.46272082270E+03  0.21316002572E+04  0.20807712745E+04 0.  0.
        3    1    3    3  502    0 -0.40454810626E+03  0.50427560539E+03 -0.60368926909E+03  0.88453027098E+03  0.10100000352E+00 0. -1.
       -3    1    3    3    0  502  0.40454810626E+03 -0.50427560539E+03  0.10664100918E+04  0.12470699862E+04  0.10100000352E+00 0.  1.
</event>
<event>
 5   0  0.1921687E-04  0.2072103E+04  0.7818609E-02  0.8573633E-01
       -2   -1    0    0    0  501  0.00000000000E+00  0.00000000000E+00  0.10209311079E+04  0.10209311079E+04  0.25500000920E-02 0.  1.
        2   -1    0    0  501    0  0.00000000000E+00  0.00000000000E+00 -0.10513955142E+04  0.10513955142E+04  0.25500000920E-02 0. -1.
    10030    2    1    2    0    0  0.00000000000E+00  0.00000000000E+00 -0.30464406295E+02  0.20723266222E+04  0.20721026878E+04 0.  0.
        5    1    3    3  502    0 -0.13021132421E+03  0.69760958605E+03 -0.77014235068E+03  0.10472609292E+04  0.46999998093E+01 0. -1.
       -5    1    3    3    0  502  0.13021132421E+03 -0.69760958605E+03  0.73967794439E+03  0.10250656930E+04  0.46999998093E+01 0.  1.
</event>
<event>
 5   0  0.8271069E-05  0.2071156E+04  0.7818609E-02  0.8574057E-01
       -1   -1    0    0    0  501  0.00000000000E+00  0.00000000000E+00  0.56787953179E+03  0.56787953181E+03  0.50400001928E-02 0.  1.
        1   -1    0    0  501    0  0.00000000000E+00  0.00000000000E+00 -0.18884664277E+04  0.18884664277E+04  0.50400001928E-02 0. -1.
    10030    2    1    2    0    0  0.00000000000E+00  0.00000000000E+00 -0.13205868959E+04  0.24563459595E+04  0.20711556492E+04 0.  0.
        2    1    3    3  502    0  0.61587091702E+02 -0.76783727073E+03  0.16056676713E+03  0.78686004531E+03  0.25500000920E-02 0.  1.
       -2    1    3    3    0  502 -0.61587091702E+02  0.76783727073E+03 -0.14811536630E+04  0.16694859142E+04  0.25500000920E-02 0. -1.
</event>
<event>
 5   0  0.8486612E-05  0.2092970E+04  0.7818609E-02  0.8564346E-01
        1   -1    0    0  501    0  0.00000000000E+00  0.00000000000E+00  0.11125529564E+04  0.11125529564E+04  0.50400001928E-02 0. -1.
       -1   -1    0    0    0  501  0.00000000000E+00  0.00000000000E+00 -0.98434047203E+03  0.98434047204E+03  0.50400001928E-02 0.  1.
    10030    2    1    2    0    0  0.00000000000E+00  0.00000000000E+00  0.12821248435E+03  0.20968934284E+04  0.20929700449E+04 0.  0.
        5    1    3    3  502    0 -0.14479768235E+02  0.20105092362E+03  0.10929088126E+04  0.11113518346E+04  0.46999998093E+01 0. -1.
       -5    1    3    3    0  502  0.14479768235E+02 -0.20105092362E+03 -0.96469632822E+03  0.98554159387E+03  0.46999998093E+01 0.  1.
</event>
<event>
 5   0  0.8486612E-05  0.2105570E+04  0.7818609E-02  0.8558794E-01
        1   -1    0    0  501    0  0.00000000000E+00  0.00000000000E+00  0.10713021636E+04  0.10713021636E+04  0.50400001928E-02 0.  1.
       -1   -1    0    0    0  501  0.00000000000E+00  0.00000000000E+00 -0.10345882566E+04  0.10345882566E+04  0.50400001928E-02 0. -1.
    10030    2    1    2    0    0  0.00000000000E+00  0.00000000000E+00  0.36713907007E+02  0.21058904201E+04  0.21055703623E+04 0.  0.
        5    1    3    3  502    0  0.63319046640E+03 -0.71242908442E+03  0.46546984918E+03  0.10607401367E+04  0.46999998093E+01 0.  1.
       -5    1    3    3    0  502 -0.63319046640E+03  0.71242908442E+03 -0.42875594217E+03  0.10451502835E+04  0.46999998093E+01 0. -1.
</event>
<event>
 5   0  0.1886323E-04  0.2088147E+04  0.7818609E-02  0.8566483E-01
        2   -1    0    0  501    0  0.00000000000E+00  0.00000000000E+00  0.81185230667E+03  0.81185230668E+03  0.25500000920E-02 0.  1.
       -2   -1    0    0    0  501  0.00000000000E+00  0.00000000000E+00 -0.13427192709E+04  0.13427192709E+04  0.25500000920E-02 0. -1.
    10030    2    1    2    0    0  0.00000000000E+00  0.00000000000E+00 -0.53086696424E+03  0.21545715776E+04  0.20881472528E+04 0.  0.
        2    1    3    3  502    0 -0.95064625865E+03  0.43039313312E+03 -0.23085353472E+03  0.10687656023E+04  0.25500000920E-02 0.  1.
       -2    1    3    3    0  502  0.95064625865E+03 -0.43039313312E+03 -0.30001342952E+03  0.10858059753E+04  0.25500000920E-02 0. -1.
</event>
<event>
 5   0  0.1886323E-04  0.1851034E+04  0.7818609E-02  0.8679621E-01
       -2   -1    0    0    0  501  0.00000000000E+00  0.00000000000E+00  0.65037866452E+03  0.65037866453E+03  0.25500000920E-02 0. -1.
        2   -1    0    0  501    0  0.00000000000E+00  0.00000000000E+00 -0.13170513823E+04  0.13170513823E+04  0.25500000920E-02 0.  1.
    10030    2    1    2    0    0  0.00000000000E+00  0.00000000000E+00 -0.66667271774E+03  0.19674300468E+04  0.18510344342E+04 0.  0.
        2    1    3    3  502    0  0.91501620799E+03 -0.23508524016E+02 -0.18769908249E+03  0.93436516264E+03  0.25500000920E-02 0. -1.
       -2    1    3    3    0  502 -0.91501620799E+03  0.23508524016E+02 -0.47897363526E+03  0.10330648842E+04  0.25500000920E-02 0.  1.
</event>
<event>
 5   0  0.1921687E-04  0.2096895E+04  0.7818609E-02  0.8562612E-01
        2   -1    0    0  501    0  0.00000000000E+00  0.00000000000E+00  0.94990210141E+03  0.94990210141E+03  0.25500000920E-02 0. -1.
       -2   -1    0    0    0  501  0.00000000000E+00  0.00000000000E+00 -0.11572160867E+04  0.11572160867E+04  0.25500000920E-02 0.  1.
    10030    2    1    2    0    0  0.00000000000E+00  0.00000000000E+00 -0.20731398524E+03  0.21071181881E+04  0.20968948400E+04 0.  0.
        5    1    3    3  502    0  0.62758343014E+03  0.67875537081E+03 -0.60068965862E+03  0.11024608706E+04  0.46999998093E+01 0.  1.
       -5    1    3    3    0  502 -0.62758343014E+03 -0.67875537081E+03  0.39337567338E+03  0.10046573175E+04  0.46999998093E+01 0. -1.
</event>
<event>
 5   0  0.1777590E-04  0.1894270E+04  0.7818609E-02  0.8657714E-01
       -2   -1    0    0    0  501  0.00000000000E+00  0.00000000000E+00  0.49632961758E+03  0.49632961759E+03  0.25500000920E-02 0. -1.
        2   -1    0    0  501    0  0.00000000000E+00  0.00000000000E+00 -0.18073971008E+04  0.18073971008E+04  0.25500000920E-02 0.  1.
    10030    2    1    2    0    0  0.00000000000E+00  0.00000000000E+00 -0.13110674832E+04  0.23037267183E+04  0.18942700038E+04 0.  0.
        4    1    3    3  502    0 -0.43710441032E+03  0.63279967070E+02 -0.16744938047E+04  0.17317608769E+04  0.12699999809E+01 0.  1.
       -4    1    3    3    0  502  0.43710441032E+03 -0.63279967070E+02  0.36342632152E+03  0.57196584149E+03  0.12699999809E+01 0. -1.
</event>
<event>
 5   0  0.8237966E-05  0.2200873E+04  0.7818609E-02  0.8518065E-01
        1   -1    0    0  501    0  0.00000000000E+00  0.00000000000E+00  0.13205331597E+04  0.13205331598E+04  0.50400001928E-02 0.  1.
       -1   -1    0    0    0  501  0.00000000000E+00  0.00000000000E+00 -0.91702415932E+03  0.91702415934E+03  0.50400001928E-02 0. -1.
    10030    2    1    2    0    0  0.00000000000E+00  0.00000000000E+00  0.40350900043E+03  0.22375573191E+04  0.22008732909E+04 0.  0.
        1    1    3    3  502    0 -0.38172893648E+03 -0.59479875449E+03 -0.65578443138E+03  0.96413472075E+03  0.50400001928E-02 0. -1.
       -1    1    3    3    0  502  0.38172893648E+03  0.59479875449E+03  0.10592934318E+04  0.12734225983E+04  0.50400001928E-02 0.  1.
</event>
<event>
 5   0  0.1777590E-04  0.2177605E+04  0.7818609E-02  0.8527808E-01
       -2   -1    0    0    0  501  0.00000000000E+00  0.00000000000E+00  0.68113371612E+03  0.68113371613E+03  0.25500000920E-02 0. -1.
        2   -1    0    0  501    0  0.00000000000E+00  0.00000000000E+00 -0.17404675633E+04  0.17404675633E+04  0.25500000920E-02 0.  1.
    10030    2    1    2    0    0  0.00000000000E+00  0.00000000000E+00 -0.10593338472E+04  0.24216012795E+04  0.21776052344E+04 0.  0.
        4    1    3    3  502    0 -0.72539556715E+03  0.34804606746E+03  0.28612061577E+03  0.85393290930E+03  0.12699999809E+01 0. -1.
       -4    1    3    3    0  502  0.72539556715E+03 -0.34804606746E+03 -0.13454544630E+04  0.15676683701E+04  0.12699999809E+01 0.  1.
</event>
<event>
 5   0  0.8525278E-05  0.2074735E+04  0.7818609E-02  0.8572455E-01
       -1   -1    0    0    0  501  0.00000000000E+00  0.00000000000E+00  0.16129135943E+04  0.16129135943E+04  0.50400001928E-02 0.  1.
        1   -1    0    0  501    0  0.00000000000E+00  0.00000000000E+00 -0.66719723650E+03  0.66719723652E+03  0.50400001928E-02 0. -1.
    10030    2    1    2    0    0  0.00000000000E+00  0.00000000000E+00  0.94571635784E+03  0.22801108309E+04  0.20747351570E+04 0.  0.
        4    1    3    3  502    0 -0.65914107674E+03  0.76155452544E+03  0.74583609693E+03  0.12532778426E+04  0.12699999809E+01 0.  1.
       -4    1    3    3    0  502  0.65914107674E+03 -0.76155452544E+03  0.19988026091E+03  0.10268329883E+04  0.12699999809E+01 0. -1.
</event>
<event>
 5   0  0.1810875E-04  0.2116252E+04  0.7818609E-02  0.8554118E-01
       -2   -1    0    0    0  501  0.00000000000E+00  0.00000000000E+00  0.16979795542E+04  0.16979795542E+04  0.25500000920E-02 0. -1.
        2   -1    0    0  501    0  0.00000000000E+00  0.00000000000E+00 -0.65938970796E+03  0.65938970796E+03  0.25500000920E-02 0.  1.
    10030    2    1    2    0    0  0.00000000000E+00  0.00000000000E+00  0.10385898463E+04  0.23573692622E+04  0.21162516319E+04 0.  0.
        1    1    3    3  502    0 -0.68902439621E+03 -0.42907244708E+03  0.12754372803E+04  0.15118194467E+04  0.50400001928E-02 0. -1.
       -1    1    3    3    0  502  0.68902439621E+03  0.42907244708E+03 -0.23684743406E+03  0.84554981548E+03  0.50400001928E-02 0.  1.
</event>
<event>
 5   0  0.8755004E-05  0.2003744E+04  0.7818609E-02  0.8604872E-01
       -1   -1    0    0    0  501  0.00000000000E+00  0.00000000000E+00  0.93570571666E+03  0.93570571668E+03  0.50400001928E-02 0. -1.
        1   -1    0    0  501    0  0.00000000000E+00  0.00000000000E+00 -0.10727174069E+04  0.10727174069E+04  0.50400001928E-02 0.  1.
    10030    2    1    2    0    0  0.00000000000E+00  0.00000000000E+00 -0.13701169024E+03  0.20084231236E+04  0.20037443051E+04 0.  0.
        3    1    3    3  502    0 -0.84814592059E+03 -0.54886408157E+02 -0.60020067969E+03  0.10404830064E+04  0.10100000352E+00 0.  1.
       -3    1    3    3    0  502  0.84814592059E+03  0.54886408157E+02  0.46318898945E+03  0.96794011724E+03  0.10100000352E+00 0. -1.
</event>
<event>
 5   0  0.1815400E-04  0.2089237E+04  0.7818609E-02  0.8566000E-01
        2   -1    0    0  501    0  0.00000000000E+00  0.00000000000E+00  0.13812800295E+04  0.13812800295E+04  0.25500000920E-02 0. -1.
       -2   -1    0    0    0  501  0.00000000000E+00  0.00000000000E+00 -0.79001176867E+03  0.79001176867E+03  0.25500000920E-02 0.  1.
    10030    2    1    2    0    0  0.00000000000E+00  0.00000000000E+00  0.59126826087E+03  0.21712917982E+04  0.20892366828E+04 0.  0.
        3    1    3    3  502    0  0.25614276288E+03 -0.21603796998E+03  0.13239106199E+04  0.13656576654E+04  0.10100000352E+00 0. -1.
       -3    1    3    3    0  502 -0.25614276288E+03  0.21603796998E+03 -0.73264235904E+03  0.80563413278E+03  0.10100000352E+00 0.  1.
</event>
<event>
 5   0  0.8486612E-05  0.2111328E+04  0.7818609E-02  0.8556270E-01
        1   -1    0    0  501    0  0.00000000000E+00  0.00000000000E+00  0.15602262669E+04  0.15602262669E+04  0.50400001928E-02 0.  1.
       -1   -1    0    0    0  501  0.00000000000E+00  0.00000000000E+00 -0.71427239425E+03  0.71427239427E+03  0.50400001928E-02 0. -1.
    10030    2    1    2    0    0  0.00000000000E+00  0.00000000000E+00  0.84595387267E+03  0.22744986612E+04  0.21113280667E+04 0.  0.
        5    1    3    3  502    0 -0.99064895048E+03 -0.21739262665E+03  0.10749736145E+03  0.10199130698E+04  0.46999998093E+01 0. -1.
       -5    1    3    3    0  502  0.99064895048E+03  0.21739262665E+03  0.73845651122E+03  0.12545855914E+04  0.46999998093E+01 0.  1.
</event>
<event>
 5   0  0.1810875E-04  0.2084255E+04  0.7818609E-02  0.8568211E-01
        2   -1    0    0  501    0  0.00000000000E+00  0.00000000000E+00  0.17574357779E+04  0.17574357779E+04  0.25500000920E-02 0.  1.
       -2   -1    0    0    0  501  0.00000000000E+00  0.00000000000E+00 -0.61796250585E+03  0.61796250585E+03  0.25500000920E-02 0. -1.
    10030    2    1    2    0    0  0.00000000000E+00  0.00000000000E+00  0.11394732721E+04  0.23753982838E+04  0.20842547034E+04 0.  0.
        1    1    3    3  502    0 -0.18217375378E+03 -0.46652214115E+03 -0.47181472652E+03  0.68806927046E+03  0.50400001928E-02 0. -1.
       -1    1    3    3    0  502  0.18217375378E+03  0.46652214115E+03  0.16112879986E+04  0.16873290133E+04  0.50400001928E-02 0.  1.
</event>
<event>
 5   0  0.1815400E-04  0.2133876E+04  0.7818609E-02  0.8546466E-01
       -2   -1    0    0    0  501  0.00000000000E+00  0.00000000000E+00  0.11481285789E+04  0.11481285789E+04  0.25500000920E-02 0.  1.
        2   -1    0    0  501    0  0.00000000000E+00  0.00000000000E+00 -0.99148850183E+03  0.99148850184E+03  0.25500000920E-02 0. -1.
    10030    2    1    2    0    0  0.00000000000E+00  0.00000000000E+00  0.15664007703E+03  0.21396170807E+04  0.21338756145E+04 0.  0.
        3    1    3    3  502    0 -0.92263958239E+03 -0.35201422946E+03  0.48336046135E+03  0.10994613056E+04  0.10100000352E+00 0.  1.
       -3    1    3    3    0  502  0.92263958239E+03  0.35201422946E+03 -0.32672038432E+03  0.10401557751E+04  0.10100000352E+00 0. -1.
</event>
<event>
 5   0  0.6441125E-05  0.2094138E+04  0.7818609E-02  0.8563830E-01
        3   -1    0    0  501    0  0.00000000000E+00  0.00000000000E+00  0.48382950536E+03  0.48382951590E+03  0.10100000352E+00 0. -1.
       -3   -1    0    0    0  501  0.00000000000E+00  0.00000000000E+00 -0.22659922292E+04  0.22659922314E+04  0.10100000352E+00 0.  1.
    10030    2    1    2    0    0  0.00000000000E+00  0.00000000000E+00 -0.17821627238E+04  0.27498217473E+04  0.20941384071E+04 0.  0.
        4    1    3    3  502    0  0.26828320527E+03  0.66626919918E+03 -0.18915096770E+04  0.20232896468E+04  0.12699999809E+01 0.  1.
       -4    1    3    3    0  502 -0.26828320527E+03 -0.66626919918E+03  0.10934695314E+03  0.72653210051E+03  0.12699999809E+01 0. -1.
</event>
<event>
 5   0  0.8525278E-05  0.2201127E+04  0.7818609E-02  0.8517959E-01
       -1   -1    0    0    0  501  0.00000000000E+00  0.00000000000E+00  0.72493453675E+03  0.72493453676E+03  0.50400001928E-02 0.  1.
        1   -1    0    0  501    0  0.00000000000E+00  0.00000000000E+00 -0.16708261124E+04  0.16708261124E+04  0.50400001928E-02 0. -1.
    10030    2    1    2    0    0  0.00000000000E+00  0.00000000000E+00 -0.94589157561E+03  0.23957606491E+04  0.22011265786E+04 0.  0.
        4    1    3    3  502    0 -0.19160894275E+03 -0.18696242910E+03 -0.16348457119E+04  0.16566203704E+04  0.12699999809E+01 0. -1.
       -4    1    3    3    0  502  0.19160894275E+03  0.18696242910E+03  0.68895413631E+03  0.73914027876E+03  0.12699999809E+01 0.  1.
</event>
<event>
 5   0  0.8271069E-05  0.2095670E+04  0.7818609E-02  0.8563153E-01
       -1   -1    0    0    0  501  0.00000000000E+00  0.00000000000E+00  0.69199281753E+03  0.69199281755E+03  0.50400001928E-02 0. -1.
        1   -1    0    0  501    0  0.00000000000E+00  0.00000000000E+00 -0.15866607823E+04  0.15866607823E+04  0.50400001928E-02 0.  1.
    10030    2    1    2    0    0  0.00000000000E+00  0.00000000000E+00 -0.89466796476E+03  0.22786535999E+04  0.20956696927E+04 0.  0.
        2    1    3    3  502    0 -0.56902084354E+03  0.85146200126E+03 -0.68847688608E+03  0.12340067596E+04  0.25500000920E-02 0.  1.
       -2    1    3    3    0  502  0.56902084354E+03 -0.85146200126E+03 -0.20619107868E+03  0.10446468403E+04  0.25500000920E-02 0. -1.
</event>
<event>
 5   0  0.1777590E-04  0.1956824E+04  0.7818609E-02  0.8627077E-01
        2   -1    0    0  501    0  0.00000000000E+00  0.00000000000E+00  0.83735212558E+03  0.83735212559E+03  0.25500000920E-02 0.  1.
       -2   -1    0    0    0  501  0.00000000000E+00  0.00000000000E+00 -0.11432347516E+04  0.11432347516E+04  0.25500000920E-02 0. -1.
    10030    2    1    2    0    0  0.00000000000E+00  0.00000000000E+00 -0.30588262605E+03  0.19805868772E+04  0.19568240078E+04 0.  0.
        4    1    3    3  502    0  0.31414121246E+03  0.27137284460E+02 -0.10904001059E+04  0.11350749479E+04  0.12699999809E+01 0. -1.
       -4    1    3    3    0  502 -0.31414121246E+03 -0.27137284460E+02  0.78451747982E+03  0.84551192932E+03  0.12699999809E+01 0.  1.
</event>
<event>
 5   0  0.1810875E-04  0.2114307E+04  0.7818609E-02  0.8554967E-01
       -2   -1    0    0    0  501  0.00000000000E+00  0.00000000000E+00  0.73486183739E+03  0.73486183740E+03  0.25500000920E-02 0.  1.
        2   -1    0    0  501    0  0.00000000000E+00  0.00000000000E+00 -0.15207934721E+04  0.15207934721E+04  0.25500000920E-02 0. -1.
    10030    2    1    2    0    0  0.00000000000E+00  0.00000000000E+00 -0.78593163475E+03  0.22556553095E+04  0.21143065863E+04 0.  0.
        1    1    3    3  502    0  0.43357260550E+03  0.49562950032E+03 -0.12752602640E+04  0.14352430271E+04  0.50400001928E-02 0. -1.
       -1    1    3    3    0  502 -0.43357260550E+03 -0.49562950032E+03  0.48932862923E+03  0.82041228247E+03  0.50400001928E-02 0.  1.
</event>
<event>
 5   0  0.8237966E-05  0.2019114E+04  0.7818609E-02  0.8597736E-01
        1   -1    0    0  501    0  0.00000000000E+00  0.00000000000E+00  0.17660731097E+04  0.17660731097E+04  0.50400001928E-02 0.  1.
       -1   -1    0    0    0  501  0.00000000000E+00  0.00000000000E+00 -0.57710253187E+03  0.57710253189E+03  0.50400001928E-02 0. -1.
    10030    2    1    2    0    0  0.00000000000E+00  0.00000000000E+00  0.11889705778E+04  0.23431756416E+04  0.20191139275E+04 0.  0.
        1    1    3    3  502    0  0.21980242946E+03 -0.73517139048E+03  0.13558413513E+04  0.15579139422E+04  0.50400001928E-02 0. -1.
       -1    1    3    3    0  502 -0.21980242946E+03  0.73517139048E+03 -0.16687077353E+03  0.78526169934E+03  0.50400001928E-02 0.  1.
</event>
<event>
 5   0  0.1921687E-04  0.1993605E+04  0.7818609E-02  0.8609616E-01
       -2   -1    0    0    0  501  0.00000000000E+00  0.00000000000E+00  0.35463763240E+03  0.35463763240E+03  0.25500000920E-02 0. -1.
        2   -1    0    0  501    0  0.00000000000E+00  0.00000000000E+00 -0.28017755954E+04  0.28017755954E+04  0.25500000920E-02 0.  1.
    10030    2    1    2    0    0  0.00000000000E+00  0.00000000000E+00 -0.24471379630E+04  0.31564132278E+04  0.19936048392E+04 0.  0.
        5    1    3    3  502    0 -0.58042924038E+03 -0.25920243591E+03 -0.24391949910E+04  0.25206702085E+04  0.46999998093E+01 0.  1.
       -5    1    3    3    0  502  0.58042924038E+03  0.25920243591E+03 -0.79429720549E+01  0.63574301936E+03  0.46999998093E+01 0. -1.
</event>
<event>
 5   0  0.8525278E-05  0.2100169E+04  0.7818609E-02  0.8561169E-01
        1   -1    0    0  501    0  0.00000000000E+00  0.00000000000E+00  0.75302531879E+03  0.75302531881E+03  0.50400001928E-02 0.  1.
       -1   -1    0    0    0  501  0.00000000000E+00  0.00000000000E+00 -0.14643299865E+04  0.14643299865E+04  0.50400001928E-02 0. -1.
    10030    2    1    2    0    0  0.00000000000E+00  0.00000000000E+00 -0.71130466766E+03  0.22173553053E+04  0.21001690931E+04 0.  0.
        4    1    3    3  502    0 -0.56354269166E+03  0.76404132554E+03  0.11809001361E+03  0.95670600326E+03  0.12699999809E+01 0.  1.
       -4    1    3    3    0  502  0.56354269166E+03 -0.76404132554E+03 -0.82939468127E+03  0.12606493020E+04  0.12699999809E+01 0. -1.
</event>
<event>
 5   0  0.8755004E-05  0.2070498E+04  0.7818609E-02  0.8574352E-01
       -1   -1    0    0    0  501  0.00000000000E+00  0.00000000000E+00  0.57505887681E+03  0.57505887683E+03  0.50400001928E-02 0.  1.
        1   -1    0    0  501    0  0.00000000000E+00  0.00000000000E+00 -0.18637059143E+04  0.18637059143E+04  0.50400001928E-02 0. -1.
    10030    2    1    2    0    0  0.00000000000E+00  0.00000000000E+00 -0.12886470375E+04  0.24387647912E+04  0.20704981331E+04 0.  0.
        3    1    3    3  502    0  0.29951741835E+03  0.72743964280E+03 -0.14369667848E+04  0.16382163070E+04  0.10100000352E+00 0. -1.
       -3    1    3    3    0  502 -0.29951741835E+03 -0.72743964280E+03  0.14831974728E+03  0.80054848413E+03  0.10100000352E+00 0.  1.
</event>
<event>
 5   0  0.8271069E-05  0.2015997E+04  0.7818609E-02  0.8599178E-01
        1   -1    0    0  501    0  0.00000000000E+00  0.00000000000E+00  0.11018232896E+04  0.11018232896E+04  0.50400001928E-02 0.  1.
       -1   -1    0    0    0  501  0.00000000000E+00  0.00000000000E+00 -0.92216341670E+03  0.92216341671E+03  0.50400001928E-02 0. -1.
    10030    2    1    2    0    0  0.00000000000E+00  0.00000000000E+00  0.17965987286E+03  0.20239867063E+04  0.20159971521E+04 0.  0.
        2    1    3    3  502    0  0.84563026246E+03  0.38178914499E+02 -0.45961673948E+03  0.96322153086E+03  0.25500000920E-02 0. -1.
       -2    1    3    3    0  502 -0.84563026246E+03 -0.38178914499E+02  0.63927661233E+03  0.10607651754E+04  0.25500000920E-02 0.  1.
</event>
<event>
 5   0  0.1777590E-04  0.2163589E+04  0.7818609E-02  0.8533738E-01
        2   -1    0    0  501    0  0.00000000000E+00  0.00000000000E+00  0.12044567475E+04  0.12044567475E+04  0.25500000920E-02 0. -1.
       -2   -1    0    0    0  501  0.00000000000E+00  0.00000000000E+00 -0.97162434104E+03  0.97162434105E+03  0.25500000920E-02 0.  1.
    10030    2    1    2    0    0  0.00000000000E+00  0.00000000000E+00  0.23283240643E+03  0.21760810885E+04  0.21635891418E+04 0.  0.
        4    1    3    3  502    0  0.14440909695E+02  0.65024396741E+03  0.98584467943E+03  0.11810660870E+04  0.12699999809E+01 0. -1.
       -4    1    3    3    0  502 -0.14440909695E+02 -0.65024396741E+03 -0.75301227301E+03  0.99501500151E+03  0.12699999809E+01 0.  1.
</event>
<event>
 5   0  0.8237966E-05  0.2123901E+04  0.7818609E-02  0.8550787E-01
        1   -1    0    0  501    0  0.00000000000E+00  0.00000000000E+00  0.88156932200E+03  0.88156932201E+03  0.50400001928E-02 0. -1.
       -1   -1    0    0    0  501  0.00000000000E+00  0.00000000000E+00 -0.12792395906E+04  0.12792395906E+04  0.50400001928E-02 0.  1.
    10030    2    1    2    0    0  0.00000000000E+00  0.00000000000E+00 -0.39767026857E+03  0.21608089126E+04  0.21239005425E+04 0.  0.
        1    1    3    3  502    0  0.31444274852E+03  0.13051100232E+03 -0.12222133789E+04  0.12687446186E+04  0.50400001928E-02 0.  1.
       -1    1    3    3    0  502 -0.31444274852E+03 -0.13051100232E+03  0.82454311028E+03  0.89206429396E+03  0.50400001928E-02 0. -1.
</event>
<event>
 5   0  0.8755004E-05  0.2079002E+04  0.7818609E-02  0.8570550E-01
        1   -1    0    0  501    0  0.00000000000E+00  0.00000000000E+00  0.13665081984E+04  0.13665081984E+04  0.50400001928E-02 0.  1.
       -1   -1    0    0    0  501  0.00000000000E+00  0.00000000000E+00 -0.79074737921E+03  0.79074737922E+03  0.50400001928E-02 0. -1.
    10030    2    1    2    0    0  0.00000000000E+00  0.00000000000E+00  0.57576081918E+03  0.21572555776E+04  0.20790024306E+04 0.  0.
        3    1    3    3  502    0 -0.26741979415E+03  0.94944130788E+03  0.62826835874E+03  0.11694756450E+04  0.10100000352E+00 0.  1.
       -3    1    3    3    0  502  0.26741979415E+03 -0.94944130788E+03 -0.52507539555E+02  0.98777993264E+03  0.10100000352E+00 0. -1.
</event>
<event>
 5   0  0.1886323E-04  0.1478084E+04  0.7818609E-02  0.8899159E-01
        2   -1    0    0  501    0  0.00000000000E+00  0.00000000000E+00  0.20346009017E+04  0.20346009017E+04  0.25500000920E-02 0. -1.
       -2   -1    0    0    0  501  0.00000000000E+00  0.00000000000E+00 -0.26844715153E+03  0.26844715155E+03  0.25500000920E-02 0.  1.
    10030    2    1    2    0    0  0.00000000000E+00  0.00000000000E+00  0.17661537502E+04  0.23030480533E+04  0.14780836466E+04 0.  0.
        2    1    3    3  502    0  0.21600656206E+03 -0.46968921658E+03  0.60188895201E+02  0.52047045847E+03  0.25500000920E-02 0.  1.
       -2    1    3    3    0  502 -0.21600656206E+03  0.46968921658E+03  0.17059648550E+04  0.17825775948E+04  0.25500000920E-02 0. -1.
</event>
<event>
 5   0  0.1777590E-04  0.2064850E+04  0.7818609E-02  0.8576887E-01
       -2   -1    0    0    0  501  0.00000000000E+00  0.00000000000E+00  0.61267502899E+03  0.61267502899E+03  0.25500000920E-02 0. -1.
        2   -1    0    0  501    0  0.00000000000E+00  0.00000000000E+00 -0.17397503650E+04  0.17397503650E+04  0.25500000920E-02 0.  1.
    10030    2    1    2    0    0  0.00000000000E+00  0.00000000000E+00 -0.11270753360E+04  0.23524253940E+04  0.20648502176E+04 0.  0.
        4    1    3    3  502    0  0.42886344938E+03  0.93840469099E+03 -0.60574872369E+03  0.11964365221E+04  0.12699999809E+01 0. -1.
       -4    1    3    3    0  502 -0.42886344938E+03 -0.93840469099E+03 -0.52132661232E+03  0.11559888719E+04  0.12699999809E+01 0.  1.
</event>
<event>
 5   0  0.8486612E-05  0.2074188E+04  0.7818609E-02  0.8572700E-01
        1   -1    0    0  501    0  0.00000000000E+00  0.00000000000E+00  0.96542121883E+03  0.96542121884E+03  0.50400001928E-02 0. -1.
       -1   -1    0    0    0  501  0.00000000000E+00  0.00000000000E+00 -0.11140873807E+04  0.11140873807E+04  0.50400001928E-02 0.  1.
    10030    2    1    2    0    0  0.00000000000E+00  0.00000000000E+00 -0.14866616185E+03  0.20795085995E+04  0.20741876453E+04 0.  0.
        5    1    3    3  502    0 -0.14356979336E+03  0.67564924071E+03 -0.84989840880E+03  0.10952002453E+04  0.46999998093E+01 0.  1.
       -5    1    3    3    0  502  0.14356979336E+03 -0.67564924071E+03  0.70123224695E+03  0.98430835422E+03  0.46999998093E+01 0. -1.
</event>
<event>
 5   0  0.1777590E-04  0.2085636E+04  0.7818609E-02  0.8567597E-01
        2   -1    0    0  501    0  0.00000000000E+00  0.00000000000E+00  0.20201732470E+04  0.20201732470E+04  0.25500000920E-02 0. -1.
       -2   -1    0    0    0  501  0.00000000000E+00  0.00000000000E+00 -0.53830513050E+03  0.53830513051E+03  0.25500000920E-02 0.  1.
    10030    2    1    2    0    0  0.00000000000E+00  0.00000000000E+00  0.14818681165E+04  0.25584783775E+04  0.20856362323E+04 0.  0.
        4    1    3    3  502    0  0.21011227847E+03 -0.31261636219E+03  0.19338093649E+04  0.19701513729E+04  0.12699999809E+01 0. -1.
       -4    1    3    3    0  502 -0.21011227847E+03  0.31261636219E+03 -0.45194124839E+03  0.58832700462E+03  0.12699999809E+01 0.  1.
</event>
<event>
 5   0  0.8271069E-05  0.2128099E+04  0.7818609E-02  0.8548966E-01
       -1   -1    0    0    0  501  0.00000000000E+00  0.00000000000E+00  0.10017199246E+04  0.10017199246E+04  0.50400001928E-02 0.  1.
        1   -1    0    0  501    0  0.00000000000E+00  0.00000000000E+00 -0.11302573636E+04  0.11302573636E+04  0.50400001928E-02 0. -1.
    10030    2    1    2    0    0  0.00000000000E+00  0.00000000000E+00 -0.12853743894E+03  0.21319772882E+04  0.21280989837E+04 0.  0.
        2    1    3    3  502    0 -0.12948281749E+03 -0.83647638794E+03  0.58168752964E+03  0.10270437818E+04  0.25500000920E-02 0.  1.
       -2    1    3    3    0  502  0.12948281749E+03  0.83647638794E+03 -0.71022496858E+03  0.11049335064E+04  0.25500000920E-02 0. -1.
</event>
<event>
 5   0  0.1921687E-04  0.2079478E+04  0.7818609E-02  0.8570338E-01
        2   -1    0    0  501    0  0.00000000000E+00  0.00000000000E+00  0.11159086704E+04  0.11159086704E+04  0.25500000920E-02 0. -1.
       -2   -1    0    0    0  501  0.00000000000E+00  0.00000000000E+00 -0.96876884295E+03  0.96876884295E+03  0.25500000920E-02 0.  1.
    10030    2    1    2    0    0  0.00000000000E+00  0.00000000000E+00  0.14713982740E+03  0.20846775133E+04  0.20794783494E+04 0.  0.
        5    1    3    3  502    0 -0.37830945678E+03  0.13075090542E+03  0.10355636225E+04  0.11102377901E+04  0.46999998093E+01 0. -1.
       -5    1    3    3    0  502  0.37830945678E+03 -0.13075090542E+03 -0.88842379512E+03  0.97443972317E+03  0.46999998093E+01 0.  1.
</event>
<event>
 5   0  0.8525278E-05  0.2054414E+04  0.7818609E-02  0.8581594E-01
        1   -1    0    0  501    0  0.00000000000E+00  0.00000000000E+00  0.88474529396E+03  0.88474529397E+03  0.50400001928E-02 0.  1.
       -1   -1    0    0    0  501  0.00000000000E+00  0.00000000000E+00 -0.11926081033E+04  0.11926081033E+04  0.50400001928E-02 0. -1.
    10030    2    1    2    0    0  0.00000000000E+00  0.00000000000E+00 -0.30786280935E+03  0.20773533973E+04  0.20544141812E+04 0.  0.
        4    1    3    3  502    0 -0.22605910467E+03  0.64754396285E+03  0.61928779189E+03  0.92408597258E+03  0.12699999809E+01 0.  1.
       -4    1    3    3    0  502  0.22605910467E+03 -0.64754396285E+03 -0.92715060125E+03  0.11532674247E+04  0.12699999809E+01 0. -1.
</event>
<event>
 5   0  0.1815400E-04  0.2057812E+04  0.7818609E-02  0.8580059E-01
       -2   -1    0    0    0  501  0.00000000000E+00  0.00000000000E+00  0.11696811522E+04  0.11696811522E+04  0.25500000920E-02 0. -1.
        2   -1    0    0  501    0  0.00000000000E+00  0.00000000000E+00 -0.90507369963E+03  0.90507369963E+03  0.25500000920E-02 0.  1.
    10030    2    1    2    0    0  0.00000000000E+00  0.00000000000E+00  0.26460745256E+03  0.20747548518E+04  0.20578120884E+04 0.  0.
        3    1    3    3  502    0  0.40781964739E+03 -0.39383830430E+03  0.99798947122E+03  0.11477841564E+04  0.10100000352E+00 0. -1.
       -3    1    3    3    0  502 -0.40781964739E+03  0.39383830430E+03 -0.73338201866E+03  0.92697069546E+03  0.10100000352E+00 0.  1.
</event>
<event>
 5   0  0.8271069E-05  0.2082837E+04  0.7818609E-02  0.8568842E-01
        1   -1    0    0  501    0  0.00000000000E+00  0.00000000000E+00  0.85548384857E+03  0.85548384859E+03  0.50400001928E-02 0. -1.
       -1   -1    0    0    0  501  0.00000000000E+00  0.00000000000E+00 -0.12677646790E+04  0.12677646790E+04  0.50400001928E-02 0.  1.
    10030    2    1    2    0    0  0.00000000000E+00  0.00000000000E+00 -0.41228083039E+03  0.21232485276E+04  0.20828367259E+04 0.  0.
        2    1    3    3  502    0  0.18340600632E+03  0.62460117035E+03  0.62252005079E+03  0.90071948952E+03  0.25500000920E-02 0. -1.
       -2    1    3    3    0  502 -0.18340600632E+03 -0.62460117035E+03 -0.10348008812E+04  0.12225290380E+04  0.25500000920E-02 0.  1.
</event>
<event>
 5   0  0.1886323E-04  0.1892556E+04  0.7818609E-02  0.8658571E-01
        2   -1    0    0  501    0  0.00000000000E+00  0.00000000000E+00  0.17328601325E+04  0.17328601325E+04  0.25500000920E-02 0.  1.
       -2   -1    0    0    0  501  0.00000000000E+00  0.00000000000E+00 -0.51674221757E+03  0.51674221758E+03  0.25500000920E-02 0. -1.
    10030    2    1    2    0    0  0.00000000000E+00  0.00000000000E+00  0.12161179150E+04  0.22496023501E+04  0.18925559306E+04 0.  0.
        2    1    3    3  502    0  0.78657929304E+03  0.30792986210E+03  0.10107952779E+03  0.85073195259E+03  0.25500000920E-02 0. -1.
       -2    1    3    3    0  502 -0.78657929304E+03 -0.30792986210E+03  0.11150383872E+04  0.13988703975E+04  0.25500000920E-02 0.  1.
</event>
<event>
 5   0  0.6441125E-05  0.1720430E+04  0.7818609E-02  0.8749797E-01
       -3   -1    0    0    0  501  0.00000000000E+00  0.00000000000E+00  0.10495638596E+04  0.10495638645E+04  0.10100000352E+00 0.  1.
        3   -1    0    0  501    0  0.00000000000E+00  0.00000000000E+00 -0.70502607850E+03  0.70502608574E+03  0.10100000352E+00 0. -1.
    10030    2    1    2    0    0  0.00000000000E+00  0.00000000000E+00  0.34453778114E+03  0.17545899502E+04  0.17204300657E+04 0.  0.
        3    1    3    3  502    0 -0.41266265000E+03  0.70416188624E+03  0.44939097010E+03  0.93171169304E+03  0.10100000352E+00 0.  1.
       -3    1    3    3    0  502  0.41266265000E+03 -0.70416188624E+03 -0.10485318896E+03  0.82287825720E+03  0.10100000352E+00 0. -1.
</event>
<event>
 5   0  0.1777590E-04  0.2106031E+04  0.7818609E-02  0.8558591E-01
        2   -1    0    0  501    0  0.00000000000E+00  0.00000000000E+00  0.96105714836E+03  0.96105714836E+03  0.25500000920E-02 0. -1.
       -2   -1    0    0    0  501  0.00000000000E+00  0.00000000000E+00 -0.11537725490E+04  0.11537725490E+04  0.25500000920E-02 0.  1.
    10030    2    1    2    0    0  0.00000000000E+00  0.00000000000E+00 -0.19271540066E+03  0.21148296974E+04  0.21060307271E+04 0.  0.
        4    1    3    3  502    0 -0.71455884756E+03  0.60998840360E+03 -0.57390693869E+03  0.11009318718E+04  0.12699999809E+01 0.  1.
       -4    1    3    3    0  502  0.71455884756E+03 -0.60998840360E+03  0.38119153803E+03  0.10138978256E+04  0.12699999809E+01 0. -1.
</event>
<event>
 5   0  0.1921687E-04  0.2104988E+04  0.7818609E-02  0.8559049E-01
        2   -1    0    0  501    0  0.00000000000E+00  0.00000000000E+00  0.11708329761E+04  0.11708329761E+04  0.25500000920E-02 0. -1.
       -2   -1    0    0    0  501  0.00000000000E+00  0.00000000000E+00 -0.94611607446E+03  0.94611607447E+03  0.25500000920E-02 0.  1.
    10030    2    1    2    0    0  0.00000000000E+00  0.00000000000E+00  0.22471690165E+03  0.21169490506E+04  0.21049882653E+04 0.  0.
        5    1    3    3  502    0 -0.68896332440E+03 -0.41959780577E+03  0.79220925151E+03  0.11306415741E+04  0.46999998093E+01 0. -1.
       -5    1    3    3    0  502  0.68896332440E+03  0.41959780577E+03 -0.56749234986E+03  0.98630747646E+03  0.46999998093E+01 0.  1.
</event>
<event>
 5   0  0.8237966E-05  0.2105600E+04  0.7818609E-02  0.8558781E-01
        1   -1    0    0  501    0  0.00000000000E+00  0.00000000000E+00  0.91711673841E+03  0.91711673842E+03  0.50400001928E-02 0.  1.
       -1   -1    0    0    0  501  0.00000000000E+00  0.00000000000E+00 -0.12085568389E+04  0.12085568389E+04  0.50400001928E-02 0. -1.
    10030    2    1    2    0    0  0.00000000000E+00  0.00000000000E+00 -0.29144010051E+03  0.21256735773E+04  0.21055998730E+04 0.  0.
        1    1    3    3  502    0 -0.76350006431E+03 -0.12021481643E+03 -0.86738028390E+03  0.11617798876E+04  0.50400001928E-02 0. -1.
       -1    1    3    3    0  502  0.76350006431E+03  0.12021481643E+03  0.57594018339E+03  0.96389368976E+03  0.50400001928E-02 0.  1.
</event>
<event>
 5   0  0.8271069E-05  0.2076052E+04  0.7818609E-02  0.8571867E-01
       -1   -1    0    0    0  501  0.00000000000E+00  0.00000000000E+00  0.10328340116E+04  0.10328340117E+04  0.50400001928E-02 0. -1.
        1   -1    0    0  501    0  0.00000000000E+00  0.00000000000E+00 -0.10432437103E+04  0.10432437103E+04  0.50400001928E-02 0.  1.
    10030    2    1    2    0    0  0.00000000000E+00  0.00000000000E+00 -0.10409698654E+02  0.20760777220E+04  0.20760516241E+04 0.  0.
        2    1    3    3  502    0 -0.24563588093E+02  0.34583387155E+03  0.97322103860E+03  0.10331329181E+04  0.25500000920E-02 0. -1.
       -2    1    3    3    0  502  0.24563588093E+02 -0.34583387155E+03 -0.98363073725E+03  0.10429448038E+04  0.25500000920E-02 0.  1.
</event>
<event>
 5   0  0.1921687E-04  0.1936712E+04  0.7818609E-02  0.8636795E-01
       -2   -1    0    0    0  501  0.00000000000E+00  0.00000000000E+00  0.10677419037E+04  0.10677419037E+04  0.25500000920E-02 0.  1.
        2   -1    0    0  501    0  0.00000000000E+00  0.00000000000E+00 -0.87822081221E+03  0.87822081222E+03  0.25500000920E-02 0. -1.
    10030    2    1    2    0    0  0.00000000000E+00  0.00000000000E+00  0.18952109147E+03  0.19459627159E+04  0.19367118133E+04 0.  0.
        5    1    3    3  502    0 -0.49113102179E+03  0.26620222262E+03 -0.69997758532E+03  0.89558026655E+03  0.46999998093E+01 0. -1.
       -5    1    3    3    0  502  0.49113102179E+03 -0.26620222262E+03  0.88949867680E+03  0.10503824494E+04  0.46999998093E+01 0.  1.
</event>
<event>
 5   0  0.8755004E-05  0.2177268E+04  0.7818609E-02  0.8527950E-01
        1   -1    0    0  501    0  0.00000000000E+00  0.00000000000E+00  0.76516944474E+03  0.76516944475E+03  0.50400001928E-02 0. -1.
       -1   -1    0    0    0  501  0.00000000000E+00  0.00000000000E+00 -0.15488388672E+04  0.15488388672E+04  0.50400001928E-02 0.  1.
    10030    2    1    2    0    0  0.00000000000E+00  0.00000000000E+00 -0.78366942243E+03  0.23140083119E+04  0.21772681746E+04 0.  0.
        3    1    3    3  502    0  0.97456555042E+03 -0.20688233054E+03  0.74523982439E+02  0.99906563594E+03  0.10100000352E+00 0. -1.
       -3    1    3    3    0  502 -0.97456555042E+03  0.20688233054E+03 -0.85819340487E+03  0.13149426760E+04  0.10100000352E+00 0.  1.
</event>
<event>
 5   0  0.1810875E-04  0.2088197E+04  0.7818609E-02  0.8566460E-01
       -2   -1    0    0    0  501  0.00000000000E+00  0.00000000000E+00  0.98954532030E+03  0.98954532030E+03  0.25500000920E-02 0.  1.
        2   -1    0    0  501    0  0.00000000000E+00  0.00000000000E+00 -0.11016594243E+04  0.11016594243E+04  0.25500000920E-02 0. -1.
    10030    2    1    2    0    0  0.00000000000E+00  0.00000000000E+00 -0.11211410403E+03  0.20912047446E+04  0.20881972396E+04 0.  0.
        1    1    3    3  502    0 -0.70515292926E+03 -0.67397063268E+03  0.31685657002E+03  0.10256096496E+04  0.50400001928E-02 0. -1.
       -1    1    3    3    0  502  0.70515292926E+03  0.67397063268E+03 -0.42897067405E+03  0.10655950950E+04  0.50400001928E-02 0.  1.
</event>
<event>
 5   0  0.8237966E-05  0.1940736E+04  0.7818609E-02  0.8634841E-01
        1   -1    0    0  501    0  0.00000000000E+00  0.00000000000E+00  0.10154349505E+04  0.10154349505E+04  0.50400001928E-02 0.  1.
       -1   -1    0    0    0  501  0.00000000000E+00  0.00000000000E+00 -0.92730098289E+03  0.92730098290E+03  0.50400001928E-02 0. -1.
    10030    2    1    2    0    0  0.00000000000E+00  0.00000000000E+00  0.88133967644E+02  0.19427359334E+04  0.19407357653E+04 0.  0.
        1    1    3    3  502    0 -0.30785571851E+03  0.79541955596E+03 -0.41916951133E+03  0.95035282536E+03  0.50400001928E-02 0. -1.
       -1    1    3    3    0  502  0.30785571851E+03 -0.79541955596E+03  0.50730347897E+03  0.99238310809E+03  0.50400001928E-02 0.  1.
</event>
<event>
 5   0  0.1810875E-04  0.2140797E+04  0.7818609E-02  0.8543482E-01
        2   -1    0    0  501    0  0.00000000000E+00  0.00000000000E+00  0.13671607008E+04  0.13671607008E+04  0.25500000920E-02 0. -1.
       -2   -1    0    0    0  501  0.00000000000E+00  0.00000000000E+00 -0.83805323640E+03  0.83805323641E+03  0.25500000920E-02 0.  1.
    10030    2    1    2    0    0  0.00000000000E+00  0.00000000000E+00  0.52910746436E+03  0.22052139372E+04  0.21407974682E+04 0.  0.
        1    1    3    3  502    0 -0.98853879317E+02  0.30629911081E+03 -0.78702745451E+03  0.85029609485E+03  0.50400001928E-02 0.  1.
       -1    1    3    3    0  502  0.98853879317E+02 -0.30629911081E+03  0.13161349189E+04  0.13549178423E+04  0.50400001928E-02 0. -1.
</event>
<event>
 5   0  0.1810875E-04  0.2041651E+04  0.7818609E-02  0.8587391E-01
        2   -1    0    0  501    0  0.00000000000E+00  0.00000000000E+00  0.82089865859E+03  0.82089865860E+03  0.25500000920E-02 0. -1.
       -2   -1    0    0    0  501  0.00000000000E+00  0.00000000000E+00 -0.12694443322E+04  0.12694443322E+04  0.25500000920E-02 0.  1.
    10030    2    1    2    0    0  0.00000000000E+00  0.00000000000E+00 -0.44854567358E+03  0.20903429908E+04  0.20416514389E+04 0.  0.
        1    1    3    3  502    0  0.38783974503E+03  0.66979192545E+03 -0.90576287157E+03  0.11914055862E+04  0.50400001928E-02 0.  1.
       -1    1    3    3    0  502 -0.38783974503E+03 -0.66979192545E+03  0.45721719799E+03  0.89893740460E+03  0.50400001928E-02 0. -1.
</event>
<event>
 5   0  0.1921687E-04  0.2121366E+04  0.7818609E-02  0.8551889E-01
       -2   -1    0    0    0  501  0.00000000000E+00  0.00000000000E+00  0.74781671143E+03  0.74781671144E+03  0.25500000920E-02 0. -1.
        2   -1    0    0  501    0  0.00000000000E+00  0.00000000000E+00 -0.15044439962E+04  0.15044439962E+04  0.25500000920E-02 0.  1.
    10030    2    1    2    0    0  0.00000000000E+00  0.00000000000E+00 -0.75662728473E+03  0.22522607076E+04  0.21213659390E+04 0.  0.
        5    1    3    3  502    0  0.10349446829E+04 -0.55840757599E+02 -0.13902361409E+03  0.10457429618E+04  0.46999998093E+01 0.  1.
       -5    1    3    3    0  502 -0.10349446829E+04  0.55840757599E+02 -0.61760367065E+03  0.12065177458E+04  0.46999998093E+01 0. -1.
</event>
<event>
 5   0  0.1815400E-04  0.1758048E+04  0.7818609E-02  0.8728933E-01
       -2   -1    0    0    0  501  0.00000000000E+00  0.00000000000E+00  0.51588380508E+03  0.51588380509E+03  0.25500000920E-02 0. -1.
        2   -1    0    0  501    0  0.00000000000E+00  0.00000000000E+00 -0.14977860013E+04  0.14977860013E+04  0.25500000920E-02 0.  1.
    10030    2    1    2    0    0  0.00000000000E+00  0.00000000000E+00 -0.98190219621E+03  0.20136698064E+04  0.17580483970E+04 0.  0.
        3    1    3    3  502    0 -0.45256563163E+03  0.22512258346E+03 -0.13146747319E+04  0.14084976001E+04  0.10100000352E+00 0.  1.
       -3    1    3    3    0  502  0.45256563163E+03 -0.22512258346E+03  0.33277253572E+03  0.60517220628E+03  0.10100000352E+00 0. -1.
</event>
<event>
 5   0  0.8271069E-05  0.2096793E+04  0.7818609E-02  0.8562657E-01
        1   -1    0    0  501    0  0.00000000000E+00  0.00000000000E+00  0.80031638392E+03  0.80031638394E+03  0.50400001928E-02 0.  1.
       -1   -1    0    0    0  501  0.00000000000E+00  0.00000000000E+00 -0.13733763931E+04  0.13733763931E+04  0.50400001928E-02 0. -1.
    10030    2    1    2    0    0  0.00000000000E+00  0.00000000000E+00 -0.57306000917E+03  0.21736927770E+04  0.20967933887E+04 0.  0.
        2    1    3    3  502    0 -0.69916023063E+03 -0.50764456762E+03  0.32905545646E+03  0.92455693636E+03  0.25500000920E-02 0.  1.
       -2    1    3    3    0  502  0.69916023063E+03  0.50764456762E+03 -0.90211546563E+03  0.12491358407E+04  0.25500000920E-02 0. -1.
</event>
<event>
 5   0  0.8755004E-05  0.2058640E+04  0.7818609E-02  0.8579685E-01
        1   -1    0    0  501    0  0.00000000000E+00  0.00000000000E+00  0.94977310418E+03  0.94977310420E+03  0.50400001928E-02 0. -1.
       -1   -1    0    0    0  501  0.00000000000E+00  0.00000000000E+00 -0.11155289710E+04  0.11155289710E+04  0.50400001928E-02 0.  1.
    10030    2    1    2    0    0  0.00000000000E+00  0.00000000000E+00 -0.16575586678E+03  0.20653020752E+04  0.20586397583E+04 0.  0.
        3    1    3    3  502    0  0.54730438415E+03  0.10013367126E+02  0.79164091288E+03  0.96246438977E+03  0.10100000352E+00 0. -1.
       -3    1    3    3    0  502 -0.54730438415E+03 -0.10013367126E+02 -0.95739677966E+03  0.11028376854E+04  0.10100000352E+00 0.  1.
</event>
<event>
 5   0  0.8271069E-05  0.2068699E+04  0.7818609E-02  0.8575158E-01
       -1   -1    0    0    0  501  0.00000000000E+00  0.00000000000E+00  0.14005065312E+04  0.14005065312E+04  0.50400001928E-02 0. -1.
        1   -1    0    0  501    0  0.00000000000E+00  0.00000000000E+00 -0.76392316639E+03  0.76392316641E+03  0.50400001928E-02 0.  1.
    10030    2    1    2    0    0  0.00000000000E+00  0.00000000000E+00  0.63658336477E+03  0.21644296976E+04  0.20686994793E+04 0.  0.
        2    1    3    3  502    0 -0.34959618931E+03  0.27871391855E+03  0.12941815821E+04  0.13692351557E+04  0.25500000920E-02 0. -1.
       -2    1    3    3    0  502  0.34959618931E+03 -0.27871391855E+03 -0.65759821737E+03  0.79519454191E+03  0.25500000920E-02 0.  1.
</event>
<event>
 5   0  0.8237966E-05  0.1590342E+04  0.7818609E-02  0.8826503E-01
       -1   -1    0    0    0  501  0.00000000000E+00  0.00000000000E+00  0.61991948000E+03  0.61991948002E+03  0.50400001928E-02 0.  1.
        1   -1    0    0  501    0  0.00000000000E+00  0.00000000000E+00 -0.10199659457E+04  0.10199659457E+04  0.50400001928E-02 0. -1.
    10030    2    1    2    0    0  0.00000000000E+00  0.00000000000E+00 -0.40004646565E+03  0.16398854257E+04  0.15903417981E+04 0.  0.
        1    1    3    3  502    0  0.52430221219E+03 -0.58724162768E+03 -0.84500887358E+02  0.79176128914E+03  0.50400001928E-02 0. -1.
       -1    1    3    3    0  502 -0.52430221219E+03  0.58724162768E+03 -0.31554557829E+03  0.84812413655E+03  0.50400001928E-02 0.  1.
</event>
<event>
 5   0  0.1810875E-04  0.1970579E+04  0.7818609E-02  0.8620501E-01
        2   -1    0    0  501    0  0.00000000000E+00  0.00000000000E+00  0.10379566233E+04  0.10379566233E+04  0.25500000920E-02 0.  1.
       -2   -1    0    0    0  501  0.00000000000E+00  0.00000000000E+00 -0.93529501766E+03  0.93529501766E+03  0.25500000920E-02 0. -1.
    10030    2    1    2    0    0  0.00000000000E+00  0.00000000000E+00  0.10266160566E+03  0.19732516410E+04  0.19705792634E+04 0.  0.
        1    1    3    3  502    0  0.45057572940E+03  0.16911913285E+03 -0.80958853013E+03  0.94183510083E+03  0.50400001928E-02 0. -1.
       -1    1    3    3    0  502 -0.45057572940E+03 -0.16911913285E+03  0.91225013579E+03  0.10314165401E+04  0.50400001928E-02 0.  1.
</event>
<event>
 5   0  0.8755004E-05  0.2057215E+04  0.7818609E-02  0.8580328E-01
       -1   -1    0    0    0  501  0.00000000000E+00  0.00000000000E+00  0.89900028305E+03  0.89900028306E+03  0.50400001928E-02 0. -1.
        1   -1    0    0  501    0  0.00000000000E+00  0.00000000000E+00 -0.11769000528E+04  0.11769000528E+04  0.50400001928E-02 0.  1.
    10030    2    1    2    0    0  0.00000000000E+00  0.00000000000E+00 -0.27789976971E+03  0.20759003358E+04  0.20572150890E+04 0.  0.
        3    1    3    3  502    0  0.74381700183E+03  0.20524875965E+03  0.54740645231E+03  0.94606797842E+03  0.10100000352E+00 0. -1.
       -3    1    3    3    0  502 -0.74381700183E+03 -0.20524875965E+03 -0.82530622202E+03  0.11298323574E+04  0.10100000352E+00 0.  1.
</event>
<event>
 5   0  0.1886323E-04  0.2086091E+04  0.7818609E-02  0.8567395E-01
       -2   -1    0    0    0  501  0.00000000000E+00  0.00000000000E+00  0.60540963033E+03  0.60540963034E+03  0.25500000920E-02 0.  1.
        2   -1    0    0  501    0  0.00000000000E+00  0.00000000000E+00 -0.17970377457E+04  0.17970377457E+04  0.25500000920E-02 0. -1.
    10030    2    1    2    0    0  0.00000000000E+00  0.00000000000E+00 -0.11916281154E+04  0.24024473761E+04  0.20860910405E+04 0.  0.
        2    1    3    3  502    0 -0.89464320975E+03 -0.11546765127E+03 -0.11988926543E+04  0.15003542407E+04  0.25500000920E-02 0. -1.
       -2    1    3    3    0  502  0.89464320975E+03  0.11546765127E+03  0.72645388814E+01  0.90209313531E+03  0.25500000920E-02 0.  1.
</event>
<event>
 5   0  0.8486612E-05  0.2107164E+04  0.7818609E-02  0.8558094E-01
       -1   -1    0    0    0  501  0.00000000000E+00  0.00000000000E+00  0.78142788918E+03  0.78142788920E+03  0.50400001928E-02 0. -1.
        1   -1    0    0  501    0  0.00000000000E+00  0.00000000000E+00 -0.14205209003E+04  0.14205209003E+04  0.50400001928E-02 0.  1.
    10030    2    1    2    0    0  0.00000000000E+00  0.00000000000E+00 -0.63909301109E+03  0.22019487895E+04  0.21071636374E+04 0.  0.
        5    1    3    3  502    0 -0.23790086601E+03  0.55377590140E+03 -0.12225636206E+04  0.13630658339E+04  0.46999998093E+01 0.  1.
       -5    1    3    3    0  502  0.23790086601E+03 -0.55377590140E+03  0.58347060953E+03  0.83888295560E+03  0.46999998093E+01 0. -1.
</event>
<event>
 5   0  0.1777590E-04  0.2131763E+04  0.7818609E-02  0.8547379E-01
        2   -1    0    0  501    0  0.00000000000E+00  0.00000000000E+00  0.13087400978E+04  0.13087400978E+04  0.25500000920E-02 0. -1.
       -2   -1    0    0    0  501  0.00000000000E+00  0.00000000000E+00 -0.86808947359E+03  0.86808947359E+03  0.25500000920E-02 0.  1.
    10030    2    1    2    0    0  0.00000000000E+00  0.00000000000E+00  0.44065062421E+03  0.21768295714E+04  0.21317631225E+04 0.  0.
        4    1    3    3  502    0  0.29488044480E+02 -0.89637658645E+02 -0.86381496536E+03  0.86895475250E+03  0.12699999809E+01 0.  1.
       -4    1    3    3    0  502 -0.29488044480E+02  0.89637658645E+02  0.13044655896E+04  0.13078748189E+04  0.12699999809E+01 0. -1.
</event>
<event>
 5   0  0.1810875E-04  0.2061311E+04  0.7818609E-02  0.8578480E-01
       -2   -1    0    0    0  501  0.00000000000E+00  0.00000000000E+00  0.90961663036E+03  0.90961663036E+03  0.25500000920E-02 0.  1.
        2   -1    0    0  501    0  0.00000000000E+00  0.00000000000E+00 -0.11678004860E+04  0.11678004860E+04  0.25500000920E-02 0. -1.
    10030    2    1    2    0    0  0.00000000000E+00  0.00000000000E+00 -0.25818385568E+03  0.20774171164E+04  0.20613109839E+04 0.  0.
        1    1    3    3  502    0  0.57490400994E+03  0.15363514464E+03  0.71898922159E+03  0.93330803013E+03  0.50400001928E-02 0.  1.
       -1    1    3    3    0  502 -0.57490400994E+03 -0.15363514464E+03 -0.97717307727E+03  0.11441090863E+04  0.50400001928E-02 0. -1.
</event>
<event>
 5   0  0.1810875E-04  0.2118995E+04  0.7818609E-02  0.8552922E-01
       -2   -1    0    0    0  501  0.00000000000E+00  0.00000000000E+00  0.96489705178E+03  0.96489705179E+03  0.25500000920E-02 0. -1.
        2   -1    0    0  501    0  0.00000000000E+00  0.00000000000E+00 -0.11633731272E+04  0.11633731272E+04  0.25500000920E-02 0.  1.
    10030    2    1    2    0    0  0.00000000000E+00  0.00000000000E+00 -0.19847607545E+03  0.21282701790E+04  0.21189953285E+04 0.  0.
        1    1    3    3  502    0  0.60192138457E+03 -0.70443149700E+03 -0.61529844945E+03  0.11122613313E+04  0.50400001928E-02 0.  1.
       -1    1    3    3    0  502 -0.60192138457E+03  0.70443149700E+03  0.41682237400E+03  0.10160088477E+04  0.50400001928E-02 0. -1.
</event>
<event>
 5   0  0.8525278E-05  0.1770008E+04  0.7818609E-02  0.8722413E-01
        1   -1    0    0  501    0  0.00000000000E+00  0.00000000000E+00  0.53271309101E+03  0.53271309103E+03  0.50400001928E-02 0.  1.
       -1   -1    0    0    0  501  0.00000000000E+00  0.00000000000E+00 -0.14702707752E+04  0.14702707752E+04  0.50400001928E-02 0. -1.
    10030    2    1    2    0    0  0.00000000000E+00  0.00000000000E+00 -0.93755768419E+03  0.20029838662E+04  0.17700084625E+04 0.  0.
        4    1    3    3  502    0 -0.12394022348E+03 -0.87427371139E+03 -0.40168609369E+03  0.97008712608E+03  0.12699999809E+01 0.  1.
       -4    1    3    3    0  502  0.12394022348E+03  0.87427371139E+03 -0.53587159050E+03  0.10328967402E+04  0.12699999809E+01 0. -1.
</event>
<event>
 5   0  0.1777590E-04  0.2073510E+04  0.7818609E-02  0.8573003E-01
        2   -1    0    0  501    0  0.00000000000E+00  0.00000000000E+00  0.64726084907E+03  0.64726084908E+03  0.25500000920E-02 0.  1.
       -2   -1    0    0    0  501  0.00000000000E+00  0.00000000000E+00 -0.16606302482E+04  0.16606302482E+04  0.25500000920E-02 0. -1.
    10030    2    1    2    0    0  0.00000000000E+00  0.00000000000E+00 -0.10133693991E+04  0.23078910972E+04  0.20735100139E+04 0.  0.
        4    1    3    3  502    0  0.21442878592E+03 -0.10123336990E+04 -0.43576318064E+03  0.11228046958E+04  0.12699999809E+01 0.  1.
       -4    1    3    3    0  502 -0.21442878592E+03  0.10123336990E+04 -0.57760621846E+03  0.11850864014E+04  0.12699999809E+01 0. -1.
</event>
<event>
 5   0  0.1777590E-04  0.2051594E+04  0.7818609E-02  0.8582872E-01
       -2   -1    0    0    0  501  0.00000000000E+00  0.00000000000E+00  0.12219587931E+04  0.12219587931E+04  0.25500000920E-02 0.  1.
        2   -1    0    0  501    0  0.00000000000E+00  0.00000000000E+00 -0.86112517101E+03  0.86112517101E+03  0.25500000920E-02 0. -1.
    10030    2    1    2    0    0  0.00000000000E+00  0.00000000000E+00  0.36083362209E+03  0.20830839641E+04  0.20515939897E+04 0.  0.
        4    1    3    3  502    0 -0.58462441222E+03  0.22774495429E+03  0.10044176798E+04  0.11842761316E+04  0.12699999809E+01 0.  1.
       -4    1    3    3    0  502  0.58462441222E+03 -0.22774495429E+03 -0.64358405768E+03  0.89880783250E+03  0.12699999809E+01 0. -1.
</event>
<event>
 5   0  0.8271069E-05  0.2117200E+04  0.7818609E-02  0.8553704E-01
       -1   -1    0    0    0  501  0.00000000000E+00  0.00000000000E+00  0.82066897379E+03  0.82066897380E+03  0.50400001928E-02 0.  1.
        1   -1    0    0  501    0  0.00000000000E+00  0.00000000000E+00 -0.13655122216E+04  0.13655122216E+04  0.50400001928E-02 0. -1.
    10030    2    1    2    0    0  0.00000000000E+00  0.00000000000E+00 -0.54484324784E+03  0.21861811954E+04  0.21171995784E+04 0.  0.
        2    1    3    3  502    0 -0.31393673937E+03  0.64953387528E+03 -0.10723777970E+04  0.12924568352E+04  0.25500000920E-02 0. -1.
       -2    1    3    3    0  502  0.31393673937E+03 -0.64953387528E+03  0.52753454916E+03  0.89372436020E+03  0.25500000920E-02 0.  1.
</event>
<event>
 5   0  0.1810875E-04  0.2123955E+04  0.7818609E-02  0.8550764E-01
       -2   -1    0    0    0  501  0.00000000000E+00  0.00000000000E+00  0.90798827471E+03  0.90798827472E+03  0.25500000920E-02 0.  1.
        2   -1    0    0  501    0  0.00000000000E+00  0.00000000000E+00 -0.12420825313E+04  0.12420825313E+04  0.25500000920E-02 0. -1.
    10030    2    1    2    0    0  0.00000000000E+00  0.00000000000E+00 -0.33409425655E+03  0.21500708060E+04  0.21239551545E+04 0.  0.
        1    1    3    3  502    0  0.86161559731E+02  0.46376739865E+03 -0.11302146890E+04  0.12246996602E+04  0.50400001928E-02 0. -1.
       -1    1    3    3    0  502 -0.86161559731E+02 -0.46376739865E+03  0.79612043246E+03  0.92537114577E+03  0.50400001928E-02 0.  1.
</event>
<event>
 5   0  0.8486612E-05  0.2094180E+04  0.7818609E-02  0.8563811E-01
       -1   -1    0    0    0  501  0.00000000000E+00  0.00000000000E+00  0.12671156854E+04  0.12671156854E+04  0.50400001928E-02 0.  1.
        1   -1    0    0  501    0  0.00000000000E+00  0.00000000000E+00 -0.86527025993E+03  0.86527025994E+03  0.50400001928E-02 0. -1.
    10030    2    1    2    0    0  0.00000000000E+00  0.00000000000E+00  0.40184542551E+03  0.21323859454E+04  0.20941800482E+04 0.  0.
        5    1    3    3  502    0 -0.93449871156E+03 -0.31443419138E+03  0.55979946750E+03  0.11338228417E+04  0.46999998093E+01 0.  1.
       -5    1    3    3    0  502  0.93449871156E+03  0.31443419138E+03 -0.15795404199E+03  0.99856310366E+03  0.46999998093E+01 0. -1.
</event>
<event>
 5   0  0.8486612E-05  0.1888326E+04  0.7818609E-02  0.8660689E-01
       -1   -1    0    0    0  501  0.00000000000E+00  0.00000000000E+00  0.34104906214E+03  0.34104906218E+03  0.50400001928E-02 0.  1.
        1   -1    0    0  501    0  0.00000000000E+00  0.00000000000E+00 -0.26138276501E+04  0.26138276501E+04  0.50400001928E-02 0. -1.
    10030    2    1    2    0    0  0.00000000000E+00  0.00000000000E+00 -0.22727785879E+04  0.29548767123E+04  0.18883256803E+04 0.  0.
        5    1    3    3  502    0  0.65871823300E+03  0.33438829696E+03 -0.21634289891E+03  0.76977372230E+03  0.46999998093E+01 0.  1.
       -5    1    3    3    0  502 -0.65871823300E+03 -0.33438829696E+03 -0.20564356890E+04  0.21851029900E+04  0.46999998093E+01 0. -1.
</event>
<event>
 5   0  0.8486612E-05  0.2157857E+04  0.7818609E-02  0.8536176E-01
        1   -1    0    0  501    0  0.00000000000E+00  0.00000000000E+00  0.11213647746E+04  0.11213647746E+04  0.50400001928E-02 0. -1.
       -1   -1    0    0    0  501  0.00000000000E+00  0.00000000000E+00 -0.10380985402E+04  0.10380985402E+04  0.50400001928E-02 0.  1.
    10030    2    1    2    0    0  0.00000000000E+00  0.00000000000E+00  0.83266234386E+02  0.21594633148E+04  0.21578573961E+04 0.  0.
        5    1    3    3  502    0 -0.10608906551E+04 -0.88928424045E+02  0.21688568602E+03  0.10864891797E+04  0.46999998093E+01 0.  1.
       -5    1    3    3    0  502  0.10608906551E+04  0.88928424045E+02 -0.13361945163E+03  0.10729741351E+04  0.46999998093E+01 0. -1.
</event>
<event>
 5   0  0.8271069E-05  0.2013689E+04  0.7818609E-02  0.8600247E-01
       -1   -1    0    0    0  501  0.00000000000E+00  0.00000000000E+00  0.87787338228E+03  0.87787338229E+03  0.50400001928E-02 0. -1.
        1   -1    0    0  501    0  0.00000000000E+00  0.00000000000E+00 -0.11547629419E+04  0.11547629419E+04  0.50400001928E-02 0.  1.
    10030    2    1    2    0    0  0.00000000000E+00  0.00000000000E+00 -0.27688955963E+03  0.20326363242E+04  0.20136888037E+04 0.  0.
        2    1    3    3  502    0  0.93809269300E+03 -0.19264156878E+03 -0.45218599078E+03  0.10590565825E+04  0.25500000920E-02 0. -1.
       -2    1    3    3    0  502 -0.93809269300E+03  0.19264156878E+03  0.17529643115E+03  0.97357974170E+03  0.25500000920E-02 0.  1.
</event>
<event>
 5   0  0.1815400E-04  0.2047921E+04  0.7818609E-02  0.8584538E-01
       -2   -1    0    0    0  501  0.00000000000E+00  0.00000000000E+00  0.76614050045E+03  0.76614050046E+03  0.25500000920E-02 0. -1.
        2   -1    0    0  501    0  0.00000000000E+00  0.00000000000E+00 -0.13685418346E+04  0.13685418346E+04  0.25500000920E-02 0.  1.
    10030    2    1    2    0    0  0.00000000000E+00  0.00000000000E+00 -0.60240133415E+03  0.21346823351E+04  0.20479212153E+04 0.  0.
        3    1    3    3  502    0 -0.18397871914E+03  0.96644328417E+03 -0.59719304503E+03  0.11508693817E+04  0.10100000352E+00 0.  1.
       -3    1    3    3    0  502  0.18397871914E+03 -0.96644328417E+03 -0.52082891204E+01  0.98381295331E+03  0.10100000352E+00 0. -1.
</event>
<event>
 5   0  0.1921687E-04  0.2064138E+04  0.7818609E-02  0.8577208E-01
        2   -1    0    0  501    0  0.00000000000E+00  0.00000000000E+00  0.11240551579E+04  0.11240551579E+04  0.25500000920E-02 0.  1.
       -2   -1    0    0    0  501  0.00000000000E+00  0.00000000000E+00 -0.94761039872E+03  0.94761039872E+03  0.25500000920E-02 0. -1.
    10030    2    1    2    0    0  0.00000000000E+00  0.00000000000E+00  0.17644475919E+03  0.20716655566E+04  0.20641379376E+04 0.  0.
        5    1    3    3  502    0 -0.94463895333E+03 -0.23245358712E+03 -0.25766007929E+03  0.10063738017E+04  0.46999998093E+01 0. -1.
       -5    1    3    3    0  502  0.94463895333E+03  0.23245358712E+03  0.43410483848E+03  0.10652917549E+04  0.46999998093E+01 0.  1.
</event>
<event>
 5   0  0.1886323E-04  0.2084141E+04  0.7818609E-02  0.8568262E-01
        2   -1    0    0  501    0  0.00000000000E+00  0.00000000000E+00  0.13170240823E+04  0.13170240823E+04  0.25500000920E-02 0. -1.
       -2   -1    0    0    0  501  0.00000000000E+00  0.00000000000E+00 -0.82451868338E+03  0.82451868338E+03  0.25500000920E-02 0.  1.
    10030    2    1    2    0    0  0.00000000000E+00  0.00000000000E+00  0.49250539889E+03  0.21415427656E+04  0.20841410339E+04 0.  0.
        2    1    3    3  502    0 -0.40347884567E+03  0.50543788873E+02 -0.73963161897E+03  0.84404074859E+03  0.25500000920E-02 0.  1.
       -2    1    3    3    0  502  0.40347884567E+03 -0.50543788873E+02  0.12321370179E+04  0.12975020171E+04  0.25500000920E-02 0. -1.
</event>
<event>
 5   0  0.8525278E-05  0.2042902E+04  0.7818609E-02  0.8586821E-01
       -1   -1    0    0    0  501  0.00000000000E+00  0.00000000000E+00  0.43138912315E+03  0.43138912318E+03  0.50400001928E-02 0.  1.
        1   -1    0    0  501    0  0.00000000000E+00  0.00000000000E+00 -0.24186110922E+04  0.24186110922E+04  0.50400001928E-02 0. -1.
    10030    2    1    2    0    0  0.00000000000E+00  0.00000000000E+00 -0.19872219691E+04  0.28500002154E+04  0.20429023651E+04 0.  0.
        4    1    3    3  502    0  0.38154930090E+03  0.75551099358E+03 -0.17913496622E+04  0.19812400046E+04  0.12699999809E+01 0.  1.
       -4    1    3    3    0  502 -0.38154930090E+03 -0.75551099358E+03 -0.19587230684E+03  0.86876021083E+03  0.12699999809E+01 0. -1.
</event>
<event>
 5   0  0.1810875E-04  0.2074240E+04  0.7818609E-02  0.8572677E-01
       -2   -1    0    0    0  501  0.00000000000E+00  0.00000000000E+00  0.66961270317E+03  0.66961270317E+03  0.25500000920E-02 0.  1.
        2   -1    0    0  501    0  0.00000000000E+00  0.00000000000E+00 -0.16063283055E+04  0.16063283055E+04  0.25500000920E-02 0. -1.
    10030    2    1    2    0    0  0.00000000000E+00  0.00000000000E+00 -0.93671560229E+03  0.22759410086E+04  0.20742399464E+04 0.  0.
        1    1    3    3  502    0  0.13671411962E+03  0.95380575431E+03 -0.47409392082E+02  0.96471955404E+03  0.50400001928E-02 0.  1.
       -1    1    3    3    0  502 -0.13671411962E+03 -0.95380575431E+03 -0.88930621021E+03  0.13112214546E+04  0.50400001928E-02 0. -1.
</event>
<event>
 5   0  0.8271069E-05  0.2159962E+04  0.7818609E-02  0.8535280E-01
        1   -1    0    0  501    0  0.00000000000E+00  0.00000000000E+00  0.44002601732E+03  0.44002601735E+03  0.50400001928E-02 0.  1.
       -1   -1    0    0    0  501  0.00000000000E+00  0.00000000000E+00 -0.26506590594E+04  0.26506590594E+04  0.50400001928E-02 0. -1.
    10030    2    1    2    0    0  0.00000000000E+00  0.00000000000E+00 -0.22106330421E+04  0.30906850768E+04  0.21599619897E+04 0.  0.
        2    1    3    3  502    0 -0.35919521339E+03  0.46615603298E+03 -0.24010783598E+04  0.24721448053E+04  0.25500000920E-02 0. -1.
       -2    1    3    3    0  502  0.35919521339E+03 -0.46615603298E+03  0.19044531771E+03  0.61854027148E+03  0.25500000920E-02 0.  1.
</event>
<event>
 5   0  0.8237966E-05  0.2098987E+04  0.7818609E-02  0.8561690E-01
        1   -1    0    0  501    0  0.00000000000E+00  0.00000000000E+00  0.14395811179E+04  0.14395811179E+04  0.50400001928E-02 0.  1.
       -1   -1    0    0    0  501  0.00000000000E+00  0.00000000000E+00 -0.76510886094E+03  0.76510886095E+03  0.50400001928E-02 0. -1.
    10030    2    1    2    0    0  0.00000000000E+00  0.00000000000E+00  0.67447225696E+03  0.22046899789E+04  0.20989866787E+04 0.  0.
        1    1    3    3  502    0 -0.51840623237E+03 -0.51538407916E+03 -0.45372724374E+03  0.86036863178E+03  0.50400001928E-02 0. -1.
       -1    1    3    3    0  502  0.51840623237E+03  0.51538407916E+03  0.11281995007E+04  0.13443213471E+04  0.50400001928E-02 0.  1.
</event>
<event>
 5   0  0.8755004E-05  0.2283424E+04  0.7818609E-02  0.8484485E-01
       -1   -1    0    0    0  501  0.00000000000E+00  0.00000000000E+00  0.62316508104E+03  0.62316508106E+03  0.50400001928E-02 0. -1.
        1   -1    0    0  501    0  0.00000000000E+00  0.00000000000E+00 -0.20917519662E+04  0.20917519662E+04  0.50400001928E-02 0.  1.
    10030    2    1    2    0    0  0.00000000000E+00  0.00000000000E+00 -0.14685868852E+04  0.27149170473E+04  0.22834244315E+04 0.  0.
        3    1    3    3  502    0  0.10944608090E+04 -0.82318684179E+02 -0.36040916268E+03  0.11552123627E+04  0.10100000352E+00 0.  1.
       -3    1    3    3    0  502 -0.10944608090E+04  0.82318684179E+02 -0.11081777225E+04  0.15597046846E+04  0.10100000352E+00 0. -1.
</event>
<event>
 5   0  0.8271069E-05  0.2104933E+04  0.7818609E-02  0.8559073E-01
        1   -1    0    0  501    0  0.00000000000E+00  0.00000000000E+00  0.15899760593E+04  0.15899760594E+04  0.50400001928E-02 0. -1.
       -1   -1    0    0    0  501  0.00000000000E+00  0.00000000000E+00 -0.69666838060E+03  0.69666838062E+03  0.50400001928E-02 0.  1.
    10030    2    1    2    0    0  0.00000000000E+00  0.00000000000E+00  0.89330767874E+03  0.22866444400E+04  0.21049332973E+04 0.  0.
        2    1    3    3  502    0  0.10219937977E+04  0.86786786345E+02  0.70299641703E+03  0.12434658142E+04  0.25500000920E-02 0. -1.
       -2    1    3    3    0  502 -0.10219937977E+04 -0.86786786345E+02  0.19031126171E+03  0.10431786257E+04  0.25500000920E-02 0.  1.
</event>
<event>
 5   0  0.8755004E-05  0.2064950E+04  0.7818609E-02  0.8576842E-01
       -1   -1    0    0    0  501  0.00000000000E+00  0.00000000000E+00  0.66625686930E+03  0.66625686932E+03  0.50400001928E-02 0.  1.
        1   -1    0    0  501    0  0.00000000000E+00  0.00000000000E+00 -0.15999907011E+04  0.15999907011E+04  0.50400001928E-02 0. -1.
    10030    2    1    2    0    0  0.00000000000E+00  0.00000000000E+00 -0.93373383180E+03  0.22662475704E+04  0.20649501645E+04 0.  0.
        3    1    3    3  502    0 -0.19250827909E+02  0.53911202369E+03  0.49928741093E+03  0.73505122092E+03  0.10100000352E+00 0.  1.
       -3    1    3    3    0  502  0.19250827909E+02 -0.53911202369E+03 -0.14330212427E+04  0.15311963495E+04  0.10100000352E+00 0. -1.
</event>
<event>
 5   0  0.8237966E-05  0.2084632E+04  0.7818609E-02  0.8568043E-01
        1   -1    0    0  501    0  0.00000000000E+00  0.00000000000E+00  0.15072262410E+04  0.15072262410E+04  0.50400001928E-02 0.  1.
       -1   -1    0    0    0  501  0.00000000000E+00  0.00000000000E+00 -0.72080954956E+03  0.72080954958E+03  0.50400001928E-02 0. -1.
    10030    2    1    2    0    0  0.00000000000E+00  0.00000000000E+00  0.78641669144E+03  0.22280357906E+04  0.20846324068E+04 0.  0.
        1    1    3    3  502    0 -0.73523715830E+03  0.87680917654E+02  0.11772677509E+04  0.13907627330E+04  0.50400001928E-02 0.  1.
       -1    1    3    3    0  502  0.73523715830E+03 -0.87680917654E+02 -0.39085105943E+03  0.83727305758E+03  0.50400001928E-02 0. -1.
</event>
<event>
 5   0  0.8271069E-05  0.2074547E+04  0.7818609E-02  0.8572539E-01
       -1   -1    0    0    0  501  0.00000000000E+00  0.00000000000E+00  0.43520653100E+03  0.43520653103E+03  0.50400001928E-02 0. -1.
        1   -1    0    0  501    0  0.00000000000E+00  0.00000000000E+00 -0.24722420052E+04  0.24722420053E+04  0.50400001928E-02 0.  1.
    10030    2    1    2    0    0  0.00000000000E+00  0.00000000000E+00 -0.20370354743E+04  0.29074485363E+04  0.20745465692E+04 0.  0.
        2    1    3    3  502    0 -0.97432696573E+03 -0.29730341581E+03 -0.74447964746E+03  0.12617259222E+04  0.25500000920E-02 0. -1.
       -2    1    3    3    0  502  0.97432696573E+03  0.29730341581E+03 -0.12925558268E+04  0.16457226141E+04  0.25500000920E-02 0.  1.
</event>
<event>
 5   0  0.1886323E-04  0.2117929E+04  0.7818609E-02  0.8553386E-01
       -2   -1    0    0    0  501  0.00000000000E+00  0.00000000000E+00  0.54454360853E+03  0.54454360854E+03  0.25500000920E-02 0.  1.
        2   -1    0    0  501    0  0.00000000000E+00  0.00000000000E+00 -0.20593498488E+04  0.20593498488E+04  0.25500000920E-02 0. -1.
    10030    2    1    2    0    0  0.00000000000E+00  0.00000000000E+00 -0.15148062402E+04  0.26038934573E+04  0.21179289864E+04 0.  0.
        2    1    3    3  502    0 -0.32272837332E+03 -0.91993175253E+03 -0.12657751344E+04  0.15976904341E+04  0.25500000920E-02 0. -1.
       -2    1    3    3    0  502  0.32272837332E+03  0.91993175253E+03 -0.24903110581E+03  0.10062030232E+04  0.25500000920E-02 0.  1.
</event>
<event>
 5   0  0.8271069E-05  0.2045730E+04  0.7818609E-02  0.8585534E-01
        1   -1    0    0  501    0  0.00000000000E+00  0.00000000000E+00  0.20297111518E+04  0.20297111518E+04  0.50400001928E-02 0.  1.
       -1   -1    0    0    0  501  0.00000000000E+00  0.00000000000E+00 -0.51546898805E+03  0.51546898807E+03  0.50400001928E-02 0. -1.
    10030    2    1    2    0    0  0.00000000000E+00  0.00000000000E+00  0.15142421637E+04  0.25451801398E+04  0.20457303375E+04 0.  0.
        2    1    3    3  502    0 -0.25620665139E+03 -0.98983342619E+03  0.79320322394E+03  0.12940569594E+04  0.25500000920E-02 0.  1.
       -2    1    3    3    0  502  0.25620665139E+03  0.98983342619E+03  0.72103893976E+03  0.12511231804E+04  0.25500000920E-02 0. -1.
</event>
<event>
 5   0  0.8486612E-05  0.2126434E+04  0.7818609E-02  0.8549687E-01
        1   -1    0    0  501    0  0.00000000000E+00  0.00000000000E+00  0.13340297118E+04  0.13340297118E+04  0.50400001928E-02 0.  1.
       -1   -1    0    0    0  501  0.00000000000E+00  0.00000000000E+00 -0.84738058004E+03  0.84738058006E+03  0.50400001928E-02 0. -1.
    10030    2    1    2    0    0  0.00000000000E+00  0.00000000000E+00  0.48664913178E+03  0.21814102919E+04  0.21264344533E+04 0.  0.
        5    1    3    3  502    0 -0.77280276361E+02  0.61881480947E+03 -0.64004479622E+03  0.89363495942E+03  0.46999998093E+01 0. -1.
       -5    1    3    3    0  502  0.77280276361E+02 -0.61881480947E+03  0.11266939280E+04  0.12877753325E+04  0.46999998093E+01 0.  1.
</event>
<event>
 5   0  0.6441125E-05  0.2127405E+04  0.7818609E-02  0.8549267E-01
       -3   -1    0    0    0  501  0.00000000000E+00  0.00000000000E+00  0.14189576401E+04  0.14189576437E+04  0.10100000352E+00 0. -1.
        3   -1    0    0  501    0  0.00000000000E+00  0.00000000000E+00 -0.79738995259E+03  0.79738995899E+03  0.10100000352E+00 0.  1.
    10030    2    1    2    0    0  0.00000000000E+00  0.00000000000E+00  0.62156768751E+03  0.22163476027E+04  0.21274045938E+04 0.  0.
        5    1    3    3  502    0  0.48748597836E+03 -0.74537037507E+02 -0.67108497323E+03  0.83281179167E+03  0.46999998093E+01 0.  1.
       -5    1    3    3    0  502 -0.48748597836E+03  0.74537037507E+02  0.12926526607E+04  0.13835358110E+04  0.46999998093E+01 0. -1.
</event>
<event>
 5   0  0.1815400E-04  0.2125945E+04  0.7818609E-02  0.8549900E-01
        2   -1    0    0  501    0  0.00000000000E+00  0.00000000000E+00  0.99484946399E+03  0.99484946399E+03  0.25500000920E-02 0.  1.
       -2   -1    0    0    0  501  0.00000000000E+00  0.00000000000E+00 -0.11357605949E+04  0.11357605949E+04  0.25500000920E-02 0. -1.
    10030    2    1    2    0    0  0.00000000000E+00  0.00000000000E+00 -0.14091113091E+03  0.21306100589E+04  0.21259452665E+04 0.  0.
        3    1    3    3  502    0  0.88070346755E+03 -0.30510765378E+03  0.44172503538E+03  0.10314311878E+04  0.10100000352E+00 0.  1.
       -3    1    3    3    0  502 -0.88070346755E+03  0.30510765378E+03 -0.58263616629E+03  0.10991788711E+04  0.10100000352E+00 0. -1.
</event>
<event>
 5   0  0.1815400E-04  0.2052124E+04  0.7818609E-02  0.8582631E-01
        2   -1    0    0  501    0  0.00000000000E+00  0.00000000000E+00  0.99582567873E+03  0.99582567874E+03  0.25500000920E-02 0. -1.
       -2   -1    0    0    0  501  0.00000000000E+00  0.00000000000E+00 -0.10572162572E+04  0.10572162572E+04  0.25500000920E-02 0.  1.
    10030    2    1    2    0    0  0.00000000000E+00  0.00000000000E+00 -0.61390578441E+02  0.20530419359E+04  0.20521238724E+04 0.  0.
        3    1    3    3  502    0  0.69372319154E+03 -0.59619447332E+03 -0.49577245570E+03  0.10404278228E+04  0.10100000352E+00 0.  1.
       -3    1    3    3    0  502 -0.69372319154E+03  0.59619447332E+03  0.43438187726E+03  0.10126141131E+04  0.10100000352E+00 0. -1.
</event>
<event>
 5   0  0.1777590E-04  0.1716934E+04  0.7818609E-02  0.8751765E-01
       -2   -1    0    0    0  501  0.00000000000E+00  0.00000000000E+00  0.46630335748E+03  0.46630335749E+03  0.25500000920E-02 0.  1.
        2   -1    0    0  501    0  0.00000000000E+00  0.00000000000E+00 -0.15804421636E+04  0.15804421636E+04  0.25500000920E-02 0. -1.
    10030    2    1    2    0    0  0.00000000000E+00  0.00000000000E+00 -0.11141388061E+04  0.20467455210E+04  0.17169338801E+04 0.  0.
        4    1    3    3  502    0  0.43160746484E+03 -0.55068910921E+03 -0.11500329684E+04  0.13461504151E+04  0.12699999809E+01 0. -1.
       -4    1    3    3    0  502 -0.43160746484E+03  0.55068910921E+03  0.35894162347E+02  0.70059510596E+03  0.12699999809E+01 0.  1.
</event>
<event>
 5   0  0.1815400E-04  0.2054516E+04  0.7818609E-02  0.8581548E-01
       -2   -1    0    0    0  501  0.00000000000E+00  0.00000000000E+00  0.69254862104E+03  0.69254862105E+03  0.25500000920E-02 0.  1.
        2   -1    0    0  501    0  0.00000000000E+00  0.00000000000E+00 -0.15237329996E+04  0.15237329996E+04  0.25500000920E-02 0. -1.
    10030    2    1    2    0    0  0.00000000000E+00  0.00000000000E+00 -0.83118437860E+03  0.22162816207E+04  0.20545161842E+04 0.  0.
        3    1    3    3  502    0  0.25997276162E+02 -0.10269256243E+04 -0.41272160825E+03  0.11070642404E+04  0.10100000352E+00 0.  1.
       -3    1    3    3    0  502 -0.25997276162E+02  0.10269256243E+04 -0.41846277034E+03  0.11092173803E+04  0.10100000352E+00 0. -1.
</event>
<event>
 5   0  0.1810875E-04  0.2137126E+04  0.7818609E-02  0.8545063E-01
        2   -1    0    0  501    0  0.00000000000E+00  0.00000000000E+00  0.14109886538E+04  0.14109886538E+04  0.25500000920E-02 0. -1.
       -2   -1    0    0    0  501  0.00000000000E+00  0.00000000000E+00 -0.80923913489E+03  0.80923913489E+03  0.25500000920E-02 0.  1.
    10030    2    1    2    0    0  0.00000000000E+00  0.00000000000E+00  0.60174951893E+03  0.22202277887E+04  0.21371263300E+04 0.  0.
        1    1    3    3  502    0 -0.71903023196E+03  0.77858800658E+03  0.15910038269E+03  0.10716887096E+04  0.50400001928E-02 0.  1.
       -1    1    3    3    0  502  0.71903023196E+03 -0.77858800658E+03  0.44264913624E+03  0.11485390791E+04  0.50400001928E-02 0. -1.
</event>
<event>
 5   0  0.1921687E-04  0.2125891E+04  0.7818609E-02  0.8549923E-01
        2   -1    0    0  501    0  0.00000000000E+00  0.00000000000E+00  0.67804340118E+03  0.67804340118E+03  0.25500000920E-02 0. -1.
       -2   -1    0    0    0  501  0.00000000000E+00  0.00000000000E+00 -0.16663431804E+04  0.16663431804E+04  0.25500000920E-02 0.  1.
    10030    2    1    2    0    0  0.00000000000E+00  0.00000000000E+00 -0.98829977917E+03  0.23443865815E+04  0.21258908698E+04 0.  0.
        5    1    3    3  502    0  0.44994388492E+03  0.92771170172E+03 -0.20927337092E+03  0.10521007247E+04  0.46999998093E+01 0. -1.
       -5    1    3    3    0  502 -0.44994388492E+03 -0.92771170172E+03 -0.77902640825E+03  0.12922858569E+04  0.46999998093E+01 0.  1.
</event>
<event>
 5   0  0.1921687E-04  0.1835540E+04  0.7818609E-02  0.8687625E-01
       -2   -1    0    0    0  501  0.00000000000E+00  0.00000000000E+00  0.78067504419E+03  0.78067504419E+03  0.25500000920E-02 0. -1.
        2   -1    0    0  501    0  0.00000000000E+00  0.00000000000E+00 -0.10789403499E+04  0.10789403499E+04  0.25500000920E-02 0.  1.
    10030    2    1    2    0    0  0.00000000000E+00  0.00000000000E+00 -0.29826530572E+03  0.18596153941E+04  0.18355400353E+04 0.  0.
        5    1    3    3  502    0  0.39148559274E+03  0.28838301615E+03 -0.93770810668E+03  0.10562879895E+04  0.46999998093E+01 0.  1.
       -5    1    3    3    0  502 -0.39148559274E+03 -0.28838301615E+03  0.63944280097E+03  0.80332740464E+03  0.46999998093E+01 0. -1.
</event>
<event>
 5   0  0.8755004E-05  0.2106115E+04  0.7818609E-02  0.8558554E-01
        1   -1    0    0  501    0  0.00000000000E+00  0.00000000000E+00  0.69122611874E+03  0.69122611876E+03  0.50400001928E-02 0. -1.
       -1   -1    0    0    0  501  0.00000000000E+00  0.00000000000E+00 -0.16042941352E+04  0.16042941352E+04  0.50400001928E-02 0.  1.
    10030    2    1    2    0    0  0.00000000000E+00  0.00000000000E+00 -0.91306801648E+03  0.22955202540E+04  0.21061149147E+04 0.  0.
        3    1    3    3  502    0 -0.31269622708E+03  0.98625992206E+03 -0.67023399915E+03  0.12327616104E+04  0.10100000352E+00 0.  1.
       -3    1    3    3    0  502  0.31269622708E+03 -0.98625992206E+03 -0.24283401733E+03  0.10627586436E+04  0.10100000352E+00 0. -1.
</event>
<event>
 5   0  0.8237966E-05  0.2078695E+04  0.7818609E-02  0.8570687E-01
        1   -1    0    0  501    0  0.00000000000E+00  0.00000000000E+00  0.85484543030E+03  0.85484543031E+03  0.50400001928E-02 0. -1.
       -1   -1    0    0    0  501  0.00000000000E+00  0.00000000000E+00 -0.12636708702E+04  0.12636708702E+04  0.50400001928E-02 0.  1.
    10030    2    1    2    0    0  0.00000000000E+00  0.00000000000E+00 -0.40882543991E+03  0.21185163005E+04  0.20786950414E+04 0.  0.
        1    1    3    3  502    0 -0.46798473286E+03 -0.65907706867E+03 -0.87026695960E+03  0.11877528672E+04  0.50400001928E-02 0.  1.
       -1    1    3    3    0  502  0.46798473286E+03  0.65907706867E+03  0.46144151969E+03  0.93076343329E+03  0.50400001928E-02 0. -1.
</event>
<event>
 5   0  0.8755004E-05  0.2099412E+04  0.7818609E-02  0.8561502E-01
       -1   -1    0    0    0  501  0.00000000000E+00  0.00000000000E+00  0.53066123668E+03  0.53066123670E+03  0.50400001928E-02 0. -1.
        1   -1    0    0  501    0  0.00000000000E+00  0.00000000000E+00 -0.20764340806E+04  0.20764340806E+04  0.50400001928E-02 0.  1.
    10030    2    1    2    0    0  0.00000000000E+00  0.00000000000E+00 -0.15457728439E+04  0.26070953173E+04  0.20994123722E+04 0.  0.
        3    1    3    3  502    0  0.88612996946E+03  0.14482820533E+02 -0.14714559592E+04  0.17177365121E+04  0.10100000352E+00 0.  1.
       -3    1    3    3    0  502 -0.88612996946E+03 -0.14482820533E+02 -0.74316884709E+02  0.88935880522E+03  0.10100000352E+00 0. -1.
</event>
<event>
 5   0  0.8237966E-05  0.2078423E+04  0.7818609E-02  0.8570808E-01
       -1   -1    0    0    0  501  0.00000000000E+00  0.00000000000E+00  0.83911481526E+03  0.83911481527E+03  0.50400001928E-02 0.  1.
        1   -1    0    0  501    0  0.00000000000E+00  0.00000000000E+00 -0.12870233350E+04  0.12870233350E+04  0.50400001928E-02 0. -1.
    10030    2    1    2    0    0  0.00000000000E+00  0.00000000000E+00 -0.44790851974E+03  0.21261381503E+04  0.20784228136E+04 0.  0.
        1    1    3    3  502    0 -0.71667507172E+03 -0.69689019916E+03  0.66611115595E+02  0.10018563514E+04  0.50400001928E-02 0.  1.
       -1    1    3    3    0  502  0.71667507172E+03  0.69689019916E+03 -0.51451963534E+03  0.11242817989E+04  0.50400001928E-02 0. -1.
</event>
<event>
 5   0  0.8525278E-05  0.2095176E+04  0.7818609E-02  0.8563371E-01
        1   -1    0    0  501    0  0.00000000000E+00  0.00000000000E+00  0.17033961181E+04  0.17033961181E+04  0.50400001928E-02 0. -1.
       -1   -1    0    0    0  501  0.00000000000E+00  0.00000000000E+00 -0.64426621744E+03  0.64426621746E+03  0.50400001928E-02 0.  1.
    10030    2    1    2    0    0  0.00000000000E+00  0.00000000000E+00  0.10591299007E+04  0.23476623356E+04  0.20951759581E+04 0.  0.
        4    1    3    3  502    0  0.36850839120E+03  0.93687132626E+03  0.85415024091E+03  0.13202653382E+04  0.12699999809E+01 0. -1.
       -4    1    3    3    0  502 -0.36850839120E+03 -0.93687132626E+03  0.20497965975E+03  0.10273969973E+04  0.12699999809E+01 0.  1.
</event>
<event>
 5   0  0.1777590E-04  0.2112438E+04  0.7818609E-02  0.8555784E-01
        2   -1    0    0  501    0  0.00000000000E+00  0.00000000000E+00  0.16349406351E+04  0.16349406351E+04  0.25500000920E-02 0.  1.
       -2   -1    0    0    0  501  0.00000000000E+00  0.00000000000E+00 -0.68234792310E+03  0.68234792310E+03  0.25500000920E-02 0. -1.
    10030    2    1    2    0    0  0.00000000000E+00  0.00000000000E+00  0.95259271203E+03  0.23172885582E+04  0.21124377830E+04 0.  0.
        4    1    3    3  502    0 -0.10535095598E+04  0.66825538242E+02  0.51505988208E+03  0.11745792184E+04  0.12699999809E+01 0. -1.
       -4    1    3    3    0  502  0.10535095598E+04 -0.66825538242E+02  0.43753282995E+03  0.11427093399E+04  0.12699999809E+01 0.  1.
</event>
<event>
 5   0  0.1921687E-04  0.2035260E+04  0.7818609E-02  0.8590310E-01
        2   -1    0    0  501    0  0.00000000000E+00  0.00000000000E+00  0.94774366694E+03  0.94774366694E+03  0.25500000920E-02 0. -1.
       -2   -1    0    0    0  501  0.00000000000E+00  0.00000000000E+00 -0.10926702209E+04  0.10926702209E+04  0.25500000920E-02 0.  1.
    10030    2    1    2    0    0  0.00000000000E+00  0.00000000000E+00 -0.14492655400E+03  0.20404138879E+04  0.20352604570E+04 0.  0.
        5    1    3    3  502    0 -0.34314622707E+03  0.13266539409E+03 -0.10236542510E+04  0.10877681534E+04  0.46999998093E+01 0.  1.
       -5    1    3    3    0  502  0.34314622707E+03 -0.13266539409E+03  0.87872769701E+03  0.95264573448E+03  0.46999998093E+01 0. -1.
</event>
<event>
 5   0  0.8237966E-05  0.2051388E+04  0.7818609E-02  0.8582965E-01
        1   -1    0    0  501    0  0.00000000000E+00  0.00000000000E+00  0.11700848566E+04  0.11700848566E+04  0.50400001928E-02 0.  1.
       -1   -1    0    0    0  501  0.00000000000E+00  0.00000000000E+00 -0.89912107557E+03  0.89912107559E+03  0.50400001928E-02 0. -1.
    10030    2    1    2    0    0  0.00000000000E+00  0.00000000000E+00  0.27096378101E+03  0.20692059322E+04  0.20513877788E+04 0.  0.
        1    1    3    3  502    0  0.18653745693E+02 -0.43678864543E+03 -0.80043278609E+03  0.91204436739E+03  0.50400001928E-02 0. -1.
       -1    1    3    3    0  502 -0.18653745693E+02  0.43678864543E+03  0.10713965671E+04  0.11571615648E+04  0.50400001928E-02 0.  1.
</event>
<event>
 5   0  0.1815400E-04  0.2064831E+04  0.7818609E-02  0.8576896E-01
       -2   -1    0    0    0  501  0.00000000000E+00  0.00000000000E+00  0.78796070233E+03  0.78796070234E+03  0.25500000920E-02 0.  1.
        2   -1    0    0  501    0  0.00000000000E+00  0.00000000000E+00 -0.13527098588E+04  0.13527098588E+04  0.25500000920E-02 0. -1.
    10030    2    1    2    0    0  0.00000000000E+00  0.00000000000E+00 -0.56474915645E+03  0.21406705611E+04  0.20648314317E+04 0.  0.
        3    1    3    3  502    0  0.78662722258E+03  0.19410073571E+03  0.38098997738E+03  0.89532723401E+03  0.10100000352E+00 0.  1.
       -3    1    3    3    0  502 -0.78662722258E+03 -0.19410073571E+03 -0.94573913383E+03  0.12453433271E+04  0.10100000352E+00 0. -1.
</event>
<event>
 5   0  0.1810875E-04  0.2037414E+04  0.7818609E-02  0.8589326E-01
        2   -1    0    0  501    0  0.00000000000E+00  0.00000000000E+00  0.11863645250E+04  0.11863645250E+04  0.25500000920E-02 0. -1.
       -2   -1    0    0    0  501  0.00000000000E+00  0.00000000000E+00 -0.87474257257E+03  0.87474257257E+03  0.25500000920E-02 0.  1.
    10030    2    1    2    0    0  0.00000000000E+00  0.00000000000E+00  0.31162195242E+03  0.20611070976E+04  0.20374136120E+04 0.  0.
        1    1    3    3  502    0  0.28737345676E+03  0.94993566365E+03  0.38827070437E+03  0.10656994926E+04  0.50400001928E-02 0. -1.
       -1    1    3    3    0  502 -0.28737345676E+03 -0.94993566365E+03 -0.76648751950E+02  0.99540760492E+03  0.50400001928E-02 0.  1.
</event>
<event>
 5   0  0.1886323E-04  0.2334529E+04  0.7818609E-02  0.8464430E-01
        2   -1    0    0  501    0  0.00000000000E+00  0.00000000000E+00  0.17539370474E+04  0.17539370474E+04  0.25500000920E-02 0.  1.
       -2   -1    0    0    0  501  0.00000000000E+00  0.00000000000E+00 -0.77682718381E+03  0.77682718382E+03  0.25500000920E-02 0. -1.
    10030    2    1    2    0    0  0.00000000000E+00  0.00000000000E+00  0.97710986356E+03  0.25307642312E+04  0.23345286266E+04 0.  0.
        2    1    3    3  502    0  0.11473504479E+04  0.13955210847E+03  0.31169017433E+03  0.11970959051E+04  0.25500000920E-02 0. -1.
       -2    1    3    3    0  502 -0.11473504479E+04 -0.13955210847E+03  0.66541968924E+03  0.13336683261E+04  0.25500000920E-02 0.  1.
</event>
<event>
 5   0  0.8271069E-05  0.1965694E+04  0.7818609E-02  0.8622830E-01
        1   -1    0    0  501    0  0.00000000000E+00  0.00000000000E+00  0.87959108696E+03  0.87959108698E+03  0.50400001928E-02 0.  1.
       -1   -1    0    0    0  501  0.00000000000E+00  0.00000000000E+00 -0.10982241545E+04  0.10982241546E+04  0.50400001928E-02 0. -1.
    10030    2    1    2    0    0  0.00000000000E+00  0.00000000000E+00 -0.21863306758E+03  0.19778152415E+04  0.19656939516E+04 0.  0.
        2    1    3    3  502    0  0.16914927702E+03  0.42024847892E+03  0.76828204718E+03  0.89189549050E+03  0.25500000920E-02 0.  1.
       -2    1    3    3    0  502 -0.16914927702E+03 -0.42024847892E+03 -0.98691511476E+03  0.10859197510E+04  0.25500000920E-02 0. -1.
</event>
<event>
 5   0  0.8525278E-05  0.1995188E+04  0.7818609E-02  0.8608874E-01
       -1   -1    0    0    0  501  0.00000000000E+00  0.00000000000E+00  0.11647588125E+04  0.11647588126E+04  0.50400001928E-02 0. -1.
        1   -1    0    0  501    0  0.00000000000E+00  0.00000000000E+00 -0.85442085906E+03  0.85442085908E+03  0.50400001928E-02 0.  1.
    10030    2    1    2    0    0  0.00000000000E+00  0.00000000000E+00  0.31033795348E+03  0.20191796716E+04  0.19951884375E+04 0.  0.
        4    1    3    3  502    0 -0.79538277516E+03 -0.14380599251E+03 -0.43656575581E+03  0.91864312687E+03  0.12699999809E+01 0.  1.
       -4    1    3    3    0  502  0.79538277516E+03  0.14380599251E+03  0.74690370928E+03  0.11005365448E+04  0.12699999809E+01 0. -1.
</event>
<event>
 5   0  0.1921687E-04  0.2085380E+04  0.7818609E-02  0.8567711E-01
       -2   -1    0    0    0  501  0.00000000000E+00  0.00000000000E+00  0.17632536356E+04  0.17632536357E+04  0.25500000920E-02 0.  1.
        2   -1    0    0  501    0  0.00000000000E+00  0.00000000000E+00 -0.61658879985E+03  0.61658879985E+03  0.25500000920E-02 0. -1.
    10030    2    1    2    0    0  0.00000000000E+00  0.00000000000E+00  0.11466648358E+04  0.23798424355E+04  0.20853800067E+04 0.  0.
        5    1    3    3  502    0 -0.56360491226E+03 -0.20471010305E+03  0.15467885741E+04  0.16589556071E+04  0.46999998093E+01 0.  1.
       -5    1    3    3    0  502  0.56360491226E+03  0.20471010305E+03 -0.40012373828E+03  0.72088682840E+03  0.46999998093E+01 0. -1.
</event>
<event>
 5   0  0.8271069E-05  0.2095135E+04  0.7818609E-02  0.8563389E-01
        1   -1    0    0  501    0  0.00000000000E+00  0.00000000000E+00  0.95329516334E+03  0.95329516335E+03  0.50400001928E-02 0. -1.
       -1   -1    0    0    0  501  0.00000000000E+00  0.00000000000E+00 -0.11511627620E+04  0.11511627621E+04  0.50400001928E-02 0.  1.
    10030    2    1    2    0    0  0.00000000000E+00  0.00000000000E+00 -0.19786759871E+03  0.21044579254E+04  0.20951352160E+04 0.  0.
        2    1    3    3  502    0 -0.38525062677E+03  0.16607406450E+03  0.86523287965E+03  0.96157504978E+03  0.25500000920E-02 0. -1.
       -2    1    3    3    0  502  0.38525062677E+03 -0.16607406450E+03 -0.10631004784E+04  0.11428828756E+04  0.25500000920E-02 0.  1.
</event>
<event>
 5   0  0.8486612E-05  0.2064985E+04  0.7818609E-02  0.8576827E-01
        1   -1    0    0  501    0  0.00000000000E+00  0.00000000000E+00  0.18207858548E+04  0.18207858548E+04  0.50400001928E-02 0. -1.
       -1   -1    0    0    0  501  0.00000000000E+00  0.00000000000E+00 -0.58548393247E+03  0.58548393249E+03  0.50400001928E-02 0.  1.
    10030    2    1    2    0    0  0.00000000000E+00  0.00000000000E+00  0.12353019223E+04  0.24062697873E+04  0.20649850968E+04 0.  0.
        5    1    3    3  502    0 -0.92853460559E+03 -0.13636392035E+03  0.11611375970E+03  0.94566174066E+03  0.46999998093E+01 0. -1.
       -5    1    3    3    0  502  0.92853460559E+03  0.13636392035E+03  0.11191881626E+04  0.14606080466E+04  0.46999998093E+01 0.  1.
</event>
<event>
 5   0  0.8525278E-05  0.2208025E+04  0.7818609E-02  0.8515095E-01
       -1   -1    0    0    0  501  0.00000000000E+00  0.00000000000E+00  0.12084790441E+04  0.12084790441E+04  0.50400001928E-02 0. -1.
        1   -1    0    0  501    0  0.00000000000E+00  0.00000000000E+00 -0.10085765052E+04  0.10085765052E+04  0.50400001928E-02 0.  1.
    10030    2    1    2    0    0  0.00000000000E+00  0.00000000000E+00  0.19990253890E+03  0.22170555493E+04  0.22080249735E+04 0.  0.
        4    1    3    3  502    0 -0.24803883052E+03 -0.10631354575E+04  0.26512846818E+03  0.11234211053E+04  0.12699999809E+01 0.  1.
       -4    1    3    3    0  502  0.24803883052E+03  0.10631354575E+04 -0.65225929278E+02  0.10936344440E+04  0.12699999809E+01 0. -1.
</event>
<event>
 5   0  0.8755004E-05  0.2086469E+04  0.7818609E-02  0.8567227E-01
        1   -1    0    0  501    0  0.00000000000E+00  0.00000000000E+00  0.13569891190E+04  0.13569891190E+04  0.50400001928E-02 0.  1.
       -1   -1    0    0    0  501  0.00000000000E+00  0.00000000000E+00 -0.80202465157E+03  0.80202465159E+03  0.50400001928E-02 0. -1.
    10030    2    1    2    0    0  0.00000000000E+00  0.00000000000E+00  0.55496446740E+03  0.21590137706E+04  0.20864694825E+04 0.  0.
        3    1    3    3  502    0 -0.12990856596E+03  0.68594070648E+03  0.10796436337E+04  0.12856987495E+04  0.10100000352E+00 0.  1.
       -3    1    3    3    0  502  0.12990856596E+03 -0.68594070648E+03 -0.52467916633E+03  0.87331502111E+03  0.10100000352E+00 0. -1.
</event>
<event>
 5   0  0.8486612E-05  0.2050224E+04  0.7818609E-02  0.8583493E-01
        1   -1    0    0  501    0  0.00000000000E+00  0.00000000000E+00  0.16228748369E+04  0.16228748369E+04  0.50400001928E-02 0. -1.
       -1   -1    0    0    0  501  0.00000000000E+00  0.00000000000E+00 -0.64752665785E+03  0.64752665787E+03  0.50400001928E-02 0.  1.
    10030    2    1    2    0    0  0.00000000000E+00  0.00000000000E+00  0.97534817907E+03  0.22704014948E+04  0.20502241041E+04 0.  0.
        5    1    3    3  502    0 -0.55047707660E+03  0.41792236376E+00 -0.46995255364E+03  0.72381121792E+03  0.46999998093E+01 0.  1.
       -5    1    3    3    0  502  0.55047707660E+03 -0.41792236376E+00  0.14453007327E+04  0.15465902769E+04  0.46999998093E+01 0. -1.
</event>
<event>
 5   0  0.8237966E-05  0.2093629E+04  0.7818609E-02  0.8564055E-01
       -1   -1    0    0    0  501  0.00000000000E+00  0.00000000000E+00  0.19461856716E+04  0.19461856716E+04  0.50400001928E-02 0.  1.
        1   -1    0    0  501    0  0.00000000000E+00  0.00000000000E+00 -0.56306046299E+03  0.56306046301E+03  0.50400001928E-02 0. -1.
    10030    2    1    2    0    0  0.00000000000E+00  0.00000000000E+00  0.13831252086E+04  0.25092461346E+04  0.20936286254E+04 0.  0.
        1    1    3    3  502    0 -0.17338323837E+03 -0.10230991176E+04  0.85688238506E+03  0.13457492239E+04  0.50400001928E-02 0. -1.
       -1    1    3    3    0  502  0.17338323837E+03  0.10230991176E+04  0.52624282351E+03  0.11634969107E+04  0.50400001928E-02 0.  1.
</event>
<event>
 5   0  0.6441125E-05  0.2097132E+04  0.7818609E-02  0.8562508E-01
       -3   -1    0    0    0  501  0.00000000000E+00  0.00000000000E+00  0.89719923157E+03  0.89719923725E+03  0.10100000352E+00 0.  1.
        3   -1    0    0  501    0  0.00000000000E+00  0.00000000000E+00 -0.12254697592E+04  0.12254697633E+04  0.10100000352E+00 0. -1.
    10030    2    1    2    0    0  0.00000000000E+00  0.00000000000E+00 -0.32827052761E+03  0.21226690006E+04  0.20971318859E+04 0.  0.
        5    1    3    3  502    0 -0.76669282542E+03 -0.71442792406E+03 -0.19982508791E+03  0.10668539277E+04  0.46999998093E+01 0. -1.
       -5    1    3    3    0  502  0.76669282542E+03  0.71442792406E+03 -0.12844543971E+03  0.10558150729E+04  0.46999998093E+01 0.  1.
</event>
<event>
 5   0  0.1810875E-04  0.2134809E+04  0.7818609E-02  0.8546063E-01
       -2   -1    0    0    0  501  0.00000000000E+00  0.00000000000E+00  0.16373711757E+04  0.16373711757E+04  0.25500000920E-02 0. -1.
        2   -1    0    0  501    0  0.00000000000E+00  0.00000000000E+00 -0.69584214968E+03  0.69584214968E+03  0.25500000920E-02 0.  1.
    10030    2    1    2    0    0  0.00000000000E+00  0.00000000000E+00  0.94152902600E+03  0.23332133254E+04  0.21348085429E+04 0.  0.
        1    1    3    3  502    0 -0.70129378917E+03 -0.64372857698E+03 -0.56969977811E+02  0.95364827790E+03  0.50400001928E-02 0.  1.
       -1    1    3    3    0  502  0.70129378917E+03  0.64372857698E+03  0.99849900381E+03  0.13795650475E+04  0.50400001928E-02 0. -1.
</event>
<event>
 5   0  0.8237966E-05  0.2145900E+04  0.7818609E-02  0.8541289E-01
       -1   -1    0    0    0  501  0.00000000000E+00  0.00000000000E+00  0.13586661559E+04  0.13586661559E+04  0.50400001928E-02 0.  1.
        1   -1    0    0  501    0  0.00000000000E+00  0.00000000000E+00 -0.84731730873E+03  0.84731730874E+03  0.50400001928E-02 0. -1.
    10030    2    1    2    0    0  0.00000000000E+00  0.00000000000E+00  0.51134884720E+03  0.22059834647E+04  0.21458996722E+04 0.  0.
        1    1    3    3  502    0  0.52990405810E+03 -0.73982309803E+03  0.83999491728E+03  0.12384377208E+04  0.50400001928E-02 0.  1.
       -1    1    3    3    0  502 -0.52990405810E+03  0.73982309803E+03 -0.32864607007E+03  0.96754574391E+03  0.50400001928E-02 0. -1.
</event>
<event>
 5   0  0.1777590E-04  0.1382052E+04  0.7818609E-02  0.8966914E-01
        2   -1    0    0  501    0  0.00000000000E+00  0.00000000000E+00  0.13293717530E+04  0.13293717531E+04  0.25500000920E-02 0. -1.
       -2   -1    0    0    0  501  0.00000000000E+00  0.00000000000E+00 -0.35920476432E+03  0.35920476433E+03  0.25500000920E-02 0.  1.
    10030    2    1    2    0    0  0.00000000000E+00  0.00000000000E+00  0.97016698873E+03  0.16885765174E+04  0.13820516159E+04 0.  0.
        4    1    3    3  502    0  0.38565454675E+03 -0.24515243624E+03 -0.14823026971E+03  0.48041957931E+03  0.12699999809E+01 0.  1.
       -4    1    3    3    0  502 -0.38565454675E+03  0.24515243624E+03  0.11183972584E+04  0.12081569381E+04  0.12699999809E+01 0. -1.
</event>
<event>
 5   0  0.1921687E-04  0.2140868E+04  0.7818609E-02  0.8543451E-01
        2   -1    0    0  501    0  0.00000000000E+00  0.00000000000E+00  0.98088402032E+03  0.98088402032E+03  0.25500000920E-02 0.  1.
       -2   -1    0    0    0  501  0.00000000000E+00  0.00000000000E+00 -0.11681593618E+04  0.11681593618E+04  0.25500000920E-02 0. -1.
    10030    2    1    2    0    0  0.00000000000E+00  0.00000000000E+00 -0.18727534151E+03  0.21490433822E+04  0.21408679092E+04 0.  0.
        5    1    3    3  502    0 -0.79385285749E+02  0.10202259553E+04 -0.40891305983E+03  0.11019959183E+04  0.46999998093E+01 0.  1.
       -5    1    3    3    0  502  0.79385285749E+02 -0.10202259553E+04  0.22163771832E+03  0.10470474639E+04  0.46999998093E+01 0. -1.
</event>
<event>
 5   0  0.8271069E-05  0.2001906E+04  0.7818609E-02  0.8605730E-01
        1   -1    0    0  501    0  0.00000000000E+00  0.00000000000E+00  0.23441566375E+04  0.23441566375E+04  0.50400001928E-02 0. -1.
       -1   -1    0    0    0  501  0.00000000000E+00  0.00000000000E+00 -0.42740606558E+03  0.42740606561E+03  0.50400001928E-02 0.  1.
    10030    2    1    2    0    0  0.00000000000E+00  0.00000000000E+00  0.19167505719E+04  0.27715627031E+04  0.20019058575E+04 0.  0.
        2    1    3    3  502    0 -0.47955818235E+02  0.17966408082E+03 -0.40328226222E+03  0.44408954668E+03  0.25500000920E-02 0.  1.
       -2    1    3    3    0  502  0.47955818235E+02 -0.17966408082E+03  0.23200328342E+04  0.23274731564E+04  0.25500000920E-02 0. -1.
</event>
<event>
 5   0  0.8237966E-05  0.2092407E+04  0.7818609E-02  0.8564596E-01
       -1   -1    0    0    0  501  0.00000000000E+00  0.00000000000E+00  0.16778640545E+04  0.16778640545E+04  0.50400001928E-02 0. -1.
        1   -1    0    0  501    0  0.00000000000E+00  0.00000000000E+00 -0.65234204595E+03  0.65234204597E+03  0.50400001928E-02 0.  1.
    10030    2    1    2    0    0  0.00000000000E+00  0.00000000000E+00  0.10255220086E+04  0.23302061005E+04  0.20924065286E+04 0.  0.
        1    1    3    3  502    0  0.26868141485E+03 -0.10090728834E+04  0.58427324721E+03  0.11965755363E+04  0.50400001928E-02 0. -1.
       -1    1    3    3    0  502 -0.26868141485E+03  0.10090728834E+04  0.44124876136E+03  0.11336305642E+04  0.50400001928E-02 0.  1.
</event>
<event>
 5   0  0.1886323E-04  0.2094883E+04  0.7818609E-02  0.8563501E-01
       -2   -1    0    0    0  501  0.00000000000E+00  0.00000000000E+00  0.60122870202E+03  0.60122870202E+03  0.25500000920E-02 0. -1.
        2   -1    0    0  501    0  0.00000000000E+00  0.00000000000E+00 -0.18248191775E+04  0.18248191775E+04  0.25500000920E-02 0.  1.
    10030    2    1    2    0    0  0.00000000000E+00  0.00000000000E+00 -0.12235904755E+04  0.24260478795E+04  0.20948829709E+04 0.  0.
        2    1    3    3  502    0 -0.55951825462E+03  0.54694958170E+03  0.19464885654E+03  0.80628946386E+03  0.25500000920E-02 0. -1.
       -2    1    3    3    0  502  0.55951825462E+03 -0.54694958170E+03 -0.14182393320E+04  0.16197584156E+04  0.25500000920E-02 0.  1.
</event>
<event>
 5   0  0.8755004E-05  0.1646140E+04  0.7818609E-02  0.8792693E-01
        1   -1    0    0  501    0  0.00000000000E+00  0.00000000000E+00  0.25001343051E+04  0.25001343051E+04  0.50400001928E-02 0. -1.
       -1   -1    0    0    0  501  0.00000000000E+00  0.00000000000E+00 -0.27096309753E+03  0.27096309758E+03  0.50400001928E-02 0.  1.
    10030    2    1    2    0    0  0.00000000000E+00  0.00000000000E+00  0.22291712076E+04  0.27710974027E+04  0.16461398915E+04 0.  0.
        3    1    3    3  502    0 -0.47202900381E+03  0.18874119986E+03  0.24910599306E+02  0.50897462522E+03  0.10100000352E+00 0.  1.
       -3    1    3    3    0  502  0.47202900381E+03 -0.18874119986E+03  0.22042606083E+04  0.22621227775E+04  0.10100000352E+00 0. -1.
</event>
<event>
 5   0  0.8755004E-05  0.2107071E+04  0.7818609E-02  0.8558135E-01
        1   -1    0    0  501    0  0.00000000000E+00  0.00000000000E+00  0.84517785707E+03  0.84517785709E+03  0.50400001928E-02 0.  1.
       -1   -1    0    0    0  501  0.00000000000E+00  0.00000000000E+00 -0.13132589718E+04  0.13132589718E+04  0.50400001928E-02 0. -1.
    10030    2    1    2    0    0  0.00000000000E+00  0.00000000000E+00 -0.46808111475E+03  0.21584368289E+04  0.21070713359E+04 0.  0.
        3    1    3    3  502    0  0.72244943356E+03 -0.33914729874E+03 -0.93854383159E+03  0.12319978118E+04  0.10100000352E+00 0. -1.
       -3    1    3    3    0  502 -0.72244943356E+03  0.33914729874E+03  0.47046271684E+03  0.92643901711E+03  0.10100000352E+00 0.  1.
</event>
<event>
 5   0  0.1886323E-04  0.2148665E+04  0.7818609E-02  0.8540104E-01
        2   -1    0    0  501    0  0.00000000000E+00  0.00000000000E+00  0.24694191295E+04  0.24694191295E+04  0.25500000920E-02 0.  1.
       -2   -1    0    0    0  501  0.00000000000E+00  0.00000000000E+00 -0.46739326674E+03  0.46739326675E+03  0.25500000920E-02 0. -1.
    10030    2    1    2    0    0  0.00000000000E+00  0.00000000000E+00  0.20020258627E+04  0.29368123962E+04  0.21486645842E+04 0.  0.
        2    1    3    3  502    0 -0.15720114336E+03  0.50799627783E+03 -0.27489902397E+03  0.59861664790E+03  0.25500000920E-02 0. -1.
       -2    1    3    3    0  502  0.15720114336E+03 -0.50799627783E+03  0.22769248867E+04  0.23381957483E+04  0.25500000920E-02 0.  1.
</event>
<event>
 5   0  0.8486612E-05  0.2074733E+04  0.7818609E-02  0.8572456E-01
        1   -1    0    0  501    0  0.00000000000E+00  0.00000000000E+00  0.13418071966E+04  0.13418071966E+04  0.50400001928E-02 0. -1.
       -1   -1    0    0    0  501  0.00000000000E+00  0.00000000000E+00 -0.80199962738E+03  0.80199962740E+03  0.50400001928E-02 0.  1.
    10030    2    1    2    0    0  0.00000000000E+00  0.00000000000E+00  0.53980756920E+03  0.21438068240E+04  0.20747326302E+04 0.  0.
        5    1    3    3  502    0 -0.87830734527E+02  0.59397040118E+03  0.11439938030E+04  0.12919980599E+04  0.46999998093E+01 0. -1.
       -5    1    3    3    0  502  0.87830734527E+02 -0.59397040118E+03 -0.60418623384E+03  0.85180876408E+03  0.46999998093E+01 0.  1.
</event>
<event>
 5   0  0.1815400E-04  0.2108572E+04  0.7818609E-02  0.8557477E-01
       -2   -1    0    0    0  501  0.00000000000E+00  0.00000000000E+00  0.47394099095E+03  0.47394099096E+03  0.25500000920E-02 0. -1.
        2   -1    0    0  501    0  0.00000000000E+00  0.00000000000E+00 -0.23452675998E+04  0.23452675998E+04  0.25500000920E-02 0.  1.
    10030    2    1    2    0    0  0.00000000000E+00  0.00000000000E+00 -0.18713266089E+04  0.28192085908E+04  0.21085715073E+04 0.  0.
        3    1    3    3  502    0 -0.24950235315E+03 -0.81560598395E+03 -0.10708231781E+03  0.85961106220E+03  0.10100000352E+00 0. -1.
       -3    1    3    3    0  502  0.24950235315E+03  0.81560598395E+03 -0.17642442911E+04  0.19595975286E+04  0.10100000352E+00 0.  1.
</event>
<event>
 5   0  0.1815400E-04  0.2089572E+04  0.7818609E-02  0.8565851E-01
        2   -1    0    0  501    0  0.00000000000E+00  0.00000000000E+00  0.20473218889E+04  0.20473218889E+04  0.25500000920E-02 0. -1.
       -2   -1    0    0    0  501  0.00000000000E+00  0.00000000000E+00 -0.53317331070E+03  0.53317331070E+03  0.25500000920E-02 0.  1.
    10030    2    1    2    0    0  0.00000000000E+00  0.00000000000E+00  0.15141485782E+04  0.25804951996E+04  0.20895716208E+04 0.  0.
        3    1    3    3  502    0  0.92371512033E+03 -0.25045151738E+03  0.23957439227E+03  0.98659590801E+03  0.10100000352E+00 0.  1.
       -3    1    3    3    0  502 -0.92371512033E+03  0.25045151738E+03  0.12745741859E+04  0.15938992916E+04  0.10100000352E+00 0. -1.
</event>
<event>
 5   0  0.1886323E-04  0.2258359E+04  0.7818609E-02  0.8494523E-01
       -2   -1    0    0    0  501  0.00000000000E+00  0.00000000000E+00  0.53983982690E+03  0.53983982690E+03  0.25500000920E-02 0. -1.
        2   -1    0    0  501    0  0.00000000000E+00  0.00000000000E+00 -0.23618983770E+04  0.23618983770E+04  0.25500000920E-02 0.  1.
    10030    2    1    2    0    0  0.00000000000E+00  0.00000000000E+00 -0.18220585501E+04  0.29017382039E+04  0.22583594143E+04 0.  0.
        2    1    3    3  502    0 -0.80187572321E+03  0.12643124868E+03 -0.19195288337E+04  0.20841258310E+04  0.25500000920E-02 0.  1.
       -2    1    3    3    0  502  0.80187572321E+03 -0.12643124868E+03  0.97470283585E+02  0.81761237290E+03  0.25500000920E-02 0. -1.
</event>
<event>
 5   0  0.8525278E-05  0.2238238E+04  0.7818609E-02  0.8502679E-01
        1   -1    0    0  501    0  0.00000000000E+00  0.00000000000E+00  0.12326723282E+04  0.12326723282E+04  0.50400001928E-02 0.  1.
       -1   -1    0    0    0  501  0.00000000000E+00  0.00000000000E+00 -0.10160259773E+04  0.10160259773E+04  0.50400001928E-02 0. -1.
    10030    2    1    2    0    0  0.00000000000E+00  0.00000000000E+00  0.21664635094E+03  0.22486983055E+04  0.22382377951E+04 0.  0.
        4    1    3    3  502    0  0.72809452071E+03 -0.28040965173E+03 -0.69771952429E+03  0.10466925773E+04  0.12699999809E+01 0. -1.
       -4    1    3    3    0  502 -0.72809452071E+03  0.28040965173E+03  0.91436587523E+03  0.12020057282E+04  0.12699999809E+01 0.  1.
</event>
<event>
 5   0  0.1810875E-04  0.2105509E+04  0.7818609E-02  0.8558821E-01
        2   -1    0    0  501    0  0.00000000000E+00  0.00000000000E+00  0.12608382565E+04  0.12608382565E+04  0.25500000920E-02 0. -1.
       -2   -1    0    0    0  501  0.00000000000E+00  0.00000000000E+00 -0.87901185684E+03  0.87901185684E+03  0.25500000920E-02 0.  1.
    10030    2    1    2    0    0  0.00000000000E+00  0.00000000000E+00  0.38182639963E+03  0.21398501133E+04  0.21055087528E+04 0.  0.
        1    1    3    3  502    0 -0.92677599466E+03 -0.39180070581E+03  0.50559252440E+03  0.11260751920E+04  0.50400001928E-02 0. -1.
       -1    1    3    3    0  502  0.92677599466E+03  0.39180070581E+03 -0.12376612477E+03  0.10137749213E+04  0.50400001928E-02 0.  1.
</event>
<event>
 5   0  0.1886323E-04  0.2151866E+04  0.7818609E-02  0.8538734E-01
       -2   -1    0    0    0  501  0.00000000000E+00  0.00000000000E+00  0.61752819403E+03  0.61752819404E+03  0.25500000920E-02 0. -1.
        2   -1    0    0  501    0  0.00000000000E+00  0.00000000000E+00 -0.18746223743E+04  0.18746223743E+04  0.25500000920E-02 0.  1.
    10030    2    1    2    0    0  0.00000000000E+00  0.00000000000E+00 -0.12570941803E+04  0.24921505684E+04  0.21518663242E+04 0.  0.
        2    1    3    3  502    0  0.53843415662E+03 -0.87768111783E+03 -0.26711136808E+03  0.10637593565E+04  0.25500000920E-02 0. -1.
       -2    1    3    3    0  502 -0.53843415662E+03  0.87768111783E+03 -0.98998281221E+03  0.14283912118E+04  0.25500000920E-02 0.  1.
</event>
<event>
 5   0  0.1810875E-04  0.2148048E+04  0.7818609E-02  0.8540368E-01
       -2   -1    0    0    0  501  0.00000000000E+00  0.00000000000E+00  0.64854560187E+03  0.64854560188E+03  0.25500000920E-02 0.  1.
        2   -1    0    0  501    0  0.00000000000E+00  0.00000000000E+00 -0.17786376376E+04  0.17786376376E+04  0.25500000920E-02 0. -1.
    10030    2    1    2    0    0  0.00000000000E+00  0.00000000000E+00 -0.11300920357E+04  0.24271832395E+04  0.21480480602E+04 0.  0.
        1    1    3    3  502    0 -0.36946442893E+03 -0.55357021615E+03  0.38745660769E+03  0.77010815560E+03  0.50400001928E-02 0.  1.
       -1    1    3    3    0  502  0.36946442893E+03  0.55357021615E+03 -0.15175486434E+04  0.16570750839E+04  0.50400001928E-02 0. -1.
</event>
<event>
 5   0  0.1815400E-04  0.1984782E+04  0.7818609E-02  0.8613769E-01
       -2   -1    0    0    0  501  0.00000000000E+00  0.00000000000E+00  0.12755650566E+04  0.12755650566E+04  0.25500000920E-02 0.  1.
        2   -1    0    0  501    0  0.00000000000E+00  0.00000000000E+00 -0.77208131229E+03  0.77208131229E+03  0.25500000920E-02 0. -1.
    10030    2    1    2    0    0  0.00000000000E+00  0.00000000000E+00  0.50348374427E+03  0.20476463689E+04  0.19847820463E+04 0.  0.
        3    1    3    3  502    0 -0.70583130010E+03  0.69229540388E+03  0.16317898243E+03  0.10020469754E+04  0.10100000352E+00 0. -1.
       -3    1    3    3    0  502  0.70583130010E+03 -0.69229540388E+03  0.34030476184E+03  0.10455993934E+04  0.10100000352E+00 0.  1.
</event>
<event>
 5   0  0.8271069E-05  0.2127711E+04  0.7818609E-02  0.8549134E-01
        1   -1    0    0  501    0  0.00000000000E+00  0.00000000000E+00  0.63412992241E+03  0.63412992243E+03  0.50400001928E-02 0. -1.
       -1   -1    0    0    0  501  0.00000000000E+00  0.00000000000E+00 -0.17847888795E+04  0.17847888795E+04  0.50400001928E-02 0.  1.
    10030    2    1    2    0    0  0.00000000000E+00  0.00000000000E+00 -0.11506589570E+04  0.24189188019E+04  0.21277105383E+04 0.  0.
        2    1    3    3  502    0 -0.32565667142E+03 -0.16633119935E+02 -0.17265749065E+04  0.17570969911E+04  0.25500000920E-02 0.  1.
       -2    1    3    3    0  502  0.32565667142E+03  0.16633119935E+02  0.57591594949E+03  0.66182181077E+03  0.25500000920E-02 0. -1.
</event>
<event>
 5   0  0.1810875E-04  0.1992620E+04  0.7818609E-02  0.8610079E-01
        2   -1    0    0  501    0  0.00000000000E+00  0.00000000000E+00  0.14125720793E+04  0.14125720793E+04  0.25500000920E-02 0.  1.
       -2   -1    0    0    0  501  0.00000000000E+00  0.00000000000E+00 -0.70271348686E+03  0.70271348687E+03  0.25500000920E-02 0. -1.
    10030    2    1    2    0    0  0.00000000000E+00  0.00000000000E+00  0.70985859243E+03  0.21152855662E+04  0.19926198346E+04 0.  0.
        1    1    3    3  502    0 -0.47361899182E+03  0.74282233446E+03  0.84890670323E+03  0.12234143046E+04  0.50400001928E-02 0.  1.
       -1    1    3    3    0  502  0.47361899182E+03 -0.74282233446E+03 -0.13904811080E+03  0.89187126152E+03  0.50400001928E-02 0. -1.
</event>
<event>
 5   0  0.1777590E-04  0.2094587E+04  0.7818609E-02  0.8563632E-01
        2   -1    0    0  501    0  0.00000000000E+00  0.00000000000E+00  0.20286861229E+04  0.20286861229E+04  0.25500000920E-02 0. -1.
       -2   -1    0    0    0  501  0.00000000000E+00  0.00000000000E+00 -0.54065690201E+03  0.54065690202E+03  0.25500000920E-02 0.  1.
    10030    2    1    2    0    0  0.00000000000E+00  0.00000000000E+00  0.14880292209E+04  0.25693430249E+04  0.20945865028E+04 0.  0.
        4    1    3    3  502    0 -0.44913908342E+02  0.64470384128E+03 -0.26689013409E+03  0.69920830851E+03  0.12699999809E+01 0.  1.
       -4    1    3    3    0  502  0.44913908342E+02 -0.64470384128E+03  0.17549193550E+04  0.18701347164E+04  0.12699999809E+01 0. -1.
</event>
<event>
 5   0  0.8237966E-05  0.2130398E+04  0.7818609E-02  0.8547970E-01
        1   -1    0    0  501    0  0.00000000000E+00  0.00000000000E+00  0.12362653763E+04  0.12362653763E+04  0.50400001928E-02 0. -1.
       -1   -1    0    0    0  501  0.00000000000E+00  0.00000000000E+00 -0.91780359633E+03  0.91780359634E+03  0.50400001928E-02 0.  1.
    10030    2    1    2    0    0  0.00000000000E+00  0.00000000000E+00  0.31846178000E+03  0.21540689727E+04  0.21303979050E+04 0.  0.
        1    1    3    3  502    0 -0.46454392801E+03  0.83256428624E+03 -0.32111016044E+03  0.10060199237E+04  0.50400001928E-02 0.  1.
       -1    1    3    3    0  502  0.46454392801E+03 -0.83256428624E+03  0.63957194044E+03  0.11480490490E+04  0.50400001928E-02 0. -1.
</event>
<event>
 5   0  0.8271069E-05  0.1981926E+04  0.7818609E-02  0.8615118E-01
       -1   -1    0    0    0  501  0.00000000000E+00  0.00000000000E+00  0.84376497748E+03  0.84376497750E+03  0.50400001928E-02 0. -1.
        1   -1    0    0  501    0  0.00000000000E+00  0.00000000000E+00 -0.11638403804E+04  0.11638403804E+04  0.50400001928E-02 0.  1.
    10030    2    1    2    0    0  0.00000000000E+00  0.00000000000E+00 -0.32007540294E+03  0.20076053579E+04  0.19819260858E+04 0.  0.
        2    1    3    3  502    0 -0.58362448289E+03 -0.41269297803E+03  0.53520396541E+03  0.89295930241E+03  0.25500000920E-02 0. -1.
       -2    1    3    3    0  502  0.58362448289E+03  0.41269297803E+03 -0.85527936835E+03  0.11146460555E+04  0.25500000920E-02 0.  1.
</event>
<event>
 5   0  0.8486612E-05  0.2102402E+04  0.7818609E-02  0.8560186E-01
        1   -1    0    0  501    0  0.00000000000E+00  0.00000000000E+00  0.17562421220E+04  0.17562421220E+04  0.50400001928E-02 0.  1.
       -1   -1    0    0    0  501  0.00000000000E+00  0.00000000000E+00 -0.62919786865E+03  0.62919786867E+03  0.50400001928E-02 0. -1.
    10030    2    1    2    0    0  0.00000000000E+00  0.00000000000E+00  0.11270442533E+04  0.23854399907E+04  0.21024022451E+04 0.  0.
        5    1    3    3  502    0  0.36242273997E+03 -0.97414182335E+03  0.38520464882E+03  0.11084706789E+04  0.46999998093E+01 0. -1.
       -5    1    3    3    0  502 -0.36242273997E+03  0.97414182335E+03  0.74183960453E+03  0.12769693118E+04  0.46999998093E+01 0.  1.
</event>
<event>
 5   0  0.6441125E-05  0.2057135E+04  0.7818609E-02  0.8580364E-01
       -3   -1    0    0    0  501  0.00000000000E+00  0.00000000000E+00  0.12635858953E+04  0.12635858994E+04  0.10100000352E+00 0.  1.
        3   -1    0    0  501    0  0.00000000000E+00  0.00000000000E+00 -0.83726130546E+03  0.83726131155E+03  0.10100000352E+00 0. -1.
    10030    2    1    2    0    0  0.00000000000E+00  0.00000000000E+00  0.42632458986E+03  0.21008472109E+04  0.20571354714E+04 0.  0.
        3    1    3    3  502    0  0.89038518706E+03  0.32195148084E+03 -0.19726418279E+03  0.96713582571E+03  0.10100000352E+00 0. -1.
       -3    1    3    3    0  502 -0.89038518706E+03 -0.32195148084E+03  0.62358877265E+03  0.11337113852E+04  0.10100000352E+00 0.  1.
</event>
<event>
 5   0  0.8755004E-05  0.2109750E+04  0.7818609E-02  0.8556960E-01
        1   -1    0    0  501    0  0.00000000000E+00  0.00000000000E+00  0.90130750624E+03  0.90130750626E+03  0.50400001928E-02 0.  1.
       -1   -1    0    0    0  501  0.00000000000E+00  0.00000000000E+00 -0.12346081337E+04  0.12346081337E+04  0.50400001928E-02 0. -1.
    10030    2    1    2    0    0  0.00000000000E+00  0.00000000000E+00 -0.33330062743E+03  0.21359156399E+04  0.21097502963E+04 0.  0.
        3    1    3    3  502    0  0.79726729719E+02  0.30371778495E+02  0.89780890770E+03  0.90185344780E+03  0.10100000352E+00 0.  1.
       -3    1    3    3    0  502 -0.79726729719E+02 -0.30371778495E+02 -0.12311095351E+04  0.12340621921E+04  0.10100000352E+00 0. -1.
</event>
<event>
 5   0  0.1777590E-04  0.2097123E+04  0.7818609E-02  0.8562512E-01
       -2   -1    0    0    0  501  0.00000000000E+00  0.00000000000E+00  0.12792831293E+04  0.12792831293E+04  0.25500000920E-02 0.  1.
        2   -1    0    0  501    0  0.00000000000E+00  0.00000000000E+00 -0.85945139804E+03  0.85945139804E+03  0.25500000920E-02 0. -1.
    10030    2    1    2    0    0  0.00000000000E+00  0.00000000000E+00  0.41983173122E+03  0.21387345273E+04  0.20971234336E+04 0.  0.
        4    1    3    3  502    0  0.93914982919E+03  0.42892605661E+02 -0.26366638601E+03  0.97640347874E+03  0.12699999809E+01 0. -1.
       -4    1    3    3    0  502 -0.93914982919E+03 -0.42892605661E+02  0.68349811723E+03  0.11623310486E+04  0.12699999809E+01 0.  1.
</event>
<event>
 5   0  0.8237966E-05  0.2795209E+04  0.7818609E-02  0.8304757E-01
        1   -1    0    0  501    0  0.00000000000E+00  0.00000000000E+00  0.25050765880E+04  0.25050765880E+04  0.50400001928E-02 0. -1.
       -1   -1    0    0    0  501  0.00000000000E+00  0.00000000000E+00 -0.77973582612E+03  0.77973582613E+03  0.50400001928E-02 0.  1.
    10030    2    1    2    0    0  0.00000000000E+00  0.00000000000E+00  0.17253407619E+04  0.32848124141E+04  0.27952087313E+04 0.  0.
        1    1    3    3  502    0  0.12176776010E+04 -0.11532423541E+03  0.16573237305E+04  0.20597961955E+04  0.50400001928E-02 0. -1.
       -1    1    3    3    0  502 -0.12176776010E+04  0.11532423541E+03  0.68017031324E+02  0.12250162186E+04  0.50400001928E-02 0.  1.
</event>
<event>
 5   0  0.1921687E-04  0.1978741E+04  0.7818609E-02  0.8616625E-01
       -2   -1    0    0    0  501  0.00000000000E+00  0.00000000000E+00  0.13208117848E+04  0.13208117848E+04  0.25500000920E-02 0.  1.
        2   -1    0    0  501    0  0.00000000000E+00  0.00000000000E+00 -0.74110004469E+03  0.74110004469E+03  0.25500000920E-02 0. -1.
    10030    2    1    2    0    0  0.00000000000E+00  0.00000000000E+00  0.57971174014E+03  0.20619118295E+04  0.19787406831E+04 0.  0.
        5    1    3    3  502    0 -0.91068140261E+03 -0.17780282804E+03 -0.67907576388E+02  0.93036981446E+03  0.46999998093E+01 0. -1.
       -5    1    3    3    0  502  0.91068140261E+03  0.17780282804E+03  0.64761931653E+03  0.11315420151E+04  0.46999998093E+01 0.  1.
</event>
<event>
 5   0  0.1921687E-04  0.2085305E+04  0.7818609E-02  0.8567744E-01
       -2   -1    0    0    0  501  0.00000000000E+00  0.00000000000E+00  0.78541118584E+03  0.78541118585E+03  0.25500000920E-02 0. -1.
        2   -1    0    0  501    0  0.00000000000E+00  0.00000000000E+00 -0.13841468014E+04  0.13841468014E+04  0.25500000920E-02 0.  1.
    10030    2    1    2    0    0  0.00000000000E+00  0.00000000000E+00 -0.59873561556E+03  0.21695579873E+04  0.20853051390E+04 0.  0.
        5    1    3    3  502    0  0.22128051764E+03  0.40006338351E+03  0.67555516024E+03  0.81572828984E+03  0.46999998093E+01 0. -1.
       -5    1    3    3    0  502 -0.22128051764E+03 -0.40006338351E+03 -0.12742907758E+04  0.13538296974E+04  0.46999998093E+01 0.  1.
</event>
<event>
 5   0  0.1921687E-04  0.2099042E+04  0.7818609E-02  0.8561665E-01
       -2   -1    0    0    0  501  0.00000000000E+00  0.00000000000E+00  0.65871431700E+03  0.65871431701E+03  0.25500000920E-02 0.  1.
        2   -1    0    0  501    0  0.00000000000E+00  0.00000000000E+00 -0.16721885226E+04  0.16721885226E+04  0.25500000920E-02 0. -1.
    10030    2    1    2    0    0  0.00000000000E+00  0.00000000000E+00 -0.10134742056E+04  0.23309028396E+04  0.20990421821E+04 0.  0.
        5    1    3    3  502    0 -0.43650652918E+03 -0.79248513787E+03  0.83900169811E+02  0.90864292891E+03  0.46999998093E+01 0.  1.
       -5    1    3    3    0  502  0.43650652918E+03  0.79248513787E+03 -0.10973743754E+04  0.14222599107E+04  0.46999998093E+01 0. -1.
</event>
<event>
 5   0  0.1886323E-04  0.1912503E+04  0.7818609E-02  0.8648658E-01
       -2   -1    0    0    0  501  0.00000000000E+00  0.00000000000E+00  0.51221287073E+03  0.51221287074E+03  0.25500000920E-02 0.  1.
        2   -1    0    0  501    0  0.00000000000E+00  0.00000000000E+00 -0.17852283893E+04  0.17852283893E+04  0.25500000920E-02 0. -1.
    10030    2    1    2    0    0  0.00000000000E+00  0.00000000000E+00 -0.12730155185E+04  0.22974412600E+04  0.19125030282E+04 0.  0.
        2    1    3    3  502    0  0.35572576609E+03  0.74255202891E+03 -0.12206936759E+04  0.14724188897E+04  0.25500000920E-02 0. -1.
       -2    1    3    3    0  502 -0.35572576609E+03 -0.74255202891E+03 -0.52321842621E+02  0.82502237031E+03  0.25500000920E-02 0.  1.
</event>
<event>
 5   0  0.8525278E-05  0.2101451E+04  0.7818609E-02  0.8560605E-01
       -1   -1    0    0    0  501  0.00000000000E+00  0.00000000000E+00  0.10623498770E+04  0.10623498770E+04  0.50400001928E-02 0.  1.
        1   -1    0    0  501    0  0.00000000000E+00  0.00000000000E+00 -0.10392281692E+04  0.10392281692E+04  0.50400001928E-02 0. -1.
    10030    2    1    2    0    0  0.00000000000E+00  0.00000000000E+00  0.23121707844E+02  0.21015780462E+04  0.21014508491E+04 0.  0.
        4    1    3    3  502    0  0.87686204750E+03  0.42774700161E+03  0.40167132366E+03  0.10550810456E+04  0.12699999809E+01 0. -1.
       -4    1    3    3    0  502 -0.87686204750E+03 -0.42774700161E+03 -0.37854961582E+03  0.10464970006E+04  0.12699999809E+01 0.  1.
</event>
<event>
 5   0  0.1810875E-04  0.2063478E+04  0.7818609E-02  0.8577504E-01
       -2   -1    0    0    0  501  0.00000000000E+00  0.00000000000E+00  0.70280419092E+03  0.70280419092E+03  0.25500000920E-02 0. -1.
        2   -1    0    0  501    0  0.00000000000E+00  0.00000000000E+00 -0.15146264062E+04  0.15146264063E+04  0.25500000920E-02 0.  1.
    10030    2    1    2    0    0  0.00000000000E+00  0.00000000000E+00 -0.81182221533E+03  0.22174305972E+04  0.20634784089E+04 0.  0.
        1    1    3    3  502    0 -0.45798642933E+03 -0.77813449152E+03 -0.94239883070E+03  0.13051285042E+04  0.50400001928E-02 0.  1.
       -1    1    3    3    0  502  0.45798642933E+03  0.77813449152E+03  0.13057661537E+03  0.91230209297E+03  0.50400001928E-02 0. -1.
</event>
<event>
 5   0  0.1921687E-04  0.2137216E+04  0.7818609E-02  0.8545024E-01
        2   -1    0    0  501    0  0.00000000000E+00  0.00000000000E+00  0.25652971653E+04  0.25652971653E+04  0.25500000920E-02 0. -1.
       -2   -1    0    0    0  501  0.00000000000E+00  0.00000000000E+00 -0.44514247307E+03  0.44514247308E+03  0.25500000920E-02 0.  1.
    10030    2    1    2    0    0  0.00000000000E+00  0.00000000000E+00  0.21201546922E+04  0.30104396383E+04  0.21372156881E+04 0.  0.
        5    1    3    3  502    0  0.17427637661E+03 -0.54111996699E+03  0.23346031218E+04  0.24028268561E+04  0.46999998093E+01 0. -1.
       -5    1    3    3    0  502 -0.17427637661E+03  0.54111996699E+03 -0.21444842965E+03  0.60761278220E+03  0.46999998093E+01 0.  1.
</event>
<event>
 5   0  0.1777590E-04  0.2092111E+04  0.7818609E-02  0.8564727E-01
        2   -1    0    0  501    0  0.00000000000E+00  0.00000000000E+00  0.99994509296E+03  0.99994509296E+03  0.25500000920E-02 0.  1.
       -2   -1    0    0    0  501  0.00000000000E+00  0.00000000000E+00 -0.10942921495E+04  0.10942921495E+04  0.25500000920E-02 0. -1.
    10030    2    1    2    0    0  0.00000000000E+00  0.00000000000E+00 -0.94347056539E+02  0.20942372425E+04  0.20921109580E+04 0.  0.
        4    1    3    3  502    0  0.87898810921E+02  0.59735735184E+03  0.80790095595E+03  0.10085968344E+04  0.12699999809E+01 0.  1.
       -4    1    3    3    0  502 -0.87898810921E+02 -0.59735735184E+03 -0.90224801249E+03  0.10856404081E+04  0.12699999809E+01 0. -1.
</event>
<event>
 5   0  0.1815400E-04  0.2084696E+04  0.7818609E-02  0.8568015E-01
       -2   -1    0    0    0  501  0.00000000000E+00  0.00000000000E+00  0.26190694758E+04  0.26190694758E+04  0.25500000920E-02 0.  1.
        2   -1    0    0  501    0  0.00000000000E+00  0.00000000000E+00 -0.41483790166E+03  0.41483790167E+03  0.25500000920E-02 0. -1.
    10030    2    1    2    0    0  0.00000000000E+00  0.00000000000E+00  0.22042315742E+04  0.30339073775E+04  0.20846959353E+04 0.  0.
        3    1    3    3  502    0 -0.67558023911E+03  0.78523611361E+03  0.93311728711E+03  0.13941708272E+04  0.10100000352E+00 0. -1.
       -3    1    3    3    0  502  0.67558023911E+03 -0.78523611361E+03  0.12711142871E+04  0.16397365504E+04  0.10100000352E+00 0.  1.
</event>
<event>
 5   0  0.1921687E-04  0.2201929E+04  0.7818609E-02  0.8517626E-01
       -2   -1    0    0    0  501  0.00000000000E+00  0.00000000000E+00  0.16824093507E+04  0.16824093507E+04  0.25500000920E-02 0. -1.
        2   -1    0    0  501    0  0.00000000000E+00  0.00000000000E+00 -0.72046813453E+03  0.72046813454E+03  0.25500000920E-02 0.  1.
    10030    2    1    2    0    0  0.00000000000E+00  0.00000000000E+00  0.96194121619E+03  0.24028774853E+04  0.22019285424E+04 0.  0.
        5    1    3    3  502    0 -0.81842928820E+03  0.34148247448E+03  0.11929404381E+04  0.14864608165E+04  0.46999998093E+01 0.  1.
       -5    1    3    3    0  502  0.81842928820E+03 -0.34148247448E+03 -0.23099922195E+03  0.91641666872E+03  0.46999998093E+01 0. -1.
</event>
<event>
 5   0  0.8525278E-05  0.2199899E+04  0.7818609E-02  0.8518470E-01
        1   -1    0    0  501    0  0.00000000000E+00  0.00000000000E+00  0.13988914614E+04  0.13988914614E+04  0.50400001928E-02 0.  1.
       -1   -1    0    0    0  501  0.00000000000E+00  0.00000000000E+00 -0.86489138985E+03  0.86489138987E+03  0.50400001928E-02 0. -1.
    10030    2    1    2    0    0  0.00000000000E+00  0.00000000000E+00  0.53400007152E+03  0.22637828513E+04  0.21998992525E+04 0.  0.
        4    1    3    3  502    0 -0.46580401502E+03 -0.52719453717E+03  0.11371196383E+04  0.13371425299E+04  0.12699999809E+01 0.  1.
       -4    1    3    3    0  502  0.46580401502E+03  0.52719453717E+03 -0.60311956680E+03  0.92664032137E+03  0.12699999809E+01 0. -1.
</event>
<event>
 5   0  0.8755004E-05  0.2159695E+04  0.7818609E-02  0.8535394E-01
        1   -1    0    0  501    0  0.00000000000E+00  0.00000000000E+00  0.10798423139E+04  0.10798423139E+04  0.50400001928E-02 0.  1.
       -1   -1    0    0    0  501  0.00000000000E+00  0.00000000000E+00 -0.10798528985E+04  0.10798528985E+04  0.50400001928E-02 0. -1.
    10030    2    1    2    0    0  0.00000000000E+00  0.00000000000E+00 -0.10584634274E-01  0.21596952124E+04  0.21596952124E+04 0.  0.
        3    1    3    3  502    0 -0.23809592238E+03  0.84325474164E+03  0.63110691235E+03  0.10798445131E+04  0.10100000352E+00 0.  1.
       -3    1    3    3    0  502  0.23809592238E+03 -0.84325474164E+03 -0.63111749699E+03  0.10798506993E+04  0.10100000352E+00 0. -1.
</event>
<event>
 5   0  0.8486612E-05  0.1762274E+04  0.7818609E-02  0.8726623E-01
       -1   -1    0    0    0  501  0.00000000000E+00  0.00000000000E+00  0.50627350098E+03  0.50627350101E+03  0.50400001928E-02 0. -1.
        1   -1    0    0  501    0  0.00000000000E+00  0.00000000000E+00 -0.15335633376E+04  0.15335633376E+04  0.50400001928E-02 0.  1.
    10030    2    1    2    0    0  0.00000000000E+00  0.00000000000E+00 -0.10272898366E+04  0.20398368386E+04  0.17622740762E+04 0.  0.
        5    1    3    3  502    0 -0.47671941554E+03  0.16336772876E+03 -0.13502799033E+04  0.14412592838E+04  0.46999998093E+01 0.  1.
       -5    1    3    3    0  502  0.47671941554E+03 -0.16336772876E+03  0.32299006667E+03  0.59857755481E+03  0.46999998093E+01 0. -1.
</event>
<event>
 5   0  0.1810875E-04  0.2186445E+04  0.7818609E-02  0.8524091E-01
       -2   -1    0    0    0  501  0.00000000000E+00  0.00000000000E+00  0.12457966000E+04  0.12457966000E+04  0.25500000920E-02 0. -1.
        2   -1    0    0  501    0  0.00000000000E+00  0.00000000000E+00 -0.95933443914E+03  0.95933443914E+03  0.25500000920E-02 0.  1.
    10030    2    1    2    0    0  0.00000000000E+00  0.00000000000E+00  0.28646216085E+03  0.22051310391E+04  0.21864451354E+04 0.  0.
        1    1    3    3  502    0  0.65225642460E+03 -0.56055423476E+03 -0.53742638115E+03  0.10141432881E+04  0.50400001928E-02 0.  1.
       -1    1    3    3    0  502 -0.65225642460E+03  0.56055423476E+03  0.82388854200E+03  0.11909877511E+04  0.50400001928E-02 0. -1.
</event>
<event>
 5   0  0.1921687E-04  0.2163558E+04  0.7818609E-02  0.8533751E-01
       -2   -1    0    0    0  501  0.00000000000E+00  0.00000000000E+00  0.11763580555E+04  0.11763580555E+04  0.25500000920E-02 0.  1.
        2   -1    0    0  501    0  0.00000000000E+00  0.00000000000E+00 -0.99480426968E+03  0.99480426968E+03  0.25500000920E-02 0. -1.
    10030    2    1    2    0    0  0.00000000000E+00  0.00000000000E+00  0.18155378582E+03  0.21711623252E+04  0.21635581955E+04 0.  0.
        5    1    3    3  502    0 -0.21947240464E+03  0.10410168674E+04 -0.10571647987E+03  0.10691502789E+04  0.46999998093E+01 0. -1.
       -5    1    3    3    0  502  0.21947240464E+03 -0.10410168674E+04  0.28727026568E+03  0.11020120463E+04  0.46999998093E+01 0.  1.
</event>
<event>
 5   0  0.8486612E-05  0.2034316E+04  0.7818609E-02  0.8590743E-01
        1   -1    0    0  501    0  0.00000000000E+00  0.00000000000E+00  0.16346293522E+04  0.16346293522E+04  0.50400001928E-02 0.  1.
       -1   -1    0    0    0  501  0.00000000000E+00  0.00000000000E+00 -0.63293298159E+03  0.63293298161E+03  0.50400001928E-02 0. -1.
    10030    2    1    2    0    0  0.00000000000E+00  0.00000000000E+00  0.10016963706E+04  0.22675623338E+04  0.20343164255E+04 0.  0.
        5    1    3    3  502    0  0.43652840905E+03 -0.29364239243E+03  0.14711787256E+04  0.15624249868E+04  0.46999998093E+01 0.  1.
       -5    1    3    3    0  502 -0.43652840905E+03  0.29364239243E+03 -0.46948235502E+03  0.70513734705E+03  0.46999998093E+01 0. -1.
</event>
<event>
 5   0  0.8237966E-05  0.1750288E+04  0.7818609E-02  0.8733192E-01
        1   -1    0    0  501    0  0.00000000000E+00  0.00000000000E+00  0.14106067278E+04  0.14106067278E+04  0.50400001928E-02 0.  1.
       -1   -1    0    0    0  501  0.00000000000E+00  0.00000000000E+00 -0.54294162808E+03  0.54294162811E+03  0.50400001928E-02 0. -1.
    10030    2    1    2    0    0  0.00000000000E+00  0.00000000000E+00  0.86766509967E+03  0.19535483559E+04  0.17502881059E+04 0.  0.
        1    1    3    3  502    0 -0.49863332853E+02 -0.25967679109E+03 -0.49728897471E+03  0.56321817459E+03  0.50400001928E-02 0. -1.
       -1    1    3    3    0  502  0.49863332853E+02  0.25967679109E+03  0.13649540744E+04  0.13903301813E+04  0.50400001928E-02 0.  1.
</event>
<event>
 5   0  0.1777590E-04  0.2102183E+04  0.7818609E-02  0.8560282E-01
        2   -1    0    0  501    0  0.00000000000E+00  0.00000000000E+00  0.10560556740E+04  0.10560556740E+04  0.25500000920E-02 0. -1.
       -2   -1    0    0    0  501  0.00000000000E+00  0.00000000000E+00 -0.10461504112E+04  0.10461504112E+04  0.25500000920E-02 0.  1.
    10030    2    1    2    0    0  0.00000000000E+00  0.00000000000E+00  0.99052627557E+01  0.21022060852E+04  0.21021827490E+04 0.  0.
        4    1    3    3  502    0 -0.68368679837E+03  0.40323944244E+03 -0.68408460937E+03  0.10478564080E+04  0.12699999809E+01 0.  1.
       -4    1    3    3    0  502  0.68368679837E+03 -0.40323944244E+03  0.69398987212E+03  0.10543496772E+04  0.12699999809E+01 0. -1.
</event>
<event>
 5   0  0.8237966E-05  0.2138165E+04  0.7818609E-02  0.8544615E-01
        1   -1    0    0  501    0  0.00000000000E+00  0.00000000000E+00  0.11789323522E+04  0.11789323522E+04  0.50400001928E-02 0. -1.
       -1   -1    0    0    0  501  0.00000000000E+00  0.00000000000E+00 -0.96946787418E+03  0.96946787419E+03  0.50400001928E-02 0.  1.
    10030    2    1    2    0    0  0.00000000000E+00  0.00000000000E+00  0.20946447801E+03  0.21484002264E+04  0.21381646721E+04 0.  0.
        1    1    3    3  502    0  0.59488234853E+03  0.82999162562E+03 -0.21327284448E+03  0.10431952902E+04  0.50400001928E-02 0.  1.
       -1    1    3    3    0  502 -0.59488234853E+03 -0.82999162562E+03  0.42273732249E+03  0.11052049362E+04  0.50400001928E-02 0. -1.
</event>
<event>
 5   0  0.1777590E-04  0.2070283E+04  0.7818609E-02  0.8574448E-01
       -2   -1    0    0    0  501  0.00000000000E+00  0.00000000000E+00  0.67234088189E+03  0.67234088189E+03  0.25500000920E-02 0. -1.
        2   -1    0    0  501    0  0.00000000000E+00  0.00000000000E+00 -0.15937119408E+04  0.15937119408E+04  0.25500000920E-02 0.  1.
    10030    2    1    2    0    0  0.00000000000E+00  0.00000000000E+00 -0.92137105892E+03  0.22660528227E+04  0.20702827747E+04 0.  0.
        4    1    3    3  502    0 -0.10251806951E+04  0.86647403713E+02 -0.58554645522E+03  0.11837945321E+04  0.12699999809E+01 0. -1.
       -4    1    3    3    0  502  0.10251806951E+04 -0.86647403713E+02 -0.33582460370E+03  0.10822582906E+04  0.12699999809E+01 0.  1.
</event>
<event>
 5   0  0.1810875E-04  0.2080118E+04  0.7818609E-02  0.8570052E-01
       -2   -1    0    0    0  501  0.00000000000E+00  0.00000000000E+00  0.84032793621E+03  0.84032793621E+03  0.25500000920E-02 0.  1.
        2   -1    0    0  501    0  0.00000000000E+00  0.00000000000E+00 -0.12872626122E+04  0.12872626122E+04  0.25500000920E-02 0. -1.
    10030    2    1    2    0    0  0.00000000000E+00  0.00000000000E+00 -0.44693467601E+03  0.21275905484E+04  0.20801180104E+04 0.  0.
        1    1    3    3  502    0  0.59782753941E+02 -0.99614695872E+03 -0.52313847484E+03  0.11267460250E+04  0.50400001928E-02 0. -1.
       -1    1    3    3    0  502 -0.59782753941E+02  0.99614695872E+03  0.76203798830E+02  0.10008445234E+04  0.50400001928E-02 0.  1.
</event>
<event>
 5   0  0.8271069E-05  0.2096491E+04  0.7818609E-02  0.8562791E-01
       -1   -1    0    0    0  501  0.00000000000E+00  0.00000000000E+00  0.10715101380E+04  0.10715101380E+04  0.50400001928E-02 0.  1.
        1   -1    0    0  501    0  0.00000000000E+00  0.00000000000E+00 -0.10254861848E+04  0.10254861848E+04  0.50400001928E-02 0. -1.
    10030    2    1    2    0    0  0.00000000000E+00  0.00000000000E+00  0.46023953203E+02  0.20969963227E+04  0.20964912052E+04 0.  0.
        2    1    3    3  502    0  0.89136929394E+02 -0.10210019671E+04 -0.19710565875E+03  0.10436671163E+04  0.25500000920E-02 0. -1.
       -2    1    3    3    0  502 -0.89136929394E+02  0.10210019671E+04  0.24312961195E+03  0.10533292064E+04  0.25500000920E-02 0.  1.
</event>
<event>
 5   0  0.8237966E-05  0.1373435E+04  0.7818609E-02  0.8973275E-01
        1   -1    0    0  501    0  0.00000000000E+00  0.00000000000E+00  0.48136920405E+03  0.48136920408E+03  0.50400001928E-02 0.  1.
       -1   -1    0    0    0  501  0.00000000000E+00  0.00000000000E+00 -0.97966623700E+03  0.97966623701E+03  0.50400001928E-02 0. -1.
    10030    2    1    2    0    0  0.00000000000E+00  0.00000000000E+00 -0.49829703295E+03  0.14610354411E+04  0.13734353378E+04 0.  0.
        1    1    3    3  502    0 -0.21603354009E+03 -0.18224059071E+03 -0.91492550974E+03  0.95758592917E+03  0.50400001928E-02 0. -1.
       -1    1    3    3    0  502  0.21603354009E+03  0.18224059071E+03  0.41662847680E+03  0.50344951192E+03  0.50400001928E-02 0.  1.
</event>
<event>
 5   0  0.6441125E-05  0.2093394E+04  0.7818609E-02  0.8564159E-01
        3   -1    0    0  501    0  0.00000000000E+00  0.00000000000E+00  0.95184461097E+03  0.95184461633E+03  0.10100000352E+00 0. -1.
       -3   -1    0    0    0  501  0.00000000000E+00  0.00000000000E+00 -0.11510015732E+04  0.11510015776E+04  0.10100000352E+00 0.  1.
    10030    2    1    2    0    0  0.00000000000E+00  0.00000000000E+00 -0.19915696218E+03  0.21028461939E+04  0.20933940431E+04 0.  0.
        1    1    3    3  502    0 -0.29203827020E+03  0.23935910899E+03  0.88104424614E+03  0.95854999765E+03  0.50400001928E-02 0. -1.
       -1    1    3    3    0  502  0.29203827020E+03 -0.23935910899E+03 -0.10802012083E+04  0.11442961963E+04  0.50400001928E-02 0.  1.
</event>
<event>
 5   0  0.1777590E-04  0.2060286E+04  0.7818609E-02  0.8578943E-01
        2   -1    0    0  501    0  0.00000000000E+00  0.00000000000E+00  0.18469083513E+04  0.18469083513E+04  0.25500000920E-02 0.  1.
       -2   -1    0    0    0  501  0.00000000000E+00  0.00000000000E+00 -0.57457870881E+03  0.57457870881E+03  0.25500000920E-02 0. -1.
    10030    2    1    2    0    0  0.00000000000E+00  0.00000000000E+00  0.12723296425E+04  0.24214870601E+04  0.20602856266E+04 0.  0.
        4    1    3    3  502    0 -0.33199845568E+03  0.21171782478E+03  0.17549678023E+04  0.17985997364E+04  0.12699999809E+01 0.  1.
       -4    1    3    3    0  502  0.33199845568E+03 -0.21171782478E+03 -0.48263815975E+03  0.62288732373E+03  0.12699999809E+01 0. -1.
</event>
<event>
 5   0  0.8525278E-05  0.2052555E+04  0.7818609E-02  0.8582436E-01
        1   -1    0    0  501    0  0.00000000000E+00  0.00000000000E+00  0.17448775159E+04  0.17448775159E+04  0.50400001928E-02 0.  1.
       -1   -1    0    0    0  501  0.00000000000E+00  0.00000000000E+00 -0.60362126201E+03  0.60362126203E+03  0.50400001928E-02 0. -1.
    10030    2    1    2    0    0  0.00000000000E+00  0.00000000000E+00  0.11412562539E+04  0.23484987779E+04  0.20525546699E+04 0.  0.
        4    1    3    3  502    0  0.53325425956E+03 -0.35675723407E+03 -0.34586750104E+03  0.72887706136E+03  0.12699999809E+01 0. -1.
       -4    1    3    3    0  502 -0.53325425956E+03  0.35675723407E+03  0.14871237549E+04  0.16196217165E+04  0.12699999809E+01 0.  1.
</event>
<event>
 5   0  0.1777590E-04  0.1886458E+04  0.7818609E-02  0.8661627E-01
        2   -1    0    0  501    0  0.00000000000E+00  0.00000000000E+00  0.13857895876E+04  0.13857895876E+04  0.25500000920E-02 0. -1.
       -2   -1    0    0    0  501  0.00000000000E+00  0.00000000000E+00 -0.64200296897E+03  0.64200296897E+03  0.25500000920E-02 0.  1.
    10030    2    1    2    0    0  0.00000000000E+00  0.00000000000E+00  0.74378661864E+03  0.20277925566E+04  0.18864580882E+04 0.  0.
        4    1    3    3  502    0  0.88957225514E+03  0.26661402547E+03  0.54936129486E+03  0.10789908623E+04  0.12699999809E+01 0. -1.
       -4    1    3    3    0  502 -0.88957225514E+03 -0.26661402547E+03  0.19442532378E+03  0.94880169431E+03  0.12699999809E+01 0.  1.
</event>
<event>
 5   0  0.8271069E-05  0.1982309E+04  0.7818609E-02  0.8614937E-01
        1   -1    0    0  501    0  0.00000000000E+00  0.00000000000E+00  0.14039693155E+04  0.14039693155E+04  0.50400001928E-02 0.  1.
       -1   -1    0    0    0  501  0.00000000000E+00  0.00000000000E+00 -0.69972146792E+03  0.69972146794E+03  0.50400001928E-02 0. -1.
    10030    2    1    2    0    0  0.00000000000E+00  0.00000000000E+00  0.70424784760E+03  0.21036907835E+04  0.19823092296E+04 0.  0.
        2    1    3    3  502    0 -0.14719433896E+03 -0.55476556064E+03  0.12096604269E+04  0.13389209645E+04  0.25500000920E-02 0.  1.
       -2    1    3    3    0  502  0.14719433896E+03  0.55476556064E+03 -0.50541257932E+03  0.76476981899E+03  0.25500000920E-02 0. -1.
</event>
<event>
 5   0  0.1810875E-04  0.2164992E+04  0.7818609E-02  0.8533142E-01
        2   -1    0    0  501    0  0.00000000000E+00  0.00000000000E+00  0.99563049716E+03  0.99563049716E+03  0.25500000920E-02 0. -1.
       -2   -1    0    0    0  501  0.00000000000E+00  0.00000000000E+00 -0.11769400782E+04  0.11769400782E+04  0.25500000920E-02 0.  1.
    10030    2    1    2    0    0  0.00000000000E+00  0.00000000000E+00 -0.18130958104E+03  0.21725705754E+04  0.21649918570E+04 0.  0.
        1    1    3    3  502    0 -0.65037480042E+03 -0.31227927001E+03  0.71919672970E+03  0.10186999850E+04  0.50400001928E-02 0. -1.
       -1    1    3    3    0  502  0.65037480042E+03  0.31227927001E+03 -0.90050631074E+03  0.11538705903E+04  0.50400001928E-02 0.  1.
</event>
<event>
 5   0  0.8755004E-05  0.1641815E+04  0.7818609E-02  0.8795264E-01
        1   -1    0    0  501    0  0.00000000000E+00  0.00000000000E+00  0.14898847773E+04  0.14898847773E+04  0.50400001928E-02 0. -1.
       -1   -1    0    0    0  501  0.00000000000E+00  0.00000000000E+00 -0.45230943110E+03  0.45230943113E+03  0.50400001928E-02 0.  1.
    10030    2    1    2    0    0  0.00000000000E+00  0.00000000000E+00  0.10375753462E+04  0.19421942084E+04  0.16418147716E+04 0.  0.
        3    1    3    3  502    0  0.81577421023E+03  0.74552108343E+02  0.45570887338E+03  0.93739861661E+03  0.10100000352E+00 0.  1.
       -3    1    3    3    0  502 -0.81577421023E+03 -0.74552108343E+02  0.58186647278E+03  0.10047955918E+04  0.10100000352E+00 0. -1.
</event>
<event>
 5   0  0.8237966E-05  0.2103058E+04  0.7818609E-02  0.8559898E-01
        1   -1    0    0  501    0  0.00000000000E+00  0.00000000000E+00  0.62181655275E+03  0.62181655277E+03  0.50400001928E-02 0.  1.
       -1   -1    0    0    0  501  0.00000000000E+00  0.00000000000E+00 -0.17781981599E+04  0.17781981599E+04  0.50400001928E-02 0. -1.
    10030    2    1    2    0    0  0.00000000000E+00  0.00000000000E+00 -0.11563816072E+04  0.24000147127E+04  0.21030578213E+04 0.  0.
        1    1    3    3  502    0 -0.69858578339E+03 -0.17996138063E+03  0.29488862166E+03  0.77933785644E+03  0.50400001928E-02 0.  1.
       -1    1    3    3    0  502  0.69858578339E+03  0.17996138063E+03 -0.14512702288E+04  0.16206768563E+04  0.50400001928E-02 0. -1.
</event>
<event>
 5   0  0.8755004E-05  0.2102513E+04  0.7818609E-02  0.8560137E-01
       -1   -1    0    0    0  501  0.00000000000E+00  0.00000000000E+00  0.68448014276E+03  0.68448014278E+03  0.50400001928E-02 0. -1.
        1   -1    0    0  501    0  0.00000000000E+00  0.00000000000E+00 -0.16145693291E+04  0.16145693291E+04  0.50400001928E-02 0.  1.
    10030    2    1    2    0    0  0.00000000000E+00  0.00000000000E+00 -0.93008918637E+03  0.22990494719E+04  0.21025133958E+04 0.  0.
        3    1    3    3  502    0 -0.73989739963E+03 -0.74675572682E+03 -0.47264855841E+03  0.11526009489E+04  0.10100000352E+00 0.  1.
       -3    1    3    3    0  502  0.73989739963E+03  0.74675572682E+03 -0.45744062796E+03  0.11464485230E+04  0.10100000352E+00 0. -1.
</event>
<event>
 5   0  0.1815400E-04  0.2077981E+04  0.7818609E-02  0.8571005E-01
       -2   -1    0    0    0  501  0.00000000000E+00  0.00000000000E+00  0.61770639207E+03  0.61770639207E+03  0.25500000920E-02 0. -1.
        2   -1    0    0  501    0  0.00000000000E+00  0.00000000000E+00 -0.17475968993E+04  0.17475968994E+04  0.25500000920E-02 0.  1.
    10030    2    1    2    0    0  0.00000000000E+00  0.00000000000E+00 -0.11298905073E+04  0.23653032914E+04  0.20779814970E+04 0.  0.
        3    1    3    3  502    0  0.52392157920E+03  0.42918404198E+03  0.33191373044E+03  0.75422774923E+03  0.10100000352E+00 0. -1.
       -3    1    3    3    0  502 -0.52392157920E+03 -0.42918404198E+03 -0.14618042377E+04  0.16110755422E+04  0.10100000352E+00 0.  1.
</event>
<event>
 5   0  0.1886323E-04  0.2105387E+04  0.7818609E-02  0.8558874E-01
        2   -1    0    0  501    0  0.00000000000E+00  0.00000000000E+00  0.19702974560E+04  0.19702974560E+04  0.25500000920E-02 0. -1.
       -2   -1    0    0    0  501  0.00000000000E+00  0.00000000000E+00 -0.56243447209E+03  0.56243447209E+03  0.25500000920E-02 0.  1.
    10030    2    1    2    0    0  0.00000000000E+00  0.00000000000E+00  0.14078629840E+04  0.25327319281E+04  0.21053866244E+04 0.  0.
        2    1    3    3  502    0 -0.72283142053E+03  0.63299333131E+03  0.12213478632E+04  0.15539808309E+04  0.25500000920E-02 0. -1.
       -2    1    3    3    0  502  0.72283142053E+03 -0.63299333131E+03  0.18651512076E+03  0.97875109720E+03  0.25500000920E-02 0.  1.
</event>
<event>
 5   0  0.8525278E-05  0.2085443E+04  0.7818609E-02  0.8567683E-01
       -1   -1    0    0    0  501  0.00000000000E+00  0.00000000000E+00  0.58068096027E+03  0.58068096029E+03  0.50400001928E-02 0. -1.
        1   -1    0    0  501    0  0.00000000000E+00  0.00000000000E+00 -0.18724013221E+04  0.18724013221E+04  0.50400001928E-02 0.  1.
    10030    2    1    2    0    0  0.00000000000E+00  0.00000000000E+00 -0.12917203618E+04  0.24530822824E+04  0.20854426847E+04 0.  0.
        4    1    3    3  502    0  0.19495470789E+03 -0.42816553059E+03 -0.17404616685E+04  0.18029258144E+04  0.12699999809E+01 0.  1.
       -4    1    3    3    0  502 -0.19495470789E+03  0.42816553059E+03  0.44874130666E+03  0.65015646803E+03  0.12699999809E+01 0. -1.
</event>
<event>
 5   0  0.1810875E-04  0.1867948E+04  0.7818609E-02  0.8670977E-01
       -2   -1    0    0    0  501  0.00000000000E+00  0.00000000000E+00  0.45507045282E+03  0.45507045283E+03  0.25500000920E-02 0.  1.
        2   -1    0    0  501    0  0.00000000000E+00  0.00000000000E+00 -0.19168626471E+04  0.19168626471E+04  0.25500000920E-02 0. -1.
    10030    2    1    2    0    0  0.00000000000E+00  0.00000000000E+00 -0.14617921943E+04  0.23719331000E+04  0.18679481287E+04 0.  0.
        1    1    3    3  502    0  0.35550116378E+02 -0.92141402280E+02  0.44842127440E+03  0.45916825690E+03  0.50400001928E-02 0.  1.
       -1    1    3    3    0  502 -0.35550116378E+02  0.92141402280E+02 -0.19102134687E+04  0.19127648431E+04  0.50400001928E-02 0. -1.
</event>
<event>
 5   0  0.6441125E-05  0.2147923E+04  0.7818609E-02  0.8540422E-01
        4   -1    0    0  501    0  0.00000000000E+00  0.00000000000E+00  0.63132884110E+03  0.63133011848E+03  0.12699999809E+01 0. -1.
       -4   -1    0    0    0  501  0.00000000000E+00  0.00000000000E+00 -0.18269260837E+04  0.18269265251E+04  0.12699999809E+01 0.  1.
    10030    2    1    2    0    0  0.00000000000E+00  0.00000000000E+00 -0.11955972426E+04  0.24582566436E+04  0.21479229407E+04 0.  0.
        2    1    3    3  502    0 -0.61810128527E+03  0.38856989074E+03 -0.14992234935E+04  0.16675451545E+04  0.25500000920E-02 0.  1.
       -2    1    3    3    0  502  0.61810128527E+03 -0.38856989074E+03  0.30362625085E+03  0.79071148914E+03  0.25500000920E-02 0. -1.
</event>
<event>
 5   0  0.8525278E-05  0.1681800E+04  0.7818609E-02  0.8771813E-01
       -1   -1    0    0    0  501  0.00000000000E+00  0.00000000000E+00  0.11060084913E+04  0.11060084913E+04  0.50400001928E-02 0.  1.
        1   -1    0    0  501    0  0.00000000000E+00  0.00000000000E+00 -0.63933733114E+03  0.63933733116E+03  0.50400001928E-02 0. -1.
    10030    2    1    2    0    0  0.00000000000E+00  0.00000000000E+00  0.46667116015E+03  0.17453458225E+04  0.16817996516E+04 0.  0.
        4    1    3    3  502    0  0.95941219362E+02  0.29155560995E+03  0.10457966854E+04  0.10899090382E+04  0.12699999809E+01 0.  1.
       -4    1    3    3    0  502 -0.95941219362E+02 -0.29155560995E+03 -0.57912552530E+03  0.65543678430E+03  0.12699999809E+01 0. -1.
</event>
<event>
 5   0  0.1810875E-04  0.2081550E+04  0.7818609E-02  0.8569414E-01
       -2   -1    0    0    0  501  0.00000000000E+00  0.00000000000E+00  0.77521178354E+03  0.77521178354E+03  0.25500000920E-02 0. -1.
        2   -1    0    0  501    0  0.00000000000E+00  0.00000000000E+00 -0.13973124757E+04  0.13973124757E+04  0.25500000920E-02 0.  1.
    10030    2    1    2    0    0  0.00000000000E+00  0.00000000000E+00 -0.62210069213E+03  0.21725242592E+04  0.20815504764E+04 0.  0.
        1    1    3    3  502    0  0.61321419724E+03  0.65528630452E+03 -0.86113457515E+03  0.12437783360E+04  0.50400001928E-02 0.  1.
       -1    1    3    3    0  502 -0.61321419724E+03 -0.65528630452E+03  0.23903388302E+03  0.92874592320E+03  0.50400001928E-02 0. -1.
</event>
<event>
 5   0  0.8237966E-05  0.2111296E+04  0.7818609E-02  0.8556284E-01
        1   -1    0    0  501    0  0.00000000000E+00  0.00000000000E+00  0.10631612369E+04  0.10631612369E+04  0.50400001928E-02 0.  1.
       -1   -1    0    0    0  501  0.00000000000E+00  0.00000000000E+00 -0.10481881641E+04  0.10481881641E+04  0.50400001928E-02 0. -1.
    10030    2    1    2    0    0  0.00000000000E+00  0.00000000000E+00  0.14973072756E+02  0.21113494010E+04  0.21112963080E+04 0.  0.
        1    1    3    3  502    0 -0.38729283654E+03 -0.71562806989E+03  0.68001645870E+03  0.10604440861E+04  0.50400001928E-02 0.  1.
       -1    1    3    3    0  502  0.38729283654E+03  0.71562806989E+03 -0.66504338594E+03  0.10509053149E+04  0.50400001928E-02 0. -1.
</event>
<event>
 5   0  0.1810875E-04  0.1742203E+04  0.7818609E-02  0.8737654E-01
       -2   -1    0    0    0  501  0.00000000000E+00  0.00000000000E+00  0.11220058726E+04  0.11220058726E+04  0.25500000920E-02 0. -1.
        2   -1    0    0  501    0  0.00000000000E+00  0.00000000000E+00 -0.67630441300E+03  0.67630441300E+03  0.25500000920E-02 0.  1.
    10030    2    1    2    0    0  0.00000000000E+00  0.00000000000E+00  0.44570145965E+03  0.17983102856E+04  0.17422026554E+04 0.  0.
        1    1    3    3  502    0 -0.15347677645E+03  0.85378679006E+03  0.14085362742E+03  0.87883260532E+03  0.50400001928E-02 0.  1.
       -1    1    3    3    0  502  0.15347677645E+03 -0.85378679006E+03  0.30484783223E+03  0.91947768033E+03  0.50400001928E-02 0. -1.
</event>
<event>
 5   0  0.8525278E-05  0.2095303E+04  0.7818609E-02  0.8563315E-01
       -1   -1    0    0    0  501  0.00000000000E+00  0.00000000000E+00  0.11701048887E+04  0.11701048888E+04  0.50400001928E-02 0. -1.
        1   -1    0    0  501    0  0.00000000000E+00  0.00000000000E+00 -0.93801305209E+03  0.93801305210E+03  0.50400001928E-02 0.  1.
    10030    2    1    2    0    0  0.00000000000E+00  0.00000000000E+00  0.23209183666E+03  0.21081179409E+04  0.20953029929E+04 0.  0.
        4    1    3    3  502    0 -0.60554320040E+03  0.85339579537E+03  0.16739820277E+03  0.10597125659E+04  0.12699999809E+01 0. -1.
       -4    1    3    3    0  502  0.60554320040E+03 -0.85339579537E+03  0.64693633893E+02  0.10484053750E+04  0.12699999809E+01 0.  1.
</event>
<event>
 5   0  0.1886323E-04  0.2156444E+04  0.7818609E-02  0.8536779E-01
       -2   -1    0    0    0  501  0.00000000000E+00  0.00000000000E+00  0.10140660794E+04  0.10140660794E+04  0.25500000920E-02 0. -1.
        2   -1    0    0  501    0  0.00000000000E+00  0.00000000000E+00 -0.11464368796E+04  0.11464368796E+04  0.25500000920E-02 0.  1.
    10030    2    1    2    0    0  0.00000000000E+00  0.00000000000E+00 -0.13237080026E+03  0.21605029590E+04  0.21564440654E+04 0.  0.
        2    1    3    3  502    0  0.69069932245E+03  0.65512768804E+03  0.44103315292E+03  0.10491749538E+04  0.25500000920E-02 0. -1.
       -2    1    3    3    0  502 -0.69069932245E+03 -0.65512768804E+03 -0.57340395318E+03  0.11113280052E+04  0.25500000920E-02 0.  1.
</event>
<event>
 5   0  0.1886323E-04  0.2047493E+04  0.7818609E-02  0.8584732E-01
       -2   -1    0    0    0  501  0.00000000000E+00  0.00000000000E+00  0.55894244830E+03  0.55894244831E+03  0.25500000920E-02 0.  1.
        2   -1    0    0  501    0  0.00000000000E+00  0.00000000000E+00 -0.18750720987E+04  0.18750720987E+04  0.25500000920E-02 0. -1.
    10030    2    1    2    0    0  0.00000000000E+00  0.00000000000E+00 -0.13161296504E+04  0.24340145470E+04  0.20474934819E+04 0.  0.
        2    1    3    3  502    0 -0.89157283265E+03 -0.30378183260E+03 -0.18125993693E+03  0.95918751163E+03  0.25500000920E-02 0.  1.
       -2    1    3    3    0  502  0.89157283265E+03  0.30378183260E+03 -0.11348697135E+04  0.14748270354E+04  0.25500000920E-02 0. -1.
</event>
<event>
 5   0  0.8525278E-05  0.2118085E+04  0.7818609E-02  0.8553318E-01
        1   -1    0    0  501    0  0.00000000000E+00  0.00000000000E+00  0.20757183760E+04  0.20757183760E+04  0.50400001928E-02 0.  1.
       -1   -1    0    0    0  501  0.00000000000E+00  0.00000000000E+00 -0.54032901826E+03  0.54032901828E+03  0.50400001928E-02 0. -1.
    10030    2    1    2    0    0  0.00000000000E+00  0.00000000000E+00  0.15353893577E+04  0.26160473943E+04  0.21180848636E+04 0.  0.
        4    1    3    3  502    0 -0.89140839323E+02  0.75658364587E+03 -0.14092657894E+03  0.77474306450E+03  0.12699999809E+01 0. -1.
       -4    1    3    3    0  502  0.89140839323E+02 -0.75658364587E+03  0.16763159367E+04  0.18413043298E+04  0.12699999809E+01 0.  1.
</event>
<event>
 5   0  0.8486612E-05  0.1860444E+04  0.7818609E-02  0.8674800E-01
       -1   -1    0    0    0  501  0.00000000000E+00  0.00000000000E+00  0.44534365438E+03  0.44534365441E+03  0.50400001928E-02 0. -1.
        1   -1    0    0  501    0  0.00000000000E+00  0.00000000000E+00 -0.19430233317E+04  0.19430233317E+04  0.50400001928E-02 0.  1.
    10030    2    1    2    0    0  0.00000000000E+00  0.00000000000E+00 -0.14976796773E+04  0.23883669861E+04  0.18604441525E+04 0.  0.
        5    1    3    3  502    0 -0.11204179904E+03  0.39144087674E+03 -0.18225372647E+04  0.18674698112E+04  0.46999998093E+01 0.  1.
       -5    1    3    3    0  502  0.11204179904E+03 -0.39144087674E+03  0.32485758738E+03  0.52089717487E+03  0.46999998093E+01 0. -1.
</event>
<event>
 5   0  0.8271069E-05  0.2083346E+04  0.7818609E-02  0.8568615E-01
        1   -1    0    0  501    0  0.00000000000E+00  0.00000000000E+00  0.70270886934E+03  0.70270886936E+03  0.50400001928E-02 0.  1.
       -1   -1    0    0    0  501  0.00000000000E+00  0.00000000000E+00 -0.15441425812E+04  0.15441425812E+04  0.50400001928E-02 0. -1.
    10030    2    1    2    0    0  0.00000000000E+00  0.00000000000E+00 -0.84143371183E+03  0.22468514505E+04  0.20833460465E+04 0.  0.
        2    1    3    3  502    0 -0.99152245893E+03  0.31490980027E+03 -0.47776151012E+03  0.11447886396E+04  0.25500000920E-02 0.  1.
       -2    1    3    3    0  502  0.99152245893E+03 -0.31490980027E+03 -0.36367220171E+03  0.11020628109E+04  0.25500000920E-02 0. -1.
</event>
<event>
 5   0  0.1815400E-04  0.2131642E+04  0.7818609E-02  0.8547432E-01
        2   -1    0    0  501    0  0.00000000000E+00  0.00000000000E+00  0.20115406596E+04  0.20115406596E+04  0.25500000920E-02 0.  1.
       -2   -1    0    0    0  501  0.00000000000E+00  0.00000000000E+00 -0.56472839620E+03  0.56472839620E+03  0.25500000920E-02 0. -1.
    10030    2    1    2    0    0  0.00000000000E+00  0.00000000000E+00  0.14468122634E+04  0.25762690558E+04  0.21316417434E+04 0.  0.
        3    1    3    3  502    0  0.26739261381E+03 -0.60193359134E+03  0.17361330209E+04  0.18568739146E+04  0.10100000352E+00 0.  1.
       -3    1    3    3    0  502 -0.26739261381E+03  0.60193359134E+03 -0.28932075747E+03  0.71939514122E+03  0.10100000352E+00 0. -1.
</event>
<event>
 5   0  0.8271069E-05  0.2098034E+04  0.7818609E-02  0.8562110E-01
        1   -1    0    0  501    0  0.00000000000E+00  0.00000000000E+00  0.78052529430E+03  0.78052529432E+03  0.50400001928E-02 0.  1.
       -1   -1    0    0    0  501  0.00000000000E+00  0.00000000000E+00 -0.14098671958E+04  0.14098671958E+04  0.50400001928E-02 0. -1.
    10030    2    1    2    0    0  0.00000000000E+00  0.00000000000E+00 -0.62934190149E+03  0.21903924901E+04  0.20980343257E+04 0.  0.
        2    1    3    3  502    0 -0.34121039540E+03  0.16614652436E+03  0.70634119543E+03  0.80183981309E+03  0.25500000920E-02 0.  1.
       -2    1    3    3    0  502  0.34121039540E+03 -0.16614652436E+03 -0.13356830969E+04  0.13885526770E+04  0.25500000920E-02 0. -1.
</event>
<event>
 5   0  0.8237966E-05  0.2117182E+04  0.7818609E-02  0.8553712E-01
        1   -1    0    0  501    0  0.00000000000E+00  0.00000000000E+00  0.85911400026E+03  0.85911400027E+03  0.50400001928E-02 0. -1.
       -1   -1    0    0    0  501  0.00000000000E+00  0.00000000000E+00 -0.13043841195E+04  0.13043841195E+04  0.50400001928E-02 0.  1.
    10030    2    1    2    0    0  0.00000000000E+00  0.00000000000E+00 -0.44527011928E+03  0.21634981198E+04  0.21171817672E+04 0.  0.
        1    1    3    3  502    0  0.61018707655E+03 -0.54271447886E+03  0.46570880271E+03  0.94008082785E+03  0.50400001928E-02 0. -1.
       -1    1    3    3    0  502 -0.61018707655E+03  0.54271447886E+03 -0.91097892199E+03  0.12234172920E+04  0.50400001928E-02 0.  1.
</event>
<event>
 5   0  0.1810875E-04  0.2065907E+04  0.7818609E-02  0.8576412E-01
        2   -1    0    0  501    0  0.00000000000E+00  0.00000000000E+00  0.10418888734E+04  0.10418888734E+04  0.25500000920E-02 0. -1.
       -2   -1    0    0    0  501  0.00000000000E+00  0.00000000000E+00 -0.10240949936E+04  0.10240949936E+04  0.25500000920E-02 0.  1.
    10030    2    1    2    0    0  0.00000000000E+00  0.00000000000E+00  0.17793879812E+02  0.20659838670E+04  0.20659072381E+04 0.  0.
        1    1    3    3  502    0  0.36031072845E+03  0.80526283112E+03  0.54624463910E+03  0.10376199950E+04  0.50400001928E-02 0. -1.
       -1    1    3    3    0  502 -0.36031072845E+03 -0.80526283112E+03 -0.52845075929E+03  0.10283638720E+04  0.50400001928E-02 0.  1.
</event>
<event>
 5   0  0.6441125E-05  0.2083654E+04  0.7818609E-02  0.8568478E-01
        3   -1    0    0  501    0  0.00000000000E+00  0.00000000000E+00  0.10506588792E+04  0.10506588840E+04  0.10100000352E+00 0. -1.
       -3   -1    0    0    0  501  0.00000000000E+00  0.00000000000E+00 -0.10330693826E+04  0.10330693876E+04  0.10100000352E+00 0.  1.
    10030    2    1    2    0    0  0.00000000000E+00  0.00000000000E+00  0.17589496544E+02  0.20837282716E+04  0.20836540307E+04 0.  0.
        2    1    3    3  502    0 -0.51783208169E+03  0.86876809518E+03 -0.24120508245E+03  0.10397537977E+04  0.25500000920E-02 0. -1.
       -2    1    3    3    0  502  0.51783208169E+03 -0.86876809518E+03  0.25879457899E+03  0.10439744739E+04  0.25500000920E-02 0.  1.
</event>
<event>
 5   0  0.8486612E-05  0.2258502E+04  0.7818609E-02  0.8494465E-01
       -1   -1    0    0    0  501  0.00000000000E+00  0.00000000000E+00  0.16367767226E+04  0.16367767227E+04  0.50400001928E-02 0. -1.
        1   -1    0    0  501    0  0.00000000000E+00  0.00000000000E+00 -0.77909673128E+03  0.77909673129E+03  0.50400001928E-02 0.  1.
    10030    2    1    2    0    0  0.00000000000E+00  0.00000000000E+00  0.85767999137E+03  0.24158734539E+04  0.22585016223E+04 0.  0.
        5    1    3    3  502    0 -0.10004354661E+03  0.52698626789E+03 -0.63411281708E+03  0.83056871633E+03  0.46999998093E+01 0.  1.
       -5    1    3    3    0  502  0.10004354661E+03 -0.52698626789E+03  0.14917928084E+04  0.15853047376E+04  0.46999998093E+01 0. -1.
</event>
<event>
 5   0  0.1886323E-04  0.2097088E+04  0.7818609E-02  0.8562527E-01
       -2   -1    0    0    0  501  0.00000000000E+00  0.00000000000E+00  0.12616241056E+04  0.12616241057E+04  0.25500000920E-02 0.  1.
        2   -1    0    0  501    0  0.00000000000E+00  0.00000000000E+00 -0.87145210013E+03  0.87145210013E+03  0.25500000920E-02 0. -1.
    10030    2    1    2    0    0  0.00000000000E+00  0.00000000000E+00  0.39017200552E+03  0.21330762058E+04  0.20970884354E+04 0.  0.
        2    1    3    3  502    0 -0.63934975287E+03 -0.66332471160E+03  0.70435476826E+03  0.11596910878E+04  0.25500000920E-02 0.  1.
       -2    1    3    3    0  502  0.63934975287E+03  0.66332471160E+03 -0.31418276274E+03  0.97338511799E+03  0.25500000920E-02 0. -1.
</event>
<event>
 5   0  0.1886323E-04  0.1693504E+04  0.7818609E-02  0.8765078E-01
        2   -1    0    0  501    0  0.00000000000E+00  0.00000000000E+00  0.10354599973E+04  0.10354599973E+04  0.25500000920E-02 0. -1.
       -2   -1    0    0    0  501  0.00000000000E+00  0.00000000000E+00 -0.69243489824E+03  0.69243489825E+03  0.25500000920E-02 0.  1.
    10030    2    1    2    0    0  0.00000000000E+00  0.00000000000E+00  0.34302509909E+03  0.17278948956E+04  0.16935036320E+04 0.  0.
        2    1    3    3  502    0  0.78108864661E+02  0.22930504013E+03  0.99935057969E+03  0.10282914846E+04  0.25500000920E-02 0. -1.
       -2    1    3    3    0  502 -0.78108864661E+02 -0.22930504013E+03 -0.65632548060E+03  0.69960341098E+03  0.25500000920E-02 0.  1.
</event>
<event>
 5   0  0.8755004E-05  0.2089055E+04  0.7818609E-02  0.8566080E-01
        1   -1    0    0  501    0  0.00000000000E+00  0.00000000000E+00  0.20967605286E+04  0.20967605286E+04  0.50400001928E-02 0. -1.
       -1   -1    0    0    0  501  0.00000000000E+00  0.00000000000E+00 -0.52034430112E+03  0.52034430114E+03  0.50400001928E-02 0.  1.
    10030    2    1    2    0    0  0.00000000000E+00  0.00000000000E+00  0.15764162275E+04  0.26171048297E+04  0.20890547067E+04 0.  0.
        3    1    3    3  502    0  0.56122804274E+03 -0.19739022865E+03  0.18637660114E+04  0.19564160022E+04  0.10100000352E+00 0. -1.
       -3    1    3    3    0  502 -0.56122804274E+03  0.19739022865E+03 -0.28734978390E+03  0.66068882754E+03  0.10100000352E+00 0.  1.
</event>
<event>
 5   0  0.1921687E-04  0.2115831E+04  0.7818609E-02  0.8554301E-01
       -2   -1    0    0    0  501  0.00000000000E+00  0.00000000000E+00  0.60528393871E+03  0.60528393872E+03  0.25500000920E-02 0. -1.
        2   -1    0    0  501    0  0.00000000000E+00  0.00000000000E+00 -0.18490257618E+04  0.18490257618E+04  0.25500000920E-02 0.  1.
    10030    2    1    2    0    0  0.00000000000E+00  0.00000000000E+00 -0.12437418231E+04  0.24543097005E+04  0.21158313694E+04 0.  0.
        5    1    3    3  502    0  0.28654419532E+03  0.78102374702E+03  0.13616828050E+03  0.84301219439E+03  0.46999998093E+01 0. -1.
       -5    1    3    3    0  502 -0.28654419532E+03 -0.78102374702E+03 -0.13799101036E+04  0.16112975062E+04  0.46999998093E+01 0.  1.
</event>
<event>
 5   0  0.8525278E-05  0.2062698E+04  0.7818609E-02  0.8577856E-01
       -1   -1    0    0    0  501  0.00000000000E+00  0.00000000000E+00  0.80588150340E+03  0.80588150342E+03  0.50400001928E-02 0.  1.
        1   -1    0    0  501    0  0.00000000000E+00  0.00000000000E+00 -0.13198969755E+04  0.13198969755E+04  0.50400001928E-02 0. -1.
    10030    2    1    2    0    0  0.00000000000E+00  0.00000000000E+00 -0.51401547213E+03  0.21257784790E+04  0.20626978053E+04 0.  0.
        4    1    3    3  502    0 -0.37590668666E+03 -0.94135228152E+03 -0.45316776619E+03  0.11103209411E+04  0.12699999809E+01 0.  1.
       -4    1    3    3    0  502  0.37590668666E+03  0.94135228152E+03 -0.60847705942E+02  0.10154575379E+04  0.12699999809E+01 0. -1.
</event>
<event>
 5   0  0.1886323E-04  0.1990814E+04  0.7818609E-02  0.8610928E-01
       -2   -1    0    0    0  501  0.00000000000E+00  0.00000000000E+00  0.83949610999E+03  0.83949610999E+03  0.25500000920E-02 0. -1.
        2   -1    0    0  501    0  0.00000000000E+00  0.00000000000E+00 -0.11802732861E+04  0.11802732861E+04  0.25500000920E-02 0.  1.
    10030    2    1    2    0    0  0.00000000000E+00  0.00000000000E+00 -0.34077717610E+03  0.20197693961E+04  0.19908137355E+04 0.  0.
        2    1    3    3  502    0  0.54873192213E+03  0.63198027122E+03 -0.71704746279E+03  0.11021174391E+04  0.25500000920E-02 0. -1.
       -2    1    3    3    0  502 -0.54873192213E+03 -0.63198027122E+03  0.37627028669E+03  0.91765195702E+03  0.25500000920E-02 0.  1.
</event>
<event>
 5   0  0.8486612E-05  0.2074765E+04  0.7818609E-02  0.8572442E-01
        1   -1    0    0  501    0  0.00000000000E+00  0.00000000000E+00  0.14495744962E+04  0.14495744962E+04  0.50400001928E-02 0. -1.
       -1   -1    0    0    0  501  0.00000000000E+00  0.00000000000E+00 -0.74239856920E+03  0.74239856922E+03  0.50400001928E-02 0.  1.
    10030    2    1    2    0    0  0.00000000000E+00  0.00000000000E+00  0.70717592703E+03  0.21919730655E+04  0.20747645958E+04 0.  0.
        5    1    3    3  502    0  0.47071324866E+03  0.48536609760E+03  0.11847922152E+04  0.13641502463E+04  0.46999998093E+01 0. -1.
       -5    1    3    3    0  502 -0.47071324866E+03 -0.48536609760E+03 -0.47761628822E+03  0.82782281917E+03  0.46999998093E+01 0.  1.
</event>
<event>
 5   0  0.6441125E-05  0.2087223E+04  0.7818609E-02  0.8566893E-01
        3   -1    0    0  501    0  0.00000000000E+00  0.00000000000E+00  0.17817952503E+04  0.17817952532E+04  0.10100000352E+00 0.  1.
       -3   -1    0    0    0  501  0.00000000000E+00  0.00000000000E+00 -0.61125132252E+03  0.61125133086E+03  0.10100000352E+00 0. -1.
    10030    2    1    2    0    0  0.00000000000E+00  0.00000000000E+00  0.11705439278E+04  0.23930465841E+04  0.20872227640E+04 0.  0.
        2    1    3    3  502    0 -0.62620107405E+02  0.42048238554E+03 -0.50747708052E+03  0.66201185915E+03  0.25500000920E-02 0. -1.
       -2    1    3    3    0  502  0.62620107405E+02 -0.42048238554E+03  0.16780210083E+04  0.17310347249E+04  0.25500000920E-02 0.  1.
</event>
<event>
 5   0  0.8271069E-05  0.2068587E+04  0.7818609E-02  0.8575209E-01
       -1   -1    0    0    0  501  0.00000000000E+00  0.00000000000E+00  0.54108091305E+03  0.54108091308E+03  0.50400001928E-02 0. -1.
        1   -1    0    0  501    0  0.00000000000E+00  0.00000000000E+00 -0.19770843291E+04  0.19770843291E+04  0.50400001928E-02 0.  1.
    10030    2    1    2    0    0  0.00000000000E+00  0.00000000000E+00 -0.14360034161E+04  0.25181652422E+04  0.20685865648E+04 0.  0.
        2    1    3    3  502    0 -0.85254267974E+03  0.11275611315E+03 -0.18462646378E+02  0.86016500228E+03  0.25500000920E-02 0. -1.
       -2    1    3    3    0  502  0.85254267974E+03 -0.11275611315E+03 -0.14175407697E+04  0.16580002399E+04  0.25500000920E-02 0.  1.
</event>
<event>
 5   0  0.8486612E-05  0.2090155E+04  0.7818609E-02  0.8565593E-01
       -1   -1    0    0    0  501  0.00000000000E+00  0.00000000000E+00  0.39177511874E+03  0.39177511877E+03  0.50400001928E-02 0.  1.
        1   -1    0    0  501    0  0.00000000000E+00  0.00000000000E+00 -0.27877905313E+04  0.27877905313E+04  0.50400001928E-02 0. -1.
    10030    2    1    2    0    0  0.00000000000E+00  0.00000000000E+00 -0.23960154126E+04  0.31795656501E+04  0.20901549861E+04 0.  0.
        5    1    3    3  502    0  0.12811269889E+03  0.10546010820E+03  0.37159121797E+03  0.40698503819E+03  0.46999998093E+01 0.  1.
       -5    1    3    3    0  502 -0.12811269889E+03 -0.10546010820E+03 -0.27676066306E+04  0.27725806119E+04  0.46999998093E+01 0. -1.
</event>
<event>
 5   0  0.1886323E-04  0.2087365E+04  0.7818609E-02  0.8566830E-01
       -2   -1    0    0    0  501  0.00000000000E+00  0.00000000000E+00  0.10072328628E+04  0.10072328628E+04  0.25500000920E-02 0.  1.
        2   -1    0    0  501    0  0.00000000000E+00  0.00000000000E+00 -0.10814513669E+04  0.10814513669E+04  0.25500000920E-02 0. -1.
    10030    2    1    2    0    0  0.00000000000E+00  0.00000000000E+00 -0.74218504145E+02  0.20886842297E+04  0.20873651873E+04 0.  0.
        2    1    3    3  502    0 -0.89259206587E+02  0.10370569595E+03 -0.10724375606E+04  0.10811310738E+04  0.25500000920E-02 0. -1.
       -2    1    3    3    0  502  0.89259206587E+02 -0.10370569595E+03  0.99821905644E+03  0.10075531559E+04  0.25500000920E-02 0.  1.
</event>
<event>
 5   0  0.1886323E-04  0.2108124E+04  0.7818609E-02  0.8557673E-01
        2   -1    0    0  501    0  0.00000000000E+00  0.00000000000E+00  0.75282045099E+03  0.75282045100E+03  0.25500000920E-02 0. -1.
       -2   -1    0    0    0  501  0.00000000000E+00  0.00000000000E+00 -0.14758452024E+04  0.14758452024E+04  0.25500000920E-02 0.  1.
    10030    2    1    2    0    0  0.00000000000E+00  0.00000000000E+00 -0.72302475142E+03  0.22286656534E+04  0.21081237638E+04 0.  0.
        2    1    3    3  502    0  0.87651207585E+03  0.12418862100E+03 -0.96637274960E+03  0.13105619115E+04  0.25500000920E-02 0.  1.
       -2    1    3    3    0  502 -0.87651207585E+03 -0.12418862100E+03  0.24334799818E+03  0.91810374191E+03  0.25500000920E-02 0. -1.
</event>
<event>
 5   0  0.8525278E-05  0.2127660E+04  0.7818609E-02  0.8549156E-01
       -1   -1    0    0    0  501  0.00000000000E+00  0.00000000000E+00  0.89417280052E+03  0.89417280054E+03  0.50400001928E-02 0.  1.
        1   -1    0    0  501    0  0.00000000000E+00  0.00000000000E+00 -0.12656775451E+04  0.12656775452E+04  0.50400001928E-02 0. -1.
    10030    2    1    2    0    0  0.00000000000E+00  0.00000000000E+00 -0.37150474462E+03  0.21598503457E+04  0.21276601563E+04 0.  0.
        4    1    3    3  502    0 -0.28239082869E+03  0.57599568329E+03 -0.10472481403E+04  0.12281066271E+04  0.12699999809E+01 0. -1.
       -4    1    3    3    0  502  0.28239082869E+03 -0.57599568329E+03  0.67574339572E+03  0.93174371855E+03  0.12699999809E+01 0.  1.
</event>
<event>
 5   0  0.1777590E-04  0.2123723E+04  0.7818609E-02  0.8550865E-01
       -2   -1    0    0    0  501  0.00000000000E+00  0.00000000000E+00  0.10764349760E+04  0.10764349760E+04  0.25500000920E-02 0.  1.
        2   -1    0    0  501    0  0.00000000000E+00  0.00000000000E+00 -0.10474851032E+04  0.10474851033E+04  0.25500000920E-02 0. -1.
    10030    2    1    2    0    0  0.00000000000E+00  0.00000000000E+00  0.28949872722E+02  0.21239200792E+04  0.21237227709E+04 0.  0.
        4    1    3    3  502    0 -0.51056272445E+03 -0.86634673437E+03 -0.32660957457E+03  0.10573109225E+04  0.12699999809E+01 0. -1.
       -4    1    3    3    0  502  0.51056272445E+03  0.86634673437E+03  0.35555944730E+03  0.10666091567E+04  0.12699999809E+01 0.  1.
</event>
<event>
 5   0  0.6441125E-05  0.2206806E+04  0.7818609E-02  0.8515601E-01
       -3   -1    0    0    0  501  0.00000000000E+00  0.00000000000E+00  0.96960820765E+03  0.96960821291E+03  0.10100000352E+00 0.  1.
        3   -1    0    0  501    0  0.00000000000E+00  0.00000000000E+00 -0.12556600298E+04  0.12556600339E+04  0.10100000352E+00 0. -1.
    10030    2    1    2    0    0  0.00000000000E+00  0.00000000000E+00 -0.28605182216E+03  0.22252682468E+04  0.22068060914E+04 0.  0.
        3    1    3    3  502    0  0.17360711155E+03 -0.26464305730E+03  0.92285220489E+03  0.97561856236E+03  0.10100000352E+00 0.  1.
       -3    1    3    3    0  502 -0.17360711155E+03  0.26464305730E+03 -0.12089040270E+04  0.12496496844E+04  0.10100000352E+00 0. -1.
</event>
<event>
 5   0  0.6441125E-05  0.2217581E+04  0.7818609E-02  0.8511146E-01
       -3   -1    0    0    0  501  0.00000000000E+00  0.00000000000E+00  0.66304443457E+03  0.66304444226E+03  0.10100000352E+00 0.  1.
        3   -1    0    0  501    0  0.00000000000E+00  0.00000000000E+00 -0.18541997203E+04  0.18541997230E+04  0.10100000352E+00 0. -1.
    10030    2    1    2    0    0  0.00000000000E+00  0.00000000000E+00 -0.11911552857E+04  0.25172441653E+04  0.22175814017E+04 0.  0.
        2    1    3    3  502    0  0.79552049344E+03  0.54234427426E+03 -0.12198236919E+04  0.15540141591E+04  0.25500000920E-02 0. -1.
       -2    1    3    3    0  502 -0.79552049344E+03 -0.54234427426E+03  0.28668406208E+02  0.96323000619E+03  0.25500000920E-02 0.  1.
</event>
<event>
 5   0  0.8755004E-05  0.2141511E+04  0.7818609E-02  0.8543175E-01
       -1   -1    0    0    0  501  0.00000000000E+00  0.00000000000E+00  0.73626846290E+03  0.73626846291E+03  0.50400001928E-02 0. -1.
        1   -1    0    0  501    0  0.00000000000E+00  0.00000000000E+00 -0.15572002658E+04  0.15572002658E+04  0.50400001928E-02 0.  1.
    10030    2    1    2    0    0  0.00000000000E+00  0.00000000000E+00 -0.82093180288E+03  0.22934687287E+04  0.21415110984E+04 0.  0.
        3    1    3    3  502    0  0.16411221136E+02  0.76532904043E+03  0.39133747844E+03  0.85973420343E+03  0.10100000352E+00 0. -1.
       -3    1    3    3    0  502 -0.16411221136E+02 -0.76532904043E+03 -0.12122692813E+04  0.14337345253E+04  0.10100000352E+00 0.  1.
</event>
<event>
 5   0  0.1886323E-04  0.2174154E+04  0.7818609E-02  0.8529263E-01
       -2   -1    0    0    0  501  0.00000000000E+00  0.00000000000E+00  0.59504536451E+03  0.59504536451E+03  0.25500000920E-02 0.  1.
        2   -1    0    0  501    0  0.00000000000E+00  0.00000000000E+00 -0.19859603601E+04  0.19859603601E+04  0.25500000920E-02 0. -1.
    10030    2    1    2    0    0  0.00000000000E+00  0.00000000000E+00 -0.13909149956E+04  0.25810057246E+04  0.21741540942E+04 0.  0.
        2    1    3    3  502    0  0.62377729932E+03 -0.78839943108E+03 -0.20446045435E+03  0.10259024610E+04  0.25500000920E-02 0.  1.
       -2    1    3    3    0  502 -0.62377729932E+03  0.78839943108E+03 -0.11864545412E+04  0.15551032636E+04  0.25500000920E-02 0. -1.
</event>
<event>
 5   0  0.8237966E-05  0.2113687E+04  0.7818609E-02  0.8555238E-01
        1   -1    0    0  501    0  0.00000000000E+00  0.00000000000E+00  0.10024192561E+04  0.10024192562E+04  0.50400001928E-02 0.  1.
       -1   -1    0    0    0  501  0.00000000000E+00  0.00000000000E+00 -0.11142223005E+04  0.11142223005E+04  0.50400001928E-02 0. -1.
    10030    2    1    2    0    0  0.00000000000E+00  0.00000000000E+00 -0.11180304433E+03  0.21166415567E+04  0.21136867220E+04 0.  0.
        1    1    3    3  502    0  0.95740512098E+03 -0.43096919969E+03  0.64927309495E+02  0.10519384831E+04  0.50400001928E-02 0.  1.
       -1    1    3    3    0  502 -0.95740512098E+03  0.43096919969E+03 -0.17673035383E+03  0.10647030735E+04  0.50400001928E-02 0. -1.
</event>
<event>
 5   0  0.1886323E-04  0.2107662E+04  0.7818609E-02  0.8557876E-01
        2   -1    0    0  501    0  0.00000000000E+00  0.00000000000E+00  0.16237202914E+04  0.16237202914E+04  0.25500000920E-02 0.  1.
       -2   -1    0    0    0  501  0.00000000000E+00  0.00000000000E+00 -0.68396015948E+03  0.68396015949E+03  0.25500000920E-02 0. -1.
    10030    2    1    2    0    0  0.00000000000E+00  0.00000000000E+00  0.93976013194E+03  0.23076804509E+04  0.21076622021E+04 0.  0.
        2    1    3    3  502    0 -0.87044938848E+03  0.49416862378E+03  0.83082415465E+03  0.13008280219E+04  0.25500000920E-02 0.  1.
       -2    1    3    3    0  502  0.87044938848E+03 -0.49416862378E+03  0.10893597729E+03  0.10068524290E+04  0.25500000920E-02 0. -1.
</event>
<event>
 5   0  0.1886323E-04  0.2053876E+04  0.7818609E-02  0.8581838E-01
        2   -1    0    0  501    0  0.00000000000E+00  0.00000000000E+00  0.13708522955E+04  0.13708522955E+04  0.25500000920E-02 0.  1.
       -2   -1    0    0    0  501  0.00000000000E+00  0.00000000000E+00 -0.76930389624E+03  0.76930389624E+03  0.25500000920E-02 0. -1.
    10030    2    1    2    0    0  0.00000000000E+00  0.00000000000E+00  0.60154839922E+03  0.21401561917E+04  0.20538763469E+04 0.  0.
        2    1    3    3  502    0 -0.47026740433E+03  0.60503675621E+03  0.10131460529E+04  0.12703093452E+04  0.25500000920E-02 0.  1.
       -2    1    3    3    0  502  0.47026740433E+03 -0.60503675621E+03 -0.41159765365E+03  0.86984684654E+03  0.25500000920E-02 0. -1.
</event>
<event>
 5   0  0.8755004E-05  0.2116011E+04  0.7818609E-02  0.8554223E-01
       -1   -1    0    0    0  501  0.00000000000E+00  0.00000000000E+00  0.84772405737E+03  0.84772405738E+03  0.50400001928E-02 0.  1.
        1   -1    0    0  501    0  0.00000000000E+00  0.00000000000E+00 -0.13204478945E+04  0.13204478945E+04  0.50400001928E-02 0. -1.
    10030    2    1    2    0    0  0.00000000000E+00  0.00000000000E+00 -0.47272383714E+03  0.21681719519E+04  0.21160108192E+04 0.  0.
        3    1    3    3  502    0  0.43184698341E+03 -0.88612569680E+03 -0.63010635483E+03  0.11699335862E+04  0.10100000352E+00 0.  1.
       -3    1    3    3    0  502 -0.43184698341E+03  0.88612569680E+03  0.15738251769E+03  0.99823836566E+03  0.10100000352E+00 0. -1.
</event>
<event>
 5   0  0.8237966E-05  0.1326330E+04  0.7818609E-02  0.9008942E-01
        1   -1    0    0  501    0  0.00000000000E+00  0.00000000000E+00  0.86388150929E+03  0.86388150931E+03  0.50400001928E-02 0. -1.
       -1   -1    0    0    0  501  0.00000000000E+00  0.00000000000E+00 -0.50908372710E+03  0.50908372712E+03  0.50400001928E-02 0.  1.
    10030    2    1    2    0    0  0.00000000000E+00  0.00000000000E+00  0.35479778220E+03  0.13729652364E+04  0.13263303036E+04 0.  0.
        1    1    3    3  502    0  0.12731198800E+03  0.54881165939E+03 -0.18473796190E+03  0.59290023981E+03  0.50400001928E-02 0.  1.
       -1    1    3    3    0  502 -0.12731198800E+03 -0.54881165939E+03  0.53953574410E+03  0.78006499662E+03  0.50400001928E-02 0. -1.
</event>
<event>
 5   0  0.8755004E-05  0.2106513E+04  0.7818609E-02  0.8558380E-01
       -1   -1    0    0    0  501  0.00000000000E+00  0.00000000000E+00  0.58876414547E+03  0.58876414549E+03  0.50400001928E-02 0.  1.
        1   -1    0    0  501    0  0.00000000000E+00  0.00000000000E+00 -0.18842003462E+04  0.18842003462E+04  0.50400001928E-02 0. -1.
    10030    2    1    2    0    0  0.00000000000E+00  0.00000000000E+00 -0.12954362007E+04  0.24729644917E+04  0.21065133342E+04 0.  0.
        3    1    3    3  502    0  0.93742917192E+02 -0.10112544493E+04 -0.32000356968E+03  0.10648124673E+04  0.10100000352E+00 0.  1.
       -3    1    3    3    0  502 -0.93742917192E+02  0.10112544493E+04 -0.97543263107E+03  0.14081520244E+04  0.10100000352E+00 0. -1.
</event>
<event>
 5   0  0.6441125E-05  0.2075130E+04  0.7818609E-02  0.8572279E-01
        3   -1    0    0  501    0  0.00000000000E+00  0.00000000000E+00  0.64604676331E+03  0.64604677121E+03  0.10100000352E+00 0. -1.
       -3   -1    0    0    0  501  0.00000000000E+00  0.00000000000E+00 -0.16663512902E+04  0.16663512932E+04  0.10100000352E+00 0.  1.
    10030    2    1    2    0    0  0.00000000000E+00  0.00000000000E+00 -0.10203045268E+04  0.23123980644E+04  0.20751297504E+04 0.  0.
        1    1    3    3  502    0 -0.48813266576E+03 -0.24671829949E+03  0.47236207430E+03  0.72268205177E+03  0.50400001928E-02 0. -1.
       -1    1    3    3    0  502  0.48813266576E+03  0.24671829949E+03 -0.14926666011E+04  0.15897160127E+04  0.50400001928E-02 0.  1.
</event>
<event>
 5   0  0.8525278E-05  0.1933215E+04  0.7818609E-02  0.8638497E-01
       -1   -1    0    0    0  501  0.00000000000E+00  0.00000000000E+00  0.54891599768E+03  0.54891599770E+03  0.50400001928E-02 0.  1.
        1   -1    0    0  501    0  0.00000000000E+00  0.00000000000E+00 -0.17021372192E+04  0.17021372192E+04  0.50400001928E-02 0. -1.
    10030    2    1    2    0    0  0.00000000000E+00  0.00000000000E+00 -0.11532212215E+04  0.22510532169E+04  0.19332153009E+04 0.  0.
        4    1    3    3  502    0  0.21879948315E+03  0.93758638947E+03 -0.47653045362E+03  0.10742552479E+04  0.12699999809E+01 0.  1.
       -4    1    3    3    0  502 -0.21879948315E+03 -0.93758638947E+03 -0.67669076788E+03  0.11767979690E+04  0.12699999809E+01 0. -1.
</event>
<event>
 5   0  0.8525278E-05  0.2129828E+04  0.7818609E-02  0.8548217E-01
        1   -1    0    0  501    0  0.00000000000E+00  0.00000000000E+00  0.14842417659E+04  0.14842417659E+04  0.50400001928E-02 0. -1.
       -1   -1    0    0    0  501  0.00000000000E+00  0.00000000000E+00 -0.76405436823E+03  0.76405436825E+03  0.50400001928E-02 0.  1.
    10030    2    1    2    0    0  0.00000000000E+00  0.00000000000E+00  0.72018739770E+03  0.22482961342E+04  0.21298276032E+04 0.  0.
        4    1    3    3  502    0 -0.47864765880E+03  0.81036468790E+03  0.88604988213E+03  0.12926254350E+04  0.12699999809E+01 0. -1.
       -4    1    3    3    0  502  0.47864765880E+03 -0.81036468790E+03 -0.16586248443E+03  0.95567069920E+03  0.12699999809E+01 0.  1.
</event>
<event>
 5   0  0.1810875E-04  0.2141971E+04  0.7818609E-02  0.8542977E-01
       -2   -1    0    0    0  501  0.00000000000E+00  0.00000000000E+00  0.84007003114E+03  0.84007003115E+03  0.25500000920E-02 0. -1.
        2   -1    0    0  501    0  0.00000000000E+00  0.00000000000E+00 -0.13653738692E+04  0.13653738692E+04  0.25500000920E-02 0.  1.
    10030    2    1    2    0    0  0.00000000000E+00  0.00000000000E+00 -0.52530383808E+03  0.22054439004E+04  0.21419707457E+04 0.  0.
        1    1    3    3  502    0  0.58840685630E+03  0.84085401200E+03 -0.57791401356E+03  0.11778126783E+04  0.50400001928E-02 0.  1.
       -1    1    3    3    0  502 -0.58840685630E+03 -0.84085401200E+03  0.52610175481E+02  0.10276312221E+04  0.50400001928E-02 0. -1.
</event>
<event>
 5   0  0.1815400E-04  0.2070286E+04  0.7818609E-02  0.8574447E-01
        2   -1    0    0  501    0  0.00000000000E+00  0.00000000000E+00  0.64434330846E+03  0.64434330847E+03  0.25500000920E-02 0.  1.
       -2   -1    0    0    0  501  0.00000000000E+00  0.00000000000E+00 -0.16629657894E+04  0.16629657894E+04  0.25500000920E-02 0. -1.
    10030    2    1    2    0    0  0.00000000000E+00  0.00000000000E+00 -0.10186224810E+04  0.23073090979E+04  0.20702858533E+04 0.  0.
        3    1    3    3  502    0 -0.50916522471E+03  0.17909940613E+03 -0.14937236005E+04  0.15882493596E+04  0.10100000352E+00 0. -1.
       -3    1    3    3    0  502  0.50916522471E+03 -0.17909940613E+03  0.47510111952E+03  0.71905973833E+03  0.10100000352E+00 0.  1.
</event>
<event>
 5   0  0.6441125E-05  0.2053802E+04  0.7818609E-02  0.8581872E-01
       -3   -1    0    0    0  501  0.00000000000E+00  0.00000000000E+00  0.68726530985E+03  0.68726531727E+03  0.10100000352E+00 0.  1.
        3   -1    0    0  501    0  0.00000000000E+00  0.00000000000E+00 -0.15343790342E+04  0.15343790376E+04  0.10100000352E+00 0. -1.
    10030    2    1    2    0    0  0.00000000000E+00  0.00000000000E+00 -0.84711372439E+03  0.22216443548E+04  0.20538018350E+04 0.  0.
        2    1    3    3  502    0 -0.58669172194E+03  0.35885190439E+03 -0.12484679685E+04  0.14253610540E+04  0.25500000920E-02 0. -1.
       -2    1    3    3    0  502  0.58669172194E+03 -0.35885190439E+03  0.40135424413E+03  0.79628330082E+03  0.25500000920E-02 0.  1.
</event>
<event>
 5   0  0.1886323E-04  0.2107620E+04  0.7818609E-02  0.8557894E-01
        2   -1    0    0  501    0  0.00000000000E+00  0.00000000000E+00  0.14395043355E+04  0.14395043355E+04  0.25500000920E-02 0.  1.
       -2   -1    0    0    0  501  0.00000000000E+00  0.00000000000E+00 -0.77145683659E+03  0.77145683659E+03  0.25500000920E-02 0. -1.
    10030    2    1    2    0    0  0.00000000000E+00  0.00000000000E+00  0.66804749889E+03  0.22109611721E+04  0.21076199476E+04 0.  0.
        2    1    3    3  502    0  0.63049885299E+03 -0.14120091505E+03 -0.53929095602E+03  0.84160634342E+03  0.25500000920E-02 0. -1.
       -2    1    3    3    0  502 -0.63049885299E+03  0.14120091505E+03  0.12073384549E+04  0.13693548287E+04  0.25500000920E-02 0.  1.
</event>
<event>
 5   0  0.1777590E-04  0.2258384E+04  0.7818609E-02  0.8494513E-01
        2   -1    0    0  501    0  0.00000000000E+00  0.00000000000E+00  0.14191326939E+04  0.14191326939E+04  0.25500000920E-02 0.  1.
       -2   -1    0    0    0  501  0.00000000000E+00  0.00000000000E+00 -0.89848876554E+03  0.89848876555E+03  0.25500000920E-02 0. -1.
    10030    2    1    2    0    0  0.00000000000E+00  0.00000000000E+00  0.52064392837E+03  0.23176214595E+04  0.22583841855E+04 0.  0.
        4    1    3    3  502    0  0.96221922195E+02 -0.70502020560E+03 -0.63946636725E+03  0.95667705960E+03  0.12699999809E+01 0. -1.
       -4    1    3    3    0  502 -0.96221922195E+02  0.70502020560E+03  0.11601102956E+04  0.13609443999E+04  0.12699999809E+01 0.  1.
</event>
<event>
 5   0  0.8525278E-05  0.1891405E+04  0.7818609E-02  0.8659146E-01
        1   -1    0    0  501    0  0.00000000000E+00  0.00000000000E+00  0.14140242815E+04  0.14140242815E+04  0.50400001928E-02 0. -1.
       -1   -1    0    0    0  501  0.00000000000E+00  0.00000000000E+00 -0.63248791543E+03  0.63248791545E+03  0.50400001928E-02 0.  1.
    10030    2    1    2    0    0  0.00000000000E+00  0.00000000000E+00  0.78153636610E+03  0.20465121970E+04  0.18914050547E+04 0.  0.
        4    1    3    3  502    0  0.45878402178E+03  0.68274922472E+03  0.89564022702E+03  0.12160601596E+04  0.12699999809E+01 0.  1.
       -4    1    3    3    0  502 -0.45878402178E+03 -0.68274922472E+03 -0.11410386092E+03  0.83045203743E+03  0.12699999809E+01 0. -1.
</event>
<event>
 5   0  0.1921687E-04  0.2112988E+04  0.7818609E-02  0.8555543E-01
       -2   -1    0    0    0  501  0.00000000000E+00  0.00000000000E+00  0.53343961139E+03  0.53343961139E+03  0.25500000920E-02 0. -1.
        2   -1    0    0  501    0  0.00000000000E+00  0.00000000000E+00 -0.20924203462E+04  0.20924203462E+04  0.25500000920E-02 0.  1.
    10030    2    1    2    0    0  0.00000000000E+00  0.00000000000E+00 -0.15589807348E+04  0.26258599576E+04  0.21129883070E+04 0.  0.
        5    1    3    3  502    0  0.10394081181E+04  0.90993840451E+02 -0.98560528830E+03  0.14353010100E+04  0.46999998093E+01 0.  1.
       -5    1    3    3    0  502 -0.10394081181E+04 -0.90993840451E+02 -0.57337544649E+03  0.11905589476E+04  0.46999998093E+01 0. -1.
</event>
<event>
 5   0  0.1815400E-04  0.1640296E+04  0.7818609E-02  0.8796168E-01
       -2   -1    0    0    0  501  0.00000000000E+00  0.00000000000E+00  0.34923838958E+03  0.34923838959E+03  0.25500000920E-02 0. -1.
        2   -1    0    0  501    0  0.00000000000E+00  0.00000000000E+00 -0.19260281649E+04  0.19260281650E+04  0.25500000920E-02 0.  1.
    10030    2    1    2    0    0  0.00000000000E+00  0.00000000000E+00 -0.15767897754E+04  0.22752665545E+04  0.16402962838E+04 0.  0.
        3    1    3    3  502    0  0.58014714750E+03  0.11678367380E+03 -0.15760394512E+04  0.16834813634E+04  0.10100000352E+00 0.  1.
       -3    1    3    3    0  502 -0.58014714750E+03 -0.11678367380E+03 -0.75032420579E+00  0.59178519110E+03  0.10100000352E+00 0. -1.
</event>
<event>
 5   0  0.8525278E-05  0.2054534E+04  0.7818609E-02  0.8581540E-01
       -1   -1    0    0    0  501  0.00000000000E+00  0.00000000000E+00  0.56845704861E+03  0.56845704863E+03  0.50400001928E-02 0. -1.
        1   -1    0    0  501    0  0.00000000000E+00  0.00000000000E+00 -0.18563888989E+04  0.18563888989E+04  0.50400001928E-02 0.  1.
    10030    2    1    2    0    0  0.00000000000E+00  0.00000000000E+00 -0.12879318503E+04  0.24248459475E+04  0.20545338688E+04 0.  0.
        4    1    3    3  502    0  0.62170142928E+03  0.94632236900E+02  0.31472711627E+03  0.70322307843E+03  0.12699999809E+01 0. -1.
       -4    1    3    3    0  502 -0.62170142928E+03 -0.94632236900E+02 -0.16026589665E+04  0.17216228691E+04  0.12699999809E+01 0.  1.
</event>
<event>
 5   0  0.8755004E-05  0.2126648E+04  0.7818609E-02  0.8549595E-01
       -1   -1    0    0    0  501  0.00000000000E+00  0.00000000000E+00  0.76029975270E+03  0.76029975271E+03  0.50400001928E-02 0. -1.
        1   -1    0    0  501    0  0.00000000000E+00  0.00000000000E+00 -0.14871209424E+04  0.14871209424E+04  0.50400001928E-02 0.  1.
    10030    2    1    2    0    0  0.00000000000E+00  0.00000000000E+00 -0.72682118965E+03  0.22474206951E+04  0.21266477703E+04 0.  0.
        3    1    3    3  502    0  0.76161411039E+03  0.47110634900E+03  0.24243578857E+03  0.92777818847E+03  0.10100000352E+00 0. -1.
       -3    1    3    3    0  502 -0.76161411039E+03 -0.47110634900E+03 -0.96925697822E+03  0.13196425066E+04  0.10100000352E+00 0.  1.
</event>
<event>
 5   0  0.1777590E-04  0.2073053E+04  0.7818609E-02  0.8573207E-01
        2   -1    0    0  501    0  0.00000000000E+00  0.00000000000E+00  0.16489283821E+04  0.16489283821E+04  0.25500000920E-02 0. -1.
       -2   -1    0    0    0  501  0.00000000000E+00  0.00000000000E+00 -0.65156702743E+03  0.65156702743E+03  0.25500000920E-02 0.  1.
    10030    2    1    2    0    0  0.00000000000E+00  0.00000000000E+00  0.99736135471E+03  0.23004954096E+04  0.20730531729E+04 0.  0.
        4    1    3    3  502    0  0.24097343461E+03 -0.67519613537E+03 -0.33207006671E+03  0.79008237514E+03  0.12699999809E+01 0.  1.
       -4    1    3    3    0  502 -0.24097343461E+03  0.67519613537E+03  0.13294314214E+04  0.15104130344E+04  0.12699999809E+01 0. -1.
</event>
<event>
 5   0  0.1815400E-04  0.2130025E+04  0.7818609E-02  0.8548131E-01
       -2   -1    0    0    0  501  0.00000000000E+00  0.00000000000E+00  0.37843981539E+03  0.37843981540E+03  0.25500000920E-02 0.  1.
        2   -1    0    0  501    0  0.00000000000E+00  0.00000000000E+00 -0.29971778967E+04  0.29971778967E+04  0.25500000920E-02 0. -1.
    10030    2    1    2    0    0  0.00000000000E+00  0.00000000000E+00 -0.26187380813E+04  0.33756177121E+04  0.21300248355E+04 0.  0.
        3    1    3    3  502    0  0.91826238981E+03  0.47731518502E+03 -0.17078261108E+04  0.19969240439E+04  0.10100000352E+00 0. -1.
       -3    1    3    3    0  502 -0.91826238981E+03 -0.47731518502E+03 -0.91091197054E+03  0.13786936682E+04  0.10100000352E+00 0.  1.
</event>
<event>
 5   0  0.1886323E-04  0.1737672E+04  0.7818609E-02  0.8740166E-01
        2   -1    0    0  501    0  0.00000000000E+00  0.00000000000E+00  0.87737762042E+03  0.87737762042E+03  0.25500000920E-02 0.  1.
       -2   -1    0    0    0  501  0.00000000000E+00  0.00000000000E+00 -0.86037737369E+03  0.86037737369E+03  0.25500000920E-02 0. -1.
    10030    2    1    2    0    0  0.00000000000E+00  0.00000000000E+00  0.17000246727E+02  0.17377549941E+04  0.17376718364E+04 0.  0.
        2    1    3    3  502    0  0.27989301195E+03  0.52988981574E+03  0.63761888547E+03  0.87503208974E+03  0.25500000920E-02 0.  1.
       -2    1    3    3    0  502 -0.27989301195E+03 -0.52988981574E+03 -0.62061863874E+03  0.86272290437E+03  0.25500000920E-02 0. -1.
</event>
<event>
 5   0  0.1886323E-04  0.2072021E+04  0.7818609E-02  0.8573669E-01
       -2   -1    0    0    0  501  0.00000000000E+00  0.00000000000E+00  0.45205265788E+03  0.45205265789E+03  0.25500000920E-02 0. -1.
        2   -1    0    0  501    0  0.00000000000E+00  0.00000000000E+00 -0.23743205510E+04  0.23743205510E+04  0.25500000920E-02 0.  1.
    10030    2    1    2    0    0  0.00000000000E+00  0.00000000000E+00 -0.19222678931E+04  0.28263732089E+04  0.20720211541E+04 0.  0.
        2    1    3    3  502    0 -0.20380408811E+03  0.47736975290E+03  0.26189382227E+03  0.58138314515E+03  0.25500000920E-02 0. -1.
       -2    1    3    3    0  502  0.20380408811E+03 -0.47736975290E+03 -0.21841617154E+04  0.22449900637E+04  0.25500000920E-02 0.  1.
</event>
<event>
 5   0  0.1777590E-04  0.2097998E+04  0.7818609E-02  0.8562126E-01
        2   -1    0    0  501    0  0.00000000000E+00  0.00000000000E+00  0.14789224615E+04  0.14789224615E+04  0.25500000920E-02 0. -1.
       -2   -1    0    0    0  501  0.00000000000E+00  0.00000000000E+00 -0.74405463619E+03  0.74405463619E+03  0.25500000920E-02 0.  1.
    10030    2    1    2    0    0  0.00000000000E+00  0.00000000000E+00  0.73486782534E+03  0.22229770977E+04  0.20979982022E+04 0.  0.
        4    1    3    3  502    0 -0.51019733491E+03 -0.79006547615E+03  0.85975550066E+03  0.12742393460E+04  0.12699999809E+01 0. -1.
       -4    1    3    3    0  502  0.51019733491E+03  0.79006547615E+03 -0.12488767532E+03  0.94873775170E+03  0.12699999809E+01 0.  1.
</event>
<event>
 5   0  0.1921687E-04  0.1918117E+04  0.7818609E-02  0.8645891E-01
        2   -1    0    0  501    0  0.00000000000E+00  0.00000000000E+00  0.10456102088E+04  0.10456102088E+04  0.25500000920E-02 0. -1.
       -2   -1    0    0    0  501  0.00000000000E+00  0.00000000000E+00 -0.87967108992E+03  0.87967108992E+03  0.25500000920E-02 0.  1.
    10030    2    1    2    0    0  0.00000000000E+00  0.00000000000E+00  0.16593911892E+03  0.19252812988E+04  0.19181168599E+04 0.  0.
        5    1    3    3  502    0 -0.76884799276E+03  0.39137232246E+02  0.65704290536E+03  0.10121197698E+04  0.46999998093E+01 0. -1.
       -5    1    3    3    0  502  0.76884799276E+03 -0.39137232246E+02 -0.49110378645E+03  0.91316152897E+03  0.46999998093E+01 0.  1.
</event>
<event>
 5   0  0.1921687E-04  0.2069619E+04  0.7818609E-02  0.8574746E-01
        2   -1    0    0  501    0  0.00000000000E+00  0.00000000000E+00  0.15046896361E+04  0.15046896361E+04  0.25500000920E-02 0. -1.
       -2   -1    0    0    0  501  0.00000000000E+00  0.00000000000E+00 -0.71166200883E+03  0.71166200883E+03  0.25500000920E-02 0.  1.
    10030    2    1    2    0    0  0.00000000000E+00  0.00000000000E+00  0.79302762730E+03  0.22163516450E+04  0.20696187563E+04 0.  0.
        5    1    3    3  502    0  0.44739611942E+03 -0.46756161257E+03  0.12612477573E+04  0.14175842637E+04  0.46999998093E+01 0. -1.
       -5    1    3    3    0  502 -0.44739611942E+03  0.46756161257E+03 -0.46822013004E+03  0.79876738128E+03  0.46999998093E+01 0.  1.
</event>
<event>
 5   0  0.1815400E-04  0.1989185E+04  0.7818609E-02  0.8611694E-01
        2   -1    0    0  501    0  0.00000000000E+00  0.00000000000E+00  0.15812675360E+04  0.15812675360E+04  0.25500000920E-02 0.  1.
       -2   -1    0    0    0  501  0.00000000000E+00  0.00000000000E+00 -0.62558279324E+03  0.62558279325E+03  0.25500000920E-02 0. -1.
    10030    2    1    2    0    0  0.00000000000E+00  0.00000000000E+00  0.95568474273E+03  0.22068503292E+04  0.19891845184E+04 0.  0.
        3    1    3    3  502    0 -0.16745475269E+02 -0.48504855543E+03  0.14409745645E+04  0.15205131429E+04  0.10100000352E+00 0.  1.
       -3    1    3    3    0  502  0.16745475269E+02  0.48504855543E+03 -0.48528982173E+03  0.68633718633E+03  0.10100000352E+00 0. -1.
</event>
<event>
 5   0  0.8237966E-05  0.2087049E+04  0.7818609E-02  0.8566970E-01
       -1   -1    0    0    0  501  0.00000000000E+00  0.00000000000E+00  0.76468327149E+03  0.76468327151E+03  0.50400001928E-02 0.  1.
        1   -1    0    0  501    0  0.00000000000E+00  0.00000000000E+00 -0.14240455425E+04  0.14240455425E+04  0.50400001928E-02 0. -1.
    10030    2    1    2    0    0  0.00000000000E+00  0.00000000000E+00 -0.65936227101E+03  0.21887288140E+04  0.20870494045E+04 0.  0.
        1    1    3    3  502    0 -0.23204005783E+03  0.15425426162E+03  0.72495026427E+03  0.77665298001E+03  0.50400001928E-02 0.  1.
       -1    1    3    3    0  502  0.23204005783E+03 -0.15425426162E+03 -0.13843125353E+04  0.14120758340E+04  0.50400001928E-02 0. -1.
</event>
<event>
 5   0  0.8237966E-05  0.2119267E+04  0.7818609E-02  0.8552803E-01
        1   -1    0    0  501    0  0.00000000000E+00  0.00000000000E+00  0.67881153612E+03  0.67881153614E+03  0.50400001928E-02 0.  1.
       -1   -1    0    0    0  501  0.00000000000E+00  0.00000000000E+00 -0.16541018531E+04  0.16541018531E+04  0.50400001928E-02 0. -1.
    10030    2    1    2    0    0  0.00000000000E+00  0.00000000000E+00 -0.97529031699E+03  0.23329133892E+04  0.21192672506E+04 0.  0.
        1    1    3    3  502    0 -0.24191624555E+03  0.72431711476E+03  0.32103145031E+03  0.82838393557E+03  0.50400001928E-02 0.  1.
       -1    1    3    3    0  502  0.24191624555E+03 -0.72431711476E+03 -0.12963217673E+04  0.15045294537E+04  0.50400001928E-02 0. -1.
</event>
<event>
 5   0  0.1886323E-04  0.2077455E+04  0.7818609E-02  0.8571240E-01
        2   -1    0    0  501    0  0.00000000000E+00  0.00000000000E+00  0.12950573866E+04  0.12950573866E+04  0.25500000920E-02 0. -1.
       -2   -1    0    0    0  501  0.00000000000E+00  0.00000000000E+00 -0.83313268726E+03  0.83313268727E+03  0.25500000920E-02 0.  1.
    10030    2    1    2    0    0  0.00000000000E+00  0.00000000000E+00  0.46192469938E+03  0.21281900739E+04  0.20774548281E+04 0.  0.
        2    1    3    3  502    0  0.43928628308E+03 -0.67592925924E+03  0.90201873272E+03  0.12097481540E+04  0.25500000920E-02 0. -1.
       -2    1    3    3    0  502 -0.43928628308E+03  0.67592925924E+03 -0.44009403334E+03  0.91844191988E+03  0.25500000920E-02 0.  1.
</event>
<event>
 5   0  0.1777590E-04  0.2073243E+04  0.7818609E-02  0.8573123E-01
        2   -1    0    0  501    0  0.00000000000E+00  0.00000000000E+00  0.11346807499E+04  0.11346807499E+04  0.25500000920E-02 0.  1.
       -2   -1    0    0    0  501  0.00000000000E+00  0.00000000000E+00 -0.94703649956E+03  0.94703649956E+03  0.25500000920E-02 0. -1.
    10030    2    1    2    0    0  0.00000000000E+00  0.00000000000E+00  0.18764425036E+03  0.20817172495E+04  0.20732429530E+04 0.  0.
        4    1    3    3  502    0  0.27636745786E+03  0.93501733039E+03 -0.25967669065E+03  0.10089945374E+04  0.12699999809E+01 0. -1.
       -4    1    3    3    0  502 -0.27636745786E+03 -0.93501733039E+03  0.44732094102E+03  0.10727227121E+04  0.12699999809E+01 0.  1.
</event>
<event>
 5   0  0.8486612E-05  0.2109866E+04  0.7818609E-02  0.8556910E-01
        1   -1    0    0  501    0  0.00000000000E+00  0.00000000000E+00  0.13023613873E+04  0.13023613873E+04  0.50400001928E-02 0. -1.
       -1   -1    0    0    0  501  0.00000000000E+00  0.00000000000E+00 -0.85451187265E+03  0.85451187267E+03  0.50400001928E-02 0.  1.
    10030    2    1    2    0    0  0.00000000000E+00  0.00000000000E+00  0.44784951468E+03  0.21568732600E+04  0.21098656526E+04 0.  0.
        5    1    3    3  502    0 -0.10112379627E+04  0.24973849883E+03  0.39464746952E+03  0.11138852051E+04  0.46999998093E+01 0. -1.
       -5    1    3    3    0  502  0.10112379627E+04 -0.24973849883E+03  0.53202045162E+02  0.10429880549E+04  0.46999998093E+01 0.  1.
</event>
<event>
 5   0  0.1810875E-04  0.1910001E+04  0.7818609E-02  0.8649894E-01
        2   -1    0    0  501    0  0.00000000000E+00  0.00000000000E+00  0.10351050201E+04  0.10351050201E+04  0.25500000920E-02 0. -1.
       -2   -1    0    0    0  501  0.00000000000E+00  0.00000000000E+00 -0.88109471327E+03  0.88109471327E+03  0.25500000920E-02 0.  1.
    10030    2    1    2    0    0  0.00000000000E+00  0.00000000000E+00  0.15401030686E+03  0.19161997334E+04  0.19100005874E+04 0.  0.
        1    1    3    3  502    0 -0.14641318295E+03  0.91259731526E+03 -0.16409729517E+03  0.93872179173E+03  0.50400001928E-02 0.  1.
       -1    1    3    3    0  502  0.14641318295E+03 -0.91259731526E+03  0.31810760204E+03  0.97747794168E+03  0.50400001928E-02 0. -1.
</event>
<event>
 5   0  0.8486612E-05  0.2108835E+04  0.7818609E-02  0.8557361E-01
       -1   -1    0    0    0  501  0.00000000000E+00  0.00000000000E+00  0.78984553750E+03  0.78984553752E+03  0.50400001928E-02 0.  1.
        1   -1    0    0  501    0  0.00000000000E+00  0.00000000000E+00 -0.14076123523E+04  0.14076123523E+04  0.50400001928E-02 0. -1.
    10030    2    1    2    0    0  0.00000000000E+00  0.00000000000E+00 -0.61776681477E+03  0.21974578898E+04  0.21088350670E+04 0.  0.
        5    1    3    3  502    0  0.39456114106E+03  0.76690629028E+00 -0.13277762399E+04  0.13851681903E+04  0.46999998093E+01 0. -1.
       -5    1    3    3    0  502 -0.39456114106E+03 -0.76690629028E+00  0.71000942511E+03  0.81228969951E+03  0.46999998093E+01 0.  1.
</event>
<event>
 5   0  0.8525278E-05  0.2102827E+04  0.7818609E-02  0.8559999E-01
       -1   -1    0    0    0  501  0.00000000000E+00  0.00000000000E+00  0.87428295853E+03  0.87428295855E+03  0.50400001928E-02 0. -1.
        1   -1    0    0  501    0  0.00000000000E+00  0.00000000000E+00 -0.12644306106E+04  0.12644306106E+04  0.50400001928E-02 0.  1.
    10030    2    1    2    0    0  0.00000000000E+00  0.00000000000E+00 -0.39014765210E+03  0.21387135692E+04  0.21028267976E+04 0.  0.
        4    1    3    3  502    0  0.88601507536E+03  0.54474255031E+03 -0.38494010509E+02  0.10407932367E+04  0.12699999809E+01 0. -1.
       -4    1    3    3    0  502 -0.88601507536E+03 -0.54474255031E+03 -0.35165364159E+03  0.10979203325E+04  0.12699999809E+01 0.  1.
</event>
<event>
 5   0  0.8237966E-05  0.2108478E+04  0.7818609E-02  0.8557518E-01
       -1   -1    0    0    0  501  0.00000000000E+00  0.00000000000E+00  0.11585425240E+04  0.11585425240E+04  0.50400001928E-02 0. -1.
        1   -1    0    0  501    0  0.00000000000E+00  0.00000000000E+00 -0.95932624581E+03  0.95932624582E+03  0.50400001928E-02 0.  1.
    10030    2    1    2    0    0  0.00000000000E+00  0.00000000000E+00  0.19921627819E+03  0.21178687698E+04  0.21084783615E+04 0.  0.
        1    1    3    3  502    0 -0.29514847078E+03 -0.52112626054E+03  0.97107518189E+03  0.11409085012E+04  0.50400001928E-02 0. -1.
       -1    1    3    3    0  502  0.29514847078E+03  0.52112626054E+03 -0.77185890370E+03  0.97696026862E+03  0.50400001928E-02 0.  1.
</event>
<event>
 5   0  0.8237966E-05  0.2099696E+04  0.7818609E-02  0.8561377E-01
        1   -1    0    0  501    0  0.00000000000E+00  0.00000000000E+00  0.11650243658E+04  0.11650243658E+04  0.50400001928E-02 0.  1.
       -1   -1    0    0    0  501  0.00000000000E+00  0.00000000000E+00 -0.94605815792E+03  0.94605815794E+03  0.50400001928E-02 0. -1.
    10030    2    1    2    0    0  0.00000000000E+00  0.00000000000E+00  0.21896620787E+03  0.21110825237E+04  0.20996959832E+04 0.  0.
        1    1    3    3  502    0 -0.46263875613E+03  0.66179100224E+03 -0.56510913402E+03  0.98557104396E+03  0.50400001928E-02 0. -1.
       -1    1    3    3    0  502  0.46263875613E+03 -0.66179100224E+03  0.78407534189E+03  0.11255114798E+04  0.50400001928E-02 0.  1.
</event>
<event>
 5   0  0.8237966E-05  0.2113348E+04  0.7818609E-02  0.8555386E-01
       -1   -1    0    0    0  501  0.00000000000E+00  0.00000000000E+00  0.14115435838E+04  0.14115435838E+04  0.50400001928E-02 0.  1.
        1   -1    0    0  501    0  0.00000000000E+00  0.00000000000E+00 -0.79102080554E+03  0.79102080555E+03  0.50400001928E-02 0. -1.
    10030    2    1    2    0    0  0.00000000000E+00  0.00000000000E+00  0.62052277830E+03  0.22025643894E+04  0.21133483790E+04 0.  0.
        1    1    3    3  502    0 -0.10490482123E+04 -0.82944473857E+02  0.21041298389E+03  0.10731521613E+04  0.50400001928E-02 0.  1.
       -1    1    3    3    0  502  0.10490482123E+04  0.82944473857E+02  0.41010979441E+03  0.11294122281E+04  0.50400001928E-02 0. -1.
</event>
<event>
 5   0  0.8271069E-05  0.2079872E+04  0.7818609E-02  0.8570162E-01
        1   -1    0    0  501    0  0.00000000000E+00  0.00000000000E+00  0.13388528042E+04  0.13388528042E+04  0.50400001928E-02 0.  1.
       -1   -1    0    0    0  501  0.00000000000E+00  0.00000000000E+00 -0.80775636344E+03  0.80775636346E+03  0.50400001928E-02 0. -1.
    10030    2    1    2    0    0  0.00000000000E+00  0.00000000000E+00  0.53109644077E+03  0.21466091677E+04  0.20798719887E+04 0.  0.
        2    1    3    3  502    0  0.50523799947E+03 -0.80849957986E+03 -0.16314687596E+03  0.96724035787E+03  0.25500000920E-02 0. -1.
       -2    1    3    3    0  502 -0.50523799947E+03  0.80849957986E+03  0.69424331672E+03  0.11793688098E+04  0.25500000920E-02 0.  1.
</event>
<event>
 5   0  0.8486612E-05  0.1395020E+04  0.7818609E-02  0.8957431E-01
       -1   -1    0    0    0  501  0.00000000000E+00  0.00000000000E+00  0.40954831732E+03  0.40954831735E+03  0.50400001928E-02 0. -1.
        1   -1    0    0  501    0  0.00000000000E+00  0.00000000000E+00 -0.11879429405E+04  0.11879429405E+04  0.50400001928E-02 0.  1.
    10030    2    1    2    0    0  0.00000000000E+00  0.00000000000E+00 -0.77839462316E+03  0.15974912578E+04  0.13950197595E+04 0.  0.
        5    1    3    3  502    0 -0.53928744698E+03 -0.16456215911E+03  0.80988213283E+02  0.56964272607E+03  0.46999998093E+01 0. -1.
       -5    1    3    3    0  502  0.53928744698E+03  0.16456215911E+03 -0.85938283644E+03  0.10278485318E+04  0.46999998093E+01 0.  1.
</event>
<event>
 5   0  0.1815400E-04  0.2091536E+04  0.7818609E-02  0.8564981E-01
       -2   -1    0    0    0  501  0.00000000000E+00  0.00000000000E+00  0.61060706810E+03  0.61060706811E+03  0.25500000920E-02 0. -1.
        2   -1    0    0  501    0  0.00000000000E+00  0.00000000000E+00 -0.17910551631E+04  0.17910551631E+04  0.25500000920E-02 0.  1.
    10030    2    1    2    0    0  0.00000000000E+00  0.00000000000E+00 -0.11804480950E+04  0.24016622312E+04  0.20915362220E+04 0.  0.
        3    1    3    3  502    0  0.46115847526E+03 -0.89249311810E+03 -0.92385686721E+03  0.13648159680E+04  0.10100000352E+00 0.  1.
       -3    1    3    3    0  502 -0.46115847526E+03  0.89249311810E+03 -0.25659122777E+03  0.10368462632E+04  0.10100000352E+00 0. -1.
</event>
<event>
 5   0  0.8755004E-05  0.2108510E+04  0.7818609E-02  0.8557504E-01
       -1   -1    0    0    0  501  0.00000000000E+00  0.00000000000E+00  0.65988882656E+03  0.65988882658E+03  0.50400001928E-02 0.  1.
        1   -1    0    0  501    0  0.00000000000E+00  0.00000000000E+00 -0.16843038781E+04  0.16843038781E+04  0.50400001928E-02 0. -1.
    10030    2    1    2    0    0  0.00000000000E+00  0.00000000000E+00 -0.10244150515E+04  0.23441927046E+04  0.21085097199E+04 0.  0.
        3    1    3    3  502    0 -0.38262281478E+03 -0.32650642295E+03 -0.15422955887E+04  0.16222460836E+04  0.10100000352E+00 0. -1.
       -3    1    3    3    0  502  0.38262281478E+03  0.32650642295E+03  0.51788053720E+03  0.72194662104E+03  0.10100000352E+00 0.  1.
</event>
<event>
 5   0  0.8271069E-05  0.2126448E+04  0.7818609E-02  0.8549681E-01
        1   -1    0    0  501    0  0.00000000000E+00  0.00000000000E+00  0.98249732536E+03  0.98249732537E+03  0.50400001928E-02 0. -1.
       -1   -1    0    0    0  501  0.00000000000E+00  0.00000000000E+00 -0.11505835391E+04  0.11505835391E+04  0.50400001928E-02 0.  1.
    10030    2    1    2    0    0  0.00000000000E+00  0.00000000000E+00 -0.16808621377E+03  0.21330808645E+04  0.21264479771E+04 0.  0.
        2    1    3    3  502    0  0.32354632505E+02  0.64717424244E+02  0.98002484961E+03  0.98269215582E+03  0.25500000920E-02 0. -1.
       -2    1    3    3    0  502 -0.32354632505E+02 -0.64717424244E+02 -0.11481110634E+04  0.11503887087E+04  0.25500000920E-02 0.  1.
</event>
<event>
 5   0  0.1921687E-04  0.2081188E+04  0.7818609E-02  0.8569576E-01
       -2   -1    0    0    0  501  0.00000000000E+00  0.00000000000E+00  0.46763624042E+03  0.46763624043E+03  0.25500000920E-02 0.  1.
        2   -1    0    0  501    0  0.00000000000E+00  0.00000000000E+00 -0.23155524120E+04  0.23155524120E+04  0.25500000920E-02 0. -1.
    10030    2    1    2    0    0  0.00000000000E+00  0.00000000000E+00 -0.18479161716E+04  0.27831886524E+04  0.20811883379E+04 0.  0.
        5    1    3    3  502    0  0.35441034007E+03 -0.82486880836E+03 -0.16275380067E+04  0.18587407817E+04  0.46999998093E+01 0. -1.
       -5    1    3    3    0  502 -0.35441034007E+03  0.82486880836E+03 -0.22037816483E+03  0.92444787073E+03  0.46999998093E+01 0.  1.
</event>
<event>
 5   0  0.1815400E-04  0.2065360E+04  0.7818609E-02  0.8576658E-01
        2   -1    0    0  501    0  0.00000000000E+00  0.00000000000E+00  0.13768566605E+04  0.13768566605E+04  0.25500000920E-02 0.  1.
       -2   -1    0    0    0  501  0.00000000000E+00  0.00000000000E+00 -0.77453792559E+03  0.77453792560E+03  0.25500000920E-02 0. -1.
    10030    2    1    2    0    0  0.00000000000E+00  0.00000000000E+00  0.60231873490E+03  0.21513945861E+04  0.20653597281E+04 0.  0.
        3    1    3    3  502    0  0.49756660748E+02 -0.60157685853E+03 -0.57163237949E+03  0.83134471159E+03  0.10100000352E+00 0. -1.
       -3    1    3    3    0  502 -0.49756660748E+02  0.60157685853E+03  0.11739511144E+04  0.13200498745E+04  0.10100000352E+00 0.  1.
</event>
<event>
 5   0  0.8237966E-05  0.2108047E+04  0.7818609E-02  0.8557707E-01
       -1   -1    0    0    0  501  0.00000000000E+00  0.00000000000E+00  0.73776792084E+03  0.73776792086E+03  0.50400001928E-02 0.  1.
        1   -1    0    0  501    0  0.00000000000E+00  0.00000000000E+00 -0.15058474747E+04  0.15058474747E+04  0.50400001928E-02 0. -1.
    10030    2    1    2    0    0  0.00000000000E+00  0.00000000000E+00 -0.76807955382E+03  0.22436153955E+04  0.21080474003E+04 0.  0.
        1    1    3    3  502    0 -0.94007974663E+03 -0.39684203612E+03 -0.66509097150E+03  0.12180227962E+04  0.50400001928E-02 0. -1.
       -1    1    3    3    0  502  0.94007974663E+03  0.39684203612E+03 -0.10298858231E+03  0.10255925993E+04  0.50400001928E-02 0.  1.
</event>
<event>
 5   0  0.1777590E-04  0.2065737E+04  0.7818609E-02  0.8576488E-01
       -2   -1    0    0    0  501  0.00000000000E+00  0.00000000000E+00  0.55748764308E+03  0.55748764309E+03  0.25500000920E-02 0.  1.
        2   -1    0    0  501    0  0.00000000000E+00  0.00000000000E+00 -0.19136163776E+04  0.19136163776E+04  0.25500000920E-02 0. -1.
    10030    2    1    2    0    0  0.00000000000E+00  0.00000000000E+00 -0.13561287345E+04  0.24711040206E+04  0.20657371412E+04 0.  0.
        4    1    3    3  502    0 -0.56991183504E+03 -0.21016494508E+03 -0.16773648522E+04  0.17839627978E+04  0.12699999809E+01 0. -1.
       -4    1    3    3    0  502  0.56991183504E+03  0.21016494508E+03  0.32123611770E+03  0.68714122280E+03  0.12699999809E+01 0.  1.
</event>
<event>
 5   0  0.1810875E-04  0.2102601E+04  0.7818609E-02  0.8560098E-01
        2   -1    0    0  501    0  0.00000000000E+00  0.00000000000E+00  0.91292350539E+03  0.91292350540E+03  0.25500000920E-02 0. -1.
       -2   -1    0    0    0  501  0.00000000000E+00  0.00000000000E+00 -0.12106526562E+04  0.12106526562E+04  0.25500000920E-02 0.  1.
    10030    2    1    2    0    0  0.00000000000E+00  0.00000000000E+00 -0.29772915081E+03  0.21235761616E+04  0.21026014998E+04 0.  0.
        1    1    3    3  502    0  0.56607434224E+03 -0.36897397158E+03 -0.96228771507E+03  0.11758314502E+04  0.50400001928E-02 0.  1.
       -1    1    3    3    0  502 -0.56607434224E+03  0.36897397158E+03  0.66455856427E+03  0.94774471141E+03  0.50400001928E-02 0. -1.
</event>
<event>
 5   0  0.1815400E-04  0.2320516E+04  0.7818609E-02  0.8469876E-01
       -2   -1    0    0    0  501  0.00000000000E+00  0.00000000000E+00  0.16797566709E+04  0.16797566710E+04  0.25500000920E-02 0.  1.
        2   -1    0    0  501    0  0.00000000000E+00  0.00000000000E+00 -0.80142492021E+03  0.80142492022E+03  0.25500000920E-02 0. -1.
    10030    2    1    2    0    0  0.00000000000E+00  0.00000000000E+00  0.87833175074E+03  0.24811815912E+04  0.23205161977E+04 0.  0.
        3    1    3    3  502    0  0.42988809732E+03 -0.52552663585E+02  0.15900906714E+04  0.16480151432E+04  0.10100000352E+00 0.  1.
       -3    1    3    3    0  502 -0.42988809732E+03  0.52552663585E+02 -0.71175892068E+03  0.83316644798E+03  0.10100000352E+00 0. -1.
</event>
<event>
 5   0  0.8486612E-05  0.2259582E+04  0.7818609E-02  0.8494030E-01
        1   -1    0    0  501    0  0.00000000000E+00  0.00000000000E+00  0.15399600542E+04  0.15399600542E+04  0.50400001928E-02 0.  1.
       -1   -1    0    0    0  501  0.00000000000E+00  0.00000000000E+00 -0.82887061505E+03  0.82887061507E+03  0.50400001928E-02 0. -1.
    10030    2    1    2    0    0  0.00000000000E+00  0.00000000000E+00  0.71108943915E+03  0.23688306693E+04  0.22595819413E+04 0.  0.
        5    1    3    3  502    0 -0.53637723279E+03 -0.68244059938E+03 -0.40259350853E+03  0.95683296904E+03  0.46999998093E+01 0. -1.
       -5    1    3    3    0  502  0.53637723279E+03  0.68244059938E+03  0.11136829477E+04  0.14119977002E+04  0.46999998093E+01 0.  1.
</event>
<event>
 5   0  0.8271069E-05  0.2121762E+04  0.7818609E-02  0.8551717E-01
        1   -1    0    0  501    0  0.00000000000E+00  0.00000000000E+00  0.15575199389E+04  0.15575199390E+04  0.50400001928E-02 0. -1.
       -1   -1    0    0    0  501  0.00000000000E+00  0.00000000000E+00 -0.72260308573E+03  0.72260308575E+03  0.50400001928E-02 0.  1.
    10030    2    1    2    0    0  0.00000000000E+00  0.00000000000E+00  0.83491685321E+03  0.22801230247E+04  0.21217622053E+04 0.  0.
        2    1    3    3  502    0  0.67102702730E+03 -0.64546670739E+01  0.13004603228E+04  0.14633919452E+04  0.25500000920E-02 0. -1.
       -2    1    3    3    0  502 -0.67102702730E+03  0.64546670739E+01 -0.46554346961E+03  0.81673107948E+03  0.25500000920E-02 0.  1.
</event>
<event>
 5   0  0.8755004E-05  0.2068470E+04  0.7818609E-02  0.8575261E-01
        1   -1    0    0  501    0  0.00000000000E+00  0.00000000000E+00  0.13352786800E+04  0.13352786800E+04  0.50400001928E-02 0.  1.
       -1   -1    0    0    0  501  0.00000000000E+00  0.00000000000E+00 -0.80106259912E+03  0.80106259914E+03  0.50400001928E-02 0. -1.
    10030    2    1    2    0    0  0.00000000000E+00  0.00000000000E+00  0.53421608083E+03  0.21363412791E+04  0.20684697822E+04 0.  0.
        3    1    3    3  502    0 -0.16213331777E+03 -0.70925971895E+03 -0.49206546012E+03  0.87833079697E+03  0.10100000352E+00 0. -1.
       -3    1    3    3    0  502  0.16213331777E+03  0.70925971895E+03  0.10262815410E+04  0.12580104821E+04  0.10100000352E+00 0.  1.
</event>
<event>
 5   0  0.1886323E-04  0.2018526E+04  0.7818609E-02  0.8598008E-01
        2   -1    0    0  501    0  0.00000000000E+00  0.00000000000E+00  0.12353793706E+04  0.12353793706E+04  0.25500000920E-02 0.  1.
       -2   -1    0    0    0  501  0.00000000000E+00  0.00000000000E+00 -0.82453360637E+03  0.82453360638E+03  0.25500000920E-02 0. -1.
    10030    2    1    2    0    0  0.00000000000E+00  0.00000000000E+00  0.41084576420E+03  0.20599129770E+04  0.20185260045E+04 0.  0.
        2    1    3    3  502    0  0.45146616514E+03  0.30889509596E+03  0.10709723068E+04  0.12025886913E+04  0.25500000920E-02 0.  1.
       -2    1    3    3    0  502 -0.45146616514E+03 -0.30889509596E+03 -0.66012654256E+03  0.85732428566E+03  0.25500000920E-02 0. -1.
</event>
<event>
 5   0  0.1777590E-04  0.2088615E+04  0.7818609E-02  0.8566275E-01
       -2   -1    0    0    0  501  0.00000000000E+00  0.00000000000E+00  0.57775003328E+03  0.57775003329E+03  0.25500000920E-02 0.  1.
        2   -1    0    0  501    0  0.00000000000E+00  0.00000000000E+00 -0.18876301902E+04  0.18876301902E+04  0.25500000920E-02 0. -1.
    10030    2    1    2    0    0  0.00000000000E+00  0.00000000000E+00 -0.13098801569E+04  0.24653802235E+04  0.20886152400E+04 0.  0.
        4    1    3    3  502    0 -0.33583897618E+03  0.88219480439E+03 -0.12768581544E+03  0.95255486518E+03  0.12699999809E+01 0.  1.
       -4    1    3    3    0  502  0.33583897618E+03 -0.88219480439E+03 -0.11821943415E+04  0.15128253583E+04  0.12699999809E+01 0. -1.
</event>
<event>
 5   0  0.8271069E-05  0.2094036E+04  0.7818609E-02  0.8563875E-01
       -1   -1    0    0    0  501  0.00000000000E+00  0.00000000000E+00  0.74420477494E+03  0.74420477495E+03  0.50400001928E-02 0. -1.
        1   -1    0    0  501    0  0.00000000000E+00  0.00000000000E+00 -0.14730444044E+04  0.14730444044E+04  0.50400001928E-02 0.  1.
    10030    2    1    2    0    0  0.00000000000E+00  0.00000000000E+00 -0.72883962943E+03  0.22172491793E+04  0.20940359877E+04 0.  0.
        2    1    3    3  502    0  0.97336736532E+02  0.95130625332E+03 -0.81587406472E+03  0.12570236741E+04  0.25500000920E-02 0.  1.
       -2    1    3    3    0  502 -0.97336736532E+02 -0.95130625332E+03  0.87034435285E+02  0.96022550518E+03  0.25500000920E-02 0. -1.
</event>
<event>
 5   0  0.8486612E-05  0.2115381E+04  0.7818609E-02  0.8554498E-01
        1   -1    0    0  501    0  0.00000000000E+00  0.00000000000E+00  0.13661324624E+04  0.13661324624E+04  0.50400001928E-02 0.  1.
       -1   -1    0    0    0  501  0.00000000000E+00  0.00000000000E+00 -0.81888763958E+03  0.81888763959E+03  0.50400001928E-02 0. -1.
    10030    2    1    2    0    0  0.00000000000E+00  0.00000000000E+00  0.54724482284E+03  0.21850201020E+04  0.21153808050E+04 0.  0.
        5    1    3    3  502    0 -0.70065119781E+03  0.72580260892E+03  0.60186589030E+03  0.11747196125E+04  0.46999998093E+01 0.  1.
       -5    1    3    3    0  502  0.70065119781E+03 -0.72580260892E+03 -0.54621067458E+02  0.10103004895E+04  0.46999998093E+01 0. -1.
</event>
<event>
 5   0  0.8271069E-05  0.2094416E+04  0.7818609E-02  0.8563707E-01
        1   -1    0    0  501    0  0.00000000000E+00  0.00000000000E+00  0.19938879083E+04  0.19938879083E+04  0.50400001928E-02 0.  1.
       -1   -1    0    0    0  501  0.00000000000E+00  0.00000000000E+00 -0.55000321986E+03  0.55000321988E+03  0.50400001928E-02 0. -1.
    10030    2    1    2    0    0  0.00000000000E+00  0.00000000000E+00  0.14438846884E+04  0.25438911282E+04  0.20944161665E+04 0.  0.
        2    1    3    3  502    0 -0.94871428528E+03 -0.44209328569E+03  0.76294320240E+03  0.12952172013E+04  0.25500000920E-02 0.  1.
       -2    1    3    3    0  502  0.94871428528E+03  0.44209328569E+03  0.68094148602E+03  0.12486739269E+04  0.25500000920E-02 0. -1.
</event>
<event>
 5   0  0.1886323E-04  0.2104967E+04  0.7818609E-02  0.8559058E-01
        2   -1    0    0  501    0  0.00000000000E+00  0.00000000000E+00  0.48438649231E+03  0.48438649231E+03  0.25500000920E-02 0. -1.
       -2   -1    0    0    0  501  0.00000000000E+00  0.00000000000E+00 -0.22868556968E+04  0.22868556968E+04  0.25500000920E-02 0.  1.
    10030    2    1    2    0    0  0.00000000000E+00  0.00000000000E+00 -0.18024692045E+04  0.27712421891E+04  0.21049674671E+04 0.  0.
        2    1    3    3  502    0  0.81911607343E+03 -0.63377645091E+03 -0.11478794218E+04  0.15460436276E+04  0.25500000920E-02 0.  1.
       -2    1    3    3    0  502 -0.81911607343E+03  0.63377645091E+03 -0.65458978267E+03  0.12251985615E+04  0.25500000920E-02 0. -1.
</event>
<event>
 5   0  0.1815400E-04  0.1897848E+04  0.7818609E-02  0.8655928E-01
       -2   -1    0    0    0  501  0.00000000000E+00  0.00000000000E+00  0.10698678280E+04  0.10698678280E+04  0.25500000920E-02 0. -1.
        2   -1    0    0  501    0  0.00000000000E+00  0.00000000000E+00 -0.84165200903E+03  0.84165200904E+03  0.25500000920E-02 0.  1.
    10030    2    1    2    0    0  0.00000000000E+00  0.00000000000E+00  0.22821581896E+03  0.19115198370E+04  0.18978476302E+04 0.  0.
        3    1    3    3  502    0  0.27196582503E+03  0.76333730891E+03 -0.38321753214E+03  0.89638437308E+03  0.10100000352E+00 0.  1.
       -3    1    3    3    0  502 -0.27196582503E+03 -0.76333730891E+03  0.61143335110E+03  0.10151354640E+04  0.10100000352E+00 0. -1.
</event>
<event>
 5   0  0.1886323E-04  0.2096584E+04  0.7818609E-02  0.8562750E-01
        2   -1    0    0  501    0  0.00000000000E+00  0.00000000000E+00  0.13405422931E+04  0.13405422931E+04  0.25500000920E-02 0. -1.
       -2   -1    0    0    0  501  0.00000000000E+00  0.00000000000E+00 -0.81975489358E+03  0.81975489359E+03  0.25500000920E-02 0.  1.
    10030    2    1    2    0    0  0.00000000000E+00  0.00000000000E+00  0.52078739956E+03  0.21602971867E+04  0.20965839882E+04 0.  0.
        2    1    3    3  502    0 -0.60098685646E+02 -0.10413988156E+04  0.36743897167E+03  0.11059542229E+04  0.25500000920E-02 0. -1.
       -2    1    3    3    0  502  0.60098685646E+02  0.10413988156E+04  0.15334842789E+03  0.10543429639E+04  0.25500000920E-02 0.  1.
</event>
<event>
 5   0  0.8755004E-05  0.2055609E+04  0.7818609E-02  0.8581054E-01
       -1   -1    0    0    0  501  0.00000000000E+00  0.00000000000E+00  0.71117715436E+03  0.71117715438E+03  0.50400001928E-02 0.  1.
        1   -1    0    0  501    0  0.00000000000E+00  0.00000000000E+00 -0.14853987786E+04  0.14853987786E+04  0.50400001928E-02 0. -1.
    10030    2    1    2    0    0  0.00000000000E+00  0.00000000000E+00 -0.77422162424E+03  0.21965759330E+04  0.20556085975E+04 0.  0.
        3    1    3    3  502    0 -0.92773803880E+03 -0.41582128089E+03 -0.54837907509E+03  0.11551297877E+04  0.10100000352E+00 0. -1.
       -3    1    3    3    0  502  0.92773803880E+03  0.41582128089E+03 -0.22584254915E+03  0.10414461453E+04  0.10100000352E+00 0.  1.
</event>
<event>
 5   0  0.8486612E-05  0.2174540E+04  0.7818609E-02  0.8529101E-01
       -1   -1    0    0    0  501  0.00000000000E+00  0.00000000000E+00  0.15513343556E+04  0.15513343556E+04  0.50400001928E-02 0. -1.
        1   -1    0    0  501    0  0.00000000000E+00  0.00000000000E+00 -0.76202517906E+03  0.76202517908E+03  0.50400001928E-02 0.  1.
    10030    2    1    2    0    0  0.00000000000E+00  0.00000000000E+00  0.78930917655E+03  0.23133595347E+04  0.21745398043E+04 0.  0.
        5    1    3    3  502    0 -0.78251128234E+01  0.51039191649E+03  0.14159245353E+04  0.15051330574E+04  0.46999998093E+01 0. -1.
       -5    1    3    3    0  502  0.78251128234E+01 -0.51039191649E+03 -0.62661535875E+03  0.80822647731E+03  0.46999998093E+01 0.  1.
</event>
<event>
 5   0  0.1921687E-04  0.2105560E+04  0.7818609E-02  0.8558798E-01
       -2   -1    0    0    0  501  0.00000000000E+00  0.00000000000E+00  0.72927071692E+03  0.72927071692E+03  0.25500000920E-02 0.  1.
        2   -1    0    0  501    0  0.00000000000E+00  0.00000000000E+00 -0.15197995168E+04  0.15197995168E+04  0.25500000920E-02 0. -1.
    10030    2    1    2    0    0  0.00000000000E+00  0.00000000000E+00 -0.79052879989E+03  0.22490702337E+04  0.21055595771E+04 0.  0.
        5    1    3    3  502    0 -0.56255802501E+03  0.13445848413E+03  0.54433374482E+03  0.79427446844E+03  0.46999998093E+01 0.  1.
       -5    1    3    3    0  502  0.56255802501E+03 -0.13445848413E+03 -0.13348625447E+04  0.14547957653E+04  0.46999998093E+01 0. -1.
</event>
<event>
 5   0  0.8486612E-05  0.1840745E+04  0.7818609E-02  0.8684927E-01
        1   -1    0    0  501    0  0.00000000000E+00  0.00000000000E+00  0.11555083325E+04  0.11555083325E+04  0.50400001928E-02 0. -1.
       -1   -1    0    0    0  501  0.00000000000E+00  0.00000000000E+00 -0.73308463973E+03  0.73308463975E+03  0.50400001928E-02 0.  1.
    10030    2    1    2    0    0  0.00000000000E+00  0.00000000000E+00  0.42242369273E+03  0.18885929722E+04  0.18407448597E+04 0.  0.
        5    1    3    3  502    0 -0.49228463920E+03  0.77760327749E+03  0.21863145520E+03  0.94595603828E+03  0.46999998093E+01 0.  1.
       -5    1    3    3    0  502  0.49228463920E+03 -0.77760327749E+03  0.20379223753E+03  0.94263693394E+03  0.46999998093E+01 0. -1.
</event>
<event>
 5   0  0.8271069E-05  0.2087592E+04  0.7818609E-02  0.8566729E-01
       -1   -1    0    0    0  501  0.00000000000E+00  0.00000000000E+00  0.44533161928E+03  0.44533161931E+03  0.50400001928E-02 0. -1.
        1   -1    0    0  501    0  0.00000000000E+00  0.00000000000E+00 -0.24465141899E+04  0.24465141899E+04  0.50400001928E-02 0.  1.
    10030    2    1    2    0    0  0.00000000000E+00  0.00000000000E+00 -0.20011825706E+04  0.28918458092E+04  0.20875920347E+04 0.  0.
        2    1    3    3  502    0  0.77225785979E+03 -0.53653043406E+03 -0.16281940615E+04  0.18802295101E+04  0.25500000920E-02 0.  1.
       -2    1    3    3    0  502 -0.77225785979E+03  0.53653043406E+03 -0.37298850906E+03  0.10116162991E+04  0.25500000920E-02 0. -1.
</event>
<event>
 5   0  0.1921687E-04  0.2053620E+04  0.7818609E-02  0.8581954E-01
        2   -1    0    0  501    0  0.00000000000E+00  0.00000000000E+00  0.16351304183E+04  0.16351304183E+04  0.25500000920E-02 0.  1.
       -2   -1    0    0    0  501  0.00000000000E+00  0.00000000000E+00 -0.64480395121E+03  0.64480395121E+03  0.25500000920E-02 0. -1.
    10030    2    1    2    0    0  0.00000000000E+00  0.00000000000E+00  0.99032646707E+03  0.22799343695E+04  0.20536197841E+04 0.  0.
        5    1    3    3  502    0 -0.97164345059E+03  0.61517180269E+02  0.13295610359E+03  0.98263664394E+03  0.46999998093E+01 0. -1.
       -5    1    3    3    0  502  0.97164345059E+03 -0.61517180269E+02  0.85737036349E+03  0.12972977255E+04  0.46999998093E+01 0.  1.
</event>
<event>
 5   0  0.8237966E-05  0.2093524E+04  0.7818609E-02  0.8564102E-01
        1   -1    0    0  501    0  0.00000000000E+00  0.00000000000E+00  0.13252946590E+04  0.13252946590E+04  0.50400001928E-02 0. -1.
       -1   -1    0    0    0  501  0.00000000000E+00  0.00000000000E+00 -0.82676727399E+03  0.82676727401E+03  0.50400001928E-02 0.  1.
    10030    2    1    2    0    0  0.00000000000E+00  0.00000000000E+00  0.49852738502E+03  0.21520619330E+04  0.20935235871E+04 0.  0.
        1    1    3    3  502    0 -0.10046072067E+04  0.21663006071E+03  0.45368603005E+03  0.11233856136E+04  0.50400001928E-02 0. -1.
       -1    1    3    3    0  502  0.10046072067E+04 -0.21663006071E+03  0.44841354962E+02  0.10286763194E+04  0.50400001928E-02 0.  1.
</event>
<event>
 5   0  0.1815400E-04  0.1914204E+04  0.7818609E-02  0.8647818E-01
       -2   -1    0    0    0  501  0.00000000000E+00  0.00000000000E+00  0.80984622906E+03  0.80984622907E+03  0.25500000920E-02 0.  1.
        2   -1    0    0  501    0  0.00000000000E+00  0.00000000000E+00 -0.11311332759E+04  0.11311332759E+04  0.25500000920E-02 0. -1.
    10030    2    1    2    0    0  0.00000000000E+00  0.00000000000E+00 -0.32128704684E+03  0.19409795050E+04  0.19142037698E+04 0.  0.
        3    1    3    3  502    0 -0.93130523996E+03  0.17841170227E+03 -0.29239884639E+03  0.99229898773E+03  0.10100000352E+00 0.  1.
       -3    1    3    3    0  502  0.93130523996E+03 -0.17841170227E+03 -0.28888200446E+02  0.94868051725E+03  0.10100000352E+00 0. -1.
</event>
<event>
 5   0  0.1810875E-04  0.2103929E+04  0.7818609E-02  0.8559515E-01
        2   -1    0    0  501    0  0.00000000000E+00  0.00000000000E+00  0.14391075374E+04  0.14391075374E+04  0.25500000920E-02 0. -1.
       -2   -1    0    0    0  501  0.00000000000E+00  0.00000000000E+00 -0.76896916266E+03  0.76896916267E+03  0.25500000920E-02 0.  1.
    10030    2    1    2    0    0  0.00000000000E+00  0.00000000000E+00  0.67013837476E+03  0.22080767001E+04  0.21039290083E+04 0.  0.
        1    1    3    3  502    0  0.51148227327E+02  0.34865367748E+03 -0.70518420235E+03  0.78832752537E+03  0.50400001928E-02 0.  1.
       -1    1    3    3    0  502 -0.51148227327E+02 -0.34865367748E+03  0.13753225771E+04  0.14197491747E+04  0.50400001928E-02 0. -1.
</event>
<event>
 5   0  0.1815400E-04  0.2083954E+04  0.7818609E-02  0.8568345E-01
        2   -1    0    0  501    0  0.00000000000E+00  0.00000000000E+00  0.14128835737E+04  0.14128835737E+04  0.25500000920E-02 0. -1.
       -2   -1    0    0    0  501  0.00000000000E+00  0.00000000000E+00 -0.76844018016E+03  0.76844018016E+03  0.25500000920E-02 0.  1.
    10030    2    1    2    0    0  0.00000000000E+00  0.00000000000E+00  0.64444339352E+03  0.21813237539E+04  0.20839544217E+04 0.  0.
        3    1    3    3  502    0 -0.29138509539E+03  0.36754544333E+03  0.12961366454E+04  0.13783922303E+04  0.10100000352E+00 0. -1.
       -3    1    3    3    0  502  0.29138509539E+03 -0.36754544333E+03 -0.65169325191E+03  0.80293152355E+03  0.10100000352E+00 0.  1.
</event>
<event>
 5   0  0.8271069E-05  0.2135226E+04  0.7818609E-02  0.8545883E-01
       -1   -1    0    0    0  501  0.00000000000E+00  0.00000000000E+00  0.85027458486E+03  0.85027458487E+03  0.50400001928E-02 0. -1.
        1   -1    0    0  501    0  0.00000000000E+00  0.00000000000E+00 -0.13405054951E+04  0.13405054951E+04  0.50400001928E-02 0.  1.
    10030    2    1    2    0    0  0.00000000000E+00  0.00000000000E+00 -0.49023091027E+03  0.21907800800E+04  0.21352262207E+04 0.  0.
        2    1    3    3  502    0 -0.22564252860E+03 -0.91284722549E+02 -0.13116560344E+04  0.13340498506E+04  0.25500000920E-02 0.  1.
       -2    1    3    3    0  502  0.22564252860E+03  0.91284722549E+02  0.82142512417E+03  0.85673022937E+03  0.25500000920E-02 0. -1.
</event>
<event>
 5   0  0.1777590E-04  0.1926570E+04  0.7818609E-02  0.8641743E-01
       -2   -1    0    0    0  501  0.00000000000E+00  0.00000000000E+00  0.11686567330E+04  0.11686567330E+04  0.25500000920E-02 0. -1.
        2   -1    0    0  501    0  0.00000000000E+00  0.00000000000E+00 -0.79400391686E+03  0.79400391686E+03  0.25500000920E-02 0.  1.
    10030    2    1    2    0    0  0.00000000000E+00  0.00000000000E+00  0.37465281611E+03  0.19626606498E+04  0.19265700334E+04 0.  0.
        4    1    3    3  502    0 -0.36300414128E+03  0.29097224148E+03  0.10466201083E+04  0.11453611291E+04  0.12699999809E+01 0. -1.
       -4    1    3    3    0  502  0.36300414128E+03 -0.29097224148E+03 -0.67196729224E+03  0.81729952076E+03  0.12699999809E+01 0.  1.
</event>
<event>
 5   0  0.8486612E-05  0.2061807E+04  0.7818609E-02  0.8578257E-01
       -1   -1    0    0    0  501  0.00000000000E+00  0.00000000000E+00  0.85196195924E+03  0.85196195925E+03  0.50400001928E-02 0. -1.
        1   -1    0    0  501    0  0.00000000000E+00  0.00000000000E+00 -0.12474291313E+04  0.12474291313E+04  0.50400001928E-02 0.  1.
    10030    2    1    2    0    0  0.00000000000E+00  0.00000000000E+00 -0.39546717209E+03  0.20993910906E+04  0.20618071362E+04 0.  0.
        5    1    3    3  502    0 -0.17999809477E+03 -0.81551053236E+03  0.41767030879E+03  0.93377048537E+03  0.46999998093E+01 0.  1.
       -5    1    3    3    0  502  0.17999809477E+03  0.81551053236E+03 -0.81313748088E+03  0.11656206052E+04  0.46999998093E+01 0. -1.
</event>
<event>
 5   0  0.8271069E-05  0.2063754E+04  0.7818609E-02  0.8577380E-01
       -1   -1    0    0    0  501  0.00000000000E+00  0.00000000000E+00  0.10152657029E+04  0.10152657029E+04  0.50400001928E-02 0. -1.
        1   -1    0    0  501    0  0.00000000000E+00  0.00000000000E+00 -0.10487604803E+04  0.10487604803E+04  0.50400001928E-02 0.  1.
    10030    2    1    2    0    0  0.00000000000E+00  0.00000000000E+00 -0.33494777390E+02  0.20640261832E+04  0.20637543906E+04 0.  0.
        2    1    3    3  502    0 -0.20994902572E+03 -0.10101141514E+04  0.22644238401E+01  0.10317045701E+04  0.25500000920E-02 0. -1.
       -2    1    3    3    0  502  0.20994902572E+03  0.10101141514E+04 -0.35759201231E+02  0.10323216131E+04  0.25500000920E-02 0.  1.
</event>
<event>
 5   0  0.6441125E-05  0.2089815E+04  0.7818609E-02  0.8565743E-01
        3   -1    0    0  501    0  0.00000000000E+00  0.00000000000E+00  0.13045061981E+04  0.13045062020E+04  0.10100000352E+00 0.  1.
       -3   -1    0    0    0  501  0.00000000000E+00  0.00000000000E+00 -0.83696902085E+03  0.83696902694E+03  0.10100000352E+00 0. -1.
    10030    2    1    2    0    0  0.00000000000E+00  0.00000000000E+00  0.46753717726E+03  0.21414752290E+04  0.20898146196E+04 0.  0.
        5    1    3    3  502    0 -0.60226920678E+03  0.83713802513E+03  0.40609510192E+03  0.11083607681E+04  0.46999998093E+01 0. -1.
       -5    1    3    3    0  502  0.60226920678E+03 -0.83713802513E+03  0.61442075345E+02  0.10331144608E+04  0.46999998093E+01 0.  1.
</event>
<event>
 5   0  0.8271069E-05  0.2083994E+04  0.7818609E-02  0.8568327E-01
       -1   -1    0    0    0  501  0.00000000000E+00  0.00000000000E+00  0.64751475391E+03  0.64751475393E+03  0.50400001928E-02 0.  1.
        1   -1    0    0  501    0  0.00000000000E+00  0.00000000000E+00 -0.16768073858E+04  0.16768073859E+04  0.50400001928E-02 0. -1.
    10030    2    1    2    0    0  0.00000000000E+00  0.00000000000E+00 -0.10292926319E+04  0.23243221398E+04  0.20839937829E+04 0.  0.
        2    1    3    3  502    0 -0.26807762699E+03 -0.10064974538E+04 -0.54725459773E+03  0.11766011785E+04  0.25500000920E-02 0. -1.
       -2    1    3    3    0  502  0.26807762699E+03  0.10064974538E+04 -0.48203803421E+03  0.11477209613E+04  0.25500000920E-02 0.  1.
</event>
<event>
 5   0  0.8755004E-05  0.2517804E+04  0.7818609E-02  0.8396670E-01
       -1   -1    0    0    0  501  0.00000000000E+00  0.00000000000E+00  0.13587072643E+04  0.13587072643E+04  0.50400001928E-02 0. -1.
        1   -1    0    0  501    0  0.00000000000E+00  0.00000000000E+00 -0.11664282986E+04  0.11664282986E+04  0.50400001928E-02 0.  1.
    10030    2    1    2    0    0  0.00000000000E+00  0.00000000000E+00  0.19227896570E+03  0.25251355629E+04  0.25178042836E+04 0.  0.
        3    1    3    3  502    0 -0.61877324732E+03  0.70385050473E+03  0.93915154680E+03  0.13267597758E+04  0.10100000352E+00 0. -1.
       -3    1    3    3    0  502  0.61877324732E+03 -0.70385050473E+03 -0.74687258110E+03  0.11983757871E+04  0.10100000352E+00 0.  1.
</event>
<event>
 5   0  0.8486612E-05  0.2046844E+04  0.7818609E-02  0.8585027E-01
       -1   -1    0    0    0  501  0.00000000000E+00  0.00000000000E+00  0.13313814492E+04  0.13313814493E+04  0.50400001928E-02 0.  1.
        1   -1    0    0  501    0  0.00000000000E+00  0.00000000000E+00 -0.78669644769E+03  0.78669644771E+03  0.50400001928E-02 0. -1.
    10030    2    1    2    0    0  0.00000000000E+00  0.00000000000E+00  0.54468500155E+03  0.21180778970E+04  0.20468444559E+04 0.  0.
        5    1    3    3  502    0  0.48830271018E+03  0.12567306627E+03  0.11939189903E+04  0.12960315975E+04  0.46999998093E+01 0.  1.
       -5    1    3    3    0  502 -0.48830271018E+03 -0.12567306627E+03 -0.64923398873E+03  0.82204629947E+03  0.46999998093E+01 0. -1.
</event>
<event>
 5   0  0.1921687E-04  0.2122877E+04  0.7818609E-02  0.8551232E-01
       -2   -1    0    0    0  501  0.00000000000E+00  0.00000000000E+00  0.91436219122E+03  0.91436219123E+03  0.25500000920E-02 0. -1.
        2   -1    0    0  501    0  0.00000000000E+00  0.00000000000E+00 -0.12321717670E+04  0.12321717670E+04  0.25500000920E-02 0.  1.
    10030    2    1    2    0    0  0.00000000000E+00  0.00000000000E+00 -0.31780957581E+03  0.21465339583E+04  0.21228766115E+04 0.  0.
        5    1    3    3  502    0 -0.23909185558E+03  0.78798069609E+02 -0.12015384822E+04  0.12276362920E+04  0.46999998093E+01 0.  1.
       -5    1    3    3    0  502  0.23909185558E+03 -0.78798069609E+02  0.88372890637E+03  0.91889766630E+03  0.46999998093E+01 0. -1.
</event>
<event>
 5   0  0.8237966E-05  0.1793703E+04  0.7818609E-02  0.8709655E-01
       -1   -1    0    0    0  501  0.00000000000E+00  0.00000000000E+00  0.12633037238E+04  0.12633037238E+04  0.50400001928E-02 0.  1.
        1   -1    0    0  501    0  0.00000000000E+00  0.00000000000E+00 -0.63669768440E+03  0.63669768442E+03  0.50400001928E-02 0. -1.
    10030    2    1    2    0    0  0.00000000000E+00  0.00000000000E+00  0.62660603938E+03  0.19000014082E+04  0.17937029360E+04 0.  0.
        1    1    3    3  502    0 -0.36424477825E+03  0.73182176553E+03 -0.77484570537E+02  0.82112192376E+03  0.50400001928E-02 0. -1.
       -1    1    3    3    0  502  0.36424477825E+03 -0.73182176553E+03  0.70409060992E+03  0.10788794845E+04  0.50400001928E-02 0.  1.
</event>
<event>
 5   0  0.8486612E-05  0.2113259E+04  0.7818609E-02  0.8555425E-01
        1   -1    0    0  501    0  0.00000000000E+00  0.00000000000E+00  0.58720233633E+03  0.58720233635E+03  0.50400001928E-02 0. -1.
       -1   -1    0    0    0  501  0.00000000000E+00  0.00000000000E+00 -0.19013305964E+04  0.19013305964E+04  0.50400001928E-02 0.  1.
    10030    2    1    2    0    0  0.00000000000E+00  0.00000000000E+00 -0.13141282600E+04  0.24885329327E+04  0.21132588752E+04 0.  0.
        5    1    3    3  502    0 -0.71900094190E+03 -0.66754643052E+03 -0.11189747120E+04  0.14881891975E+04  0.46999998093E+01 0. -1.
       -5    1    3    3    0  502  0.71900094190E+03  0.66754643052E+03 -0.19515354801E+03  0.10003437352E+04  0.46999998093E+01 0.  1.
</event>
<event>
 5   0  0.8525278E-05  0.2096954E+04  0.7818609E-02  0.8562586E-01
        1   -1    0    0  501    0  0.00000000000E+00  0.00000000000E+00  0.12249466311E+04  0.12249466312E+04  0.50400001928E-02 0. -1.
       -1   -1    0    0    0  501  0.00000000000E+00  0.00000000000E+00 -0.89743032215E+03  0.89743032217E+03  0.50400001928E-02 0.  1.
    10030    2    1    2    0    0  0.00000000000E+00  0.00000000000E+00  0.32751630899E+03  0.21223769533E+04  0.20969542197E+04 0.  0.
        4    1    3    3  502    0  0.31006906421E+03 -0.99809301540E+03  0.79258588728E+02  0.10481488581E+04  0.12699999809E+01 0.  1.
       -4    1    3    3    0  502 -0.31006906421E+03  0.99809301540E+03  0.24825772026E+03  0.10742280952E+04  0.12699999809E+01 0. -1.
</event>
<event>
 5   0  0.8271069E-05  0.2095433E+04  0.7818609E-02  0.8563258E-01
        1   -1    0    0  501    0  0.00000000000E+00  0.00000000000E+00  0.11726153123E+04  0.11726153123E+04  0.50400001928E-02 0. -1.
       -1   -1    0    0    0  501  0.00000000000E+00  0.00000000000E+00 -0.93612148026E+03  0.93612148027E+03  0.50400001928E-02 0.  1.
    10030    2    1    2    0    0  0.00000000000E+00  0.00000000000E+00  0.23649383201E+03  0.21087367926E+04  0.20954334940E+04 0.  0.
        2    1    3    3  502    0  0.55274531272E+03  0.73262011821E+02 -0.77441086874E+03  0.95425724873E+03  0.25500000920E-02 0.  1.
       -2    1    3    3    0  502 -0.55274531272E+03 -0.73262011821E+02  0.10109047008E+04  0.11544795438E+04  0.25500000920E-02 0. -1.
</event>
<event>
 5   0  0.1886323E-04  0.1328355E+04  0.7818609E-02  0.9007377E-01
        2   -1    0    0  501    0  0.00000000000E+00  0.00000000000E+00  0.61368878421E+03  0.61368878421E+03  0.25500000920E-02 0. -1.
       -2   -1    0    0    0  501  0.00000000000E+00  0.00000000000E+00 -0.71881965709E+03  0.71881965709E+03  0.25500000920E-02 0.  1.
    10030    2    1    2    0    0  0.00000000000E+00  0.00000000000E+00 -0.10513087288E+03  0.13325084413E+04  0.13283547138E+04 0.  0.
        2    1    3    3  502    0  0.64505042243E+03  0.13937158735E+03  0.22616066437E+02  0.66032262819E+03  0.25500000920E-02 0. -1.
       -2    1    3    3    0  502 -0.64505042243E+03 -0.13937158735E+03 -0.12774693932E+03  0.67218581311E+03  0.25500000920E-02 0.  1.
</event>
<event>
 5   0  0.1815400E-04  0.2081475E+04  0.7818609E-02  0.8569448E-01
        2   -1    0    0  501    0  0.00000000000E+00  0.00000000000E+00  0.15899901340E+04  0.15899901340E+04  0.25500000920E-02 0.  1.
       -2   -1    0    0    0  501  0.00000000000E+00  0.00000000000E+00 -0.68122095399E+03  0.68122095400E+03  0.25500000920E-02 0. -1.
    10030    2    1    2    0    0  0.00000000000E+00  0.00000000000E+00  0.90876917997E+03  0.22712110880E+04  0.20814750500E+04 0.  0.
        3    1    3    3  502    0 -0.66536219487E+03  0.66403033883E+03 -0.32973778409E+02  0.94060109585E+03  0.10100000352E+00 0.  1.
       -3    1    3    3    0  502  0.66536219487E+03 -0.66403033883E+03  0.94174295838E+03  0.13306099921E+04  0.10100000352E+00 0. -1.
</event>
<event>
 5   0  0.1777590E-04  0.2107401E+04  0.7818609E-02  0.8557990E-01
        2   -1    0    0  501    0  0.00000000000E+00  0.00000000000E+00  0.92245360787E+03  0.92245360787E+03  0.25500000920E-02 0. -1.
       -2   -1    0    0    0  501  0.00000000000E+00  0.00000000000E+00 -0.12036208226E+04  0.12036208226E+04  0.25500000920E-02 0.  1.
    10030    2    1    2    0    0  0.00000000000E+00  0.00000000000E+00 -0.28116721478E+03  0.21260744305E+04  0.21074006457E+04 0.  0.
        4    1    3    3  502    0  0.61155387849E+02  0.30358130095E+03 -0.11566730640E+04  0.11974121169E+04  0.12699999809E+01 0.  1.
       -4    1    3    3    0  502 -0.61155387849E+02 -0.30358130095E+03  0.87550584925E+03  0.92866231361E+03  0.12699999809E+01 0. -1.
</event>
<event>
 5   0  0.8486612E-05  0.2098801E+04  0.7818609E-02  0.8561772E-01
        1   -1    0    0  501    0  0.00000000000E+00  0.00000000000E+00  0.12707140419E+04  0.12707140419E+04  0.50400001928E-02 0.  1.
       -1   -1    0    0    0  501  0.00000000000E+00  0.00000000000E+00 -0.86663171176E+03  0.86663171178E+03  0.50400001928E-02 0. -1.
    10030    2    1    2    0    0  0.00000000000E+00  0.00000000000E+00  0.40408233018E+03  0.21373457537E+04  0.20988006912E+04 0.  0.
        5    1    3    3  502    0 -0.43644775094E+03  0.75331114591E+03 -0.39459807605E+03  0.95587345056E+03  0.46999998093E+01 0. -1.
       -5    1    3    3    0  502  0.43644775094E+03 -0.75331114591E+03  0.79868040623E+03  0.11814723032E+04  0.46999998093E+01 0.  1.
</event>
<event>
 5   0  0.1810875E-04  0.2037684E+04  0.7818609E-02  0.8589202E-01
       -2   -1    0    0    0  501  0.00000000000E+00  0.00000000000E+00  0.23686747971E+04  0.23686747971E+04  0.25500000920E-02 0.  1.
        2   -1    0    0  501    0  0.00000000000E+00  0.00000000000E+00 -0.43823617911E+03  0.43823617911E+03  0.25500000920E-02 0. -1.
    10030    2    1    2    0    0  0.00000000000E+00  0.00000000000E+00  0.19304386180E+04  0.28069109762E+04  0.20376839722E+04 0.  0.
        1    1    3    3  502    0 -0.40412433460E+03 -0.52624190502E+03 -0.99822970820E+02  0.67097812628E+03  0.50400001928E-02 0. -1.
       -1    1    3    3    0  502  0.40412433460E+03  0.52624190502E+03  0.20302615888E+04  0.21359328500E+04  0.50400001928E-02 0.  1.
</event>
<event>
 5   0  0.1921687E-04  0.2163838E+04  0.7818609E-02  0.8533632E-01
       -2   -1    0    0    0  501  0.00000000000E+00  0.00000000000E+00  0.87309772419E+03  0.87309772420E+03  0.25500000920E-02 0. -1.
        2   -1    0    0  501    0  0.00000000000E+00  0.00000000000E+00 -0.13406846610E+04  0.13406846610E+04  0.25500000920E-02 0.  1.
    10030    2    1    2    0    0  0.00000000000E+00  0.00000000000E+00 -0.46758693681E+03  0.22137823852E+04  0.21638380035E+04 0.  0.
        5    1    3    3  502    0 -0.73437238191E+03  0.13986756171E+03 -0.10339326642E+04  0.12758936375E+04  0.46999998093E+01 0.  1.
       -5    1    3    3    0  502  0.73437238191E+03 -0.13986756171E+03  0.56634572738E+03  0.93788874770E+03  0.46999998093E+01 0. -1.
</event>
<event>
 5   0  0.8525278E-05  0.2109326E+04  0.7818609E-02  0.8557146E-01
       -1   -1    0    0    0  501  0.00000000000E+00  0.00000000000E+00  0.92666243527E+03  0.92666243528E+03  0.50400001928E-02 0.  1.
        1   -1    0    0  501    0  0.00000000000E+00  0.00000000000E+00 -0.12003446767E+04  0.12003446767E+04  0.50400001928E-02 0. -1.
    10030    2    1    2    0    0  0.00000000000E+00  0.00000000000E+00 -0.27368224143E+03  0.21270071120E+04  0.21093262633E+04 0.  0.
        4    1    3    3  502    0 -0.26055305767E+03 -0.13694528395E+03  0.88440208013E+03  0.93210007987E+03  0.12699999809E+01 0.  1.
       -4    1    3    3    0  502  0.26055305767E+03  0.13694528395E+03 -0.11580843216E+04  0.11949070321E+04  0.12699999809E+01 0. -1.
</event>
<event>
 5   0  0.8271069E-05  0.2204549E+04  0.7818609E-02  0.8516537E-01
        1   -1    0    0  501    0  0.00000000000E+00  0.00000000000E+00  0.23479639952E+04  0.23479639952E+04  0.50400001928E-02 0.  1.
       -1   -1    0    0    0  501  0.00000000000E+00  0.00000000000E+00 -0.51747362030E+03  0.51747362033E+03  0.50400001928E-02 0. -1.
    10030    2    1    2    0    0  0.00000000000E+00  0.00000000000E+00  0.18304903748E+04  0.28654376155E+04  0.22045493226E+04 0.  0.
        2    1    3    3  502    0  0.60692267324E+03 -0.77649893700E+03  0.15569010964E+04  0.18426195360E+04  0.25500000920E-02 0.  1.
       -2    1    3    3    0  502 -0.60692267324E+03  0.77649893700E+03  0.27358927844E+03  0.10228180795E+04  0.25500000920E-02 0. -1.
</event>
<event>
 5   0  0.8271069E-05  0.2088431E+04  0.7818609E-02  0.8566357E-01
        1   -1    0    0  501    0  0.00000000000E+00  0.00000000000E+00  0.11461014019E+04  0.11461014019E+04  0.50400001928E-02 0. -1.
       -1   -1    0    0    0  501  0.00000000000E+00  0.00000000000E+00 -0.95138747377E+03  0.95138747378E+03  0.50400001928E-02 0.  1.
    10030    2    1    2    0    0  0.00000000000E+00  0.00000000000E+00  0.19471392812E+03  0.20974888757E+04  0.20884314855E+04 0.  0.
        2    1    3    3  502    0 -0.63205450000E+03  0.79230260764E+03  0.34974386701E+03  0.10721739997E+04  0.25500000920E-02 0. -1.
       -2    1    3    3    0  502  0.63205450000E+03 -0.79230260764E+03 -0.15502993888E+03  0.10253148760E+04  0.25500000920E-02 0.  1.
</event>
<event>
 5   0  0.8486612E-05  0.1965657E+04  0.7818609E-02  0.8622847E-01
       -1   -1    0    0    0  501  0.00000000000E+00  0.00000000000E+00  0.38750474706E+03  0.38750474710E+03  0.50400001928E-02 0. -1.
        1   -1    0    0  501    0  0.00000000000E+00  0.00000000000E+00 -0.24927489348E+04  0.24927489348E+04  0.50400001928E-02 0.  1.
    10030    2    1    2    0    0  0.00000000000E+00  0.00000000000E+00 -0.21052441877E+04  0.28802536819E+04  0.19656571883E+04 0.  0.
        5    1    3    3  502    0  0.66274607512E+03  0.26312366140E+03 -0.61559232230E+02  0.71573602001E+03  0.46999998093E+01 0. -1.
       -5    1    3    3    0  502 -0.66274607512E+03 -0.26312366140E+03 -0.20436849555E+04  0.21645176619E+04  0.46999998093E+01 0.  1.
</event>
<event>
 5   0  0.8271069E-05  0.2123460E+04  0.7818609E-02  0.8550979E-01
       -1   -1    0    0    0  501  0.00000000000E+00  0.00000000000E+00  0.14683363761E+04  0.14683363761E+04  0.50400001928E-02 0.  1.
        1   -1    0    0  501    0  0.00000000000E+00  0.00000000000E+00 -0.76771985723E+03  0.76771985725E+03  0.50400001928E-02 0. -1.
    10030    2    1    2    0    0  0.00000000000E+00  0.00000000000E+00  0.70061651889E+03  0.22360562334E+04  0.21234603769E+04 0.  0.
        2    1    3    3  502    0  0.56398112662E+03  0.45237460329E+03  0.11690669628E+04  0.13745672251E+04  0.25500000920E-02 0.  1.
       -2    1    3    3    0  502 -0.56398112662E+03 -0.45237460329E+03 -0.46845044393E+03  0.86148900823E+03  0.25500000920E-02 0. -1.
</event>
<event>
 5   0  0.1886323E-04  0.2066820E+04  0.7818609E-02  0.8576002E-01
        2   -1    0    0  501    0  0.00000000000E+00  0.00000000000E+00  0.17917614442E+04  0.17917614442E+04  0.25500000920E-02 0. -1.
       -2   -1    0    0    0  501  0.00000000000E+00  0.00000000000E+00 -0.59602581250E+03  0.59602581251E+03  0.25500000920E-02 0.  1.
    10030    2    1    2    0    0  0.00000000000E+00  0.00000000000E+00  0.11957356317E+04  0.23877872567E+04  0.20668198476E+04 0.  0.
        2    1    3    3  502    0 -0.45618062760E+03 -0.88461819026E+03  0.91904398822E+03  0.13547294785E+04  0.25500000920E-02 0. -1.
       -2    1    3    3    0  502  0.45618062760E+03  0.88461819026E+03  0.27669164344E+03  0.10330577782E+04  0.25500000920E-02 0.  1.
</event>
<event>
 5   0  0.1886323E-04  0.2076600E+04  0.7818609E-02  0.8571622E-01
       -2   -1    0    0    0  501  0.00000000000E+00  0.00000000000E+00  0.58530116093E+03  0.58530116094E+03  0.25500000920E-02 0. -1.
        2   -1    0    0  501    0  0.00000000000E+00  0.00000000000E+00 -0.18419018668E+04  0.18419018668E+04  0.25500000920E-02 0.  1.
    10030    2    1    2    0    0  0.00000000000E+00  0.00000000000E+00 -0.12566007059E+04  0.24272030278E+04  0.20766003958E+04 0.  0.
        2    1    3    3  502    0  0.56571071682E+03  0.63330238908E+03 -0.13266405923E+04  0.15751431022E+04  0.25500000920E-02 0.  1.
       -2    1    3    3    0  502 -0.56571071682E+03 -0.63330238908E+03  0.70039886411E+02  0.85205992561E+03  0.25500000920E-02 0. -1.
</event>
<event>
 5   0  0.1815400E-04  0.2185673E+04  0.7818609E-02  0.8524415E-01
        2   -1    0    0  501    0  0.00000000000E+00  0.00000000000E+00  0.12356768423E+04  0.12356768423E+04  0.25500000920E-02 0. -1.
       -2   -1    0    0    0  501  0.00000000000E+00  0.00000000000E+00 -0.96650814276E+03  0.96650814276E+03  0.25500000920E-02 0.  1.
    10030    2    1    2    0    0  0.00000000000E+00  0.00000000000E+00  0.26916869950E+03  0.22021849850E+04  0.21856731044E+04 0.  0.
        3    1    3    3  502    0 -0.52099963177E+03  0.94106096961E+03  0.32905897411E+03  0.11248627398E+04  0.10100000352E+00 0.  1.
       -3    1    3    3    0  502  0.52099963177E+03 -0.94106096961E+03 -0.59890274611E+02  0.10773222452E+04  0.10100000352E+00 0. -1.
</event>
<event>
 5   0  0.8237966E-05  0.2124110E+04  0.7818609E-02  0.8550696E-01
        1   -1    0    0  501    0  0.00000000000E+00  0.00000000000E+00  0.10153387154E+04  0.10153387154E+04  0.50400001928E-02 0. -1.
       -1   -1    0    0    0  501  0.00000000000E+00  0.00000000000E+00 -0.11109208326E+04  0.11109208326E+04  0.50400001928E-02 0.  1.
    10030    2    1    2    0    0  0.00000000000E+00  0.00000000000E+00 -0.95582117135E+02  0.21262595480E+04  0.21241101017E+04 0.  0.
        1    1    3    3  502    0  0.33316192853E+03 -0.98501293253E+03  0.16856090602E+03  0.10534040663E+04  0.50400001928E-02 0. -1.
       -1    1    3    3    0  502 -0.33316192853E+03  0.98501293253E+03 -0.26414302316E+03  0.10728554817E+04  0.50400001928E-02 0.  1.
</event>
<event>
 5   0  0.8271069E-05  0.2097479E+04  0.7818609E-02  0.8562355E-01
       -1   -1    0    0    0  501  0.00000000000E+00  0.00000000000E+00  0.71870452251E+03  0.71870452253E+03  0.50400001928E-02 0.  1.
        1   -1    0    0  501    0  0.00000000000E+00  0.00000000000E+00 -0.15303290823E+04  0.15303290823E+04  0.50400001928E-02 0. -1.
    10030    2    1    2    0    0  0.00000000000E+00  0.00000000000E+00 -0.81162455975E+03  0.22490336048E+04  0.20974788985E+04 0.  0.
        2    1    3    3  502    0 -0.68512526110E+03  0.30951199028E+03 -0.11898505232E+04  0.14074581923E+04  0.25500000920E-02 0. -1.
       -2    1    3    3    0  502  0.68512526110E+03 -0.30951199028E+03  0.37822596343E+03  0.84157541251E+03  0.25500000920E-02 0.  1.
</event>
<event>
 5   0  0.8271069E-05  0.2101900E+04  0.7818609E-02  0.8560407E-01
       -1   -1    0    0    0  501  0.00000000000E+00  0.00000000000E+00  0.16005292922E+04  0.16005292922E+04  0.50400001928E-02 0.  1.
        1   -1    0    0  501    0  0.00000000000E+00  0.00000000000E+00 -0.69008167630E+03  0.69008167632E+03  0.50400001928E-02 0. -1.
    10030    2    1    2    0    0  0.00000000000E+00  0.00000000000E+00  0.91044761585E+03  0.22906109685E+04  0.21019000328E+04 0.  0.
        2    1    3    3  502    0  0.61315735507E+03 -0.85232874787E+03  0.50480226655E+03  0.11650114012E+04  0.25500000920E-02 0.  1.
       -2    1    3    3    0  502 -0.61315735507E+03  0.85232874787E+03  0.40564534930E+03  0.11255995673E+04  0.25500000920E-02 0. -1.
</event>
<event>
 5   0  0.1815400E-04  0.2133622E+04  0.7818609E-02  0.8546576E-01
        2   -1    0    0  501    0  0.00000000000E+00  0.00000000000E+00  0.21952925070E+04  0.21952925070E+04  0.25500000920E-02 0. -1.
       -2   -1    0    0    0  501  0.00000000000E+00  0.00000000000E+00 -0.51842085005E+03  0.51842085005E+03  0.25500000920E-02 0.  1.
    10030    2    1    2    0    0  0.00000000000E+00  0.00000000000E+00  0.16768716569E+04  0.27137133570E+04  0.21336217168E+04 0.  0.
        3    1    3    3  502    0  0.25298025652E+03 -0.45943302757E+03 -0.34311900067E+03  0.62674426670E+03  0.10100000352E+00 0.  1.
       -3    1    3    3    0  502 -0.25298025652E+03  0.45943302757E+03  0.20199906576E+04  0.20869690903E+04  0.10100000352E+00 0. -1.
</event>
<event>
 5   0  0.1886323E-04  0.2090077E+04  0.7818609E-02  0.8565627E-01
       -2   -1    0    0    0  501  0.00000000000E+00  0.00000000000E+00  0.75135536175E+03  0.75135536175E+03  0.25500000920E-02 0.  1.
        2   -1    0    0  501    0  0.00000000000E+00  0.00000000000E+00 -0.14535144809E+04  0.14535144809E+04  0.25500000920E-02 0. -1.
    10030    2    1    2    0    0  0.00000000000E+00  0.00000000000E+00 -0.70215911913E+03  0.22048698426E+04  0.20900774135E+04 0.  0.
        2    1    3    3  502    0 -0.38680081307E+03 -0.94808576648E+03 -0.57141551009E+03  0.11726027353E+04  0.25500000920E-02 0. -1.
       -2    1    3    3    0  502  0.38680081307E+03  0.94808576648E+03 -0.13074360904E+03  0.10322671073E+04  0.25500000920E-02 0.  1.
</event>
<event>
 5   0  0.1886323E-04  0.2202855E+04  0.7818609E-02  0.8517241E-01
        2   -1    0    0  501    0  0.00000000000E+00  0.00000000000E+00  0.19478537781E+04  0.19478537781E+04  0.25500000920E-02 0.  1.
       -2   -1    0    0    0  501  0.00000000000E+00  0.00000000000E+00 -0.62280993299E+03  0.62280993299E+03  0.25500000920E-02 0. -1.
    10030    2    1    2    0    0  0.00000000000E+00  0.00000000000E+00  0.13250438451E+04  0.25706637111E+04  0.22028551300E+04 0.  0.
        2    1    3    3  502    0 -0.27311984083E+03  0.10275377644E+04  0.99814346557E+03  0.14583273578E+04  0.25500000920E-02 0.  1.
       -2    1    3    3    0  502  0.27311984083E+03 -0.10275377644E+04  0.32690037950E+03  0.11123363533E+04  0.25500000920E-02 0. -1.
</event>
<event>
 5   0  0.8525278E-05  0.2111175E+04  0.7818609E-02  0.8556336E-01
        1   -1    0    0  501    0  0.00000000000E+00  0.00000000000E+00  0.14966922655E+04  0.14966922655E+04  0.50400001928E-02 0.  1.
       -1   -1    0    0    0  501  0.00000000000E+00  0.00000000000E+00 -0.74448523697E+03  0.74448523699E+03  0.50400001928E-02 0. -1.
    10030    2    1    2    0    0  0.00000000000E+00  0.00000000000E+00  0.75220702853E+03  0.22411775025E+04  0.21111753087E+04 0.  0.
        4    1    3    3  502    0 -0.37965980563E+02  0.79012069786E+02  0.14928208011E+04  0.14953928848E+04  0.12699999809E+01 0.  1.
       -4    1    3    3    0  502  0.37965980563E+02 -0.79012069786E+02 -0.74061377260E+03  0.74578461765E+03  0.12699999809E+01 0. -1.
</event>
<event>
 5   0  0.6441125E-05  0.2110439E+04  0.7818609E-02  0.8556659E-01
       -3   -1    0    0    0  501  0.00000000000E+00  0.00000000000E+00  0.78018377098E+03  0.78018377751E+03  0.10100000352E+00 0. -1.
        3   -1    0    0  501    0  0.00000000000E+00  0.00000000000E+00 -0.14272127030E+04  0.14272127065E+04  0.10100000352E+00 0.  1.
    10030    2    1    2    0    0  0.00000000000E+00  0.00000000000E+00 -0.64702893199E+03  0.22073964841E+04  0.21104390062E+04 0.  0.
        1    1    3    3  502    0 -0.47064632491E+03  0.33679570457E+02 -0.13107228608E+04  0.13930673689E+04  0.50400001928E-02 0.  1.
       -1    1    3    3    0  502  0.47064632491E+03 -0.33679570457E+02  0.66369392878E+03  0.81432911512E+03  0.50400001928E-02 0. -1.
</event>
<event>
 5   0  0.1810875E-04  0.2108396E+04  0.7818609E-02  0.8557554E-01
        2   -1    0    0  501    0  0.00000000000E+00  0.00000000000E+00  0.10113404143E+04  0.10113404143E+04  0.25500000920E-02 0. -1.
       -2   -1    0    0    0  501  0.00000000000E+00  0.00000000000E+00 -0.10988722052E+04  0.10988722052E+04  0.25500000920E-02 0.  1.
    10030    2    1    2    0    0  0.00000000000E+00  0.00000000000E+00 -0.87531790877E+02  0.21102126196E+04  0.21083964251E+04 0.  0.
        1    1    3    3  502    0 -0.10263331450E+04  0.20500178770E+03 -0.17016171021E+03  0.10603492184E+04  0.50400001928E-02 0. -1.
       -1    1    3    3    0  502  0.10263331450E+04 -0.20500178770E+03  0.82629919328E+02  0.10498634011E+04  0.50400001928E-02 0.  1.
</event>
<event>
 5   0  0.1815400E-04  0.2082192E+04  0.7818609E-02  0.8569129E-01
       -2   -1    0    0    0  501  0.00000000000E+00  0.00000000000E+00  0.83238616896E+03  0.83238616896E+03  0.25500000920E-02 0. -1.
        2   -1    0    0  501    0  0.00000000000E+00  0.00000000000E+00 -0.13021370141E+04  0.13021370141E+04  0.25500000920E-02 0.  1.
    10030    2    1    2    0    0  0.00000000000E+00  0.00000000000E+00 -0.46975084516E+03  0.21345231831E+04  0.20821919610E+04 0.  0.
        3    1    3    3  502    0 -0.78339267230E+03 -0.66605913231E+03 -0.67863759890E+02  0.10305068398E+04  0.10100000352E+00 0. -1.
       -3    1    3    3    0  502  0.78339267230E+03  0.66605913231E+03 -0.40188708527E+03  0.11040163433E+04  0.10100000352E+00 0.  1.
</event>
<event>
 5   0  0.8271069E-05  0.2104470E+04  0.7818609E-02  0.8559277E-01
       -1   -1    0    0    0  501  0.00000000000E+00  0.00000000000E+00  0.11762781956E+04  0.11762781956E+04  0.50400001928E-02 0.  1.
        1   -1    0    0  501    0  0.00000000000E+00  0.00000000000E+00 -0.94127224040E+03  0.94127224041E+03  0.50400001928E-02 0. -1.
    10030    2    1    2    0    0  0.00000000000E+00  0.00000000000E+00  0.23500595522E+03  0.21175504360E+04  0.21044695413E+04 0.  0.
        2    1    3    3  502    0 -0.68619641542E+03  0.69955747184E+03  0.50322872252E+03  0.11015830990E+04  0.25500000920E-02 0.  1.
       -2    1    3    3    0  502  0.68619641542E+03 -0.69955747184E+03 -0.26822276730E+03  0.10159673370E+04  0.25500000920E-02 0. -1.
</event>
<event>
 5   0  0.1815400E-04  0.2082044E+04  0.7818609E-02  0.8569194E-01
        2   -1    0    0  501    0  0.00000000000E+00  0.00000000000E+00  0.98084212979E+03  0.98084212979E+03  0.25500000920E-02 0.  1.
       -2   -1    0    0    0  501  0.00000000000E+00  0.00000000000E+00 -0.11048946837E+04  0.11048946837E+04  0.25500000920E-02 0. -1.
    10030    2    1    2    0    0  0.00000000000E+00  0.00000000000E+00 -0.12405255390E+03  0.20857368135E+04  0.20820444325E+04 0.  0.
        3    1    3    3  502    0 -0.84180495911E+03 -0.50749520772E+02 -0.67344968441E+03  0.10792337980E+04  0.10100000352E+00 0. -1.
       -3    1    3    3    0  502  0.84180495911E+03  0.50749520772E+02  0.54939713051E+03  0.10065030155E+04  0.10100000352E+00 0.  1.
</event>
<event>
 5   0  0.1886323E-04  0.2085563E+04  0.7818609E-02  0.8567630E-01
       -2   -1    0    0    0  501  0.00000000000E+00  0.00000000000E+00  0.11208972136E+04  0.11208972136E+04  0.25500000920E-02 0.  1.
        2   -1    0    0  501    0  0.00000000000E+00  0.00000000000E+00 -0.97010966157E+03  0.97010966157E+03  0.25500000920E-02 0. -1.
    10030    2    1    2    0    0  0.00000000000E+00  0.00000000000E+00  0.15078755207E+03  0.20910068752E+04  0.20855629615E+04 0.  0.
        2    1    3    3  502    0  0.87294370354E+03 -0.12151509062E+03 -0.48337289914E+03  0.10052094242E+04  0.25500000920E-02 0. -1.
       -2    1    3    3    0  502 -0.87294370354E+03  0.12151509062E+03  0.63416045121E+03  0.10857974510E+04  0.25500000920E-02 0.  1.
</event>
<event>
 5   0  0.1921687E-04  0.1904374E+04  0.7818609E-02  0.8652682E-01
        2   -1    0    0  501    0  0.00000000000E+00  0.00000000000E+00  0.81651627732E+03  0.81651627733E+03  0.25500000920E-02 0.  1.
       -2   -1    0    0    0  501  0.00000000000E+00  0.00000000000E+00 -0.11104010442E+04  0.11104010442E+04  0.25500000920E-02 0. -1.
    10030    2    1    2    0    0  0.00000000000E+00  0.00000000000E+00 -0.29388476689E+03  0.19269173216E+04  0.19043744663E+04 0.  0.
        5    1    3    3  502    0 -0.15332324392E+03  0.69073754089E+03 -0.79167583351E+03  0.10617905080E+04  0.46999998093E+01 0. -1.
       -5    1    3    3    0  502  0.15332324392E+03 -0.69073754089E+03  0.49779106662E+03  0.86512681355E+03  0.46999998093E+01 0.  1.
</event>
<event>
 5   0  0.8486612E-05  0.2096231E+04  0.7818609E-02  0.8562905E-01
       -1   -1    0    0    0  501  0.00000000000E+00  0.00000000000E+00  0.67229365122E+03  0.67229365123E+03  0.50400001928E-02 0. -1.
        1   -1    0    0  501    0  0.00000000000E+00  0.00000000000E+00 -0.16340274439E+04  0.16340274439E+04  0.50400001928E-02 0.  1.
    10030    2    1    2    0    0  0.00000000000E+00  0.00000000000E+00 -0.96173379271E+03  0.23063210952E+04  0.20962311671E+04 0.  0.
        5    1    3    3  502    0  0.73455750219E+03 -0.73096674296E+03 -0.30817369429E+03  0.10811476399E+04  0.46999998093E+01 0. -1.
       -5    1    3    3    0  502 -0.73455750219E+03  0.73096674296E+03 -0.65356009842E+03  0.12251734553E+04  0.46999998093E+01 0.  1.
</event>
<event>
 5   0  0.8486612E-05  0.2107158E+04  0.7818609E-02  0.8558097E-01
       -1   -1    0    0    0  501  0.00000000000E+00  0.00000000000E+00  0.11277246143E+04  0.11277246144E+04  0.50400001928E-02 0. -1.
        1   -1    0    0  501    0  0.00000000000E+00  0.00000000000E+00 -0.98430794081E+03  0.98430794082E+03  0.50400001928E-02 0.  1.
    10030    2    1    2    0    0  0.00000000000E+00  0.00000000000E+00  0.14341667353E+03  0.21120325552E+04  0.21071576049E+04 0.  0.
        5    1    3    3  502    0  0.18144096845E+03  0.35213709799E+03 -0.90681090384E+03  0.98957034420E+03  0.46999998093E+01 0.  1.
       -5    1    3    3    0  502 -0.18144096845E+03 -0.35213709799E+03  0.10502275774E+04  0.11224622110E+04  0.46999998093E+01 0. -1.
</event>
<event>
 5   0  0.1810875E-04  0.2079049E+04  0.7818609E-02  0.8570529E-01
       -2   -1    0    0    0  501  0.00000000000E+00  0.00000000000E+00  0.79761234279E+03  0.79761234280E+03  0.25500000920E-02 0. -1.
        2   -1    0    0  501    0  0.00000000000E+00  0.00000000000E+00 -0.13548072833E+04  0.13548072834E+04  0.25500000920E-02 0.  1.
    10030    2    1    2    0    0  0.00000000000E+00  0.00000000000E+00 -0.55719494055E+03  0.21524196261E+04  0.20790488319E+04 0.  0.
        1    1    3    3  502    0  0.55172993063E+03 -0.88058298608E+03 -0.24970749183E+03  0.10687310902E+04  0.50400001928E-02 0.  1.
       -1    1    3    3    0  502 -0.55172993063E+03  0.88058298608E+03 -0.30748744872E+03  0.10836885359E+04  0.50400001928E-02 0. -1.
</event>
<event>
 5   0  0.8525278E-05  0.2121995E+04  0.7818609E-02  0.8551616E-01
        1   -1    0    0  501    0  0.00000000000E+00  0.00000000000E+00  0.12356520966E+04  0.12356520967E+04  0.50400001928E-02 0.  1.
       -1   -1    0    0    0  501  0.00000000000E+00  0.00000000000E+00 -0.91103000849E+03  0.91103000850E+03  0.50400001928E-02 0. -1.
    10030    2    1    2    0    0  0.00000000000E+00  0.00000000000E+00  0.32462208816E+03  0.21466821052E+04  0.21219954195E+04 0.  0.
        4    1    3    3  502    0 -0.22548037955E+03  0.27990303599E+03  0.11721867380E+04  0.12260548409E+04  0.12699999809E+01 0.  1.
       -4    1    3    3    0  502  0.22548037955E+03 -0.27990303599E+03 -0.84756464988E+03  0.92062726428E+03  0.12699999809E+01 0. -1.
</event>
<event>
 5   0  0.1886323E-04  0.2028437E+04  0.7818609E-02  0.8593440E-01
       -2   -1    0    0    0  501  0.00000000000E+00  0.00000000000E+00  0.72770710997E+03  0.72770710997E+03  0.25500000920E-02 0.  1.
        2   -1    0    0  501    0  0.00000000000E+00  0.00000000000E+00 -0.14135347740E+04  0.14135347740E+04  0.25500000920E-02 0. -1.
    10030    2    1    2    0    0  0.00000000000E+00  0.00000000000E+00 -0.68582766408E+03  0.21412418840E+04  0.20284371376E+04 0.  0.
        2    1    3    3  502    0 -0.18435854230E+03 -0.28678282739E+03 -0.13512339762E+04  0.13935801809E+04  0.25500000920E-02 0. -1.
       -2    1    3    3    0  502  0.18435854230E+03  0.28678282739E+03  0.66540631207E+03  0.74766170315E+03  0.25500000920E-02 0.  1.
</event>
<event>
 5   0  0.8237966E-05  0.2058710E+04  0.7818609E-02  0.8579653E-01
       -1   -1    0    0    0  501  0.00000000000E+00  0.00000000000E+00  0.11084376031E+04  0.11084376031E+04  0.50400001928E-02 0. -1.
        1   -1    0    0  501    0  0.00000000000E+00  0.00000000000E+00 -0.95591417849E+03  0.95591417850E+03  0.50400001928E-02 0.  1.
    10030    2    1    2    0    0  0.00000000000E+00  0.00000000000E+00  0.15252342463E+03  0.20643517816E+04  0.20587095189E+04 0.  0.
        1    1    3    3  502    0 -0.56258471369E+03 -0.78684414144E+03  0.42928618886E+03  0.10582588979E+04  0.50400001928E-02 0. -1.
       -1    1    3    3    0  502  0.56258471369E+03  0.78684414144E+03 -0.27676276423E+03  0.10060928837E+04  0.50400001928E-02 0.  1.
</event>
<event>
 5   0  0.1777590E-04  0.2119672E+04  0.7818609E-02  0.8552627E-01
        2   -1    0    0  501    0  0.00000000000E+00  0.00000000000E+00  0.13111702404E+04  0.13111702404E+04  0.25500000920E-02 0. -1.
       -2   -1    0    0    0  501  0.00000000000E+00  0.00000000000E+00 -0.85667939755E+03  0.85667939756E+03  0.25500000920E-02 0.  1.
    10030    2    1    2    0    0  0.00000000000E+00  0.00000000000E+00  0.45449084289E+03  0.21678496380E+04  0.21196721743E+04 0.  0.
        4    1    3    3  502    0  0.12515527003E+03 -0.81535559313E+03 -0.45329762377E+03  0.94124860344E+03  0.12699999809E+01 0.  1.
       -4    1    3    3    0  502 -0.12515527003E+03  0.81535559313E+03  0.90778846666E+03  0.12266010346E+04  0.12699999809E+01 0. -1.
</event>
<event>
 5   0  0.8525278E-05  0.2072404E+04  0.7818609E-02  0.8573498E-01
        1   -1    0    0  501    0  0.00000000000E+00  0.00000000000E+00  0.14187777128E+04  0.14187777128E+04  0.50400001928E-02 0. -1.
       -1   -1    0    0    0  501  0.00000000000E+00  0.00000000000E+00 -0.75678838598E+03  0.75678838599E+03  0.50400001928E-02 0.  1.
    10030    2    1    2    0    0  0.00000000000E+00  0.00000000000E+00  0.66198932682E+03  0.21755660988E+04  0.20724039137E+04 0.  0.
        4    1    3    3  502    0 -0.35518121544E+03  0.85218944169E+03  0.82487338898E+03  0.12380623010E+04  0.12699999809E+01 0. -1.
       -4    1    3    3    0  502  0.35518121544E+03 -0.85218944169E+03 -0.16288406216E+03  0.93750379782E+03  0.12699999809E+01 0.  1.
</event>
<event>
 5   0  0.6441125E-05  0.2060005E+04  0.7818609E-02  0.8579069E-01
       -4   -1    0    0    0  501  0.00000000000E+00  0.00000000000E+00  0.70639194745E+03  0.70639308910E+03  0.12699999809E+01 0.  1.
        4   -1    0    0  501    0  0.00000000000E+00  0.00000000000E+00 -0.15018618016E+04  0.15018623385E+04  0.12699999809E+01 0. -1.
    10030    2    1    2    0    0  0.00000000000E+00  0.00000000000E+00 -0.79546985412E+03  0.22082554276E+04  0.20600047924E+04 0.  0.
        1    1    3    3  502    0 -0.72475457987E+03 -0.53998408379E+03 -0.92730457269E+03  0.12948921895E+04  0.50400001928E-02 0. -1.
       -1    1    3    3    0  502  0.72475457987E+03  0.53998408379E+03  0.13183471858E+03  0.91336323816E+03  0.50400001928E-02 0.  1.
</event>
<event>
 5   0  0.8525278E-05  0.2088658E+04  0.7818609E-02  0.8566256E-01
        1   -1    0    0  501    0  0.00000000000E+00  0.00000000000E+00  0.95157268786E+03  0.95157268788E+03  0.50400001928E-02 0. -1.
       -1   -1    0    0    0  501  0.00000000000E+00  0.00000000000E+00 -0.11461270800E+04  0.11461270800E+04  0.50400001928E-02 0.  1.
    10030    2    1    2    0    0  0.00000000000E+00  0.00000000000E+00 -0.19455439214E+03  0.20976997679E+04  0.20886581589E+04 0.  0.
        4    1    3    3  502    0 -0.51067119658E+03  0.81222628758E+03 -0.51152482614E+03  0.10872699177E+04  0.12699999809E+01 0.  1.
       -4    1    3    3    0  502  0.51067119658E+03 -0.81222628758E+03  0.31697043400E+03  0.10104298502E+04  0.12699999809E+01 0. -1.
</event>
<event>
 5   0  0.8486612E-05  0.2140228E+04  0.7818609E-02  0.8543727E-01
       -1   -1    0    0    0  501  0.00000000000E+00  0.00000000000E+00  0.89613502444E+03  0.89613502446E+03  0.50400001928E-02 0.  1.
        1   -1    0    0  501    0  0.00000000000E+00  0.00000000000E+00 -0.12778701530E+04  0.12778701530E+04  0.50400001928E-02 0. -1.
    10030    2    1    2    0    0  0.00000000000E+00  0.00000000000E+00 -0.38173512859E+03  0.21740051775E+04  0.21402282129E+04 0.  0.
        5    1    3    3  502    0  0.48973435620E+03  0.27286596706E+03  0.73501449455E+03  0.92442629388E+03  0.46999998093E+01 0.  1.
       -5    1    3    3    0  502 -0.48973435620E+03 -0.27286596706E+03 -0.11167496231E+04  0.12495788836E+04  0.46999998093E+01 0. -1.
</event>
<event>
 5   0  0.1810875E-04  0.2099803E+04  0.7818609E-02  0.8561330E-01
       -2   -1    0    0    0  501  0.00000000000E+00  0.00000000000E+00  0.71658025047E+03  0.71658025048E+03  0.25500000920E-02 0. -1.
        2   -1    0    0  501    0  0.00000000000E+00  0.00000000000E+00 -0.15382688829E+04  0.15382688829E+04  0.25500000920E-02 0.  1.
    10030    2    1    2    0    0  0.00000000000E+00  0.00000000000E+00 -0.82168863243E+03  0.22548491334E+04  0.20998029445E+04 0.  0.
        1    1    3    3  502    0 -0.15484151038E+03  0.18742748810E+03  0.68593757340E+03  0.72774673565E+03  0.50400001928E-02 0. -1.
       -1    1    3    3    0  502  0.15484151038E+03 -0.18742748810E+03 -0.15076262058E+04  0.15271023977E+04  0.50400001928E-02 0.  1.
</event>
<event>
 5   0  0.8486612E-05  0.1344166E+04  0.7818609E-02  0.8995256E-01
       -1   -1    0    0    0  501  0.00000000000E+00  0.00000000000E+00  0.39223995026E+03  0.39223995029E+03  0.50400001928E-02 0.  1.
        1   -1    0    0  501    0  0.00000000000E+00  0.00000000000E+00 -0.11515798794E+04  0.11515798794E+04  0.50400001928E-02 0. -1.
    10030    2    1    2    0    0  0.00000000000E+00  0.00000000000E+00 -0.75933992911E+03  0.15438198297E+04  0.13441661127E+04 0.  0.
        5    1    3    3  502    0 -0.33003314925E+03 -0.56788945414E+03 -0.21621773413E+03  0.69151464936E+03  0.46999998093E+01 0. -1.
       -5    1    3    3    0  502  0.33003314925E+03  0.56788945414E+03 -0.54312219499E+03  0.85230518032E+03  0.46999998093E+01 0.  1.
</event>
<event>
 5   0  0.1810875E-04  0.2094981E+04  0.7818609E-02  0.8563457E-01
        2   -1    0    0  501    0  0.00000000000E+00  0.00000000000E+00  0.27075122521E+04  0.27075122521E+04  0.25500000920E-02 0.  1.
       -2   -1    0    0    0  501  0.00000000000E+00  0.00000000000E+00 -0.40525630141E+03  0.40525630141E+03  0.25500000920E-02 0. -1.
    10030    2    1    2    0    0  0.00000000000E+00  0.00000000000E+00  0.23022559507E+04  0.31127685535E+04  0.20949810513E+04 0.  0.
        1    1    3    3  502    0  0.62813567630E+03  0.45329812032E+03  0.21988196880E+04  0.23312746801E+04  0.50400001928E-02 0.  1.
       -1    1    3    3    0  502 -0.62813567630E+03 -0.45329812032E+03  0.10343626271E+03  0.78149387342E+03  0.50400001928E-02 0. -1.
</event>
<event>
 5   0  0.8755004E-05  0.2058802E+04  0.7818609E-02  0.8579612E-01
        1   -1    0    0  501    0  0.00000000000E+00  0.00000000000E+00  0.11414843057E+04  0.11414843057E+04  0.50400001928E-02 0. -1.
       -1   -1    0    0    0  501  0.00000000000E+00  0.00000000000E+00 -0.92832288428E+03  0.92832288429E+03  0.50400001928E-02 0.  1.
    10030    2    1    2    0    0  0.00000000000E+00  0.00000000000E+00  0.21316142141E+03  0.20698071900E+04  0.20588015961E+04 0.  0.
        3    1    3    3  502    0  0.90974679350E+03  0.35828514749E+03  0.43026222110E+03  0.10682382994E+04  0.10100000352E+00 0. -1.
       -3    1    3    3    0  502 -0.90974679350E+03 -0.35828514749E+03 -0.21710079969E+03  0.10015688906E+04  0.10100000352E+00 0.  1.
</event>
<event>
 5   0  0.8486612E-05  0.2089795E+04  0.7818609E-02  0.8565752E-01
        1   -1    0    0  501    0  0.00000000000E+00  0.00000000000E+00  0.23242792866E+04  0.23242792866E+04  0.50400001928E-02 0. -1.
       -1   -1    0    0    0  501  0.00000000000E+00  0.00000000000E+00 -0.46974162911E+03  0.46974162913E+03  0.50400001928E-02 0.  1.
    10030    2    1    2    0    0  0.00000000000E+00  0.00000000000E+00  0.18545376575E+04  0.27940209158E+04  0.20897949551E+04 0.  0.
        5    1    3    3  502    0  0.10934192480E+03 -0.17812067407E+03  0.22960328584E+04  0.23055306565E+04  0.46999998093E+01 0. -1.
       -5    1    3    3    0  502 -0.10934192480E+03  0.17812067407E+03 -0.44149520087E+03  0.48849025931E+03  0.46999998093E+01 0.  1.
</event>
<event>
 5   0  0.1777590E-04  0.1500495E+04  0.7818609E-02  0.8884124E-01
       -2   -1    0    0    0  501  0.00000000000E+00  0.00000000000E+00  0.52238103609E+03  0.52238103610E+03  0.25500000920E-02 0. -1.
        2   -1    0    0  501    0  0.00000000000E+00  0.00000000000E+00 -0.10775109334E+04  0.10775109334E+04  0.25500000920E-02 0.  1.
    10030    2    1    2    0    0  0.00000000000E+00  0.00000000000E+00 -0.55512989733E+03  0.15998919695E+04  0.15004949554E+04 0.  0.
        4    1    3    3  502    0  0.15882371183E+03 -0.12812244945E+02 -0.10592602315E+04  0.10711783119E+04  0.12699999809E+01 0.  1.
       -4    1    3    3    0  502 -0.15882371183E+03  0.12812244945E+02  0.50413033413E+03  0.52871365761E+03  0.12699999809E+01 0. -1.
</event>
<event>
 5   0  0.1886323E-04  0.1982422E+04  0.7818609E-02  0.8614883E-01
        2   -1    0    0  501    0  0.00000000000E+00  0.00000000000E+00  0.11102712951E+04  0.11102712951E+04  0.25500000920E-02 0. -1.
       -2   -1    0    0    0  501  0.00000000000E+00  0.00000000000E+00 -0.88491839189E+03  0.88491839190E+03  0.25500000920E-02 0.  1.
    10030    2    1    2    0    0  0.00000000000E+00  0.00000000000E+00  0.22535290320E+03  0.19951896870E+04  0.19824222447E+04 0.  0.
        2    1    3    3  502    0  0.62333933959E+03 -0.26939190827E+03  0.83939017613E+03  0.10796757848E+04  0.25500000920E-02 0. -1.
       -2    1    3    3    0  502 -0.62333933959E+03  0.26939190827E+03 -0.61403727293E+03  0.91551390218E+03  0.25500000920E-02 0.  1.
</event>
<event>
 5   0  0.8525278E-05  0.2117280E+04  0.7818609E-02  0.8553669E-01
        1   -1    0    0  501    0  0.00000000000E+00  0.00000000000E+00  0.77546307091E+03  0.77546307093E+03  0.50400001928E-02 0. -1.
       -1   -1    0    0    0  501  0.00000000000E+00  0.00000000000E+00 -0.14452253344E+04  0.14452253344E+04  0.50400001928E-02 0.  1.
    10030    2    1    2    0    0  0.00000000000E+00  0.00000000000E+00 -0.66976226352E+03  0.22206884054E+04  0.21172802139E+04 0.  0.
        4    1    3    3  502    0  0.19198139782E+03  0.10368332485E+04 -0.23628335141E+03  0.10806069949E+04  0.12699999809E+01 0. -1.
       -4    1    3    3    0  502 -0.19198139782E+03 -0.10368332485E+04 -0.43347891211E+03  0.11400814105E+04  0.12699999809E+01 0.  1.
</event>
<event>
 5   0  0.1921687E-04  0.2139452E+04  0.7818609E-02  0.8544061E-01
       -2   -1    0    0    0  501  0.00000000000E+00  0.00000000000E+00  0.46950699738E+03  0.46950699739E+03  0.25500000920E-02 0.  1.
        2   -1    0    0  501    0  0.00000000000E+00  0.00000000000E+00 -0.24372659474E+04  0.24372659474E+04  0.25500000920E-02 0. -1.
    10030    2    1    2    0    0  0.00000000000E+00  0.00000000000E+00 -0.19677589500E+04  0.29067729448E+04  0.21394517212E+04 0.  0.
        5    1    3    3  502    0  0.23426465045E+03  0.89141591260E+03 -0.17215531885E+04  0.19527595158E+04  0.46999998093E+01 0. -1.
       -5    1    3    3    0  502 -0.23426465045E+03 -0.89141591260E+03 -0.24620576150E+03  0.95401342898E+03  0.46999998093E+01 0.  1.
</event>
<event>
 5   0  0.8237966E-05  0.2126708E+04  0.7818609E-02  0.8549569E-01
       -1   -1    0    0    0  501  0.00000000000E+00  0.00000000000E+00  0.87898780546E+03  0.87898780547E+03  0.50400001928E-02 0.  1.
        1   -1    0    0  501    0  0.00000000000E+00  0.00000000000E+00 -0.12863902856E+04  0.12863902856E+04  0.50400001928E-02 0. -1.
    10030    2    1    2    0    0  0.00000000000E+00  0.00000000000E+00 -0.40740248009E+03  0.21653780910E+04  0.21267076659E+04 0.  0.
        1    1    3    3  502    0 -0.79895001273E+03 -0.61812806643E+03 -0.54188209898E+03  0.11463156802E+04  0.50400001928E-02 0. -1.
       -1    1    3    3    0  502  0.79895001273E+03  0.61812806643E+03  0.13447961888E+03  0.10190624109E+04  0.50400001928E-02 0.  1.
</event>
<event>
 5   0  0.1777590E-04  0.2109524E+04  0.7818609E-02  0.8557060E-01
       -2   -1    0    0    0  501  0.00000000000E+00  0.00000000000E+00  0.76164450934E+03  0.76164450935E+03  0.25500000920E-02 0. -1.
        2   -1    0    0  501    0  0.00000000000E+00  0.00000000000E+00 -0.14606845361E+04  0.14606845361E+04  0.25500000920E-02 0.  1.
    10030    2    1    2    0    0  0.00000000000E+00  0.00000000000E+00 -0.69904002673E+03  0.22223290454E+04  0.21095235071E+04 0.  0.
        4    1    3    3  502    0  0.90218273769E+03 -0.30180388958E+03  0.13036211431E+03  0.96021621195E+03  0.12699999809E+01 0. -1.
       -4    1    3    3    0  502 -0.90218273769E+03  0.30180388958E+03 -0.82940214104E+03  0.12621128335E+04  0.12699999809E+01 0.  1.
</event>
<event>
 5   0  0.8271069E-05  0.1986207E+04  0.7818609E-02  0.8613097E-01
        1   -1    0    0  501    0  0.00000000000E+00  0.00000000000E+00  0.14394845933E+04  0.14394845933E+04  0.50400001928E-02 0.  1.
       -1   -1    0    0    0  501  0.00000000000E+00  0.00000000000E+00 -0.68514431997E+03  0.68514431999E+03  0.50400001928E-02 0. -1.
    10030    2    1    2    0    0  0.00000000000E+00  0.00000000000E+00  0.75434027336E+03  0.21246289133E+04  0.19862071320E+04 0.  0.
        2    1    3    3  502    0  0.36420354731E+03 -0.74371550767E+03 -0.20920984499E+03  0.85412278946E+03  0.25500000920E-02 0. -1.
       -2    1    3    3    0  502 -0.36420354731E+03  0.74371550767E+03  0.96355011836E+03  0.12705061239E+04  0.25500000920E-02 0.  1.
</event>
<event>
 5   0  0.8271069E-05  0.2132010E+04  0.7818609E-02  0.8547272E-01
       -1   -1    0    0    0  501  0.00000000000E+00  0.00000000000E+00  0.13413377258E+04  0.13413377258E+04  0.50400001928E-02 0.  1.
        1   -1    0    0  501    0  0.00000000000E+00  0.00000000000E+00 -0.84718923774E+03  0.84718923775E+03  0.50400001928E-02 0. -1.
    10030    2    1    2    0    0  0.00000000000E+00  0.00000000000E+00  0.49414848802E+03  0.21885269635E+04  0.21320102115E+04 0.  0.
        2    1    3    3  502    0 -0.35715520088E+03  0.57245177229E+03 -0.60009460768E+03  0.90298084547E+03  0.25500000920E-02 0. -1.
       -2    1    3    3    0  502  0.35715520088E+03 -0.57245177229E+03  0.10942430957E+04  0.12855461180E+04  0.25500000920E-02 0.  1.
</event>
<event>
 5   0  0.1886323E-04  0.2126234E+04  0.7818609E-02  0.8549774E-01
        2   -1    0    0  501    0  0.00000000000E+00  0.00000000000E+00  0.12614440651E+04  0.12614440651E+04  0.25500000920E-02 0. -1.
       -2   -1    0    0    0  501  0.00000000000E+00  0.00000000000E+00 -0.89597120547E+03  0.89597120548E+03  0.25500000920E-02 0.  1.
    10030    2    1    2    0    0  0.00000000000E+00  0.00000000000E+00  0.36547285961E+03  0.21574152706E+04  0.21262338156E+04 0.  0.
        2    1    3    3  502    0 -0.46340404098E+03 -0.95137328779E+03  0.79444111023E+02  0.10612095951E+04  0.25500000920E-02 0.  1.
       -2    1    3    3    0  502  0.46340404098E+03  0.95137328779E+03  0.28602874859E+03  0.10962056755E+04  0.25500000920E-02 0. -1.
</event>
<event>
 5   0  0.8486612E-05  0.2028022E+04  0.7818609E-02  0.8593630E-01
        1   -1    0    0  501    0  0.00000000000E+00  0.00000000000E+00  0.85464156593E+03  0.85464156594E+03  0.50400001928E-02 0. -1.
       -1   -1    0    0    0  501  0.00000000000E+00  0.00000000000E+00 -0.12030992268E+04  0.12030992268E+04  0.50400001928E-02 0.  1.
    10030    2    1    2    0    0  0.00000000000E+00  0.00000000000E+00 -0.34845766083E+03  0.20577407927E+04  0.20280222949E+04 0.  0.
        5    1    3    3  502    0  0.94508723476E+03  0.36666870639E+03 -0.19825483281E+03  0.10329389577E+04  0.46999998093E+01 0. -1.
       -5    1    3    3    0  502 -0.94508723476E+03 -0.36666870639E+03 -0.15020282802E+03  0.10248018350E+04  0.46999998093E+01 0.  1.
</event>
<event>
 5   0  0.8237966E-05  0.2089082E+04  0.7818609E-02  0.8566068E-01
       -1   -1    0    0    0  501  0.00000000000E+00  0.00000000000E+00  0.89246676276E+03  0.89246676278E+03  0.50400001928E-02 0. -1.
        1   -1    0    0  501    0  0.00000000000E+00  0.00000000000E+00 -0.12225288028E+04  0.12225288028E+04  0.50400001928E-02 0.  1.
    10030    2    1    2    0    0  0.00000000000E+00  0.00000000000E+00 -0.33006204003E+03  0.21149955656E+04  0.20890824043E+04 0.  0.
        1    1    3    3  502    0  0.98053282254E+03 -0.26038891427E+03 -0.41675002288E+03  0.10967805543E+04  0.50400001928E-02 0.  1.
       -1    1    3    3    0  502 -0.98053282254E+03  0.26038891427E+03  0.86687982855E+02  0.10182150113E+04  0.50400001928E-02 0. -1.
</event>
<event>
 5   0  0.8486612E-05  0.2101454E+04  0.7818609E-02  0.8560603E-01
       -1   -1    0    0    0  501  0.00000000000E+00  0.00000000000E+00  0.85115134107E+03  0.85115134109E+03  0.50400001928E-02 0.  1.
        1   -1    0    0  501    0  0.00000000000E+00  0.00000000000E+00 -0.12970988711E+04  0.12970988712E+04  0.50400001928E-02 0. -1.
    10030    2    1    2    0    0  0.00000000000E+00  0.00000000000E+00 -0.44594753007E+03  0.21482502122E+04  0.21014542048E+04 0.  0.
        5    1    3    3  502    0  0.22558947692E+03 -0.92055999536E+03 -0.68659703582E+03  0.11703669923E+04  0.46999998093E+01 0. -1.
       -5    1    3    3    0  502 -0.22558947692E+03  0.92055999536E+03  0.24064950575E+03  0.97788321991E+03  0.46999998093E+01 0.  1.
</event>
<event>
 5   0  0.1886323E-04  0.1975730E+04  0.7818609E-02  0.8618052E-01
       -2   -1    0    0    0  501  0.00000000000E+00  0.00000000000E+00  0.84674602765E+03  0.84674602765E+03  0.25500000920E-02 0. -1.
        2   -1    0    0  501    0  0.00000000000E+00  0.00000000000E+00 -0.11525033970E+04  0.11525033970E+04  0.25500000920E-02 0.  1.
    10030    2    1    2    0    0  0.00000000000E+00  0.00000000000E+00 -0.30575736931E+03  0.19992494246E+04  0.19757304201E+04 0.  0.
        2    1    3    3  502    0  0.26623742102E+03  0.87759612887E+03 -0.52442846390E+03  0.10564480789E+04  0.25500000920E-02 0. -1.
       -2    1    3    3    0  502 -0.26623742102E+03 -0.87759612887E+03  0.21867109459E+03  0.94280134566E+03  0.25500000920E-02 0.  1.
</event>
<event>
 5   0  0.1886323E-04  0.2025401E+04  0.7818609E-02  0.8594836E-01
       -2   -1    0    0    0  501  0.00000000000E+00  0.00000000000E+00  0.10911962519E+04  0.10911962519E+04  0.25500000920E-02 0.  1.
        2   -1    0    0  501    0  0.00000000000E+00  0.00000000000E+00 -0.93985106328E+03  0.93985106329E+03  0.25500000920E-02 0. -1.
    10030    2    1    2    0    0  0.00000000000E+00  0.00000000000E+00  0.15134518863E+03  0.20310473152E+04  0.20254006592E+04 0.  0.
        2    1    3    3  502    0  0.39660232911E+03  0.83760113471E+02 -0.85495176396E+03  0.94617740555E+03  0.25500000920E-02 0. -1.
       -2    1    3    3    0  502 -0.39660232911E+03 -0.83760113471E+02  0.10062969526E+04  0.10848699096E+04  0.25500000920E-02 0.  1.
</event>
<event>
 5   0  0.8237966E-05  0.2087375E+04  0.7818609E-02  0.8566825E-01
        1   -1    0    0  501    0  0.00000000000E+00  0.00000000000E+00  0.12808382395E+04  0.12808382395E+04  0.50400001928E-02 0. -1.
       -1   -1    0    0    0  501  0.00000000000E+00  0.00000000000E+00 -0.85044590788E+03  0.85044590790E+03  0.50400001928E-02 0.  1.
    10030    2    1    2    0    0  0.00000000000E+00  0.00000000000E+00  0.43039233165E+03  0.21312841474E+04  0.20873750401E+04 0.  0.
        1    1    3    3  502    0  0.62844309930E+03  0.25033443673E+03 -0.59630269138E+03  0.90176768574E+03  0.50400001928E-02 0.  1.
       -1    1    3    3    0  502 -0.62844309930E+03 -0.25033443673E+03  0.10266950230E+04  0.12295164617E+04  0.50400001928E-02 0. -1.
</event>
<event>
 5   0  0.1815400E-04  0.2121388E+04  0.7818609E-02  0.8551880E-01
        2   -1    0    0  501    0  0.00000000000E+00  0.00000000000E+00  0.11156509097E+04  0.11156509097E+04  0.25500000920E-02 0.  1.
       -2   -1    0    0    0  501  0.00000000000E+00  0.00000000000E+00 -0.10084443666E+04  0.10084443666E+04  0.25500000920E-02 0. -1.
    10030    2    1    2    0    0  0.00000000000E+00  0.00000000000E+00  0.10720654309E+03  0.21240952763E+04  0.21213881069E+04 0.  0.
        3    1    3    3  502    0 -0.58928591876E+03 -0.18102370732E+03 -0.81065777130E+03  0.10184269778E+04  0.10100000352E+00 0. -1.
       -3    1    3    3    0  502  0.58928591876E+03  0.18102370732E+03  0.91786431439E+03  0.11056682986E+04  0.10100000352E+00 0.  1.
</event>
<event>
 5   0  0.1815400E-04  0.1929317E+04  0.7818609E-02  0.8640399E-01
        2   -1    0    0  501    0  0.00000000000E+00  0.00000000000E+00  0.70438622347E+03  0.70438622347E+03  0.25500000920E-02 0. -1.
       -2   -1    0    0    0  501  0.00000000000E+00  0.00000000000E+00 -0.13211024879E+04  0.13211024879E+04  0.25500000920E-02 0.  1.
    10030    2    1    2    0    0  0.00000000000E+00  0.00000000000E+00 -0.61671626445E+03  0.20254887114E+04  0.19293173842E+04 0.  0.
        3    1    3    3  502    0  0.33675908533E+03 -0.36711501561E+03  0.55888583648E+03  0.74868785529E+03  0.10100000352E+00 0. -1.
       -3    1    3    3    0  502 -0.33675908533E+03  0.36711501561E+03 -0.11756021009E+04  0.12768008561E+04  0.10100000352E+00 0.  1.
</event>
<event>
 5   0  0.1777590E-04  0.2086248E+04  0.7818609E-02  0.8567326E-01
       -2   -1    0    0    0  501  0.00000000000E+00  0.00000000000E+00  0.87418287432E+03  0.87418287432E+03  0.25500000920E-02 0. -1.
        2   -1    0    0  501    0  0.00000000000E+00  0.00000000000E+00 -0.12447138347E+04  0.12447138347E+04  0.25500000920E-02 0.  1.
    10030    2    1    2    0    0  0.00000000000E+00  0.00000000000E+00 -0.37053096043E+03  0.21188967091E+04  0.20862478451E+04 0.  0.
        4    1    3    3  502    0  0.34291866059E+03 -0.26273766409E+03  0.77905707047E+03  0.89081750088E+03  0.12699999809E+01 0. -1.
       -4    1    3    3    0  502 -0.34291866059E+03  0.26273766409E+03 -0.11495880309E+04  0.12280792082E+04  0.12699999809E+01 0.  1.
</event>
<event>
 5   0  0.8525278E-05  0.2015026E+04  0.7818609E-02  0.8599627E-01
        1   -1    0    0  501    0  0.00000000000E+00  0.00000000000E+00  0.74051742241E+03  0.74051742243E+03  0.50400001928E-02 0.  1.
       -1   -1    0    0    0  501  0.00000000000E+00  0.00000000000E+00 -0.13707748027E+04  0.13707748027E+04  0.50400001928E-02 0. -1.
    10030    2    1    2    0    0  0.00000000000E+00  0.00000000000E+00 -0.63025738027E+03  0.21112922251E+04  0.20150261771E+04 0.  0.
        4    1    3    3  502    0  0.69395768155E+02 -0.38088381246E+03 -0.12897234998E+04  0.13465795818E+04  0.12699999809E+01 0. -1.
       -4    1    3    3    0  502 -0.69395768155E+02  0.38088381246E+03  0.65946611951E+03  0.76471264336E+03  0.12699999809E+01 0.  1.
</event>
<event>
 5   0  0.8525278E-05  0.1457539E+04  0.7818609E-02  0.8913191E-01
        1   -1    0    0  501    0  0.00000000000E+00  0.00000000000E+00  0.47421002620E+03  0.47421002622E+03  0.50400001928E-02 0.  1.
       -1   -1    0    0    0  501  0.00000000000E+00  0.00000000000E+00 -0.11199781753E+04  0.11199781753E+04  0.50400001928E-02 0. -1.
    10030    2    1    2    0    0  0.00000000000E+00  0.00000000000E+00 -0.64576814910E+03  0.15941882015E+04  0.14575388570E+04 0.  0.
        4    1    3    3  502    0  0.40828030032E+03  0.31117168135E+03 -0.88866515766E+03  0.10262787118E+04  0.12699999809E+01 0. -1.
       -4    1    3    3    0  502 -0.40828030032E+03 -0.31117168135E+03  0.24289700855E+03  0.56790948977E+03  0.12699999809E+01 0.  1.
</event>
<event>
 5   0  0.1921687E-04  0.2127301E+04  0.7818609E-02  0.8549312E-01
        2   -1    0    0  501    0  0.00000000000E+00  0.00000000000E+00  0.12256861864E+04  0.12256861864E+04  0.25500000920E-02 0. -1.
       -2   -1    0    0    0  501  0.00000000000E+00  0.00000000000E+00 -0.92303560410E+03  0.92303560411E+03  0.25500000920E-02 0.  1.
    10030    2    1    2    0    0  0.00000000000E+00  0.00000000000E+00  0.30265058230E+03  0.21487217905E+04  0.21273006271E+04 0.  0.
        5    1    3    3  502    0  0.31316415372E+03 -0.35694427313E+03  0.11126701325E+04  0.12097677112E+04  0.46999998093E+01 0. -1.
       -5    1    3    3    0  502 -0.31316415372E+03  0.35694427313E+03 -0.81001955022E+03  0.93895407930E+03  0.46999998093E+01 0.  1.
</event>
<event>
 5   0  0.8525278E-05  0.2092195E+04  0.7818609E-02  0.8564689E-01
       -1   -1    0    0    0  501  0.00000000000E+00  0.00000000000E+00  0.99911362662E+03  0.99911362663E+03  0.50400001928E-02 0. -1.
        1   -1    0    0  501    0  0.00000000000E+00  0.00000000000E+00 -0.10952912809E+04  0.10952912809E+04  0.50400001928E-02 0.  1.
    10030    2    1    2    0    0  0.00000000000E+00  0.00000000000E+00 -0.96177654267E+02  0.20944049075E+04  0.20921954439E+04 0.  0.
        4    1    3    3  502    0 -0.18395929108E+03 -0.21830773341E+03  0.95936333056E+03  0.10009390092E+04  0.12699999809E+01 0. -1.
       -4    1    3    3    0  502  0.18395929108E+03  0.21830773341E+03 -0.10555409848E+04  0.10934658983E+04  0.12699999809E+01 0.  1.
</event>
<event>
 5   0  0.1815400E-04  0.2066018E+04  0.7818609E-02  0.8576362E-01
        2   -1    0    0  501    0  0.00000000000E+00  0.00000000000E+00  0.11274496100E+04  0.11274496100E+04  0.25500000920E-02 0. -1.
       -2   -1    0    0    0  501  0.00000000000E+00  0.00000000000E+00 -0.94647911734E+03  0.94647911735E+03  0.25500000920E-02 0.  1.
    10030    2    1    2    0    0  0.00000000000E+00  0.00000000000E+00  0.18097049261E+03  0.20739287273E+04  0.20660179202E+04 0.  0.
        3    1    3    3  502    0  0.33107109978E+03 -0.44405589672E+03 -0.78481323831E+03  0.96058604078E+03  0.10100000352E+00 0.  1.
       -3    1    3    3    0  502 -0.33107109978E+03  0.44405589672E+03  0.96578373092E+03  0.11133426865E+04  0.10100000352E+00 0. -1.
</event>
<event>
 5   0  0.1815400E-04  0.1915295E+04  0.7818609E-02  0.8647280E-01
       -2   -1    0    0    0  501  0.00000000000E+00  0.00000000000E+00  0.10280480470E+04  0.10280480470E+04  0.25500000920E-02 0. -1.
        2   -1    0    0  501    0  0.00000000000E+00  0.00000000000E+00 -0.89206778108E+03  0.89206778108E+03  0.25500000920E-02 0.  1.
    10030    2    1    2    0    0  0.00000000000E+00  0.00000000000E+00  0.13598026590E+03  0.19201158281E+04  0.19152947973E+04 0.  0.
        3    1    3    3  502    0 -0.35333517660E+03  0.56364866815E+02  0.95851982585E+03  0.10231241430E+04  0.10100000352E+00 0. -1.
       -3    1    3    3    0  502  0.35333517660E+03 -0.56364866815E+02 -0.82253955994E+03  0.89699168508E+03  0.10100000352E+00 0.  1.
</event>
<event>
 5   0  0.8525278E-05  0.2078353E+04  0.7818609E-02  0.8570839E-01
       -1   -1    0    0    0  501  0.00000000000E+00  0.00000000000E+00  0.10613600082E+04  0.10613600082E+04  0.50400001928E-02 0. -1.
        1   -1    0    0  501    0  0.00000000000E+00  0.00000000000E+00 -0.10174569163E+04  0.10174569163E+04  0.50400001928E-02 0.  1.
    10030    2    1    2    0    0  0.00000000000E+00  0.00000000000E+00  0.43903091909E+02  0.20788169245E+04  0.20783532722E+04 0.  0.
        4    1    3    3  502    0 -0.59182815208E+03  0.13992819084E+03  0.86478180551E+03  0.10572084204E+04  0.12699999809E+01 0. -1.
       -4    1    3    3    0  502  0.59182815208E+03 -0.13992819084E+03 -0.82087871360E+03  0.10216085040E+04  0.12699999809E+01 0.  1.
</event>
<event>
 5   0  0.8755004E-05  0.2120510E+04  0.7818609E-02  0.8552262E-01
       -1   -1    0    0    0  501  0.00000000000E+00  0.00000000000E+00  0.54765197896E+03  0.54765197898E+03  0.50400001928E-02 0. -1.
        1   -1    0    0  501    0  0.00000000000E+00  0.00000000000E+00 -0.20526544829E+04  0.20526544829E+04  0.50400001928E-02 0.  1.
    10030    2    1    2    0    0  0.00000000000E+00  0.00000000000E+00 -0.15050025039E+04  0.26003064619E+04  0.21205096460E+04 0.  0.
        3    1    3    3  502    0 -0.77765785753E+03  0.45091635253E+03 -0.14419009638E+04  0.16991632352E+04  0.10100000352E+00 0.  1.
       -3    1    3    3    0  502  0.77765785753E+03 -0.45091635253E+03 -0.63101540130E+02  0.90114322664E+03  0.10100000352E+00 0. -1.
</event>
<event>
 5   0  0.8525278E-05  0.2110803E+04  0.7818609E-02  0.8556499E-01
        1   -1    0    0  501    0  0.00000000000E+00  0.00000000000E+00  0.15186995653E+04  0.15186995653E+04  0.50400001928E-02 0. -1.
       -1   -1    0    0    0  501  0.00000000000E+00  0.00000000000E+00 -0.73343821229E+03  0.73343821231E+03  0.50400001928E-02 0.  1.
    10030    2    1    2    0    0  0.00000000000E+00  0.00000000000E+00  0.78526135296E+03  0.22521377776E+04  0.21108029697E+04 0.  0.
        4    1    3    3  502    0  0.59833413778E+03  0.54247187529E+03  0.11175272082E+04  0.13788212900E+04  0.12699999809E+01 0. -1.
       -4    1    3    3    0  502 -0.59833413778E+03 -0.54247187529E+03 -0.33226585524E+03  0.87331648752E+03  0.12699999809E+01 0.  1.
</event>
<event>
 5   0  0.1921687E-04  0.2067556E+04  0.7818609E-02  0.8575671E-01
        2   -1    0    0  501    0  0.00000000000E+00  0.00000000000E+00  0.61988725392E+03  0.61988725392E+03  0.25500000920E-02 0. -1.
       -2   -1    0    0    0  501  0.00000000000E+00  0.00000000000E+00 -0.17240186955E+04  0.17240186955E+04  0.25500000920E-02 0.  1.
    10030    2    1    2    0    0  0.00000000000E+00  0.00000000000E+00 -0.11041314415E+04  0.23439059494E+04  0.20675562530E+04 0.  0.
        5    1    3    3  502    0 -0.58329284888E+03  0.44946210374E+03 -0.13745971473E+04  0.15594185255E+04  0.46999998093E+01 0.  1.
       -5    1    3    3    0  502  0.58329284888E+03 -0.44946210374E+03  0.27046570576E+03  0.78448742389E+03  0.46999998093E+01 0. -1.
</event>
<event>
 5   0  0.8525278E-05  0.2025801E+04  0.7818609E-02  0.8594652E-01
       -1   -1    0    0    0  501  0.00000000000E+00  0.00000000000E+00  0.73575629046E+03  0.73575629048E+03  0.50400001928E-02 0. -1.
        1   -1    0    0  501    0  0.00000000000E+00  0.00000000000E+00 -0.13944386983E+04  0.13944386983E+04  0.50400001928E-02 0.  1.
    10030    2    1    2    0    0  0.00000000000E+00  0.00000000000E+00 -0.65868240782E+03  0.21301949888E+04  0.20258006259E+04 0.  0.
        4    1    3    3  502    0  0.82036550613E+03  0.48680705593E+03 -0.68745670301E+03  0.11758311974E+04  0.12699999809E+01 0.  1.
       -4    1    3    3    0  502 -0.82036550613E+03 -0.48680705593E+03  0.28774295183E+02  0.95436379139E+03  0.12699999809E+01 0. -1.
</event>
<event>
 5   0  0.8271069E-05  0.2133975E+04  0.7818609E-02  0.8546423E-01
        1   -1    0    0  501    0  0.00000000000E+00  0.00000000000E+00  0.15055595782E+04  0.15055595782E+04  0.50400001928E-02 0.  1.
       -1   -1    0    0    0  501  0.00000000000E+00  0.00000000000E+00 -0.75617248454E+03  0.75617248455E+03  0.50400001928E-02 0. -1.
    10030    2    1    2    0    0  0.00000000000E+00  0.00000000000E+00  0.74938709363E+03  0.22617320627E+04  0.21339753765E+04 0.  0.
        2    1    3    3  502    0 -0.93438616149E+03  0.27179369836E+01  0.92068278056E+03  0.13117704328E+04  0.25500000920E-02 0.  1.
       -2    1    3    3    0  502  0.93438616149E+03 -0.27179369836E+01 -0.17129568693E+03  0.94996162992E+03  0.25500000920E-02 0. -1.
</event>
<event>
 5   0  0.8486612E-05  0.2188958E+04  0.7818609E-02  0.8523038E-01
       -1   -1    0    0    0  501  0.00000000000E+00  0.00000000000E+00  0.11418143055E+04  0.11418143055E+04  0.50400001928E-02 0.  1.
        1   -1    0    0  501    0  0.00000000000E+00  0.00000000000E+00 -0.10491056793E+04  0.10491056793E+04  0.50400001928E-02 0. -1.
    10030    2    1    2    0    0  0.00000000000E+00  0.00000000000E+00  0.92708626238E+02  0.21909199848E+04  0.21889576264E+04 0.  0.
        5    1    3    3  502    0  0.32880339380E+03  0.97940907351E+03 -0.31522842735E+03  0.10801596440E+04  0.46999998093E+01 0. -1.
       -5    1    3    3    0  502 -0.32880339380E+03 -0.97940907351E+03  0.40793705359E+03  0.11107603408E+04  0.46999998093E+01 0.  1.
</event>
<event>
 5   0  0.1886323E-04  0.2071985E+04  0.7818609E-02  0.8573686E-01
       -2   -1    0    0    0  501  0.00000000000E+00  0.00000000000E+00  0.49521996279E+03  0.49521996280E+03  0.25500000920E-02 0.  1.
        2   -1    0    0  501    0  0.00000000000E+00  0.00000000000E+00 -0.21672794876E+04  0.21672794876E+04  0.25500000920E-02 0. -1.
    10030    2    1    2    0    0  0.00000000000E+00  0.00000000000E+00 -0.16720595248E+04  0.26624994504E+04  0.20719846208E+04 0.  0.
        2    1    3    3  502    0  0.13042148998E+03 -0.38133744135E+03 -0.20624150199E+04  0.21014242131E+04  0.25500000920E-02 0. -1.
       -2    1    3    3    0  502 -0.13042148998E+03  0.38133744135E+03  0.39035549514E+03  0.56107523722E+03  0.25500000920E-02 0.  1.
</event>
<event>
 5   0  0.1777590E-04  0.2091526E+04  0.7818609E-02  0.8564986E-01
        2   -1    0    0  501    0  0.00000000000E+00  0.00000000000E+00  0.74956341699E+03  0.74956341699E+03  0.25500000920E-02 0.  1.
       -2   -1    0    0    0  501  0.00000000000E+00  0.00000000000E+00 -0.14590094330E+04  0.14590094330E+04  0.25500000920E-02 0. -1.
    10030    2    1    2    0    0  0.00000000000E+00  0.00000000000E+00 -0.70944601606E+03  0.22085728500E+04  0.20915258507E+04 0.  0.
        4    1    3    3  502    0 -0.81526320467E+03  0.47816869710E+03 -0.82734035599E+03  0.12561023339E+04  0.12699999809E+01 0. -1.
       -4    1    3    3    0  502  0.81526320467E+03 -0.47816869710E+03  0.11789433993E+03  0.95247051611E+03  0.12699999809E+01 0.  1.
</event>
<event>
 5   0  0.1815400E-04  0.1739376E+04  0.7818609E-02  0.8739220E-01
        2   -1    0    0  501    0  0.00000000000E+00  0.00000000000E+00  0.64560445601E+03  0.64560445602E+03  0.25500000920E-02 0.  1.
       -2   -1    0    0    0  501  0.00000000000E+00  0.00000000000E+00 -0.11715487456E+04  0.11715487456E+04  0.25500000920E-02 0. -1.
    10030    2    1    2    0    0  0.00000000000E+00  0.00000000000E+00 -0.52594428962E+03  0.18171532017E+04  0.17393758543E+04 0.  0.
        3    1    3    3  502    0  0.17670212453E+03  0.78074452640E+03  0.92187275972E+02  0.80578170764E+03  0.10100000352E+00 0.  1.
       -3    1    3    3    0  502 -0.17670212453E+03 -0.78074452640E+03 -0.61813156560E+03  0.10113714940E+04  0.10100000352E+00 0. -1.
</event>
<event>
 5   0  0.8237966E-05  0.2114057E+04  0.7818609E-02  0.8555076E-01
       -1   -1    0    0    0  501  0.00000000000E+00  0.00000000000E+00  0.10018297092E+04  0.10018297093E+04  0.50400001928E-02 0. -1.
        1   -1    0    0  501    0  0.00000000000E+00  0.00000000000E+00 -0.11152688252E+04  0.11152688252E+04  0.50400001928E-02 0.  1.
    10030    2    1    2    0    0  0.00000000000E+00  0.00000000000E+00 -0.11343911600E+03  0.21170985345E+04  0.21140571827E+04 0.  0.
        1    1    3    3  502    0  0.95293756917E+03 -0.19799441224E+03 -0.46964471182E+03  0.10806747676E+04  0.50400001928E-02 0.  1.
       -1    1    3    3    0  502 -0.95293756917E+03  0.19799441224E+03  0.35620559583E+03  0.10364237669E+04  0.50400001928E-02 0. -1.
</event>
<event>
 5   0  0.8755004E-05  0.2080273E+04  0.7818609E-02  0.8569984E-01
       -1   -1    0    0    0  501  0.00000000000E+00  0.00000000000E+00  0.91875451101E+03  0.91875451102E+03  0.50400001928E-02 0. -1.
        1   -1    0    0  501    0  0.00000000000E+00  0.00000000000E+00 -0.11775546599E+04  0.11775546600E+04  0.50400001928E-02 0.  1.
    10030    2    1    2    0    0  0.00000000000E+00  0.00000000000E+00 -0.25880014894E+03  0.20963091710E+04  0.20802727281E+04 0.  0.
        3    1    3    3  502    0 -0.73645187448E+03  0.15107019888E+03 -0.85375984404E+03  0.11375805246E+04  0.10100000352E+00 0.  1.
       -3    1    3    3    0  502  0.73645187448E+03 -0.15107019888E+03  0.59495969510E+03  0.95872864639E+03  0.10100000352E+00 0. -1.
</event>
<event>
 5   0  0.8486612E-05  0.1938928E+04  0.7818609E-02  0.8635719E-01
        1   -1    0    0  501    0  0.00000000000E+00  0.00000000000E+00  0.12312985125E+04  0.12312985125E+04  0.50400001928E-02 0.  1.
       -1   -1    0    0    0  501  0.00000000000E+00  0.00000000000E+00 -0.76330821055E+03  0.76330821057E+03  0.50400001928E-02 0. -1.
    10030    2    1    2    0    0  0.00000000000E+00  0.00000000000E+00  0.46799030195E+03  0.19946067231E+04  0.19389278112E+04 0.  0.
        5    1    3    3  502    0 -0.84995064798E+02 -0.90131188383E+03 -0.12273499256E+03  0.91360453226E+03  0.46999998093E+01 0. -1.
       -5    1    3    3    0  502  0.84995064798E+02  0.90131188383E+03  0.59072529451E+03  0.10810021908E+04  0.46999998093E+01 0.  1.
</event>
<event>
 5   0  0.8486612E-05  0.2155678E+04  0.7818609E-02  0.8537106E-01
       -1   -1    0    0    0  501  0.00000000000E+00  0.00000000000E+00  0.13794681627E+04  0.13794681627E+04  0.50400001928E-02 0. -1.
        1   -1    0    0  501    0  0.00000000000E+00  0.00000000000E+00 -0.84216314483E+03  0.84216314485E+03  0.50400001928E-02 0.  1.
    10030    2    1    2    0    0  0.00000000000E+00  0.00000000000E+00  0.53730501787E+03  0.22216313076E+04  0.21556783119E+04 0.  0.
        5    1    3    3  502    0 -0.16775918130E+03 -0.99950846042E+03  0.64669247373E+03  0.12022452125E+04  0.46999998093E+01 0. -1.
       -5    1    3    3    0  502  0.16775918130E+03  0.99950846042E+03 -0.10938745586E+03  0.10193860951E+04  0.46999998093E+01 0.  1.
</event>
<event>
 5   0  0.1886323E-04  0.2111695E+04  0.7818609E-02  0.8556109E-01
        2   -1    0    0  501    0  0.00000000000E+00  0.00000000000E+00  0.18541569693E+04  0.18541569693E+04  0.25500000920E-02 0.  1.
       -2   -1    0    0    0  501  0.00000000000E+00  0.00000000000E+00 -0.60125100493E+03  0.60125100493E+03  0.25500000920E-02 0. -1.
    10030    2    1    2    0    0  0.00000000000E+00  0.00000000000E+00  0.12529059644E+04  0.24554079742E+04  0.21116948085E+04 0.  0.
        2    1    3    3  502    0  0.95811115271E+03 -0.42927813185E+03  0.75675053118E+03  0.12941901181E+04  0.25500000920E-02 0.  1.
       -2    1    3    3    0  502 -0.95811115271E+03  0.42927813185E+03  0.49615543319E+03  0.11612178561E+04  0.25500000920E-02 0. -1.
</event>
<event>
 5   0  0.1886323E-04  0.2077208E+04  0.7818609E-02  0.8571350E-01
       -2   -1    0    0    0  501  0.00000000000E+00  0.00000000000E+00  0.58840989684E+03  0.58840989684E+03  0.25500000920E-02 0.  1.
        2   -1    0    0  501    0  0.00000000000E+00  0.00000000000E+00 -0.18332436348E+04  0.18332436348E+04  0.25500000920E-02 0. -1.
    10030    2    1    2    0    0  0.00000000000E+00  0.00000000000E+00 -0.12448337380E+04  0.24216535316E+04  0.20772084133E+04 0.  0.
        2    1    3    3  502    0  0.92636075423E+03  0.43587304126E+03 -0.82624943269E+03  0.13156054424E+04  0.25500000920E-02 0.  1.
       -2    1    3    3    0  502 -0.92636075423E+03 -0.43587304126E+03 -0.41858430527E+03  0.11060480892E+04  0.25500000920E-02 0. -1.
</event>
<event>
 5   0  0.8755004E-05  0.2170061E+04  0.7818609E-02  0.8530994E-01
       -1   -1    0    0    0  501  0.00000000000E+00  0.00000000000E+00  0.93298609595E+03  0.93298609597E+03  0.50400001928E-02 0. -1.
        1   -1    0    0  501    0  0.00000000000E+00  0.00000000000E+00 -0.12618531996E+04  0.12618531996E+04  0.50400001928E-02 0.  1.
    10030    2    1    2    0    0  0.00000000000E+00  0.00000000000E+00 -0.32886710362E+03  0.21948392956E+04  0.21700612806E+04 0.  0.
        3    1    3    3  502    0 -0.16531784332E+03  0.10248387128E+04 -0.48373923452E+03  0.11452633032E+04  0.10100000352E+00 0. -1.
       -3    1    3    3    0  502  0.16531784332E+03 -0.10248387128E+04  0.15487213089E+03  0.10495759923E+04  0.10100000352E+00 0.  1.
</event>
<event>
 5   0  0.8237966E-05  0.2096267E+04  0.7818609E-02  0.8562890E-01
        1   -1    0    0  501    0  0.00000000000E+00  0.00000000000E+00  0.11497570037E+04  0.11497570037E+04  0.50400001928E-02 0. -1.
       -1   -1    0    0    0  501  0.00000000000E+00  0.00000000000E+00 -0.95549199717E+03  0.95549199718E+03  0.50400001928E-02 0.  1.
    10030    2    1    2    0    0  0.00000000000E+00  0.00000000000E+00  0.19426500655E+03  0.21052490009E+04  0.20962667920E+04 0.  0.
        1    1    3    3  502    0 -0.72431287523E+03 -0.75192815755E+02  0.85421976698E+03  0.11224858623E+04  0.50400001928E-02 0. -1.
       -1    1    3    3    0  502  0.72431287523E+03  0.75192815755E+02 -0.65995476043E+03  0.98276313861E+03  0.50400001928E-02 0.  1.
</event>
<event>
 5   0  0.1810875E-04  0.2161697E+04  0.7818609E-02  0.8534542E-01
        2   -1    0    0  501    0  0.00000000000E+00  0.00000000000E+00  0.22565966241E+04  0.22565966241E+04  0.25500000920E-02 0.  1.
       -2   -1    0    0    0  501  0.00000000000E+00  0.00000000000E+00 -0.51769719491E+03  0.51769719491E+03  0.25500000920E-02 0. -1.
    10030    2    1    2    0    0  0.00000000000E+00  0.00000000000E+00  0.17388994292E+04  0.27742938190E+04  0.21616972428E+04 0.  0.
        1    1    3    3  502    0 -0.72920708578E+03  0.78874692730E+03  0.10232905605E+04  0.14835728026E+04  0.50400001928E-02 0. -1.
       -1    1    3    3    0  502  0.72920708578E+03 -0.78874692730E+03  0.71560886864E+03  0.12907210164E+04  0.50400001928E-02 0.  1.
</event>
<event>
 5   0  0.1921687E-04  0.2095035E+04  0.7818609E-02  0.8563434E-01
       -2   -1    0    0    0  501  0.00000000000E+00  0.00000000000E+00  0.54075830040E+03  0.54075830041E+03  0.25500000920E-02 0.  1.
        2   -1    0    0  501    0  0.00000000000E+00  0.00000000000E+00 -0.20291737248E+04  0.20291737248E+04  0.25500000920E-02 0. -1.
    10030    2    1    2    0    0  0.00000000000E+00  0.00000000000E+00 -0.14884154244E+04  0.25699320252E+04  0.20950346390E+04 0.  0.
        5    1    3    3  502    0  0.36158840649E+03 -0.32230011804E+03 -0.18835309678E+04  0.19448224953E+04  0.46999998093E+01 0. -1.
       -5    1    3    3    0  502 -0.36158840649E+03  0.32230011804E+03  0.39511554334E+03  0.62510952991E+03  0.46999998093E+01 0.  1.
</event>
<event>
 5   0  0.8271069E-05  0.1928597E+04  0.7818609E-02  0.8640751E-01
       -1   -1    0    0    0  501  0.00000000000E+00  0.00000000000E+00  0.50126617648E+03  0.50126617650E+03  0.50400001928E-02 0.  1.
        1   -1    0    0  501    0  0.00000000000E+00  0.00000000000E+00 -0.18550463726E+04  0.18550463726E+04  0.50400001928E-02 0. -1.
    10030    2    1    2    0    0  0.00000000000E+00  0.00000000000E+00 -0.13537801961E+04  0.23563125491E+04  0.19285974203E+04 0.  0.
        2    1    3    3  502    0 -0.67199295280E+03 -0.63951347560E+02 -0.15182379979E+04  0.16615387211E+04  0.25500000920E-02 0. -1.
       -2    1    3    3    0  502  0.67199295280E+03  0.63951347560E+02  0.16445780179E+03  0.69477382798E+03  0.25500000920E-02 0.  1.
</event>
<event>
 5   0  0.8271069E-05  0.2060007E+04  0.7818609E-02  0.8579068E-01
       -1   -1    0    0    0  501  0.00000000000E+00  0.00000000000E+00  0.16707789674E+04  0.16707789674E+04  0.50400001928E-02 0.  1.
        1   -1    0    0  501    0  0.00000000000E+00  0.00000000000E+00 -0.63497759762E+03  0.63497759764E+03  0.50400001928E-02 0. -1.
    10030    2    1    2    0    0  0.00000000000E+00  0.00000000000E+00  0.10358013698E+04  0.23057565651E+04  0.20600070048E+04 0.  0.
        2    1    3    3  502    0  0.64906341507E+03  0.70951329387E+03  0.93100228736E+03  0.13384534695E+04  0.25500000920E-02 0. -1.
       -2    1    3    3    0  502 -0.64906341507E+03 -0.70951329387E+03  0.10479908242E+03  0.96730309554E+03  0.25500000920E-02 0.  1.
</event>
<event>
 5   0  0.8755004E-05  0.2135366E+04  0.7818609E-02  0.8545822E-01
        1   -1    0    0  501    0  0.00000000000E+00  0.00000000000E+00  0.63768073896E+03  0.63768073898E+03  0.50400001928E-02 0.  1.
       -1   -1    0    0    0  501  0.00000000000E+00  0.00000000000E+00 -0.17876461471E+04  0.17876461471E+04  0.50400001928E-02 0. -1.
    10030    2    1    2    0    0  0.00000000000E+00  0.00000000000E+00 -0.11499654082E+04  0.24253268861E+04  0.21353664942E+04 0.  0.
        3    1    3    3  502    0  0.80821633039E+03  0.61249021942E+03 -0.19557187850E+03  0.10327663218E+04  0.10100000352E+00 0.  1.
       -3    1    3    3    0  502 -0.80821633039E+03 -0.61249021942E+03 -0.95439352967E+03  0.13925605643E+04  0.10100000352E+00 0. -1.
</event>
<event>
 5   0  0.1815400E-04  0.2039458E+04  0.7818609E-02  0.8588392E-01
        2   -1    0    0  501    0  0.00000000000E+00  0.00000000000E+00  0.47844738764E+03  0.47844738765E+03  0.25500000920E-02 0. -1.
       -2   -1    0    0    0  501  0.00000000000E+00  0.00000000000E+00 -0.21733794308E+04  0.21733794308E+04  0.25500000920E-02 0.  1.
    10030    2    1    2    0    0  0.00000000000E+00  0.00000000000E+00 -0.16949320432E+04  0.26518268184E+04  0.20394584683E+04 0.  0.
        3    1    3    3  502    0  0.70632578619E+03 -0.73475947881E+03 -0.80473327094E+03  0.12986004988E+04  0.10100000352E+00 0. -1.
       -3    1    3    3    0  502 -0.70632578619E+03  0.73475947881E+03 -0.89019877222E+03  0.13532263196E+04  0.10100000352E+00 0.  1.
</event>
<event>
 5   0  0.8486612E-05  0.2164207E+04  0.7818609E-02  0.8533475E-01
       -1   -1    0    0    0  501  0.00000000000E+00  0.00000000000E+00  0.13441866550E+04  0.13441866550E+04  0.50400001928E-02 0. -1.
        1   -1    0    0  501    0  0.00000000000E+00  0.00000000000E+00 -0.87111980595E+03  0.87111980596E+03  0.50400001928E-02 0.  1.
    10030    2    1    2    0    0  0.00000000000E+00  0.00000000000E+00  0.47306684905E+03  0.22153064610E+04  0.21642066612E+04 0.  0.
        5    1    3    3  502    0  0.72068029883E+03 -0.12885758914E+03 -0.57911278847E+03  0.93347634313E+03  0.46999998093E+01 0.  1.
       -5    1    3    3    0  502 -0.72068029883E+03  0.12885758914E+03  0.10521796375E+04  0.12818301178E+04  0.46999998093E+01 0. -1.
</event>
<event>
 5   0  0.8525278E-05  0.2109085E+04  0.7818609E-02  0.8557252E-01
       -1   -1    0    0    0  501  0.00000000000E+00  0.00000000000E+00  0.16260261807E+04  0.16260261807E+04  0.50400001928E-02 0.  1.
        1   -1    0    0  501    0  0.00000000000E+00  0.00000000000E+00 -0.68391278754E+03  0.68391278756E+03  0.50400001928E-02 0. -1.
    10030    2    1    2    0    0  0.00000000000E+00  0.00000000000E+00  0.94211339317E+03  0.23099389683E+04  0.21090852025E+04 0.  0.
        4    1    3    3  502    0  0.59949359750E+03  0.50294789383E+03 -0.30316459191E+03  0.83920172785E+03  0.12699999809E+01 0. -1.
       -4    1    3    3    0  502 -0.59949359750E+03 -0.50294789383E+03  0.12452779851E+04  0.14707372404E+04  0.12699999809E+01 0.  1.
</event>
<event>
 5   0  0.1815400E-04  0.2141331E+04  0.7818609E-02  0.8543252E-01
        2   -1    0    0  501    0  0.00000000000E+00  0.00000000000E+00  0.29765312010E+04  0.29765312010E+04  0.25500000920E-02 0.  1.
       -2   -1    0    0    0  501  0.00000000000E+00  0.00000000000E+00 -0.38512105880E+03  0.38512105881E+03  0.25500000920E-02 0. -1.
    10030    2    1    2    0    0  0.00000000000E+00  0.00000000000E+00  0.25914101422E+04  0.33616522598E+04  0.21413312193E+04 0.  0.
        3    1    3    3  502    0 -0.18792471193E+03 -0.11658335113E+02 -0.35892604473E+03  0.40531411266E+03  0.10100000352E+00 0. -1.
       -3    1    3    3    0  502  0.18792471193E+03  0.11658335113E+02  0.29503361869E+04  0.29563381471E+04  0.10100000352E+00 0.  1.
</event>
<event>
 5   0  0.1921687E-04  0.2105675E+04  0.7818609E-02  0.8558747E-01
        2   -1    0    0  501    0  0.00000000000E+00  0.00000000000E+00  0.19139467902E+04  0.19139467902E+04  0.25500000920E-02 0. -1.
       -2   -1    0    0    0  501  0.00000000000E+00  0.00000000000E+00 -0.57915249886E+03  0.57915249887E+03  0.25500000920E-02 0.  1.
    10030    2    1    2    0    0  0.00000000000E+00  0.00000000000E+00  0.13347942913E+04  0.24930992891E+04  0.21056752515E+04 0.  0.
        5    1    3    3  502    0  0.67045406776E+03 -0.12376780680E+03  0.16172628818E+04  0.17551035428E+04  0.46999998093E+01 0. -1.
       -5    1    3    3    0  502 -0.67045406776E+03  0.12376780680E+03 -0.28246859046E+03  0.73799574631E+03  0.46999998093E+01 0.  1.
</event>
<event>
 5   0  0.1921687E-04  0.2123020E+04  0.7818609E-02  0.8551170E-01
        2   -1    0    0  501    0  0.00000000000E+00  0.00000000000E+00  0.18728318971E+04  0.18728318971E+04  0.25500000920E-02 0. -1.
       -2   -1    0    0    0  501  0.00000000000E+00  0.00000000000E+00 -0.60165783081E+03  0.60165783082E+03  0.25500000920E-02 0.  1.
    10030    2    1    2    0    0  0.00000000000E+00  0.00000000000E+00  0.12711740663E+04  0.24744897279E+04  0.21230204678E+04 0.  0.
        5    1    3    3  502    0  0.63440265599E+03  0.65818883352E+03  0.67262265492E+01  0.91419177562E+03  0.46999998093E+01 0.  1.
       -5    1    3    3    0  502 -0.63440265599E+03 -0.65818883352E+03  0.12644478397E+04  0.15602979523E+04  0.46999998093E+01 0. -1.
</event>
<event>
 5   0  0.1921687E-04  0.2074443E+04  0.7818609E-02  0.8572586E-01
        2   -1    0    0  501    0  0.00000000000E+00  0.00000000000E+00  0.92558144718E+03  0.92558144718E+03  0.25500000920E-02 0. -1.
       -2   -1    0    0    0  501  0.00000000000E+00  0.00000000000E+00 -0.11623273160E+04  0.11623273160E+04  0.25500000920E-02 0.  1.
    10030    2    1    2    0    0  0.00000000000E+00  0.00000000000E+00 -0.23674586886E+03  0.20879087632E+04  0.20744431535E+04 0.  0.
        5    1    3    3  502    0  0.74135232768E+03  0.48844796034E+03 -0.65815804160E+03  0.11051600705E+04  0.46999998093E+01 0.  1.
       -5    1    3    3    0  502 -0.74135232768E+03 -0.48844796034E+03  0.42141217274E+03  0.98274869272E+03  0.46999998093E+01 0. -1.
</event>
<event>
 5   0  0.1886323E-04  0.2153168E+04  0.7818609E-02  0.8538177E-01
        2   -1    0    0  501    0  0.00000000000E+00  0.00000000000E+00  0.24257308910E+04  0.24257308910E+04  0.25500000920E-02 0.  1.
       -2   -1    0    0    0  501  0.00000000000E+00  0.00000000000E+00 -0.47780774253E+03  0.47780774253E+03  0.25500000920E-02 0. -1.
    10030    2    1    2    0    0  0.00000000000E+00  0.00000000000E+00  0.19479231485E+04  0.29035386335E+04  0.21531678996E+04 0.  0.
        2    1    3    3  502    0 -0.89226841024E+03  0.29037233601E+03  0.16856993159E+04  0.19292592343E+04  0.25500000920E-02 0. -1.
       -2    1    3    3    0  502  0.89226841024E+03 -0.29037233601E+03  0.26222383258E+03  0.97427939926E+03  0.25500000920E-02 0.  1.
</event>
<event>
 5   0  0.1777590E-04  0.2077279E+04  0.7818609E-02  0.8571319E-01
       -2   -1    0    0    0  501  0.00000000000E+00  0.00000000000E+00  0.56165685807E+03  0.56165685808E+03  0.25500000920E-02 0. -1.
        2   -1    0    0  501    0  0.00000000000E+00  0.00000000000E+00 -0.19206952326E+04  0.19206952326E+04  0.25500000920E-02 0.  1.
    10030    2    1    2    0    0  0.00000000000E+00  0.00000000000E+00 -0.13590383746E+04  0.24823520907E+04  0.20772786522E+04 0.  0.
        4    1    3    3  502    0  0.45898843407E+03  0.76834674751E+03 -0.13093010208E+04  0.15859690675E+04  0.12699999809E+01 0.  1.
       -4    1    3    3    0  502 -0.45898843407E+03 -0.76834674751E+03 -0.49737353718E+02  0.89638302320E+03  0.12699999809E+01 0. -1.
</event>
<event>
 5   0  0.1815400E-04  0.2003279E+04  0.7818609E-02  0.8605089E-01
       -2   -1    0    0    0  501  0.00000000000E+00  0.00000000000E+00  0.12144941833E+04  0.12144941833E+04  0.25500000920E-02 0. -1.
        2   -1    0    0  501    0  0.00000000000E+00  0.00000000000E+00 -0.82609050778E+03  0.82609050779E+03  0.25500000920E-02 0.  1.
    10030    2    1    2    0    0  0.00000000000E+00  0.00000000000E+00  0.38840367550E+03  0.20405846911E+04  0.20032794279E+04 0.  0.
        3    1    3    3  502    0  0.39204001301E+03  0.31418289150E+03  0.10768693862E+04  0.11882987613E+04  0.10100000352E+00 0. -1.
       -3    1    3    3    0  502 -0.39204001301E+03 -0.31418289150E+03 -0.68846571065E+03  0.85228592976E+03  0.10100000352E+00 0.  1.
</event>
<event>
 5   0  0.1921687E-04  0.2130854E+04  0.7818609E-02  0.8547772E-01
        2   -1    0    0  501    0  0.00000000000E+00  0.00000000000E+00  0.13243509086E+04  0.13243509086E+04  0.25500000920E-02 0. -1.
       -2   -1    0    0    0  501  0.00000000000E+00  0.00000000000E+00 -0.85712554387E+03  0.85712554388E+03  0.25500000920E-02 0.  1.
    10030    2    1    2    0    0  0.00000000000E+00  0.00000000000E+00  0.46722536472E+03  0.21814764525E+04  0.21308542820E+04 0.  0.
        5    1    3    3  502    0 -0.15476220883E+03  0.17222717366E+03  0.12982701672E+04  0.13187649744E+04  0.46999998093E+01 0. -1.
       -5    1    3    3    0  502  0.15476220883E+03 -0.17222717366E+03 -0.83104480250E+03  0.86271147807E+03  0.46999998093E+01 0.  1.
</event>
<event>
 5   0  0.1810875E-04  0.2092515E+04  0.7818609E-02  0.8564548E-01
        2   -1    0    0  501    0  0.00000000000E+00  0.00000000000E+00  0.24522351837E+04  0.24522351837E+04  0.25500000920E-02 0.  1.
       -2   -1    0    0    0  501  0.00000000000E+00  0.00000000000E+00 -0.44639040443E+03  0.44639040443E+03  0.25500000920E-02 0. -1.
    10030    2    1    2    0    0  0.00000000000E+00  0.00000000000E+00  0.20058447793E+04  0.28986255881E+04  0.20925145213E+04 0.  0.
        1    1    3    3  502    0 -0.70693071408E+03 -0.47410792604E+03  0.18456705050E+04  0.20324932898E+04  0.50400001928E-02 0.  1.
       -1    1    3    3    0  502  0.70693071408E+03  0.47410792604E+03  0.16017427428E+03  0.86613229833E+03  0.50400001928E-02 0. -1.
</event>
<event>
 5   0  0.6441125E-05  0.2054406E+04  0.7818609E-02  0.8581598E-01
        3   -1    0    0  501    0  0.00000000000E+00  0.00000000000E+00  0.75119307089E+03  0.75119307768E+03  0.10100000352E+00 0.  1.
       -3   -1    0    0    0  501  0.00000000000E+00  0.00000000000E+00 -0.14046266372E+04  0.14046266409E+04  0.10100000352E+00 0. -1.
    10030    2    1    2    0    0  0.00000000000E+00  0.00000000000E+00 -0.65343356635E+03  0.21558197186E+04  0.20544058103E+04 0.  0.
        5    1    3    3  502    0  0.21960391591E+03  0.98427656192E+03 -0.12189583308E+03  0.10158281913E+04  0.46999998093E+01 0. -1.
       -5    1    3    3    0  502 -0.21960391591E+03 -0.98427656192E+03 -0.53153773327E+03  0.11399915272E+04  0.46999998093E+01 0.  1.
</event>
<event>
 5   0  0.1810875E-04  0.2056951E+04  0.7818609E-02  0.8580448E-01
        2   -1    0    0  501    0  0.00000000000E+00  0.00000000000E+00  0.44439287820E+03  0.44439287820E+03  0.25500000920E-02 0.  1.
       -2   -1    0    0    0  501  0.00000000000E+00  0.00000000000E+00 -0.23802399944E+04  0.23802399944E+04  0.25500000920E-02 0. -1.
    10030    2    1    2    0    0  0.00000000000E+00  0.00000000000E+00 -0.19358471162E+04  0.28246328726E+04  0.20569508520E+04 0.  0.
        1    1    3    3  502    0  0.56476496156E+03 -0.84563051377E+03 -0.75646973531E+03  0.12673976835E+04  0.50400001928E-02 0.  1.
       -1    1    3    3    0  502 -0.56476496156E+03  0.84563051377E+03 -0.11793773809E+04  0.15572351891E+04  0.50400001928E-02 0. -1.
</event>
<event>
 5   0  0.8271069E-05  0.1997913E+04  0.7818609E-02  0.8607597E-01
       -1   -1    0    0    0  501  0.00000000000E+00  0.00000000000E+00  0.88535690773E+03  0.88535690774E+03  0.50400001928E-02 0. -1.
        1   -1    0    0  501    0  0.00000000000E+00  0.00000000000E+00 -0.11271324709E+04  0.11271324709E+04  0.50400001928E-02 0.  1.
    10030    2    1    2    0    0  0.00000000000E+00  0.00000000000E+00 -0.24177556320E+03  0.20124893787E+04  0.19979134306E+04 0.  0.
        2    1    3    3  502    0 -0.76001677511E+03 -0.38999542729E+03 -0.64253910757E+03  0.10689146067E+04  0.25500000920E-02 0. -1.
       -2    1    3    3    0  502  0.76001677511E+03  0.38999542729E+03  0.40076354436E+03  0.94357477194E+03  0.25500000920E-02 0.  1.
</event>
<event>
 5   0  0.1815400E-04  0.2256354E+04  0.7818609E-02  0.8495332E-01
       -2   -1    0    0    0  501  0.00000000000E+00  0.00000000000E+00  0.81798603666E+03  0.81798603666E+03  0.25500000920E-02 0.  1.
        2   -1    0    0  501    0  0.00000000000E+00  0.00000000000E+00 -0.15559960478E+04  0.15559960478E+04  0.25500000920E-02 0. -1.
    10030    2    1    2    0    0  0.00000000000E+00  0.00000000000E+00 -0.73801001116E+03  0.23739820845E+04  0.22563537313E+04 0.  0.
        3    1    3    3  502    0  0.45284558427E+03 -0.63216394101E+03  0.49096905360E+03  0.91964721132E+03  0.10100000352E+00 0.  1.
       -3    1    3    3    0  502 -0.45284558427E+03  0.63216394101E+03 -0.12289790648E+04  0.14543348732E+04  0.10100000352E+00 0. -1.
</event>
<event>
 5   0  0.8525278E-05  0.2106413E+04  0.7818609E-02  0.8558424E-01
       -1   -1    0    0    0  501  0.00000000000E+00  0.00000000000E+00  0.74062066390E+03  0.74062066392E+03  0.50400001928E-02 0.  1.
        1   -1    0    0  501    0  0.00000000000E+00  0.00000000000E+00 -0.14977221043E+04  0.14977221043E+04  0.50400001928E-02 0. -1.
    10030    2    1    2    0    0  0.00000000000E+00  0.00000000000E+00 -0.75710144043E+03  0.22383427683E+04  0.21064130072E+04 0.  0.
        4    1    3    3  502    0  0.20490012045E+03 -0.17413434228E+03  0.70352819837E+03  0.75316689208E+03  0.12699999809E+01 0.  1.
       -4    1    3    3    0  502 -0.20490012045E+03  0.17413434228E+03 -0.14606296388E+04  0.14851758762E+04  0.12699999809E+01 0. -1.
</event>
<event>
 5   0  0.8237966E-05  0.2573906E+04  0.7818609E-02  0.8377119E-01
        1   -1    0    0  501    0  0.00000000000E+00  0.00000000000E+00  0.22817195695E+04  0.22817195695E+04  0.50400001928E-02 0. -1.
       -1   -1    0    0    0  501  0.00000000000E+00  0.00000000000E+00 -0.72587691911E+03  0.72587691912E+03  0.50400001928E-02 0.  1.
    10030    2    1    2    0    0  0.00000000000E+00  0.00000000000E+00  0.15558426504E+04  0.30075964886E+04  0.25739056482E+04 0.  0.
        1    1    3    3  502    0  0.14257701059E+03 -0.12675458676E+04  0.57808868387E+03  0.14004239561E+04  0.50400001928E-02 0.  1.
       -1    1    3    3    0  502 -0.14257701059E+03  0.12675458676E+04  0.97775396654E+03  0.16071725326E+04  0.50400001928E-02 0. -1.
</event>
<event>
 5   0  0.8486612E-05  0.2077800E+04  0.7818609E-02  0.8571086E-01
        1   -1    0    0  501    0  0.00000000000E+00  0.00000000000E+00  0.10259035538E+04  0.10259035538E+04  0.50400001928E-02 0.  1.
       -1   -1    0    0    0  501  0.00000000000E+00  0.00000000000E+00 -0.10520611931E+04  0.10520611931E+04  0.50400001928E-02 0. -1.
    10030    2    1    2    0    0  0.00000000000E+00  0.00000000000E+00 -0.26157639237E+02  0.20779647469E+04  0.20778001028E+04 0.  0.
        5    1    3    3  502    0 -0.79373321243E+03  0.83406423653E+02  0.65204694628E+03  0.10306097002E+04  0.46999998093E+01 0.  1.
       -5    1    3    3    0  502  0.79373321243E+03 -0.83406423653E+02 -0.67820458551E+03  0.10473550467E+04  0.46999998093E+01 0. -1.
</event>
<event>
 5   0  0.1777590E-04  0.2112798E+04  0.7818609E-02  0.8555626E-01
       -2   -1    0    0    0  501  0.00000000000E+00  0.00000000000E+00  0.13831317549E+04  0.13831317549E+04  0.25500000920E-02 0. -1.
        2   -1    0    0  501    0  0.00000000000E+00  0.00000000000E+00 -0.80684955492E+03  0.80684955493E+03  0.25500000920E-02 0.  1.
    10030    2    1    2    0    0  0.00000000000E+00  0.00000000000E+00  0.57628219995E+03  0.21899813098E+04  0.21127983726E+04 0.  0.
        4    1    3    3  502    0 -0.53025588429E+03 -0.80613390542E+03 -0.15763291508E+03  0.97768753961E+03  0.12699999809E+01 0.  1.
       -4    1    3    3    0  502  0.53025588429E+03  0.80613390542E+03  0.73391511503E+03  0.12122937702E+04  0.12699999809E+01 0. -1.
</event>
<event>
 5   0  0.8271069E-05  0.1420043E+04  0.7818609E-02  0.8939437E-01
       -1   -1    0    0    0  501  0.00000000000E+00  0.00000000000E+00  0.45297132835E+03  0.45297132838E+03  0.50400001928E-02 0. -1.
        1   -1    0    0  501    0  0.00000000000E+00  0.00000000000E+00 -0.11129420567E+04  0.11129420567E+04  0.50400001928E-02 0.  1.
    10030    2    1    2    0    0  0.00000000000E+00  0.00000000000E+00 -0.65997072835E+03  0.15659133851E+04  0.14200434385E+04 0.  0.
        2    1    3    3  502    0  0.71961359793E+02 -0.18765583139E+03  0.42094956505E+03  0.46646723859E+03  0.25500000920E-02 0. -1.
       -2    1    3    3    0  502 -0.71961359793E+02  0.18765583139E+03 -0.10809202934E+04  0.10994461465E+04  0.25500000920E-02 0.  1.
</event>
<event>
 5   0  0.1886323E-04  0.2129742E+04  0.7818609E-02  0.8548254E-01
        2   -1    0    0  501    0  0.00000000000E+00  0.00000000000E+00  0.19510471960E+04  0.19510471960E+04  0.25500000920E-02 0.  1.
       -2   -1    0    0    0  501  0.00000000000E+00  0.00000000000E+00 -0.58120088641E+03  0.58120088641E+03  0.25500000920E-02 0. -1.
    10030    2    1    2    0    0  0.00000000000E+00  0.00000000000E+00  0.13698463096E+04  0.25322480824E+04  0.21297421062E+04 0.  0.
        2    1    3    3  502    0 -0.90801655573E+03  0.54755416287E+03  0.56817923768E+03  0.12029701879E+04  0.25500000920E-02 0. -1.
       -2    1    3    3    0  502  0.90801655573E+03 -0.54755416287E+03  0.80166707193E+03  0.13292778946E+04  0.25500000920E-02 0.  1.
</event>
<event>
 5   0  0.1810875E-04  0.2076336E+04  0.7818609E-02  0.8571740E-01
        2   -1    0    0  501    0  0.00000000000E+00  0.00000000000E+00  0.93548406393E+03  0.93548406393E+03  0.25500000920E-02 0.  1.
       -2   -1    0    0    0  501  0.00000000000E+00  0.00000000000E+00 -0.11521230264E+04  0.11521230264E+04  0.25500000920E-02 0. -1.
    10030    2    1    2    0    0  0.00000000000E+00  0.00000000000E+00 -0.21663896251E+03  0.20876070904E+04  0.20763359371E+04 0.  0.
        1    1    3    3  502    0 -0.13545671209E+03  0.12206203930E+03 -0.11358973307E+04  0.11504392240E+04  0.50400001928E-02 0. -1.
       -1    1    3    3    0  502  0.13545671209E+03 -0.12206203930E+03  0.91925836816E+03  0.93716786636E+03  0.50400001928E-02 0.  1.
</event>
<event>
 5   0  0.1921687E-04  0.2100179E+04  0.7818609E-02  0.8561165E-01
        2   -1    0    0  501    0  0.00000000000E+00  0.00000000000E+00  0.12206662545E+04  0.12206662545E+04  0.25500000920E-02 0. -1.
       -2   -1    0    0    0  501  0.00000000000E+00  0.00000000000E+00 -0.90334897188E+03  0.90334897189E+03  0.25500000920E-02 0.  1.
    10030    2    1    2    0    0  0.00000000000E+00  0.00000000000E+00  0.31731728266E+03  0.21240152264E+04  0.21001786648E+04 0.  0.
        5    1    3    3  502    0  0.95660843196E+02  0.68992114133E+03  0.95340412968E+03  0.11807386259E+04  0.46999998093E+01 0. -1.
       -5    1    3    3    0  502 -0.95660843196E+02 -0.68992114133E+03 -0.63608684702E+03  0.94327660054E+03  0.46999998093E+01 0.  1.
</event>
<event>
 5   0  0.8271069E-05  0.1977593E+04  0.7818609E-02  0.8617169E-01
       -1   -1    0    0    0  501  0.00000000000E+00  0.00000000000E+00  0.10390380141E+04  0.10390380141E+04  0.50400001928E-02 0. -1.
        1   -1    0    0  501    0  0.00000000000E+00  0.00000000000E+00 -0.94098394392E+03  0.94098394393E+03  0.50400001928E-02 0.  1.
    10030    2    1    2    0    0  0.00000000000E+00  0.00000000000E+00  0.98054070204E+02  0.19800219581E+04  0.19775925651E+04 0.  0.
        2    1    3    3  502    0 -0.81933546417E+03  0.42888052593E+02  0.60158188258E+03  0.10173744391E+04  0.25500000920E-02 0. -1.
       -2    1    3    3    0  502  0.81933546417E+03 -0.42888052593E+02 -0.50352781237E+03  0.96264751895E+03  0.25500000920E-02 0.  1.
</event>
<event>
 5   0  0.8525278E-05  0.2078340E+04  0.7818609E-02  0.8570845E-01
        1   -1    0    0  501    0  0.00000000000E+00  0.00000000000E+00  0.11365382422E+04  0.11365382422E+04  0.50400001928E-02 0.  1.
       -1   -1    0    0    0  501  0.00000000000E+00  0.00000000000E+00 -0.95014301718E+03  0.95014301719E+03  0.50400001928E-02 0. -1.
    10030    2    1    2    0    0  0.00000000000E+00  0.00000000000E+00  0.18639522503E+03  0.20866812594E+04  0.20783396013E+04 0.  0.
        4    1    3    3  502    0 -0.62503184669E+03 -0.34441699282E+03  0.85159974384E+03  0.11110857802E+04  0.12699999809E+01 0.  1.
       -4    1    3    3    0  502  0.62503184669E+03  0.34441699282E+03 -0.66520451881E+03  0.97559547922E+03  0.12699999809E+01 0. -1.
</event>
<event>
 5   0  0.1777590E-04  0.2093517E+04  0.7818609E-02  0.8564105E-01
       -2   -1    0    0    0  501  0.00000000000E+00  0.00000000000E+00  0.46055492099E+03  0.46055492100E+03  0.25500000920E-02 0.  1.
        2   -1    0    0  501    0  0.00000000000E+00  0.00000000000E+00 -0.23790937574E+04  0.23790937574E+04  0.25500000920E-02 0. -1.
    10030    2    1    2    0    0  0.00000000000E+00  0.00000000000E+00 -0.19185388364E+04  0.28396486784E+04  0.20935169811E+04 0.  0.
        4    1    3    3  502    0 -0.30839385030E+03 -0.91988901100E+02 -0.23103245521E+04  0.23326315340E+04  0.12699999809E+01 0. -1.
       -4    1    3    3    0  502  0.30839385030E+03  0.91988901100E+02  0.39178571563E+03  0.50701714439E+03  0.12699999809E+01 0.  1.
</event>
<event>
 5   0  0.1815400E-04  0.2103526E+04  0.7818609E-02  0.8559692E-01
       -2   -1    0    0    0  501  0.00000000000E+00  0.00000000000E+00  0.64050895858E+03  0.64050895858E+03  0.25500000920E-02 0. -1.
        2   -1    0    0  501    0  0.00000000000E+00  0.00000000000E+00 -0.17270722337E+04  0.17270722337E+04  0.25500000920E-02 0.  1.
    10030    2    1    2    0    0  0.00000000000E+00  0.00000000000E+00 -0.10865632751E+04  0.23675811922E+04  0.21035258380E+04 0.  0.
        3    1    3    3  502    0  0.52159794048E+02 -0.10011678599E+04 -0.90124172595E+03  0.13480706163E+04  0.10100000352E+00 0. -1.
       -3    1    3    3    0  502 -0.52159794048E+02  0.10011678599E+04 -0.18532154913E+03  0.10195105760E+04  0.10100000352E+00 0.  1.
</event>
<event>
 5   0  0.8237966E-05  0.2139632E+04  0.7818609E-02  0.8543983E-01
       -1   -1    0    0    0  501  0.00000000000E+00  0.00000000000E+00  0.68217508535E+03  0.68217508537E+03  0.50400001928E-02 0.  1.
        1   -1    0    0  501    0  0.00000000000E+00  0.00000000000E+00 -0.16777307861E+04  0.16777307861E+04  0.50400001928E-02 0. -1.
    10030    2    1    2    0    0  0.00000000000E+00  0.00000000000E+00 -0.99555570077E+03  0.23599058715E+04  0.21396318770E+04 0.  0.
        1    1    3    3  502    0  0.56775902043E+03 -0.67545072161E+03 -0.11649685388E+04  0.14614156421E+04  0.50400001928E-02 0. -1.
       -1    1    3    3    0  502 -0.56775902043E+03  0.67545072161E+03  0.16941283802E+03  0.89849022939E+03  0.50400001928E-02 0.  1.
</event>
<event>
 5   0  0.8755004E-05  0.2235655E+04  0.7818609E-02  0.8503733E-01
        1   -1    0    0  501    0  0.00000000000E+00  0.00000000000E+00  0.74366651889E+03  0.74366651890E+03  0.50400001928E-02 0. -1.
       -1   -1    0    0    0  501  0.00000000000E+00  0.00000000000E+00 -0.16802397304E+04  0.16802397304E+04  0.50400001928E-02 0.  1.
    10030    2    1    2    0    0  0.00000000000E+00  0.00000000000E+00 -0.93657321151E+03  0.24239062493E+04  0.22356547419E+04 0.  0.
        3    1    3    3  502    0 -0.11904779003E+03 -0.10039199464E+03  0.73184814839E+03  0.74823301945E+03  0.10100000352E+00 0. -1.
       -3    1    3    3    0  502  0.11904779003E+03  0.10039199464E+03 -0.16684213599E+04  0.16756732299E+04  0.10100000352E+00 0.  1.
</event>
<event>
 5   0  0.8271069E-05  0.2123265E+04  0.7818609E-02  0.8551064E-01
       -1   -1    0    0    0  501  0.00000000000E+00  0.00000000000E+00  0.71706537255E+03  0.71706537257E+03  0.50400001928E-02 0.  1.
        1   -1    0    0  501    0  0.00000000000E+00  0.00000000000E+00 -0.15717721259E+04  0.15717721259E+04  0.50400001928E-02 0. -1.
    10030    2    1    2    0    0  0.00000000000E+00  0.00000000000E+00 -0.85470675333E+03  0.22888374985E+04  0.21232648116E+04 0.  0.
        2    1    3    3  502    0  0.59743074360E+03 -0.48570723947E+03 -0.12152591139E+04  0.14386416266E+04  0.25500000920E-02 0. -1.
       -2    1    3    3    0  502 -0.59743074360E+03  0.48570723947E+03  0.36055236053E+03  0.85019587188E+03  0.25500000920E-02 0.  1.
</event>
<event>
 5   0  0.8271069E-05  0.2097457E+04  0.7818609E-02  0.8562364E-01
        1   -1    0    0  501    0  0.00000000000E+00  0.00000000000E+00  0.10852584801E+04  0.10852584801E+04  0.50400001928E-02 0. -1.
       -1   -1    0    0    0  501  0.00000000000E+00  0.00000000000E+00 -0.10134284242E+04  0.10134284242E+04  0.50400001928E-02 0.  1.
    10030    2    1    2    0    0  0.00000000000E+00  0.00000000000E+00  0.71830055943E+02  0.20986869043E+04  0.20974573096E+04 0.  0.
        2    1    3    3  502    0  0.12493081478E+03  0.10072267302E+04  0.30011223269E+03  0.10583859158E+04  0.25500000920E-02 0. -1.
       -2    1    3    3    0  502 -0.12493081478E+03 -0.10072267302E+04 -0.22828217675E+03  0.10403009885E+04  0.25500000920E-02 0.  1.
</event>
<event>
 5   0  0.1921687E-04  0.2101860E+04  0.7818609E-02  0.8560424E-01
        2   -1    0    0  501    0  0.00000000000E+00  0.00000000000E+00  0.13223447315E+04  0.13223447315E+04  0.25500000920E-02 0.  1.
       -2   -1    0    0    0  501  0.00000000000E+00  0.00000000000E+00 -0.83522422875E+03  0.83522422875E+03  0.25500000920E-02 0. -1.
    10030    2    1    2    0    0  0.00000000000E+00  0.00000000000E+00  0.48712050279E+03  0.21575689603E+04  0.21018604697E+04 0.  0.
        5    1    3    3  502    0 -0.59752684988E+03  0.22942756397E+02  0.11306807243E+04  0.12790722015E+04  0.46999998093E+01 0.  1.
       -5    1    3    3    0  502  0.59752684988E+03 -0.22942756397E+02 -0.64356022153E+03  0.87849675875E+03  0.46999998093E+01 0. -1.
</event>
<event>
 5   0  0.8486612E-05  0.2091179E+04  0.7818609E-02  0.8565139E-01
        1   -1    0    0  501    0  0.00000000000E+00  0.00000000000E+00  0.10364723751E+04  0.10364723751E+04  0.50400001928E-02 0.  1.
       -1   -1    0    0    0  501  0.00000000000E+00  0.00000000000E+00 -0.10547865422E+04  0.10547865422E+04  0.50400001928E-02 0. -1.
    10030    2    1    2    0    0  0.00000000000E+00  0.00000000000E+00 -0.18314167139E+02  0.20912589173E+04  0.20911787227E+04 0.  0.
        5    1    3    3  502    0 -0.91441860399E+03 -0.25532022528E+03  0.42890676946E+03  0.10417931213E+04  0.46999998093E+01 0.  1.
       -5    1    3    3    0  502  0.91441860399E+03  0.25532022528E+03 -0.44722093660E+03  0.10494657960E+04  0.46999998093E+01 0. -1.
</event>
<event>
 5   0  0.8755004E-05  0.2096043E+04  0.7818609E-02  0.8562989E-01
       -1   -1    0    0    0  501  0.00000000000E+00  0.00000000000E+00  0.73121089854E+03  0.73121089855E+03  0.50400001928E-02 0. -1.
        1   -1    0    0  501    0  0.00000000000E+00  0.00000000000E+00 -0.15020958338E+04  0.15020958338E+04  0.50400001928E-02 0.  1.
    10030    2    1    2    0    0  0.00000000000E+00  0.00000000000E+00 -0.77088493523E+03  0.22333067323E+04  0.20960427899E+04 0.  0.
        3    1    3    3  502    0  0.93689283913E+03 -0.18205211662E+03  0.75850323853E+02  0.95742594857E+03  0.10100000352E+00 0. -1.
       -3    1    3    3    0  502 -0.93689283913E+03  0.18205211662E+03 -0.84673525908E+03  0.12758807838E+04  0.10100000352E+00 0.  1.
</event>
<event>
 5   0  0.8486612E-05  0.2087932E+04  0.7818609E-02  0.8566578E-01
       -1   -1    0    0    0  501  0.00000000000E+00  0.00000000000E+00  0.11136781796E+04  0.11136781797E+04  0.50400001928E-02 0.  1.
        1   -1    0    0  501    0  0.00000000000E+00  0.00000000000E+00 -0.97861777496E+03  0.97861777497E+03  0.50400001928E-02 0. -1.
    10030    2    1    2    0    0  0.00000000000E+00  0.00000000000E+00  0.13506040469E+03  0.20922959546E+04  0.20879322424E+04 0.  0.
        5    1    3    3  502    0 -0.44427989629E+03  0.31427466683E+03  0.96028493931E+03  0.11037764480E+04  0.46999998093E+01 0.  1.
       -5    1    3    3    0  502  0.44427989629E+03 -0.31427466683E+03 -0.82522453463E+03  0.98851950664E+03  0.46999998093E+01 0. -1.
</event>
<event>
 5   0  0.8237966E-05  0.2139559E+04  0.7818609E-02  0.8544015E-01
       -1   -1    0    0    0  501  0.00000000000E+00  0.00000000000E+00  0.96160374561E+03  0.96160374562E+03  0.50400001928E-02 0. -1.
        1   -1    0    0  501    0  0.00000000000E+00  0.00000000000E+00 -0.11901247530E+04  0.11901247531E+04  0.50400001928E-02 0.  1.
    10030    2    1    2    0    0  0.00000000000E+00  0.00000000000E+00 -0.22852100744E+03  0.21517284987E+04  0.21395592259E+04 0.  0.
        1    1    3    3  502    0  0.95290349507E+02 -0.71190523346E+02 -0.11834537227E+04  0.11894162666E+04  0.50400001928E-02 0.  1.
       -1    1    3    3    0  502 -0.95290349507E+02  0.71190523346E+02  0.95493271528E+03  0.96231223211E+03  0.50400001928E-02 0. -1.
</event>
<event>
 5   0  0.1886323E-04  0.2204276E+04  0.7818609E-02  0.8516650E-01
       -2   -1    0    0    0  501  0.00000000000E+00  0.00000000000E+00  0.81780960703E+03  0.81780960703E+03  0.25500000920E-02 0.  1.
        2   -1    0    0  501    0  0.00000000000E+00  0.00000000000E+00 -0.14853195739E+04  0.14853195739E+04  0.25500000920E-02 0. -1.
    10030    2    1    2    0    0  0.00000000000E+00  0.00000000000E+00 -0.66750996691E+03  0.23031291810E+04  0.22042764047E+04 0.  0.
        2    1    3    3  502    0 -0.81405248912E+02  0.10718915168E+04 -0.58782743395E+03  0.12252017509E+04  0.25500000920E-02 0. -1.
       -2    1    3    3    0  502  0.81405248912E+02 -0.10718915168E+04 -0.79682532967E+02  0.10779274300E+04  0.25500000920E-02 0.  1.
</event>
<event>
 5   0  0.1810875E-04  0.2122645E+04  0.7818609E-02  0.8551333E-01
        2   -1    0    0  501    0  0.00000000000E+00  0.00000000000E+00  0.15021639811E+04  0.15021639811E+04  0.25500000920E-02 0.  1.
       -2   -1    0    0    0  501  0.00000000000E+00  0.00000000000E+00 -0.74985544617E+03  0.74985544617E+03  0.25500000920E-02 0. -1.
    10030    2    1    2    0    0  0.00000000000E+00  0.00000000000E+00  0.75230853488E+03  0.22520194272E+04  0.21226453705E+04 0.  0.
        1    1    3    3  502    0  0.77744942353E+03  0.21894207768E+02  0.11423176288E+04  0.13819538804E+04  0.50400001928E-02 0.  1.
       -1    1    3    3    0  502 -0.77744942353E+03 -0.21894207768E+02 -0.39000909388E+03  0.87006554685E+03  0.50400001928E-02 0. -1.
</event>
<event>
 5   0  0.8486612E-05  0.2104751E+04  0.7818609E-02  0.8559153E-01
       -1   -1    0    0    0  501  0.00000000000E+00  0.00000000000E+00  0.88726558566E+03  0.88726558567E+03  0.50400001928E-02 0.  1.
        1   -1    0    0  501    0  0.00000000000E+00  0.00000000000E+00 -0.12482109027E+04  0.12482109027E+04  0.50400001928E-02 0. -1.
    10030    2    1    2    0    0  0.00000000000E+00  0.00000000000E+00 -0.36094531701E+03  0.21354764884E+04  0.21047513655E+04 0.  0.
        5    1    3    3  502    0  0.61436003093E+02 -0.10241977563E+04 -0.41780415380E+03  0.11078528005E+04  0.46999998093E+01 0. -1.
       -5    1    3    3    0  502 -0.61436003093E+02  0.10241977563E+04  0.56858836788E+02  0.10276236879E+04  0.46999998093E+01 0.  1.
</event>
<event>
 5   0  0.8271069E-05  0.2122714E+04  0.7818609E-02  0.8551303E-01
        1   -1    0    0  501    0  0.00000000000E+00  0.00000000000E+00  0.15451017845E+04  0.15451017845E+04  0.50400001928E-02 0.  1.
       -1   -1    0    0    0  501  0.00000000000E+00  0.00000000000E+00 -0.72906453201E+03  0.72906453203E+03  0.50400001928E-02 0. -1.
    10030    2    1    2    0    0  0.00000000000E+00  0.00000000000E+00  0.81603725252E+03  0.22741663166E+04  0.21227142149E+04 0.  0.
        2    1    3    3  502    0  0.73004652808E+02 -0.82221942299E+03  0.11227809679E+04  0.13935607489E+04  0.25500000920E-02 0.  1.
       -2    1    3    3    0  502 -0.73004652808E+02  0.82221942299E+03 -0.30674371542E+03  0.88060556768E+03  0.25500000920E-02 0. -1.
</event>
<event>
 5   0  0.8755004E-05  0.2177508E+04  0.7818609E-02  0.8527848E-01
        1   -1    0    0  501    0  0.00000000000E+00  0.00000000000E+00  0.88296484793E+03  0.88296484795E+03  0.50400001928E-02 0. -1.
       -1   -1    0    0    0  501  0.00000000000E+00  0.00000000000E+00 -0.13425062378E+04  0.13425062378E+04  0.50400001928E-02 0.  1.
    10030    2    1    2    0    0  0.00000000000E+00  0.00000000000E+00 -0.45954138988E+03  0.22254710858E+04  0.21775084993E+04 0.  0.
        3    1    3    3  502    0 -0.36633414303E+02 -0.64349002845E+03  0.66703305400E+03  0.92755297913E+03  0.10100000352E+00 0. -1.
       -3    1    3    3    0  502  0.36633414303E+02  0.64349002845E+03 -0.11265744439E+04  0.12979181066E+04  0.10100000352E+00 0.  1.
</event>
<event>
 5   0  0.1886323E-04  0.2103023E+04  0.7818609E-02  0.8559913E-01
        2   -1    0    0  501    0  0.00000000000E+00  0.00000000000E+00  0.12767403509E+04  0.12767403509E+04  0.25500000920E-02 0. -1.
       -2   -1    0    0    0  501  0.00000000000E+00  0.00000000000E+00 -0.86601532518E+03  0.86601532519E+03  0.25500000920E-02 0.  1.
    10030    2    1    2    0    0  0.00000000000E+00  0.00000000000E+00  0.41072502568E+03  0.21427556761E+04  0.21030232620E+04 0.  0.
        2    1    3    3  502    0 -0.15327984500E+03 -0.50031215536E+03  0.11346631667E+04  0.12495068889E+04  0.25500000920E-02 0. -1.
       -2    1    3    3    0  502  0.15327984500E+03  0.50031215536E+03 -0.72393814100E+03  0.89324878711E+03  0.25500000920E-02 0.  1.
</event>
<event>
 5   0  0.1810875E-04  0.2090871E+04  0.7818609E-02  0.8565275E-01
       -2   -1    0    0    0  501  0.00000000000E+00  0.00000000000E+00  0.50153537403E+03  0.50153537404E+03  0.25500000920E-02 0.  1.
        2   -1    0    0  501    0  0.00000000000E+00  0.00000000000E+00 -0.21791790471E+04  0.21791790471E+04  0.25500000920E-02 0. -1.
    10030    2    1    2    0    0  0.00000000000E+00  0.00000000000E+00 -0.16776436731E+04  0.26807144211E+04  0.20908709941E+04 0.  0.
        1    1    3    3  502    0  0.52140890761E+03  0.43365007396E+03 -0.18588932294E+04  0.19787378993E+04  0.50400001928E-02 0. -1.
       -1    1    3    3    0  502 -0.52140890761E+03 -0.43365007396E+03  0.18124955634E+03  0.70197652188E+03  0.50400001928E-02 0.  1.
</event>
<event>
 5   0  0.8237966E-05  0.2116755E+04  0.7818609E-02  0.8553898E-01
        1   -1    0    0  501    0  0.00000000000E+00  0.00000000000E+00  0.10789619005E+04  0.10789619005E+04  0.50400001928E-02 0.  1.
       -1   -1    0    0    0  501  0.00000000000E+00  0.00000000000E+00 -0.10381862027E+04  0.10381862027E+04  0.50400001928E-02 0. -1.
    10030    2    1    2    0    0  0.00000000000E+00  0.00000000000E+00  0.40775697801E+02  0.21171481031E+04  0.21167554023E+04 0.  0.
        1    1    3    3  502    0  0.76249900495E+03 -0.12624690041E+03  0.74358516034E+03  0.10725026355E+04  0.50400001928E-02 0.  1.
       -1    1    3    3    0  502 -0.76249900495E+03  0.12624690041E+03 -0.70280946254E+03  0.10446454676E+04  0.50400001928E-02 0. -1.
</event>
<event>
 5   0  0.1886323E-04  0.2115245E+04  0.7818609E-02  0.8554558E-01
       -2   -1    0    0    0  501  0.00000000000E+00  0.00000000000E+00  0.67783179008E+03  0.67783179009E+03  0.25500000920E-02 0.  1.
        2   -1    0    0  501    0  0.00000000000E+00  0.00000000000E+00 -0.16502101640E+04  0.16502101640E+04  0.25500000920E-02 0. -1.
    10030    2    1    2    0    0  0.00000000000E+00  0.00000000000E+00 -0.97237837391E+03  0.23280419541E+04  0.21152445811E+04 0.  0.
        2    1    3    3  502    0 -0.34996767157E+03  0.89107682602E+03  0.85550373155E+01  0.95737582468E+03  0.25500000920E-02 0.  1.
       -2    1    3    3    0  502  0.34996767157E+03 -0.89107682602E+03 -0.98093341123E+03  0.13706661294E+04  0.25500000920E-02 0. -1.
</event>
<event>
 5   0  0.8525278E-05  0.1980906E+04  0.7818609E-02  0.8615600E-01
       -1   -1    0    0    0  501  0.00000000000E+00  0.00000000000E+00  0.11272652605E+04  0.11272652605E+04  0.50400001928E-02 0. -1.
        1   -1    0    0  501    0  0.00000000000E+00  0.00000000000E+00 -0.87024547149E+03  0.87024547151E+03  0.50400001928E-02 0.  1.
    10030    2    1    2    0    0  0.00000000000E+00  0.00000000000E+00  0.25701978901E+03  0.19975107320E+04  0.19809063462E+04 0.  0.
        4    1    3    3  502    0  0.38919562468E+03 -0.58397603235E+02 -0.78801599717E+03  0.88082594139E+03  0.12699999809E+01 0.  1.
       -4    1    3    3    0  502 -0.38919562468E+03  0.58397603235E+02  0.10450357862E+04  0.11166847906E+04  0.12699999809E+01 0. -1.
</event>
<event>
 5   0  0.8755004E-05  0.1972432E+04  0.7818609E-02  0.8619619E-01
       -1   -1    0    0    0  501  0.00000000000E+00  0.00000000000E+00  0.60786303439E+03  0.60786303441E+03  0.50400001928E-02 0. -1.
        1   -1    0    0  501    0  0.00000000000E+00  0.00000000000E+00 -0.16000683165E+04  0.16000683165E+04  0.50400001928E-02 0.  1.
    10030    2    1    2    0    0  0.00000000000E+00  0.00000000000E+00 -0.99220528206E+03  0.22079313509E+04  0.19724323888E+04 0.  0.
        3    1    3    3  502    0 -0.13411458966E+03 -0.74354768712E+03  0.21343189099E+03  0.78511341122E+03  0.10100000352E+00 0. -1.
       -3    1    3    3    0  502  0.13411458966E+03  0.74354768712E+03 -0.12056371731E+04  0.14228179397E+04  0.10100000352E+00 0.  1.
</event>
<event>
 5   0  0.1921687E-04  0.2108416E+04  0.7818609E-02  0.8557545E-01
        2   -1    0    0  501    0  0.00000000000E+00  0.00000000000E+00  0.17869738642E+04  0.17869738642E+04  0.25500000920E-02 0.  1.
       -2   -1    0    0    0  501  0.00000000000E+00  0.00000000000E+00 -0.62191965646E+03  0.62191965647E+03  0.25500000920E-02 0. -1.
    10030    2    1    2    0    0  0.00000000000E+00  0.00000000000E+00  0.11650542078E+04  0.24088935207E+04  0.21084156818E+04 0.  0.
        5    1    3    3  502    0  0.46531294755E+02  0.66404609364E+03 -0.35141027090E+03  0.75275071861E+03  0.46999998093E+01 0. -1.
       -5    1    3    3    0  502 -0.46531294755E+02 -0.66404609364E+03  0.15164644787E+04  0.16561428021E+04  0.46999998093E+01 0.  1.
</event>
<event>
 5   0  0.1886323E-04  0.2115313E+04  0.7818609E-02  0.8554528E-01
       -2   -1    0    0    0  501  0.00000000000E+00  0.00000000000E+00  0.11324627238E+04  0.11324627238E+04  0.25500000920E-02 0.  1.
        2   -1    0    0  501    0  0.00000000000E+00  0.00000000000E+00 -0.98779185083E+03  0.98779185084E+03  0.25500000920E-02 0. -1.
    10030    2    1    2    0    0  0.00000000000E+00  0.00000000000E+00  0.14467087296E+03  0.21202545746E+04  0.21153131683E+04 0.  0.
        2    1    3    3  502    0  0.40993826827E+03 -0.58898188378E+03 -0.70645346505E+03  0.10069883522E+04  0.25500000920E-02 0. -1.
       -2    1    3    3    0  502 -0.40993826827E+03  0.58898188378E+03  0.85112433801E+03  0.11132662224E+04  0.25500000920E-02 0.  1.
</event>
<event>
 5   0  0.6441125E-05  0.2146494E+04  0.7818609E-02  0.8541034E-01
        3   -1    0    0  501    0  0.00000000000E+00  0.00000000000E+00  0.16820246593E+04  0.16820246624E+04  0.10100000352E+00 0. -1.
       -3   -1    0    0    0  501  0.00000000000E+00  0.00000000000E+00 -0.68480541878E+03  0.68480542623E+03  0.10100000352E+00 0.  1.
    10030    2    1    2    0    0  0.00000000000E+00  0.00000000000E+00  0.99721924055E+03  0.23668300886E+04  0.21464944571E+04 0.  0.
        1    1    3    3  502    0 -0.86785323927E+03  0.18472646063E+03  0.11643818739E+04  0.14639256329E+04  0.50400001928E-02 0. -1.
       -1    1    3    3    0  502  0.86785323927E+03 -0.18472646063E+03 -0.16716263339E+03  0.90290445574E+03  0.50400001928E-02 0.  1.
</event>
<event>
 5   0  0.8486612E-05  0.2102851E+04  0.7818609E-02  0.8559989E-01
        1   -1    0    0  501    0  0.00000000000E+00  0.00000000000E+00  0.12808520471E+04  0.12808520471E+04  0.50400001928E-02 0.  1.
       -1   -1    0    0    0  501  0.00000000000E+00  0.00000000000E+00 -0.86309372979E+03  0.86309372981E+03  0.50400001928E-02 0. -1.
    10030    2    1    2    0    0  0.00000000000E+00  0.00000000000E+00  0.41775831733E+03  0.21439457769E+04  0.21028507990E+04 0.  0.
        5    1    3    3  502    0  0.65305552758E+03  0.19454932760E+03  0.10252407412E+04  0.12310449344E+04  0.46999998093E+01 0.  1.
       -5    1    3    3    0  502 -0.65305552758E+03 -0.19454932760E+03 -0.60748242391E+03  0.91290084255E+03  0.46999998093E+01 0. -1.
</event>
<event>
 5   0  0.8271069E-05  0.1928664E+04  0.7818609E-02  0.8640719E-01
       -1   -1    0    0    0  501  0.00000000000E+00  0.00000000000E+00  0.75769160006E+03  0.75769160007E+03  0.50400001928E-02 0. -1.
        1   -1    0    0  501    0  0.00000000000E+00  0.00000000000E+00 -0.12273278588E+04  0.12273278588E+04  0.50400001928E-02 0.  1.
    10030    2    1    2    0    0  0.00000000000E+00  0.00000000000E+00 -0.46963625874E+03  0.19850194589E+04  0.19286637956E+04 0.  0.
        2    1    3    3  502    0 -0.39882991108E+03  0.20774661229E+03  0.64316874906E+03  0.78478659052E+03  0.25500000920E-02 0. -1.
       -2    1    3    3    0  502  0.39882991108E+03 -0.20774661229E+03 -0.11128050078E+04  0.12002328684E+04  0.25500000920E-02 0.  1.
</event>
<event>
 5   0  0.8237966E-05  0.2129551E+04  0.7818609E-02  0.8548337E-01
        1   -1    0    0  501    0  0.00000000000E+00  0.00000000000E+00  0.14106439404E+04  0.14106439404E+04  0.50400001928E-02 0. -1.
       -1   -1    0    0    0  501  0.00000000000E+00  0.00000000000E+00 -0.80370868584E+03  0.80370868586E+03  0.50400001928E-02 0.  1.
    10030    2    1    2    0    0  0.00000000000E+00  0.00000000000E+00  0.60693525457E+03  0.22143526263E+04  0.21295509269E+04 0.  0.
        1    1    3    3  502    0  0.20333632224E+03 -0.51465397711E+03  0.12493807651E+04  0.13664430732E+04  0.50400001928E-02 0. -1.
       -1    1    3    3    0  502 -0.20333632224E+03  0.51465397711E+03 -0.64244551055E+03  0.84790955305E+03  0.50400001928E-02 0.  1.
</event>
<event>
 5   0  0.1886323E-04  0.2115354E+04  0.7818609E-02  0.8554510E-01
       -2   -1    0    0    0  501  0.00000000000E+00  0.00000000000E+00  0.22510634160E+04  0.22510634160E+04  0.25500000920E-02 0. -1.
        2   -1    0    0  501    0  0.00000000000E+00  0.00000000000E+00 -0.49695655023E+03  0.49695655024E+03  0.25500000920E-02 0.  1.
    10030    2    1    2    0    0  0.00000000000E+00  0.00000000000E+00  0.17541068658E+04  0.27480199663E+04  0.21153540693E+04 0.  0.
        2    1    3    3  502    0  0.75202178363E+03  0.29216052391E+03 -0.11452853147E+02  0.80686163786E+03  0.25500000920E-02 0.  1.
       -2    1    3    3    0  502 -0.75202178363E+03 -0.29216052391E+03  0.17655597189E+04  0.19411583284E+04  0.25500000920E-02 0. -1.
</event>
<event>
 5   0  0.8237966E-05  0.2093168E+04  0.7818609E-02  0.8564259E-01
        1   -1    0    0  501    0  0.00000000000E+00  0.00000000000E+00  0.80150305963E+03  0.80150305964E+03  0.50400001928E-02 0.  1.
       -1   -1    0    0    0  501  0.00000000000E+00  0.00000000000E+00 -0.13666047158E+04  0.13666047158E+04  0.50400001928E-02 0. -1.
    10030    2    1    2    0    0  0.00000000000E+00  0.00000000000E+00 -0.56510165618E+03  0.21681077755E+04  0.20931678012E+04 0.  0.
        1    1    3    3  502    0 -0.16656449136E+03  0.10318543071E+04 -0.22705251182E+03  0.10695886518E+04  0.50400001928E-02 0.  1.
       -1    1    3    3    0  502  0.16656449136E+03 -0.10318543071E+04 -0.33804914435E+03  0.10985191236E+04  0.50400001928E-02 0. -1.
</event>
<event>
 5   0  0.6441125E-05  0.2074934E+04  0.7818609E-02  0.8572366E-01
        4   -1    0    0  501    0  0.00000000000E+00  0.00000000000E+00  0.96269208752E+03  0.96269292522E+03  0.12699999809E+01 0.  1.
       -4   -1    0    0    0  501  0.00000000000E+00  0.00000000000E+00 -0.11180486781E+04  0.11180493994E+04  0.12699999809E+01 0. -1.
    10030    2    1    2    0    0  0.00000000000E+00  0.00000000000E+00 -0.15535659057E+03  0.20807423246E+04  0.20749344450E+04 0.  0.
        4    1    3    3  502    0 -0.19303188259E+03  0.53816214298E+03  0.79045663429E+03  0.97555271688E+03  0.12699999809E+01 0.  1.
       -4    1    3    3    0  502  0.19303188259E+03 -0.53816214298E+03 -0.94581322486E+03  0.11051896077E+04  0.12699999809E+01 0. -1.
</event>
<event>
 5   0  0.8755004E-05  0.1447995E+04  0.7818609E-02  0.8919792E-01
       -1   -1    0    0    0  501  0.00000000000E+00  0.00000000000E+00  0.25080431936E+03  0.25080431941E+03  0.50400001928E-02 0.  1.
        1   -1    0    0  501    0  0.00000000000E+00  0.00000000000E+00 -0.20899643612E+04  0.20899643612E+04  0.50400001928E-02 0. -1.
    10030    2    1    2    0    0  0.00000000000E+00  0.00000000000E+00 -0.18391600419E+04  0.23407686807E+04  0.14479945983E+04 0.  0.
        3    1    3    3  502    0  0.36199182694E+03  0.50541619990E+03 -0.31973324464E+03  0.69908009257E+03  0.10100000352E+00 0.  1.
       -3    1    3    3    0  502 -0.36199182694E+03 -0.50541619990E+03 -0.15194267972E+04  0.16416885881E+04  0.10100000352E+00 0. -1.
</event>
<event>
 5   0  0.6441125E-05  0.2152900E+04  0.7818609E-02  0.8538292E-01
       -3   -1    0    0    0  501  0.00000000000E+00  0.00000000000E+00  0.12875295004E+04  0.12875295044E+04  0.10100000352E+00 0.  1.
        3   -1    0    0  501    0  0.00000000000E+00  0.00000000000E+00 -0.89997508223E+03  0.89997508789E+03  0.10100000352E+00 0. -1.
    10030    2    1    2    0    0  0.00000000000E+00  0.00000000000E+00  0.38755441816E+03  0.21875045922E+04  0.21528998848E+04 0.  0.
        4    1    3    3  502    0  0.96528147829E+03  0.11436374445E-01  0.67785338001E+03  0.11795147944E+04  0.12699999809E+01 0. -1.
       -4    1    3    3    0  502 -0.96528147829E+03 -0.11436374445E-01 -0.29029896184E+03  0.10079897979E+04  0.12699999809E+01 0.  1.
</event>
<event>
 5   0  0.8486612E-05  0.2098504E+04  0.7818609E-02  0.8561902E-01
        1   -1    0    0  501    0  0.00000000000E+00  0.00000000000E+00  0.13360518380E+04  0.13360518380E+04  0.50400001928E-02 0. -1.
       -1   -1    0    0    0  501  0.00000000000E+00  0.00000000000E+00 -0.82401753726E+03  0.82401753728E+03  0.50400001928E-02 0.  1.
    10030    2    1    2    0    0  0.00000000000E+00  0.00000000000E+00  0.51203430072E+03  0.21600693753E+04  0.20985043676E+04 0.  0.
        5    1    3    3  502    0  0.49801513311E+03 -0.21211202098E+03 -0.66918353770E+03  0.86072020970E+03  0.46999998093E+01 0.  1.
       -5    1    3    3    0  502 -0.49801513311E+03  0.21211202098E+03  0.11812178384E+04  0.12993491656E+04  0.46999998093E+01 0. -1.
</event>
<event>
 5   0  0.1886323E-04  0.2052007E+04  0.7818609E-02  0.8582684E-01
        2   -1    0    0  501    0  0.00000000000E+00  0.00000000000E+00  0.12804489508E+04  0.12804489508E+04  0.25500000920E-02 0. -1.
       -2   -1    0    0    0  501  0.00000000000E+00  0.00000000000E+00 -0.82212044856E+03  0.82212044856E+03  0.25500000920E-02 0.  1.
    10030    2    1    2    0    0  0.00000000000E+00  0.00000000000E+00  0.45832850227E+03  0.21025693994E+04  0.20520070817E+04 0.  0.
        2    1    3    3  502    0  0.71351987215E+03  0.12757745677E+03 -0.51488038548E+03  0.88909416081E+03  0.25500000920E-02 0.  1.
       -2    1    3    3    0  502 -0.71351987215E+03 -0.12757745677E+03  0.97320888775E+03  0.12134752386E+04  0.25500000920E-02 0. -1.
</event>
<event>
 5   0  0.6441125E-05  0.2101129E+04  0.7818609E-02  0.8560746E-01
       -3   -1    0    0    0  501  0.00000000000E+00  0.00000000000E+00  0.52301596847E+03  0.52301597822E+03  0.10100000352E+00 0. -1.
        3   -1    0    0  501    0  0.00000000000E+00  0.00000000000E+00 -0.21102342919E+04  0.21102342943E+04  0.10100000352E+00 0.  1.
    10030    2    1    2    0    0  0.00000000000E+00  0.00000000000E+00 -0.15872183234E+04  0.26332502725E+04  0.21011294562E+04 0.  0.
        1    1    3    3  502    0  0.36838159889E+03  0.85875503237E+03 -0.13953293899E+04  0.16793181099E+04  0.50400001928E-02 0.  1.
       -1    1    3    3    0  502 -0.36838159889E+03 -0.85875503237E+03 -0.19188893355E+03  0.95393216261E+03  0.50400001928E-02 0. -1.
</event>
<event>
 5   0  0.8237966E-05  0.1792285E+04  0.7818609E-02  0.8710413E-01
       -1   -1    0    0    0  501  0.00000000000E+00  0.00000000000E+00  0.12576984245E+04  0.12576984246E+04  0.50400001928E-02 0. -1.
        1   -1    0    0  501    0  0.00000000000E+00  0.00000000000E+00 -0.63852480250E+03  0.63852480252E+03  0.50400001928E-02 0.  1.
    10030    2    1    2    0    0  0.00000000000E+00  0.00000000000E+00  0.61917362204E+03  0.18962232271E+04  0.17922852877E+04 0.  0.
        1    1    3    3  502    0 -0.12867647246E+03  0.37323324595E+03 -0.54156151548E+03  0.67018621705E+03  0.50400001928E-02 0.  1.
       -1    1    3    3    0  502  0.12867647246E+03 -0.37323324595E+03  0.11607351375E+04  0.12260370100E+04  0.50400001928E-02 0. -1.
</event>
<event>
 5   0  0.1886323E-04  0.1425445E+04  0.7818609E-02  0.8935603E-01
        2   -1    0    0  501    0  0.00000000000E+00  0.00000000000E+00  0.13761324108E+04  0.13761324108E+04  0.25500000920E-02 0.  1.
       -2   -1    0    0    0  501  0.00000000000E+00  0.00000000000E+00 -0.36913142304E+03  0.36913142305E+03  0.25500000920E-02 0. -1.
    10030    2    1    2    0    0  0.00000000000E+00  0.00000000000E+00  0.10070009878E+04  0.17452638339E+04  0.14254454954E+04 0.  0.
        2    1    3    3  502    0 -0.59398281662E+03  0.11442192586E+03  0.96498292281E+03  0.11389029831E+04  0.25500000920E-02 0.  1.
       -2    1    3    3    0  502  0.59398281662E+03 -0.11442192586E+03  0.42018064957E+02  0.60636085077E+03  0.25500000920E-02 0. -1.
</event>
<event>
 5   0  0.8271069E-05  0.2012939E+04  0.7818609E-02  0.8600595E-01
       -1   -1    0    0    0  501  0.00000000000E+00  0.00000000000E+00  0.97235765645E+03  0.97235765646E+03  0.50400001928E-02 0. -1.
        1   -1    0    0  501    0  0.00000000000E+00  0.00000000000E+00 -0.10417781576E+04  0.10417781576E+04  0.50400001928E-02 0.  1.
    10030    2    1    2    0    0  0.00000000000E+00  0.00000000000E+00 -0.69420501152E+02  0.20141358141E+04  0.20129391127E+04 0.  0.
        2    1    3    3  502    0  0.98182947696E+03  0.38832262637E+02 -0.25274780928E+03  0.10145829299E+04  0.25500000920E-02 0.  1.
       -2    1    3    3    0  502 -0.98182947696E+03 -0.38832262637E+02  0.18332730813E+03  0.99955288422E+03  0.25500000920E-02 0. -1.
</event>
<event>
 5   0  0.8271069E-05  0.2062736E+04  0.7818609E-02  0.8577838E-01
       -1   -1    0    0    0  501  0.00000000000E+00  0.00000000000E+00  0.82259024461E+03  0.82259024463E+03  0.50400001928E-02 0. -1.
        1   -1    0    0  501    0  0.00000000000E+00  0.00000000000E+00 -0.12931347074E+04  0.12931347074E+04  0.50400001928E-02 0.  1.
    10030    2    1    2    0    0  0.00000000000E+00  0.00000000000E+00 -0.47054446278E+03  0.21157249520E+04  0.20627360425E+04 0.  0.
        2    1    3    3  502    0  0.26328582394E+03 -0.18109797662E+03 -0.12410770281E+04  0.12815569016E+04  0.25500000920E-02 0.  1.
       -2    1    3    3    0  502 -0.26328582394E+03  0.18109797662E+03  0.77053256532E+03  0.83416805049E+03  0.25500000920E-02 0. -1.
</event>
<event>
 5   0  0.8525278E-05  0.2115268E+04  0.7818609E-02  0.8554547E-01
        1   -1    0    0  501    0  0.00000000000E+00  0.00000000000E+00  0.16185992653E+04  0.16185992653E+04  0.50400001928E-02 0. -1.
       -1   -1    0    0    0  501  0.00000000000E+00  0.00000000000E+00 -0.69108498319E+03  0.69108498321E+03  0.50400001928E-02 0.  1.
    10030    2    1    2    0    0  0.00000000000E+00  0.00000000000E+00  0.92751428213E+03  0.23096842485E+04  0.21152679699E+04 0.  0.
        4    1    3    3  502    0  0.19453865842E+03  0.67364195809E+03  0.13283336175E+04  0.15020354822E+04  0.12699999809E+01 0. -1.
       -4    1    3    3    0  502 -0.19453865842E+03 -0.67364195809E+03 -0.40081933539E+03  0.80764876638E+03  0.12699999809E+01 0.  1.
</event>
<event>
 5   0  0.8525278E-05  0.2098265E+04  0.7818609E-02  0.8562008E-01
        1   -1    0    0  501    0  0.00000000000E+00  0.00000000000E+00  0.72793397772E+03  0.72793397774E+03  0.50400001928E-02 0. -1.
       -1   -1    0    0    0  501  0.00000000000E+00  0.00000000000E+00 -0.15120595401E+04  0.15120595401E+04  0.50400001928E-02 0.  1.
    10030    2    1    2    0    0  0.00000000000E+00  0.00000000000E+00 -0.78412556234E+03  0.22399935178E+04  0.20982654890E+04 0.  0.
        4    1    3    3  502    0  0.16674346644E+03 -0.97156560546E+03 -0.77539152695E+03  0.12541836956E+04  0.12699999809E+01 0.  1.
       -4    1    3    3    0  502 -0.16674346644E+03  0.97156560546E+03 -0.87340353940E+01  0.98580982222E+03  0.12699999809E+01 0. -1.
</event>
<event>
 5   0  0.8486612E-05  0.2090556E+04  0.7818609E-02  0.8565415E-01
       -1   -1    0    0    0  501  0.00000000000E+00  0.00000000000E+00  0.14745664890E+04  0.14745664890E+04  0.50400001928E-02 0.  1.
        1   -1    0    0  501    0  0.00000000000E+00  0.00000000000E+00 -0.74096799252E+03  0.74096799253E+03  0.50400001928E-02 0. -1.
    10030    2    1    2    0    0  0.00000000000E+00  0.00000000000E+00  0.73359849646E+03  0.22155344815E+04  0.20905564534E+04 0.  0.
        5    1    3    3  502    0  0.67521386970E+03  0.57595082263E+03  0.95203641887E+03  0.13015485211E+04  0.46999998093E+01 0.  1.
       -5    1    3    3    0  502 -0.67521386970E+03 -0.57595082263E+03 -0.21843792240E+03  0.91398596043E+03  0.46999998093E+01 0. -1.
</event>
<event>
 5   0  0.8755004E-05  0.2122350E+04  0.7818609E-02  0.8551462E-01
       -1   -1    0    0    0  501  0.00000000000E+00  0.00000000000E+00  0.86626555996E+03  0.86626555997E+03  0.50400001928E-02 0. -1.
        1   -1    0    0  501    0  0.00000000000E+00  0.00000000000E+00 -0.12999385594E+04  0.12999385594E+04  0.50400001928E-02 0.  1.
    10030    2    1    2    0    0  0.00000000000E+00  0.00000000000E+00 -0.43367299944E+03  0.21662041194E+04  0.21223496452E+04 0.  0.
        3    1    3    3  502    0 -0.44007476348E+03  0.11463290672E+03  0.76176899003E+03  0.88718572189E+03  0.10100000352E+00 0. -1.
       -3    1    3    3    0  502  0.44007476348E+03 -0.11463290672E+03 -0.11954419895E+04  0.12790183975E+04  0.10100000352E+00 0.  1.
</event>
<event>
 5   0  0.1921687E-04  0.2122178E+04  0.7818609E-02  0.8551536E-01
       -2   -1    0    0    0  501  0.00000000000E+00  0.00000000000E+00  0.10663346826E+04  0.10663346826E+04  0.25500000920E-02 0. -1.
        2   -1    0    0  501    0  0.00000000000E+00  0.00000000000E+00 -0.10558691711E+04  0.10558691711E+04  0.25500000920E-02 0.  1.
    10030    2    1    2    0    0  0.00000000000E+00  0.00000000000E+00  0.10465511440E+02  0.21222038537E+04  0.21221780485E+04 0.  0.
        5    1    3    3  502    0  0.36312801325E+03 -0.85112111886E+03 -0.51402177866E+03  0.10585412566E+04  0.46999998093E+01 0.  1.
       -5    1    3    3    0  502 -0.36312801325E+03  0.85112111886E+03  0.52448729010E+03  0.10636625971E+04  0.46999998093E+01 0. -1.
</event>
<event>
 5   0  0.8486612E-05  0.2086953E+04  0.7818609E-02  0.8567013E-01
        1   -1    0    0  501    0  0.00000000000E+00  0.00000000000E+00  0.14072846330E+04  0.14072846330E+04  0.50400001928E-02 0. -1.
       -1   -1    0    0    0  501  0.00000000000E+00  0.00000000000E+00 -0.77371911018E+03  0.77371911019E+03  0.50400001928E-02 0.  1.
    10030    2    1    2    0    0  0.00000000000E+00  0.00000000000E+00  0.63356552284E+03  0.21810037432E+04  0.20869528160E+04 0.  0.
        5    1    3    3  502    0  0.85426947333E+03 -0.50194394193E+03  0.65878753691E+03  0.11898517398E+04  0.46999998093E+01 0.  1.
       -5    1    3    3    0  502 -0.85426947333E+03  0.50194394193E+03 -0.25222014070E+02  0.99115200343E+03  0.46999998093E+01 0. -1.
</event>
<event>
 5   0  0.1810875E-04  0.1892687E+04  0.7818609E-02  0.8658505E-01
       -2   -1    0    0    0  501  0.00000000000E+00  0.00000000000E+00  0.46737078061E+03  0.46737078062E+03  0.25500000920E-02 0. -1.
        2   -1    0    0  501    0  0.00000000000E+00  0.00000000000E+00 -0.19161782849E+04  0.19161782849E+04  0.25500000920E-02 0.  1.
    10030    2    1    2    0    0  0.00000000000E+00  0.00000000000E+00 -0.14488075043E+04  0.23835490655E+04  0.18926867050E+04 0.  0.
        1    1    3    3  502    0  0.88212588459E+03 -0.37849980239E+02 -0.29550962040E+03  0.93107713593E+03  0.50400001928E-02 0. -1.
       -1    1    3    3    0  502 -0.88212588459E+03  0.37849980239E+02 -0.11532978839E+04  0.14524719296E+04  0.50400001928E-02 0.  1.
</event>
<event>
 5   0  0.8755004E-05  0.2122292E+04  0.7818609E-02  0.8551487E-01
        1   -1    0    0  501    0  0.00000000000E+00  0.00000000000E+00  0.62782994796E+03  0.62782994798E+03  0.50400001928E-02 0. -1.
       -1   -1    0    0    0  501  0.00000000000E+00  0.00000000000E+00 -0.17935286678E+04  0.17935286678E+04  0.50400001928E-02 0.  1.
    10030    2    1    2    0    0  0.00000000000E+00  0.00000000000E+00 -0.11656987198E+04  0.24213586158E+04  0.21222921667E+04 0.  0.
        3    1    3    3  502    0 -0.77198171127E+03  0.59371500005E+03 -0.10636313623E+04  0.14421390186E+04  0.10100000352E+00 0.  1.
       -3    1    3    3    0  502  0.77198171127E+03 -0.59371500005E+03 -0.10206735748E+03  0.97921959717E+03  0.10100000352E+00 0. -1.
</event>
<event>
 5   0  0.8525278E-05  0.2037333E+04  0.7818609E-02  0.8589363E-01
       -1   -1    0    0    0  501  0.00000000000E+00  0.00000000000E+00  0.89025891942E+03  0.89025891943E+03  0.50400001928E-02 0. -1.
        1   -1    0    0  501    0  0.00000000000E+00  0.00000000000E+00 -0.11655949757E+04  0.11655949757E+04  0.50400001928E-02 0.  1.
    10030    2    1    2    0    0  0.00000000000E+00  0.00000000000E+00 -0.27533605629E+03  0.20558538951E+04  0.20373328875E+04 0.  0.
        4    1    3    3  502    0  0.41900334459E+03 -0.91693262708E+03  0.97782869506E+01  0.10081797822E+04  0.12699999809E+01 0.  1.
       -4    1    3    3    0  502 -0.41900334459E+03  0.91693262708E+03 -0.28511434324E+03  0.10476741130E+04  0.12699999809E+01 0. -1.
</event>
<event>
 5   0  0.1810875E-04  0.2101696E+04  0.7818609E-02  0.8560497E-01
        2   -1    0    0  501    0  0.00000000000E+00  0.00000000000E+00  0.85098522192E+03  0.85098522192E+03  0.25500000920E-02 0.  1.
       -2   -1    0    0    0  501  0.00000000000E+00  0.00000000000E+00 -0.12976506095E+04  0.12976506095E+04  0.25500000920E-02 0. -1.
    10030    2    1    2    0    0  0.00000000000E+00  0.00000000000E+00 -0.44666538758E+03  0.21486358314E+04  0.21016959741E+04 0.  0.
        1    1    3    3  502    0 -0.17085948101E+03  0.31713543108E+03 -0.12325551012E+04  0.12841183441E+04  0.50400001928E-02 0. -1.
       -1    1    3    3    0  502  0.17085948101E+03 -0.31713543108E+03  0.78588971366E+03  0.86451748737E+03  0.50400001928E-02 0.  1.
</event>
<event>
 5   0  0.1815400E-04  0.2045412E+04  0.7818609E-02  0.8585678E-01
       -2   -1    0    0    0  501  0.00000000000E+00  0.00000000000E+00  0.82466845235E+03  0.82466845235E+03  0.25500000920E-02 0.  1.
        2   -1    0    0  501    0  0.00000000000E+00  0.00000000000E+00 -0.12683010547E+04  0.12683010547E+04  0.25500000920E-02 0. -1.
    10030    2    1    2    0    0  0.00000000000E+00  0.00000000000E+00 -0.44363260237E+03  0.20929695071E+04  0.20454122987E+04 0.  0.
        3    1    3    3  502    0  0.74480338653E+03 -0.59015049134E+03  0.16501869994E+03  0.96448995253E+03  0.10100000352E+00 0.  1.
       -3    1    3    3    0  502 -0.74480338653E+03  0.59015049134E+03 -0.60865130231E+03  0.11284795545E+04  0.10100000352E+00 0. -1.
</event>
<event>
 5   0  0.1810875E-04  0.2071069E+04  0.7818609E-02  0.8574096E-01
        2   -1    0    0  501    0  0.00000000000E+00  0.00000000000E+00  0.71474810398E+03  0.71474810398E+03  0.25500000920E-02 0.  1.
       -2   -1    0    0    0  501  0.00000000000E+00  0.00000000000E+00 -0.15002928025E+04  0.15002928025E+04  0.25500000920E-02 0. -1.
    10030    2    1    2    0    0  0.00000000000E+00  0.00000000000E+00 -0.78554469855E+03  0.22150409065E+04  0.20710687444E+04 0.  0.
        1    1    3    3  502    0  0.18031645636E+03 -0.52247329428E+02  0.69639587639E+03  0.72125655945E+03  0.50400001928E-02 0.  1.
       -1    1    3    3    0  502 -0.18031645636E+03  0.52247329428E+02 -0.14819405749E+04  0.14937843471E+04  0.50400001928E-02 0. -1.
</event>
<event>
 5   0  0.1815400E-04  0.2081087E+04  0.7818609E-02  0.8569621E-01
       -2   -1    0    0    0  501  0.00000000000E+00  0.00000000000E+00  0.49114680205E+03  0.49114680206E+03  0.25500000920E-02 0. -1.
        2   -1    0    0  501    0  0.00000000000E+00  0.00000000000E+00 -0.22044958142E+04  0.22044958142E+04  0.25500000920E-02 0.  1.
    10030    2    1    2    0    0  0.00000000000E+00  0.00000000000E+00 -0.17133490121E+04  0.26956426162E+04  0.20810872824E+04 0.  0.
        3    1    3    3  502    0 -0.38874543211E+03 -0.39721065940E+03  0.28277553392E+03  0.62358746918E+03  0.10100000352E+00 0. -1.
       -3    1    3    3    0  502  0.38874543211E+03  0.39721065940E+03 -0.19961245460E+04  0.20720551471E+04  0.10100000352E+00 0.  1.
</event>
<event>
 5   0  0.1886323E-04  0.2264939E+04  0.7818609E-02  0.8491875E-01
        2   -1    0    0  501    0  0.00000000000E+00  0.00000000000E+00  0.22942653602E+04  0.22942653602E+04  0.25500000920E-02 0.  1.
       -2   -1    0    0    0  501  0.00000000000E+00  0.00000000000E+00 -0.55899687897E+03  0.55899687897E+03  0.25500000920E-02 0. -1.
    10030    2    1    2    0    0  0.00000000000E+00  0.00000000000E+00  0.17352684812E+04  0.28532622392E+04  0.22649390066E+04 0.  0.
        2    1    3    3  502    0 -0.45369723843E+03 -0.86941953356E+03  0.15416977747E+03  0.99272344073E+03  0.25500000920E-02 0. -1.
       -2    1    3    3    0  502  0.45369723843E+03  0.86941953356E+03  0.15810987038E+04  0.18605387985E+04  0.25500000920E-02 0.  1.
</event>
<event>
 5   0  0.1810875E-04  0.2110682E+04  0.7818609E-02  0.8556552E-01
       -2   -1    0    0    0  501  0.00000000000E+00  0.00000000000E+00  0.15204529132E+04  0.15204529132E+04  0.25500000920E-02 0. -1.
        2   -1    0    0  501    0  0.00000000000E+00  0.00000000000E+00 -0.73250861212E+03  0.73250861212E+03  0.25500000920E-02 0.  1.
    10030    2    1    2    0    0  0.00000000000E+00  0.00000000000E+00  0.78794430108E+03  0.22529615253E+04  0.21106822151E+04 0.  0.
        1    1    3    3  502    0  0.17260205242E+03  0.86773757951E+03  0.10080663575E+04  0.13412523090E+04  0.50400001928E-02 0. -1.
       -1    1    3    3    0  502 -0.17260205242E+03 -0.86773757951E+03 -0.22012205637E+03  0.91170921631E+03  0.50400001928E-02 0.  1.
</event>
<event>
 5   0  0.8486612E-05  0.1705423E+04  0.7818609E-02  0.8758277E-01
        1   -1    0    0  501    0  0.00000000000E+00  0.00000000000E+00  0.68471324002E+03  0.68471324003E+03  0.50400001928E-02 0. -1.
       -1   -1    0    0    0  501  0.00000000000E+00  0.00000000000E+00 -0.10619291733E+04  0.10619291733E+04  0.50400001928E-02 0.  1.
    10030    2    1    2    0    0  0.00000000000E+00  0.00000000000E+00 -0.37721593326E+03  0.17466424133E+04  0.17054230735E+04 0.  0.
        5    1    3    3  502    0  0.76740203833E+03 -0.25755855095E+03  0.85924080652E+02  0.81403153086E+03  0.46999998093E+01 0. -1.
       -5    1    3    3    0  502 -0.76740203833E+03  0.25755855095E+03 -0.46314001391E+03  0.93261088246E+03  0.46999998093E+01 0.  1.
</event>
<event>
 5   0  0.8486612E-05  0.1944515E+04  0.7818609E-02  0.8633010E-01
       -1   -1    0    0    0  501  0.00000000000E+00  0.00000000000E+00  0.18890614408E+04  0.18890614408E+04  0.50400001928E-02 0. -1.
        1   -1    0    0  501    0  0.00000000000E+00  0.00000000000E+00 -0.50039906713E+03  0.50039906716E+03  0.50400001928E-02 0.  1.
    10030    2    1    2    0    0  0.00000000000E+00  0.00000000000E+00  0.13886623737E+04  0.23894605080E+04  0.19445149347E+04 0.  0.
        5    1    3    3  502    0 -0.74489247634E+03  0.61736240809E+03  0.81258786845E+03  0.12634564805E+04  0.46999998093E+01 0.  1.
       -5    1    3    3    0  502  0.74489247634E+03 -0.61736240809E+03  0.57607450522E+03  0.11260040274E+04  0.46999998093E+01 0. -1.
</event>
<event>
 5   0  0.1886323E-04  0.2142359E+04  0.7818609E-02  0.8542810E-01
        2   -1    0    0  501    0  0.00000000000E+00  0.00000000000E+00  0.13322079057E+04  0.13322079057E+04  0.25500000920E-02 0.  1.
       -2   -1    0    0    0  501  0.00000000000E+00  0.00000000000E+00 -0.86129588349E+03  0.86129588350E+03  0.25500000920E-02 0. -1.
    10030    2    1    2    0    0  0.00000000000E+00  0.00000000000E+00  0.47091202224E+03  0.21935037892E+04  0.21423586863E+04 0.  0.
        2    1    3    3  502    0 -0.26891354672E+03  0.69118726962E+03  0.10268053005E+04  0.12666425946E+04  0.25500000920E-02 0.  1.
       -2    1    3    3    0  502  0.26891354672E+03 -0.69118726962E+03 -0.55589327827E+03  0.92686119464E+03  0.25500000920E-02 0. -1.
</event>
<event>
 5   0  0.8755004E-05  0.2068583E+04  0.7818609E-02  0.8575211E-01
        1   -1    0    0  501    0  0.00000000000E+00  0.00000000000E+00  0.14807675882E+04  0.14807675882E+04  0.50400001928E-02 0.  1.
       -1   -1    0    0    0  501  0.00000000000E+00  0.00000000000E+00 -0.72243513642E+03  0.72243513643E+03  0.50400001928E-02 0. -1.
    10030    2    1    2    0    0  0.00000000000E+00  0.00000000000E+00  0.75833245174E+03  0.22032027246E+04  0.20685826400E+04 0.  0.
        3    1    3    3  502    0 -0.13190215229E+03 -0.10256795011E+04  0.35947213451E+03  0.10948227448E+04  0.10100000352E+00 0. -1.
       -3    1    3    3    0  502  0.13190215229E+03  0.10256795011E+04  0.39886031724E+03  0.11083799798E+04  0.10100000352E+00 0.  1.
</event>
<event>
 5   0  0.8486612E-05  0.2104370E+04  0.7818609E-02  0.8559321E-01
        1   -1    0    0  501    0  0.00000000000E+00  0.00000000000E+00  0.30521952975E+04  0.30521952975E+04  0.50400001928E-02 0. -1.
       -1   -1    0    0    0  501  0.00000000000E+00  0.00000000000E+00 -0.36272042767E+03  0.36272042770E+03  0.50400001928E-02 0.  1.
    10030    2    1    2    0    0  0.00000000000E+00  0.00000000000E+00  0.26894748698E+04  0.34149157252E+04  0.21043702941E+04 0.  0.
        5    1    3    3  502    0 -0.33690851981E+03 -0.12669065073E+02 -0.27267471394E+03  0.43363745866E+03  0.46999998093E+01 0.  1.
       -5    1    3    3    0  502  0.33690851981E+03  0.12669065073E+02  0.29621495837E+04  0.29812782665E+04  0.46999998093E+01 0. -1.
</event>
<event>
 5   0  0.6441125E-05  0.2091128E+04  0.7818609E-02  0.8565162E-01
        4   -1    0    0  501    0  0.00000000000E+00  0.00000000000E+00  0.99563431301E+03  0.99563512299E+03  0.12699999809E+01 0. -1.
       -4   -1    0    0    0  501  0.00000000000E+00  0.00000000000E+00 -0.10979962768E+04  0.10979970112E+04  0.12699999809E+01 0.  1.
    10030    2    1    2    0    0  0.00000000000E+00  0.00000000000E+00 -0.10236196376E+03  0.20936321342E+04  0.20911282940E+04 0.  0.
        3    1    3    3  502    0  0.80386510809E+03 -0.66810268758E+03 -0.25772215731E+02  0.10455737805E+04  0.10100000352E+00 0. -1.
       -3    1    3    3    0  502 -0.80386510809E+03  0.66810268758E+03 -0.76589748033E+02  0.10480583537E+04  0.10100000352E+00 0.  1.
</event>
<event>
 5   0  0.1815400E-04  0.2111559E+04  0.7818609E-02  0.8556168E-01
       -2   -1    0    0    0  501  0.00000000000E+00  0.00000000000E+00  0.70368370088E+03  0.70368370088E+03  0.25500000920E-02 0.  1.
        2   -1    0    0  501    0  0.00000000000E+00  0.00000000000E+00 -0.15840507112E+04  0.15840507112E+04  0.25500000920E-02 0. -1.
    10030    2    1    2    0    0  0.00000000000E+00  0.00000000000E+00 -0.88036701030E+03  0.22877344121E+04  0.21115592976E+04 0.  0.
        3    1    3    3  502    0  0.88177883450E+03  0.36407044801E+03 -0.93023751038E+03  0.13324500141E+04  0.10100000352E+00 0. -1.
       -3    1    3    3    0  502 -0.88177883450E+03 -0.36407044801E+03  0.49870500081E+02  0.95528439800E+03  0.10100000352E+00 0.  1.
</event>
<event>
 5   0  0.8486612E-05  0.2111256E+04  0.7818609E-02  0.8556301E-01
       -1   -1    0    0    0  501  0.00000000000E+00  0.00000000000E+00  0.82560049550E+03  0.82560049551E+03  0.50400001928E-02 0. -1.
        1   -1    0    0  501    0  0.00000000000E+00  0.00000000000E+00 -0.13497450667E+04  0.13497450667E+04  0.50400001928E-02 0.  1.
    10030    2    1    2    0    0  0.00000000000E+00  0.00000000000E+00 -0.52414457119E+03  0.21753455622E+04  0.21112557362E+04 0.  0.
        5    1    3    3  502    0  0.14276125166E+03 -0.25603580633E+03 -0.13069536147E+04  0.13394345636E+04  0.46999998093E+01 0.  1.
       -5    1    3    3    0  502 -0.14276125166E+03  0.25603580633E+03  0.78280904350E+03  0.83591099866E+03  0.46999998093E+01 0. -1.
</event>
<event>
 5   0  0.1886323E-04  0.2062982E+04  0.7818609E-02  0.8577728E-01
       -2   -1    0    0    0  501  0.00000000000E+00  0.00000000000E+00  0.44772571402E+03  0.44772571402E+03  0.25500000920E-02 0.  1.
        2   -1    0    0  501    0  0.00000000000E+00  0.00000000000E+00 -0.23763959990E+04  0.23763959990E+04  0.25500000920E-02 0. -1.
    10030    2    1    2    0    0  0.00000000000E+00  0.00000000000E+00 -0.19286702850E+04  0.28241217130E+04  0.20629819150E+04 0.  0.
        2    1    3    3  502    0 -0.67540176449E+03 -0.26226157314E+03 -0.19693961183E+04  0.20984446018E+04  0.25500000920E-02 0. -1.
       -2    1    3    3    0  502  0.67540176449E+03  0.26226157314E+03  0.40725833290E+02  0.72567711121E+03  0.25500000920E-02 0.  1.
</event>
<event>
 5   0  0.8237966E-05  0.1948379E+04  0.7818609E-02  0.8631143E-01
        1   -1    0    0  501    0  0.00000000000E+00  0.00000000000E+00  0.24088268328E+04  0.24088268328E+04  0.50400001928E-02 0. -1.
       -1   -1    0    0    0  501  0.00000000000E+00  0.00000000000E+00 -0.39398630611E+03  0.39398630615E+03  0.50400001928E-02 0.  1.
    10030    2    1    2    0    0  0.00000000000E+00  0.00000000000E+00  0.20148405267E+04  0.28028131390E+04  0.19483785936E+04 0.  0.
        1    1    3    3  502    0  0.72148612349E+03 -0.64726479121E+03  0.11480061743E+04  0.15024686728E+04  0.50400001928E-02 0.  1.
       -1    1    3    3    0  502 -0.72148612349E+03  0.64726479121E+03  0.86683435239E+03  0.13003444662E+04  0.50400001928E-02 0. -1.
</event>
<event>
 5   0  0.1815400E-04  0.2068684E+04  0.7818609E-02  0.8575165E-01
        2   -1    0    0  501    0  0.00000000000E+00  0.00000000000E+00  0.10477216489E+04  0.10477216489E+04  0.25500000920E-02 0.  1.
       -2   -1    0    0    0  501  0.00000000000E+00  0.00000000000E+00 -0.10211335518E+04  0.10211335518E+04  0.25500000920E-02 0. -1.
    10030    2    1    2    0    0  0.00000000000E+00  0.00000000000E+00  0.26588097132E+02  0.20688552007E+04  0.20686843439E+04 0.  0.
        3    1    3    3  502    0 -0.47996528588E+03 -0.22956208502E+03  0.90038382071E+03  0.10458281223E+04  0.10100000352E+00 0.  1.
       -3    1    3    3    0  502  0.47996528588E+03  0.22956208502E+03 -0.87379572358E+03  0.10230270785E+04  0.10100000352E+00 0. -1.
</event>
<event>
 5   0  0.8271069E-05  0.1630978E+04  0.7818609E-02  0.8801740E-01
       -1   -1    0    0    0  501  0.00000000000E+00  0.00000000000E+00  0.10717735146E+04  0.10717735147E+04  0.50400001928E-02 0.  1.
        1   -1    0    0  501    0  0.00000000000E+00  0.00000000000E+00 -0.62048804109E+03  0.62048804111E+03  0.50400001928E-02 0. -1.
    10030    2    1    2    0    0  0.00000000000E+00  0.00000000000E+00  0.45128547355E+03  0.16922615558E+04  0.16309784163E+04 0.  0.
        2    1    3    3  502    0  0.81597596190E+02 -0.76532792587E+03  0.50528329323E+03  0.92070419150E+03  0.25500000920E-02 0. -1.
       -2    1    3    3    0  502 -0.81597596190E+02  0.76532792587E+03 -0.53997819679E+02  0.77155736427E+03  0.25500000920E-02 0.  1.
</event>
<event>
 5   0  0.8755004E-05  0.2132842E+04  0.7818609E-02  0.8546912E-01
        1   -1    0    0  501    0  0.00000000000E+00  0.00000000000E+00  0.96778132903E+03  0.96778132904E+03  0.50400001928E-02 0.  1.
       -1   -1    0    0    0  501  0.00000000000E+00  0.00000000000E+00 -0.11751148016E+04  0.11751148016E+04  0.50400001928E-02 0. -1.
    10030    2    1    2    0    0  0.00000000000E+00  0.00000000000E+00 -0.20733347258E+03  0.21428961307E+04  0.21328423894E+04 0.  0.
        3    1    3    3  502    0 -0.56225942304E+03 -0.26539938003E+03  0.76683624183E+03  0.98722354191E+03  0.10100000352E+00 0.  1.
       -3    1    3    3    0  502  0.56225942304E+03  0.26539938003E+03 -0.97416971441E+03  0.11556725888E+04  0.10100000352E+00 0. -1.
</event>
<event>
 5   0  0.8486612E-05  0.2146365E+04  0.7818609E-02  0.8541090E-01
        1   -1    0    0  501    0  0.00000000000E+00  0.00000000000E+00  0.81471298477E+03  0.81471298479E+03  0.50400001928E-02 0. -1.
       -1   -1    0    0    0  501  0.00000000000E+00  0.00000000000E+00 -0.14136519614E+04  0.14136519614E+04  0.50400001928E-02 0.  1.
    10030    2    1    2    0    0  0.00000000000E+00  0.00000000000E+00 -0.59893897662E+03  0.22283649462E+04  0.21463649353E+04 0.  0.
        5    1    3    3  502    0  0.20980196932E+03  0.28146847035E+03 -0.13523421636E+04  0.13971731402E+04  0.46999998093E+01 0.  1.
       -5    1    3    3    0  502 -0.20980196932E+03 -0.28146847035E+03  0.75340318702E+03  0.83119180599E+03  0.46999998093E+01 0. -1.
</event>
<event>
 5   0  0.8271069E-05  0.2109170E+04  0.7818609E-02  0.8557215E-01
       -1   -1    0    0    0  501  0.00000000000E+00  0.00000000000E+00  0.10594844168E+04  0.10594844168E+04  0.50400001928E-02 0.  1.
        1   -1    0    0  501    0  0.00000000000E+00  0.00000000000E+00 -0.10497079635E+04  0.10497079636E+04  0.50400001928E-02 0. -1.
    10030    2    1    2    0    0  0.00000000000E+00  0.00000000000E+00  0.97764532538E+01  0.21091923804E+04  0.21091697225E+04 0.  0.
        2    1    3    3  502    0  0.25641142298E+03 -0.10229289533E+04  0.55594568983E+00  0.10545761094E+04  0.25500000920E-02 0.  1.
       -2    1    3    3    0  502 -0.25641142298E+03  0.10229289533E+04  0.92205075639E+01  0.10546162710E+04  0.25500000920E-02 0. -1.
</event>
<event>
 5   0  0.1777590E-04  0.2071199E+04  0.7818609E-02  0.8574037E-01
       -2   -1    0    0    0  501  0.00000000000E+00  0.00000000000E+00  0.45071525514E+03  0.45071525515E+03  0.25500000920E-02 0. -1.
        2   -1    0    0  501    0  0.00000000000E+00  0.00000000000E+00 -0.23794772352E+04  0.23794772352E+04  0.25500000920E-02 0.  1.
    10030    2    1    2    0    0  0.00000000000E+00  0.00000000000E+00 -0.19287619801E+04  0.28301924904E+04  0.20711993522E+04 0.  0.
        4    1    3    3  502    0  0.30868760789E+03  0.18152902196E+03 -0.22921778826E+04  0.23199831645E+04  0.12699999809E+01 0.  1.
       -4    1    3    3    0  502 -0.30868760789E+03 -0.18152902196E+03  0.36341590255E+03  0.51020932586E+03  0.12699999809E+01 0. -1.
</event>
<event>
 5   0  0.8525278E-05  0.2113935E+04  0.7818609E-02  0.8555130E-01
        1   -1    0    0  501    0  0.00000000000E+00  0.00000000000E+00  0.19091452865E+04  0.19091452865E+04  0.50400001928E-02 0.  1.
       -1   -1    0    0    0  501  0.00000000000E+00  0.00000000000E+00 -0.58517274935E+03  0.58517274938E+03  0.50400001928E-02 0. -1.
    10030    2    1    2    0    0  0.00000000000E+00  0.00000000000E+00  0.13239725371E+04  0.24943180358E+04  0.21139345271E+04 0.  0.
        4    1    3    3  502    0  0.10174618055E+04  0.65050066163E+02  0.99092992267E+03  0.14217607961E+04  0.12699999809E+01 0.  1.
       -4    1    3    3    0  502 -0.10174618055E+04 -0.65050066163E+02  0.33304261443E+03  0.10725572398E+04  0.12699999809E+01 0. -1.
</event>
<event>
 5   0  0.8486612E-05  0.2103060E+04  0.7818609E-02  0.8559897E-01
       -1   -1    0    0    0  501  0.00000000000E+00  0.00000000000E+00  0.82022252095E+03  0.82022252097E+03  0.50400001928E-02 0.  1.
        1   -1    0    0  501    0  0.00000000000E+00  0.00000000000E+00 -0.13480668945E+04  0.13480668945E+04  0.50400001928E-02 0. -1.
    10030    2    1    2    0    0  0.00000000000E+00  0.00000000000E+00 -0.52784437355E+03  0.21682894155E+04  0.21030595109E+04 0.  0.
        5    1    3    3  502    0 -0.10339802995E+04  0.18444127341E+03 -0.21176768537E+03  0.10714483122E+04  0.46999998093E+01 0. -1.
       -5    1    3    3    0  502  0.10339802995E+04 -0.18444127341E+03 -0.31607668818E+03  0.10968411033E+04  0.46999998093E+01 0.  1.
</event>
<event>
 5   0  0.8271069E-05  0.2091757E+04  0.7818609E-02  0.8564883E-01
        1   -1    0    0  501    0  0.00000000000E+00  0.00000000000E+00  0.20810487626E+04  0.20810487626E+04  0.50400001928E-02 0. -1.
       -1   -1    0    0    0  501  0.00000000000E+00  0.00000000000E+00 -0.52562986673E+03  0.52562986675E+03  0.50400001928E-02 0.  1.
    10030    2    1    2    0    0  0.00000000000E+00  0.00000000000E+00  0.15554188959E+04  0.26066786293E+04  0.20917565669E+04 0.  0.
        2    1    3    3  502    0 -0.19366080698E+03 -0.62339247513E+03  0.17960185441E+04  0.19109697269E+04  0.25500000920E-02 0. -1.
       -2    1    3    3    0  502  0.19366080698E+03  0.62339247513E+03 -0.24059964826E+03  0.69570890246E+03  0.25500000920E-02 0.  1.
</event>
<event>
 5   0  0.1810875E-04  0.2137660E+04  0.7818609E-02  0.8544833E-01
        2   -1    0    0  501    0  0.00000000000E+00  0.00000000000E+00  0.13851212059E+04  0.13851212060E+04  0.25500000920E-02 0.  1.
       -2   -1    0    0    0  501  0.00000000000E+00  0.00000000000E+00 -0.82476395177E+03  0.82476395177E+03  0.25500000920E-02 0. -1.
    10030    2    1    2    0    0  0.00000000000E+00  0.00000000000E+00  0.56035725418E+03  0.22098851577E+04  0.21376604403E+04 0.  0.
        1    1    3    3  502    0 -0.64662701498E+03 -0.61205781655E+03  0.89147519416E+03  0.12599481295E+04  0.50400001928E-02 0.  1.
       -1    1    3    3    0  502  0.64662701498E+03  0.61205781655E+03 -0.33111793998E+03  0.94993702818E+03  0.50400001928E-02 0. -1.
</event>
<event>
 5   0  0.1815400E-04  0.2108161E+04  0.7818609E-02  0.8557657E-01
        2   -1    0    0  501    0  0.00000000000E+00  0.00000000000E+00  0.96349400686E+03  0.96349400686E+03  0.25500000920E-02 0. -1.
       -2   -1    0    0    0  501  0.00000000000E+00  0.00000000000E+00 -0.11531841452E+04  0.11531841452E+04  0.25500000920E-02 0.  1.
    10030    2    1    2    0    0  0.00000000000E+00  0.00000000000E+00 -0.18969013832E+03  0.21166781520E+04  0.21081612962E+04 0.  0.
        3    1    3    3  502    0 -0.72355736586E+03  0.45397661410E+03  0.52527130930E+03  0.10027661674E+04  0.10100000352E+00 0. -1.
       -3    1    3    3    0  502  0.72355736586E+03 -0.45397661410E+03 -0.71496144761E+03  0.11139119847E+04  0.10100000352E+00 0.  1.
</event>
<event>
 5   0  0.1815400E-04  0.2070530E+04  0.7818609E-02  0.8574338E-01
       -2   -1    0    0    0  501  0.00000000000E+00  0.00000000000E+00  0.13620662132E+04  0.13620662132E+04  0.25500000920E-02 0. -1.
        2   -1    0    0  501    0  0.00000000000E+00  0.00000000000E+00 -0.78687307131E+03  0.78687307131E+03  0.25500000920E-02 0.  1.
    10030    2    1    2    0    0  0.00000000000E+00  0.00000000000E+00  0.57519314192E+03  0.21489392845E+04  0.20705296178E+04 0.  0.
        3    1    3    3  502    0 -0.36370582037E+03  0.69586233606E+03  0.98788304173E+03  0.12619109433E+04  0.10100000352E+00 0. -1.
       -3    1    3    3    0  502  0.36370582037E+03 -0.69586233606E+03 -0.41268989981E+03  0.88702834122E+03  0.10100000352E+00 0.  1.
</event>
<event>
 5   0  0.8525278E-05  0.2112236E+04  0.7818609E-02  0.8555873E-01
        1   -1    0    0  501    0  0.00000000000E+00  0.00000000000E+00  0.22324142562E+04  0.22324142562E+04  0.50400001928E-02 0. -1.
       -1   -1    0    0    0  501  0.00000000000E+00  0.00000000000E+00 -0.49963159942E+03  0.49963159945E+03  0.50400001928E-02 0.  1.
    10030    2    1    2    0    0  0.00000000000E+00  0.00000000000E+00  0.17327826568E+04  0.27320458557E+04  0.21122355034E+04 0.  0.
        4    1    3    3  502    0 -0.13964204006E+03 -0.86560963084E+03  0.10490535972E+03  0.88305530957E+03  0.12699999809E+01 0.  1.
       -4    1    3    3    0  502  0.13964204006E+03  0.86560963084E+03  0.16278772971E+04  0.18489905461E+04  0.12699999809E+01 0. -1.
</event>
<event>
 5   0  0.1810875E-04  0.2122740E+04  0.7818609E-02  0.8551292E-01
       -2   -1    0    0    0  501  0.00000000000E+00  0.00000000000E+00  0.38564249695E+03  0.38564249696E+03  0.25500000920E-02 0.  1.
        2   -1    0    0  501    0  0.00000000000E+00  0.00000000000E+00 -0.29211158075E+04  0.29211158075E+04  0.25500000920E-02 0. -1.
    10030    2    1    2    0    0  0.00000000000E+00  0.00000000000E+00 -0.25354733105E+04  0.33067583044E+04  0.21227401102E+04 0.  0.
        1    1    3    3  502    0  0.51671217440E+02  0.10376001668E+04 -0.92922039790E+03  0.13938201350E+04  0.50400001928E-02 0. -1.
       -1    1    3    3    0  502 -0.51671217440E+02 -0.10376001668E+04 -0.16062529126E+04  0.19129381695E+04  0.50400001928E-02 0.  1.
</event>
<event>
 5   0  0.8271069E-05  0.2105614E+04  0.7818609E-02  0.8558774E-01
        1   -1    0    0  501    0  0.00000000000E+00  0.00000000000E+00  0.13686387076E+04  0.13686387076E+04  0.50400001928E-02 0.  1.
       -1   -1    0    0    0  501  0.00000000000E+00  0.00000000000E+00 -0.80985806989E+03  0.80985806991E+03  0.50400001928E-02 0. -1.
    10030    2    1    2    0    0  0.00000000000E+00  0.00000000000E+00  0.55878063772E+03  0.21784967775E+04  0.21056144967E+04 0.  0.
        2    1    3    3  502    0  0.43157111415E+03  0.23642876959E+03 -0.68355119997E+03  0.84225556255E+03  0.25500000920E-02 0. -1.
       -2    1    3    3    0  502 -0.43157111415E+03 -0.23642876959E+03  0.12423318377E+04  0.13362412150E+04  0.25500000920E-02 0.  1.
</event>
<event>
 5   0  0.8237966E-05  0.2043660E+04  0.7818609E-02  0.8586476E-01
        1   -1    0    0  501    0  0.00000000000E+00  0.00000000000E+00  0.54851773166E+03  0.54851773168E+03  0.50400001928E-02 0. -1.
       -1   -1    0    0    0  501  0.00000000000E+00  0.00000000000E+00 -0.19035610483E+04  0.19035610483E+04  0.50400001928E-02 0.  1.
    10030    2    1    2    0    0  0.00000000000E+00  0.00000000000E+00 -0.13550433167E+04  0.24520787800E+04  0.20436604300E+04 0.  0.
        1    1    3    3  502    0  0.58910311963E+03 -0.40149318080E+02 -0.16781407782E+04  0.17789915472E+04  0.50400001928E-02 0.  1.
       -1    1    3    3    0  502 -0.58910311963E+03  0.40149318080E+02  0.32309746158E+03  0.67308723284E+03  0.50400001928E-02 0. -1.
</event>
<event>
 5   0  0.8486612E-05  0.1622509E+04  0.7818609E-02  0.8806838E-01
        1   -1    0    0  501    0  0.00000000000E+00  0.00000000000E+00  0.14560267890E+04  0.14560267890E+04  0.50400001928E-02 0. -1.
       -1   -1    0    0    0  501  0.00000000000E+00  0.00000000000E+00 -0.45200656354E+03  0.45200656357E+03  0.50400001928E-02 0.  1.
    10030    2    1    2    0    0  0.00000000000E+00  0.00000000000E+00  0.10040202254E+04  0.19080333525E+04  0.16225087554E+04 0.  0.
        5    1    3    3  502    0 -0.58146615145E+03 -0.14447510609E+03  0.11451907891E+04  0.12924627558E+04  0.46999998093E+01 0. -1.
       -5    1    3    3    0  502  0.58146615145E+03  0.14447510609E+03 -0.14117056369E+03  0.61557059677E+03  0.46999998093E+01 0.  1.
</event>
<event>
 5   0  0.1886323E-04  0.2028961E+04  0.7818609E-02  0.8593199E-01
        2   -1    0    0  501    0  0.00000000000E+00  0.00000000000E+00  0.18582194716E+04  0.18582194716E+04  0.25500000920E-02 0. -1.
       -2   -1    0    0    0  501  0.00000000000E+00  0.00000000000E+00 -0.55384776034E+03  0.55384776034E+03  0.25500000920E-02 0.  1.
    10030    2    1    2    0    0  0.00000000000E+00  0.00000000000E+00  0.13043717112E+04  0.24120672319E+04  0.20289610076E+04 0.  0.
        2    1    3    3  502    0 -0.97327202507E+03 -0.40295495122E+02  0.31533127026E+03  0.10238730252E+04  0.25500000920E-02 0.  1.
       -2    1    3    3    0  502  0.97327202507E+03  0.40295495122E+02  0.98904044099E+03  0.13881942067E+04  0.25500000920E-02 0. -1.
</event>
<event>
 5   0  0.1810875E-04  0.2095695E+04  0.7818609E-02  0.8563142E-01
        2   -1    0    0  501    0  0.00000000000E+00  0.00000000000E+00  0.18028910807E+04  0.18028910807E+04  0.25500000920E-02 0.  1.
       -2   -1    0    0    0  501  0.00000000000E+00  0.00000000000E+00 -0.60901342608E+03  0.60901342608E+03  0.25500000920E-02 0. -1.
    10030    2    1    2    0    0  0.00000000000E+00  0.00000000000E+00  0.11938776546E+04  0.24119045068E+04  0.20956954682E+04 0.  0.
        1    1    3    3  502    0  0.59152520076E+03  0.59386177595E+03 -0.12675740093E+03  0.84772714406E+03  0.50400001928E-02 0. -1.
       -1    1    3    3    0  502 -0.59152520076E+03 -0.59386177595E+03  0.13206350555E+04  0.15641773627E+04  0.50400001928E-02 0.  1.
</event>
<event>
 5   0  0.1921687E-04  0.2089240E+04  0.7818609E-02  0.8565998E-01
        2   -1    0    0  501    0  0.00000000000E+00  0.00000000000E+00  0.13898118020E+04  0.13898118020E+04  0.25500000920E-02 0. -1.
       -2   -1    0    0    0  501  0.00000000000E+00  0.00000000000E+00 -0.78516477122E+03  0.78516477123E+03  0.25500000920E-02 0.  1.
    10030    2    1    2    0    0  0.00000000000E+00  0.00000000000E+00  0.60464703073E+03  0.21749765732E+04  0.20892403074E+04 0.  0.
        5    1    3    3  502    0  0.30324889003E+02  0.67250572893E+03 -0.52922050903E+03  0.85631769309E+03  0.46999998093E+01 0.  1.
       -5    1    3    3    0  502 -0.30324889003E+02 -0.67250572893E+03  0.11338675398E+04  0.13186588801E+04  0.46999998093E+01 0. -1.
</event>
<event>
 5   0  0.6441125E-05  0.2093179E+04  0.7818609E-02  0.8564254E-01
       -3   -1    0    0    0  501  0.00000000000E+00  0.00000000000E+00  0.12521750058E+04  0.12521750099E+04  0.10100000352E+00 0.  1.
        3   -1    0    0  501    0  0.00000000000E+00  0.00000000000E+00 -0.87475736662E+03  0.87475737245E+03  0.10100000352E+00 0. -1.
    10030    2    1    2    0    0  0.00000000000E+00  0.00000000000E+00  0.37741763917E+03  0.21269323823E+04  0.20931787512E+04 0.  0.
        5    1    3    3  502    0  0.91694567369E+03 -0.49539262192E+03  0.28576882438E+03  0.10806891918E+04  0.46999998093E+01 0. -1.
       -5    1    3    3    0  502 -0.91694567369E+03  0.49539262192E+03  0.91648814792E+02  0.10462431905E+04  0.46999998093E+01 0.  1.
</event>
<event>
 5   0  0.8271069E-05  0.2147754E+04  0.7818609E-02  0.8540494E-01
       -1   -1    0    0    0  501  0.00000000000E+00  0.00000000000E+00  0.13576800510E+04  0.13576800511E+04  0.50400001928E-02 0. -1.
        1   -1    0    0  501    0  0.00000000000E+00  0.00000000000E+00 -0.84939894805E+03  0.84939894806E+03  0.50400001928E-02 0.  1.
    10030    2    1    2    0    0  0.00000000000E+00  0.00000000000E+00  0.50828110300E+03  0.22070789991E+04  0.21477541826E+04 0.  0.
        2    1    3    3  502    0  0.83066783307E+03  0.14274335271E+03  0.93797424485E+03  0.12610235516E+04  0.25500000920E-02 0. -1.
       -2    1    3    3    0  502 -0.83066783307E+03 -0.14274335271E+03 -0.42969314186E+03  0.94605544753E+03  0.25500000920E-02 0.  1.
</event>
<event>
 5   0  0.1777590E-04  0.1864033E+04  0.7818609E-02  0.8672969E-01
        2   -1    0    0  501    0  0.00000000000E+00  0.00000000000E+00  0.90865378000E+03  0.90865378000E+03  0.25500000920E-02 0.  1.
       -2   -1    0    0    0  501  0.00000000000E+00  0.00000000000E+00 -0.95598032004E+03  0.95598032004E+03  0.25500000920E-02 0. -1.
    10030    2    1    2    0    0  0.00000000000E+00  0.00000000000E+00 -0.47326540036E+02  0.18646341000E+04  0.18640334025E+04 0.  0.
        4    1    3    3  502    0  0.47203002942E+03 -0.79282561173E+03 -0.15511611689E+03  0.93565347320E+03  0.12699999809E+01 0.  1.
       -4    1    3    3    0  502 -0.47203002942E+03  0.79282561173E+03  0.10778957685E+03  0.92898062685E+03  0.12699999809E+01 0. -1.
</event>
<event>
 5   0  0.1810875E-04  0.2060631E+04  0.7818609E-02  0.8578787E-01
       -2   -1    0    0    0  501  0.00000000000E+00  0.00000000000E+00  0.15706824889E+04  0.15706824889E+04  0.25500000920E-02 0.  1.
        2   -1    0    0  501    0  0.00000000000E+00  0.00000000000E+00 -0.67585269245E+03  0.67585269245E+03  0.25500000920E-02 0. -1.
    10030    2    1    2    0    0  0.00000000000E+00  0.00000000000E+00  0.89482979650E+03  0.22465351814E+04  0.20606309608E+04 0.  0.
        1    1    3    3  502    0  0.32532118713E+03  0.79775541868E+03 -0.16863245935E+03  0.87788637602E+03  0.50400001928E-02 0. -1.
       -1    1    3    3    0  502 -0.32532118713E+03 -0.79775541868E+03  0.10634622558E+04  0.13686488054E+04  0.50400001928E-02 0.  1.
</event>
<event>
 5   0  0.8237966E-05  0.2113549E+04  0.7818609E-02  0.8555298E-01
        1   -1    0    0  501    0  0.00000000000E+00  0.00000000000E+00  0.11404504410E+04  0.11404504410E+04  0.50400001928E-02 0. -1.
       -1   -1    0    0    0  501  0.00000000000E+00  0.00000000000E+00 -0.97923770530E+03  0.97923770531E+03  0.50400001928E-02 0.  1.
    10030    2    1    2    0    0  0.00000000000E+00  0.00000000000E+00  0.16121273571E+03  0.21196881463E+04  0.21135487436E+04 0.  0.
        1    1    3    3  502    0 -0.79560570189E+03  0.59552437421E+03 -0.27979016956E+03  0.10324341394E+04  0.50400001928E-02 0.  1.
       -1    1    3    3    0  502  0.79560570189E+03 -0.59552437421E+03  0.44100290526E+03  0.10872540069E+04  0.50400001928E-02 0. -1.
</event>
<event>
 5   0  0.8486612E-05  0.2052056E+04  0.7818609E-02  0.8582662E-01
       -1   -1    0    0    0  501  0.00000000000E+00  0.00000000000E+00  0.63810875323E+03  0.63810875325E+03  0.50400001928E-02 0.  1.
        1   -1    0    0  501    0  0.00000000000E+00  0.00000000000E+00 -0.16497707892E+04  0.16497707892E+04  0.50400001928E-02 0. -1.
    10030    2    1    2    0    0  0.00000000000E+00  0.00000000000E+00 -0.10116620359E+04  0.22878795424E+04  0.20520557316E+04 0.  0.
        5    1    3    3  502    0 -0.33321461461E+03 -0.14561631063E+03  0.56383944256E+03  0.67094939921E+03  0.46999998093E+01 0.  1.
       -5    1    3    3    0  502  0.33321461461E+03  0.14561631063E+03 -0.15755014785E+04  0.16169301432E+04  0.46999998093E+01 0. -1.
</event>
<event>
 5   0  0.1921687E-04  0.2119345E+04  0.7818609E-02  0.8552769E-01
        2   -1    0    0  501    0  0.00000000000E+00  0.00000000000E+00  0.12405856895E+04  0.12405856895E+04  0.25500000920E-02 0.  1.
       -2   -1    0    0    0  501  0.00000000000E+00  0.00000000000E+00 -0.90514194185E+03  0.90514194185E+03  0.25500000920E-02 0. -1.
    10030    2    1    2    0    0  0.00000000000E+00  0.00000000000E+00  0.33544374765E+03  0.21457276314E+04  0.21193453140E+04 0.  0.
        5    1    3    3  502    0  0.11046781343E+02 -0.15499480856E+03 -0.89353390091E+03  0.90695663851E+03  0.46999998093E+01 0. -1.
       -5    1    3    3    0  502 -0.11046781343E+02  0.15499480856E+03  0.12289776486E+04  0.12387709929E+04  0.46999998093E+01 0.  1.
</event>
<event>
 5   0  0.1921687E-04  0.2695307E+04  0.7818609E-02  0.8336529E-01
       -2   -1    0    0    0  501  0.00000000000E+00  0.00000000000E+00  0.11898829262E+04  0.11898829262E+04  0.25500000920E-02 0. -1.
        2   -1    0    0  501    0  0.00000000000E+00  0.00000000000E+00 -0.15263436641E+04  0.15263436641E+04  0.25500000920E-02 0.  1.
    10030    2    1    2    0    0  0.00000000000E+00  0.00000000000E+00 -0.33646073789E+03  0.27162265903E+04  0.26953072296E+04 0.  0.
        5    1    3    3  502    0 -0.95737147418E+03  0.75641855064E+03 -0.74487687790E+03  0.14295428698E+04  0.46999998093E+01 0.  1.
       -5    1    3    3    0  502  0.95737147418E+03 -0.75641855064E+03  0.40841614001E+03  0.12866837206E+04  0.46999998093E+01 0. -1.
</event>
<event>
 5   0  0.1921687E-04  0.2082701E+04  0.7818609E-02  0.8568902E-01
       -2   -1    0    0    0  501  0.00000000000E+00  0.00000000000E+00  0.44876594199E+03  0.44876594200E+03  0.25500000920E-02 0.  1.
        2   -1    0    0  501    0  0.00000000000E+00  0.00000000000E+00 -0.24164276186E+04  0.24164276186E+04  0.25500000920E-02 0. -1.
    10030    2    1    2    0    0  0.00000000000E+00  0.00000000000E+00 -0.19676616766E+04  0.28651935606E+04  0.20827005704E+04 0.  0.
        5    1    3    3  502    0  0.10542924173E+03 -0.12509680081E+03  0.43096162113E+03  0.46099299721E+03  0.46999998093E+01 0.  1.
       -5    1    3    3    0  502 -0.10542924173E+03  0.12509680081E+03 -0.23986232977E+04  0.24042005634E+04  0.46999998093E+01 0. -1.
</event>
<event>
 5   0  0.1777590E-04  0.2194821E+04  0.7818609E-02  0.8520587E-01
        2   -1    0    0  501    0  0.00000000000E+00  0.00000000000E+00  0.16673203746E+04  0.16673203746E+04  0.25500000920E-02 0. -1.
       -2   -1    0    0    0  501  0.00000000000E+00  0.00000000000E+00 -0.72230277338E+03  0.72230277339E+03  0.25500000920E-02 0.  1.
    10030    2    1    2    0    0  0.00000000000E+00  0.00000000000E+00  0.94501760120E+03  0.23896231480E+04  0.21948212963E+04 0.  0.
        4    1    3    3  502    0  0.21570637124E+03  0.45233973489E+03  0.15354640666E+04  0.16151755282E+04  0.12699999809E+01 0. -1.
       -4    1    3    3    0  502 -0.21570637124E+03 -0.45233973489E+03 -0.59044646537E+03  0.77444761974E+03  0.12699999809E+01 0.  1.
</event>
<event>
 5   0  0.1777590E-04  0.2085544E+04  0.7818609E-02  0.8567638E-01
        2   -1    0    0  501    0  0.00000000000E+00  0.00000000000E+00  0.12298307425E+04  0.12298307425E+04  0.25500000920E-02 0.  1.
       -2   -1    0    0    0  501  0.00000000000E+00  0.00000000000E+00 -0.88416485189E+03  0.88416485189E+03  0.25500000920E-02 0. -1.
    10030    2    1    2    0    0  0.00000000000E+00  0.00000000000E+00  0.34566589065E+03  0.21139955944E+04  0.20855436858E+04 0.  0.
        4    1    3    3  502    0 -0.76164208608E+03  0.57027271925E+03 -0.25967518551E+03  0.98627706882E+03  0.12699999809E+01 0. -1.
       -4    1    3    3    0  502  0.76164208608E+03 -0.57027271925E+03  0.60534107616E+03  0.11277185256E+04  0.12699999809E+01 0.  1.
</event>
<event>
 5   0  0.8486612E-05  0.2081103E+04  0.7818609E-02  0.8569614E-01
        1   -1    0    0  501    0  0.00000000000E+00  0.00000000000E+00  0.10019712519E+04  0.10019712519E+04  0.50400001928E-02 0.  1.
       -1   -1    0    0    0  501  0.00000000000E+00  0.00000000000E+00 -0.10806174972E+04  0.10806174972E+04  0.50400001928E-02 0. -1.
    10030    2    1    2    0    0  0.00000000000E+00  0.00000000000E+00 -0.78646245292E+02  0.20825887492E+04  0.20811032330E+04 0.  0.
        5    1    3    3  502    0  0.66813449061E+03 -0.59002919588E+03 -0.57653722996E+03  0.10615815640E+04  0.46999998093E+01 0. -1.
       -5    1    3    3    0  502 -0.66813449061E+03  0.59002919588E+03  0.49789098467E+03  0.10210071852E+04  0.46999998093E+01 0.  1.
</event>
<event>
 5   0  0.1815400E-04  0.2105106E+04  0.7818609E-02  0.8558998E-01
       -2   -1    0    0    0  501  0.00000000000E+00  0.00000000000E+00  0.77512327037E+03  0.77512327037E+03  0.25500000920E-02 0.  1.
        2   -1    0    0  501    0  0.00000000000E+00  0.00000000000E+00 -0.14292789167E+04  0.14292789167E+04  0.25500000920E-02 0. -1.
    10030    2    1    2    0    0  0.00000000000E+00  0.00000000000E+00 -0.65415564631E+03  0.22044021871E+04  0.21051055538E+04 0.  0.
        3    1    3    3  502    0  0.35857159109E+03  0.94982041361E+03 -0.61791003894E+03  0.11885054609E+04  0.10100000352E+00 0. -1.
       -3    1    3    3    0  502 -0.35857159109E+03 -0.94982041361E+03 -0.36245607373E+02  0.10158967262E+04  0.10100000352E+00 0.  1.
</event>
<event>
 5   0  0.1777590E-04  0.2093911E+04  0.7818609E-02  0.8563930E-01
       -2   -1    0    0    0  501  0.00000000000E+00  0.00000000000E+00  0.56218572841E+03  0.56218572841E+03  0.25500000920E-02 0.  1.
        2   -1    0    0  501    0  0.00000000000E+00  0.00000000000E+00 -0.19497393546E+04  0.19497393546E+04  0.25500000920E-02 0. -1.
    10030    2    1    2    0    0  0.00000000000E+00  0.00000000000E+00 -0.13875536262E+04  0.25119250830E+04  0.20939108284E+04 0.  0.
        4    1    3    3  502    0 -0.73554612010E+02 -0.37991628000E+03  0.47324339865E+03  0.61131627495E+03  0.12699999809E+01 0.  1.
       -4    1    3    3    0  502  0.73554612010E+02  0.37991628000E+03 -0.18607970248E+04  0.19006088081E+04  0.12699999809E+01 0. -1.
</event>
<event>
 5   0  0.8755004E-05  0.2094605E+04  0.7818609E-02  0.8563624E-01
       -1   -1    0    0    0  501  0.00000000000E+00  0.00000000000E+00  0.10787736471E+04  0.10787736472E+04  0.50400001928E-02 0. -1.
        1   -1    0    0  501    0  0.00000000000E+00  0.00000000000E+00 -0.10167496585E+04  0.10167496586E+04  0.50400001928E-02 0.  1.
    10030    2    1    2    0    0  0.00000000000E+00  0.00000000000E+00  0.62023988597E+02  0.20955233057E+04  0.20946052014E+04 0.  0.
        3    1    3    3  502    0  0.98266133094E+03  0.31128318358E+03  0.21635575657E+03  0.10532475185E+04  0.10100000352E+00 0. -1.
       -3    1    3    3    0  502 -0.98266133094E+03 -0.31128318358E+03 -0.15433176797E+03  0.10422757872E+04  0.10100000352E+00 0.  1.
</event>
<event>
 5   0  0.1921687E-04  0.2151475E+04  0.7818609E-02  0.8538901E-01
        2   -1    0    0  501    0  0.00000000000E+00  0.00000000000E+00  0.18756308433E+04  0.18756308433E+04  0.25500000920E-02 0.  1.
       -2   -1    0    0    0  501  0.00000000000E+00  0.00000000000E+00 -0.61697166230E+03  0.61697166231E+03  0.25500000920E-02 0. -1.
    10030    2    1    2    0    0  0.00000000000E+00  0.00000000000E+00  0.12586591810E+04  0.24926025056E+04  0.21514749167E+04 0.  0.
        5    1    3    3  502    0 -0.79853701855E+01 -0.10753549037E+04  0.59787627448E+03  0.12304186542E+04  0.46999998093E+01 0.  1.
       -5    1    3    3    0  502  0.79853701855E+01  0.10753549037E+04  0.66078290651E+03  0.12621838514E+04  0.46999998093E+01 0. -1.
</event>
<event>
 5   0  0.1886323E-04  0.2082223E+04  0.7818609E-02  0.8569115E-01
       -2   -1    0    0    0  501  0.00000000000E+00  0.00000000000E+00  0.86434538467E+03  0.86434538467E+03  0.25500000920E-02 0.  1.
        2   -1    0    0  501    0  0.00000000000E+00  0.00000000000E+00 -0.12540279297E+04  0.12540279297E+04  0.25500000920E-02 0. -1.
    10030    2    1    2    0    0  0.00000000000E+00  0.00000000000E+00 -0.38968254500E+03  0.21183733143E+04  0.20822230940E+04 0.  0.
        2    1    3    3  502    0 -0.63326328839E+03 -0.64554464834E+03  0.33002546764E+03  0.96263549421E+03  0.25500000920E-02 0.  1.
       -2    1    3    3    0  502  0.63326328839E+03  0.64554464834E+03 -0.71970801264E+03  0.11557378201E+04  0.25500000920E-02 0. -1.
</event>
<event>
 5   0  0.8237966E-05  0.2113650E+04  0.7818609E-02  0.8555254E-01
        1   -1    0    0  501    0  0.00000000000E+00  0.00000000000E+00  0.12584866893E+04  0.12584866894E+04  0.50400001928E-02 0.  1.
       -1   -1    0    0    0  501  0.00000000000E+00  0.00000000000E+00 -0.88747826701E+03  0.88747826703E+03  0.50400001928E-02 0. -1.
    10030    2    1    2    0    0  0.00000000000E+00  0.00000000000E+00  0.37100842233E+03  0.21459649564E+04  0.21136504783E+04 0.  0.
        1    1    3    3  502    0 -0.16418203064E+03  0.97108289327E+03 -0.20365979391E+03  0.10057012660E+04  0.50400001928E-02 0. -1.
       -1    1    3    3    0  502  0.16418203064E+03 -0.97108289327E+03  0.57466821624E+03  0.11402636904E+04  0.50400001928E-02 0.  1.
</event>
<event>
 5   0  0.1921687E-04  0.2075448E+04  0.7818609E-02  0.8572136E-01
        2   -1    0    0  501    0  0.00000000000E+00  0.00000000000E+00  0.19455418190E+04  0.19455418190E+04  0.25500000920E-02 0. -1.
       -2   -1    0    0    0  501  0.00000000000E+00  0.00000000000E+00 -0.55350720381E+03  0.55350720382E+03  0.25500000920E-02 0.  1.
    10030    2    1    2    0    0  0.00000000000E+00  0.00000000000E+00  0.13920346151E+04  0.24990490228E+04  0.20754483006E+04 0.  0.
        5    1    3    3  502    0 -0.29640858312E+03 -0.78202337033E+03 -0.43726741373E+02  0.83746803987E+03  0.46999998093E+01 0.  1.
       -5    1    3    3    0  502  0.29640858312E+03  0.78202337033E+03  0.14357613565E+04  0.16615809829E+04  0.46999998093E+01 0. -1.
</event>
<event>
 5   0  0.6441125E-05  0.2089371E+04  0.7818609E-02  0.8565940E-01
       -4   -1    0    0    0  501  0.00000000000E+00  0.00000000000E+00  0.11280138795E+04  0.11280145944E+04  0.12699999809E+01 0. -1.
        4   -1    0    0  501    0  0.00000000000E+00  0.00000000000E+00 -0.96751166224E+03  0.96751249577E+03  0.12699999809E+01 0.  1.
    10030    2    1    2    0    0  0.00000000000E+00  0.00000000000E+00  0.16050221721E+03  0.20955270902E+04  0.20893713944E+04 0.  0.
        3    1    3    3  502    0 -0.58017167662E+03  0.80703103141E+02  0.94781755674E+03  0.11142128595E+04  0.10100000352E+00 0. -1.
       -3    1    3    3    0  502  0.58017167662E+03 -0.80703103141E+02 -0.78731533954E+03  0.98131423065E+03  0.10100000352E+00 0.  1.
</event>
<event>
 5   0  0.1815400E-04  0.2064100E+04  0.7818609E-02  0.8577225E-01
        2   -1    0    0  501    0  0.00000000000E+00  0.00000000000E+00  0.17389698299E+04  0.17389698299E+04  0.25500000920E-02 0.  1.
       -2   -1    0    0    0  501  0.00000000000E+00  0.00000000000E+00 -0.61250475491E+03  0.61250475492E+03  0.25500000920E-02 0. -1.
    10030    2    1    2    0    0  0.00000000000E+00  0.00000000000E+00  0.11264650750E+04  0.23514745848E+04  0.20641000843E+04 0.  0.
        3    1    3    3  502    0  0.59231303762E+03 -0.68294092241E+03 -0.39645559706E+01  0.90402365342E+03  0.10100000352E+00 0. -1.
       -3    1    3    3    0  502 -0.59231303762E+03  0.68294092241E+03  0.11304296309E+04  0.14474509314E+04  0.10100000352E+00 0.  1.
</event>
<event>
 5   0  0.8271069E-05  0.2098596E+04  0.7818609E-02  0.8561862E-01
        1   -1    0    0  501    0  0.00000000000E+00  0.00000000000E+00  0.18512499362E+04  0.18512499362E+04  0.50400001928E-02 0.  1.
       -1   -1    0    0    0  501  0.00000000000E+00  0.00000000000E+00 -0.59474760899E+03  0.59474760901E+03  0.50400001928E-02 0. -1.
    10030    2    1    2    0    0  0.00000000000E+00  0.00000000000E+00  0.12565023272E+04  0.24459975452E+04  0.20985961720E+04 0.  0.
        2    1    3    3  502    0  0.66236900590E+03  0.37441684454E+03 -0.21393169800E+03  0.79037171310E+03  0.25500000920E-02 0. -1.
       -2    1    3    3    0  502 -0.66236900590E+03 -0.37441684454E+03  0.14704340252E+04  0.16556258321E+04  0.25500000920E-02 0.  1.
</event>
<event>
 5   0  0.8486612E-05  0.2028817E+04  0.7818609E-02  0.8593265E-01
        1   -1    0    0  501    0  0.00000000000E+00  0.00000000000E+00  0.11491596395E+04  0.11491596395E+04  0.50400001928E-02 0.  1.
       -1   -1    0    0    0  501  0.00000000000E+00  0.00000000000E+00 -0.89545856483E+03  0.89545856484E+03  0.50400001928E-02 0. -1.
    10030    2    1    2    0    0  0.00000000000E+00  0.00000000000E+00  0.25370107467E+03  0.20446182043E+04  0.20288172333E+04 0.  0.
        5    1    3    3  502    0 -0.30121060451E+03  0.24049912100E+03  0.10724734160E+04  0.11396442311E+04  0.46999998093E+01 0.  1.
       -5    1    3    3    0  502  0.30121060451E+03 -0.24049912100E+03 -0.81877234128E+03  0.90497397328E+03  0.46999998093E+01 0. -1.
</event>
<event>
 5   0  0.1886323E-04  0.2102421E+04  0.7818609E-02  0.8560178E-01
       -2   -1    0    0    0  501  0.00000000000E+00  0.00000000000E+00  0.95798610265E+03  0.95798610265E+03  0.25500000920E-02 0.  1.
        2   -1    0    0  501    0  0.00000000000E+00  0.00000000000E+00 -0.11535064728E+04  0.11535064728E+04  0.25500000920E-02 0. -1.
    10030    2    1    2    0    0  0.00000000000E+00  0.00000000000E+00 -0.19552037015E+03  0.21114925755E+04  0.21024206718E+04 0.  0.
        2    1    3    3  502    0  0.85174679650E+01  0.68321067579E+03 -0.90007761933E+03  0.11300394221E+04  0.25500000920E-02 0. -1.
       -2    1    3    3    0  502 -0.85174679650E+01 -0.68321067579E+03  0.70455724918E+03  0.98145315331E+03  0.25500000920E-02 0.  1.
</event>
<event>
 5   0  0.1810875E-04  0.2129640E+04  0.7818609E-02  0.8548298E-01
        2   -1    0    0  501    0  0.00000000000E+00  0.00000000000E+00  0.12419031584E+04  0.12419031584E+04  0.25500000920E-02 0.  1.
       -2   -1    0    0    0  501  0.00000000000E+00  0.00000000000E+00 -0.91298747079E+03  0.91298747079E+03  0.25500000920E-02 0. -1.
    10030    2    1    2    0    0  0.00000000000E+00  0.00000000000E+00  0.32891568757E+03  0.21548906291E+04  0.21296403673E+04 0.  0.
        1    1    3    3  502    0 -0.24206706976E+01 -0.10559456874E+04  0.30325148310E+03  0.10986303365E+04  0.50400001928E-02 0. -1.
       -1    1    3    3    0  502  0.24206706976E+01  0.10559456874E+04  0.25664204466E+02  0.10562602926E+04  0.50400001928E-02 0.  1.
</event>
<event>
 5   0  0.8525278E-05  0.2350149E+04  0.7818609E-02  0.8458407E-01
       -1   -1    0    0    0  501  0.00000000000E+00  0.00000000000E+00  0.12482077858E+04  0.12482077858E+04  0.50400001928E-02 0.  1.
        1   -1    0    0  501    0  0.00000000000E+00  0.00000000000E+00 -0.11062257919E+04  0.11062257919E+04  0.50400001928E-02 0. -1.
    10030    2    1    2    0    0  0.00000000000E+00  0.00000000000E+00  0.14198199394E+03  0.23544335778E+04  0.23501486305E+04 0.  0.
        4    1    3    3  502    0  0.28008020332E+03  0.84963133718E+03  0.83427231610E+03  0.12232457806E+04  0.12699999809E+01 0.  1.
       -4    1    3    3    0  502 -0.28008020332E+03 -0.84963133718E+03 -0.69229032216E+03  0.11311877972E+04  0.12699999809E+01 0. -1.
</event>
<event>
 5   0  0.8755004E-05  0.2080867E+04  0.7818609E-02  0.8569719E-01
        1   -1    0    0  501    0  0.00000000000E+00  0.00000000000E+00  0.10977790641E+04  0.10977790642E+04  0.50400001928E-02 0.  1.
       -1   -1    0    0    0  501  0.00000000000E+00  0.00000000000E+00 -0.98608309667E+03  0.98608309668E+03  0.50400001928E-02 0. -1.
    10030    2    1    2    0    0  0.00000000000E+00  0.00000000000E+00  0.11169596748E+03  0.20838621608E+04  0.20808665301E+04 0.  0.
        3    1    3    3  502    0 -0.13649357258E+03  0.98582602912E+03  0.35962922716E+03  0.10582138944E+04  0.10100000352E+00 0.  1.
       -3    1    3    3    0  502  0.13649357258E+03 -0.98582602912E+03 -0.24793325968E+03  0.10256482665E+04  0.10100000352E+00 0. -1.
</event>
<event>
 5   0  0.1886323E-04  0.2084340E+04  0.7818609E-02  0.8568173E-01
       -2   -1    0    0    0  501  0.00000000000E+00  0.00000000000E+00  0.12666476247E+04  0.12666476247E+04  0.25500000920E-02 0.  1.
        2   -1    0    0  501    0  0.00000000000E+00  0.00000000000E+00 -0.85747475149E+03  0.85747475149E+03  0.25500000920E-02 0. -1.
    10030    2    1    2    0    0  0.00000000000E+00  0.00000000000E+00  0.40917287322E+03  0.21241223762E+04  0.20843400464E+04 0.  0.
        2    1    3    3  502    0 -0.75520275868E+03 -0.74430216732E+02  0.93253604391E+03  0.12022872107E+04  0.25500000920E-02 0. -1.
       -2    1    3    3    0  502  0.75520275868E+03  0.74430216732E+02 -0.52336317069E+03  0.92183516548E+03  0.25500000920E-02 0.  1.
</event>
<event>
 5   0  0.8237966E-05  0.2095528E+04  0.7818609E-02  0.8563216E-01
       -1   -1    0    0    0  501  0.00000000000E+00  0.00000000000E+00  0.41600398757E+03  0.41600398760E+03  0.50400001928E-02 0.  1.
        1   -1    0    0  501    0  0.00000000000E+00  0.00000000000E+00 -0.26389396455E+04  0.26389396455E+04  0.50400001928E-02 0. -1.
    10030    2    1    2    0    0  0.00000000000E+00  0.00000000000E+00 -0.22229356580E+04  0.30549436331E+04  0.20955280151E+04 0.  0.
        1    1    3    3  502    0 -0.70151671359E+03  0.32737993296E+03 -0.21407749248E+04  0.22764491206E+04  0.50400001928E-02 0. -1.
       -1    1    3    3    0  502  0.70151671359E+03 -0.32737993296E+03 -0.82160733128E+02  0.77849451253E+03  0.50400001928E-02 0.  1.
</event>
<event>
 5   0  0.8237966E-05  0.2060216E+04  0.7818609E-02  0.8578974E-01
       -1   -1    0    0    0  501  0.00000000000E+00  0.00000000000E+00  0.82036261290E+03  0.82036261291E+03  0.50400001928E-02 0.  1.
        1   -1    0    0  501    0  0.00000000000E+00  0.00000000000E+00 -0.12934802751E+04  0.12934802751E+04  0.50400001928E-02 0. -1.
    10030    2    1    2    0    0  0.00000000000E+00  0.00000000000E+00 -0.47311766218E+03  0.21138428880E+04  0.20602163558E+04 0.  0.
        1    1    3    3  502    0 -0.16827715376E+03 -0.97148579687E+03 -0.54268899142E+03  0.11254391123E+04  0.50400001928E-02 0. -1.
       -1    1    3    3    0  502  0.16827715376E+03  0.97148579687E+03  0.69571329237E+02  0.98840377573E+03  0.50400001928E-02 0.  1.
</event>
<event>
 5   0  0.8271069E-05  0.2094339E+04  0.7818609E-02  0.8563741E-01
       -1   -1    0    0    0  501  0.00000000000E+00  0.00000000000E+00  0.16498970017E+04  0.16498970017E+04  0.50400001928E-02 0. -1.
        1   -1    0    0  501    0  0.00000000000E+00  0.00000000000E+00 -0.66462594376E+03  0.66462594378E+03  0.50400001928E-02 0.  1.
    10030    2    1    2    0    0  0.00000000000E+00  0.00000000000E+00  0.98527105790E+03  0.23145229455E+04  0.20943393726E+04 0.  0.
        2    1    3    3  502    0  0.64723431571E+03 -0.42160384437E+03  0.12740060037E+04  0.14898836728E+04  0.25500000920E-02 0. -1.
       -2    1    3    3    0  502 -0.64723431571E+03  0.42160384437E+03 -0.28873494581E+03  0.82463927263E+03  0.25500000920E-02 0.  1.
</event>
<event>
 5   0  0.1777590E-04  0.2085510E+04  0.7818609E-02  0.8567654E-01
        2   -1    0    0  501    0  0.00000000000E+00  0.00000000000E+00  0.62075218577E+03  0.62075218578E+03  0.25500000920E-02 0.  1.
       -2   -1    0    0    0  501  0.00000000000E+00  0.00000000000E+00 -0.17516451027E+04  0.17516451027E+04  0.25500000920E-02 0. -1.
    10030    2    1    2    0    0  0.00000000000E+00  0.00000000000E+00 -0.11308929169E+04  0.23723972885E+04  0.20855095552E+04 0.  0.
        4    1    3    3  502    0  0.95957224017E+03 -0.30770604546E+03 -0.87041932325E+03  0.13315754976E+04  0.12699999809E+01 0. -1.
       -4    1    3    3    0  502 -0.95957224017E+03  0.30770604546E+03 -0.26047359367E+03  0.10408217909E+04  0.12699999809E+01 0.  1.
</event>
<event>
 5   0  0.6441125E-05  0.2136755E+04  0.7818609E-02  0.8545223E-01
        4   -1    0    0  501    0  0.00000000000E+00  0.00000000000E+00  0.18682943647E+04  0.18682947964E+04  0.12699999809E+01 0.  1.
       -4   -1    0    0    0  501  0.00000000000E+00  0.00000000000E+00 -0.61094667929E+03  0.61094799929E+03  0.12699999809E+01 0. -1.
    10030    2    1    2    0    0  0.00000000000E+00  0.00000000000E+00  0.12573476855E+04  0.24792427957E+04  0.21367549316E+04 0.  0.
        5    1    3    3  502    0  0.10526044543E+04  0.84392559358E+02  0.81687635401E+03  0.13350682788E+04  0.46999998093E+01 0. -1.
       -5    1    3    3    0  502 -0.10526044543E+04 -0.84392559358E+02  0.44047133145E+03  0.11441745169E+04  0.46999998093E+01 0.  1.
</event>
<event>
 5   0  0.1777590E-04  0.2050252E+04  0.7818609E-02  0.8583480E-01
        2   -1    0    0  501    0  0.00000000000E+00  0.00000000000E+00  0.17699339860E+04  0.17699339860E+04  0.25500000920E-02 0. -1.
       -2   -1    0    0    0  501  0.00000000000E+00  0.00000000000E+00 -0.59374132240E+03  0.59374132240E+03  0.25500000920E-02 0.  1.
    10030    2    1    2    0    0  0.00000000000E+00  0.00000000000E+00  0.11761926636E+04  0.23636753084E+04  0.20502516386E+04 0.  0.
        4    1    3    3  502    0 -0.16436320139E+03  0.93512412175E+03  0.10337207231E+04  0.14035855981E+04  0.12699999809E+01 0. -1.
       -4    1    3    3    0  502  0.16436320139E+03 -0.93512412175E+03  0.14247194052E+03  0.96008971028E+03  0.12699999809E+01 0.  1.
</event>
<event>
 5   0  0.1810875E-04  0.1964873E+04  0.7818609E-02  0.8623222E-01
        2   -1    0    0  501    0  0.00000000000E+00  0.00000000000E+00  0.13928266933E+04  0.13928266933E+04  0.25500000920E-02 0. -1.
       -2   -1    0    0    0  501  0.00000000000E+00  0.00000000000E+00 -0.69296597921E+03  0.69296597921E+03  0.25500000920E-02 0.  1.
    10030    2    1    2    0    0  0.00000000000E+00  0.00000000000E+00  0.69986071411E+03  0.20857926725E+04  0.19648730375E+04 0.  0.
        1    1    3    3  502    0  0.95879771721E+03 -0.20082742484E+03  0.42906176307E+03  0.10694478546E+04  0.50400001928E-02 0. -1.
       -1    1    3    3    0  502 -0.95879771721E+03  0.20082742484E+03  0.27079895105E+03  0.10163448180E+04  0.50400001928E-02 0.  1.
</event>
<event>
 5   0  0.6441125E-05  0.2069543E+04  0.7818609E-02  0.8574780E-01
        4   -1    0    0  501    0  0.00000000000E+00  0.00000000000E+00  0.10054386209E+04  0.10054394230E+04  0.12699999809E+01 0.  1.
       -4   -1    0    0    0  501  0.00000000000E+00  0.00000000000E+00 -0.10649589316E+04  0.10649596888E+04  0.12699999809E+01 0. -1.
    10030    2    1    2    0    0  0.00000000000E+00  0.00000000000E+00 -0.59520310606E+02  0.20703991118E+04  0.20695433832E+04 0.  0.
        4    1    3    3  502    0  0.38676785278E+03  0.68843127490E+03 -0.69878464462E+03  0.10544328261E+04  0.12699999809E+01 0. -1.
       -4    1    3    3    0  502 -0.38676785278E+03 -0.68843127490E+03  0.63926433402E+03  0.10159662858E+04  0.12699999809E+01 0.  1.
</event>
<event>
 5   0  0.1815400E-04  0.2202134E+04  0.7818609E-02  0.8517540E-01
       -2   -1    0    0    0  501  0.00000000000E+00  0.00000000000E+00  0.70296742777E+03  0.70296742778E+03  0.25500000920E-02 0.  1.
        2   -1    0    0  501    0  0.00000000000E+00  0.00000000000E+00 -0.17246158561E+04  0.17246158561E+04  0.25500000920E-02 0. -1.
    10030    2    1    2    0    0  0.00000000000E+00  0.00000000000E+00 -0.10216484283E+04  0.24275832838E+04  0.22021342123E+04 0.  0.
        3    1    3    3  502    0  0.64174586387E+02 -0.10852684626E+04 -0.31854622204E+03  0.11328714487E+04  0.10100000352E+00 0. -1.
       -3    1    3    3    0  502 -0.64174586387E+02  0.10852684626E+04 -0.70310220624E+03  0.12947118352E+04  0.10100000352E+00 0.  1.
</event>
<event>
 5   0  0.1777590E-04  0.2098508E+04  0.7818609E-02  0.8561901E-01
        2   -1    0    0  501    0  0.00000000000E+00  0.00000000000E+00  0.11213268025E+04  0.11213268025E+04  0.25500000920E-02 0.  1.
       -2   -1    0    0    0  501  0.00000000000E+00  0.00000000000E+00 -0.98181338664E+03  0.98181338665E+03  0.25500000920E-02 0. -1.
    10030    2    1    2    0    0  0.00000000000E+00  0.00000000000E+00  0.13951341582E+03  0.21031401891E+04  0.20985077226E+04 0.  0.
        4    1    3    3  502    0 -0.16724266230E+03  0.61896193896E+03  0.90216112315E+03  0.11067882792E+04  0.12699999809E+01 0.  1.
       -4    1    3    3    0  502  0.16724266230E+03 -0.61896193896E+03 -0.76264770733E+03  0.99635190990E+03  0.12699999809E+01 0. -1.
</event>
<event>
 5   0  0.8755004E-05  0.2128712E+04  0.7818609E-02  0.8548700E-01
        1   -1    0    0  501    0  0.00000000000E+00  0.00000000000E+00  0.85018761136E+03  0.85018761138E+03  0.50400001928E-02 0.  1.
       -1   -1    0    0    0  501  0.00000000000E+00  0.00000000000E+00 -0.13324753156E+04  0.13324753156E+04  0.50400001928E-02 0. -1.
    10030    2    1    2    0    0  0.00000000000E+00  0.00000000000E+00 -0.48228770423E+03  0.21826629270E+04  0.21287122922E+04 0.  0.
        3    1    3    3  502    0  0.76945674786E+03 -0.64536223678E+03  0.12035055777E+03  0.10114545815E+04  0.10100000352E+00 0. -1.
       -3    1    3    3    0  502 -0.76945674786E+03  0.64536223678E+03 -0.60263826199E+03  0.11712083455E+04  0.10100000352E+00 0.  1.
</event>
<event>
 5   0  0.8271069E-05  0.2122482E+04  0.7818609E-02  0.8551404E-01
       -1   -1    0    0    0  501  0.00000000000E+00  0.00000000000E+00  0.92844726987E+03  0.92844726988E+03  0.50400001928E-02 0. -1.
        1   -1    0    0  501    0  0.00000000000E+00  0.00000000000E+00 -0.12130279230E+04  0.12130279230E+04  0.50400001928E-02 0.  1.
    10030    2    1    2    0    0  0.00000000000E+00  0.00000000000E+00 -0.28458065313E+03  0.21414751929E+04  0.21224820031E+04 0.  0.
        2    1    3    3  502    0 -0.88684869125E+03  0.39820893690E+03 -0.57172982913E+03  0.11278058149E+04  0.25500000920E-02 0.  1.
       -2    1    3    3    0  502  0.88684869125E+03 -0.39820893690E+03  0.28714917600E+03  0.10136693780E+04  0.25500000920E-02 0. -1.
</event>
<event>
 5   0  0.8486612E-05  0.2166554E+04  0.7818609E-02  0.8532479E-01
        1   -1    0    0  501    0  0.00000000000E+00  0.00000000000E+00  0.16667904791E+04  0.16667904791E+04  0.50400001928E-02 0. -1.
       -1   -1    0    0    0  501  0.00000000000E+00  0.00000000000E+00 -0.70404140464E+03  0.70404140466E+03  0.50400001928E-02 0.  1.
    10030    2    1    2    0    0  0.00000000000E+00  0.00000000000E+00  0.96274907446E+03  0.23708318838E+04  0.21665544167E+04 0.  0.
        5    1    3    3  502    0 -0.44596439744E+03 -0.72322731736E+03  0.12166875675E+04  0.14840123730E+04  0.46999998093E+01 0. -1.
       -5    1    3    3    0  502  0.44596439744E+03  0.72322731736E+03 -0.25393849306E+03  0.88681951073E+03  0.46999998093E+01 0.  1.
</event>
<event>
 5   0  0.1777590E-04  0.2118618E+04  0.7818609E-02  0.8553086E-01
       -2   -1    0    0    0  501  0.00000000000E+00  0.00000000000E+00  0.56695002445E+03  0.56695002445E+03  0.25500000920E-02 0. -1.
        2   -1    0    0  501    0  0.00000000000E+00  0.00000000000E+00 -0.19792489470E+04  0.19792489470E+04  0.25500000920E-02 0.  1.
    10030    2    1    2    0    0  0.00000000000E+00  0.00000000000E+00 -0.14122989225E+04  0.25461989714E+04  0.21186176992E+04 0.  0.
        4    1    3    3  502    0  0.23045458753E+03 -0.25245533181E+03 -0.19111453252E+04  0.19414739448E+04  0.12699999809E+01 0.  1.
       -4    1    3    3    0  502 -0.23045458753E+03  0.25245533181E+03  0.49884640267E+03  0.60472502662E+03  0.12699999809E+01 0. -1.
</event>
<event>
 5   0  0.8237966E-05  0.2098059E+04  0.7818609E-02  0.8562099E-01
        1   -1    0    0  501    0  0.00000000000E+00  0.00000000000E+00  0.12451007838E+04  0.12451007839E+04  0.50400001928E-02 0. -1.
       -1   -1    0    0    0  501  0.00000000000E+00  0.00000000000E+00 -0.88383422447E+03  0.88383422449E+03  0.50400001928E-02 0.  1.
    10030    2    1    2    0    0  0.00000000000E+00  0.00000000000E+00  0.36126655938E+03  0.21289350083E+04  0.20980588035E+04 0.  0.
        1    1    3    3  502    0  0.53391663787E+03 -0.39141419674E+01  0.10969062564E+04  0.12199531270E+04  0.50400001928E-02 0. -1.
       -1    1    3    3    0  502 -0.53391663787E+03  0.39141419674E+01 -0.73563969705E+03  0.90898188133E+03  0.50400001928E-02 0.  1.
</event>
<event>
 5   0  0.8486612E-05  0.1966041E+04  0.7818609E-02  0.8622664E-01
        1   -1    0    0  501    0  0.00000000000E+00  0.00000000000E+00  0.97901044227E+03  0.97901044228E+03  0.50400001928E-02 0. -1.
       -1   -1    0    0    0  501  0.00000000000E+00  0.00000000000E+00 -0.98704714687E+03  0.98704714689E+03  0.50400001928E-02 0.  1.
    10030    2    1    2    0    0  0.00000000000E+00  0.00000000000E+00 -0.80367046061E+01  0.19660575892E+04  0.19660411632E+04 0.  0.
        5    1    3    3  502    0  0.55237682249E+03 -0.66117540686E+03 -0.47734492533E+03  0.98496362389E+03  0.46999998093E+01 0.  1.
       -5    1    3    3    0  502 -0.55237682249E+03  0.66117540686E+03  0.46930822072E+03  0.98109396527E+03  0.46999998093E+01 0. -1.
</event>
<event>
 5   0  0.8237966E-05  0.2003005E+04  0.7818609E-02  0.8605217E-01
       -1   -1    0    0    0  501  0.00000000000E+00  0.00000000000E+00  0.66941050769E+03  0.66941050771E+03  0.50400001928E-02 0. -1.
        1   -1    0    0  501    0  0.00000000000E+00  0.00000000000E+00 -0.14983446496E+04  0.14983446496E+04  0.50400001928E-02 0.  1.
    10030    2    1    2    0    0  0.00000000000E+00  0.00000000000E+00 -0.82893414194E+03  0.21677551573E+04  0.20030053945E+04 0.  0.
        1    1    3    3  502    0 -0.73021151162E+03  0.68158690032E+03 -0.49279469046E+03  0.11138295028E+04  0.50400001928E-02 0. -1.
       -1    1    3    3    0  502  0.73021151162E+03 -0.68158690032E+03 -0.33613945148E+03  0.10539256545E+04  0.50400001928E-02 0.  1.
</event>
<event>
 5   0  0.8271069E-05  0.2096043E+04  0.7818609E-02  0.8562989E-01
        1   -1    0    0  501    0  0.00000000000E+00  0.00000000000E+00  0.13076503846E+04  0.13076503846E+04  0.50400001928E-02 0. -1.
       -1   -1    0    0    0  501  0.00000000000E+00  0.00000000000E+00 -0.83994053904E+03  0.83994053906E+03  0.50400001928E-02 0.  1.
    10030    2    1    2    0    0  0.00000000000E+00  0.00000000000E+00  0.46770984551E+03  0.21475909236E+04  0.20960425272E+04 0.  0.
        2    1    3    3  502    0  0.22507721008E+03 -0.30336900591E+03  0.12354732904E+04  0.12919314051E+04  0.25500000920E-02 0. -1.
       -2    1    3    3    0  502 -0.22507721008E+03  0.30336900591E+03 -0.76776344490E+03  0.85565951849E+03  0.25500000920E-02 0.  1.
</event>
<event>
 5   0  0.1921687E-04  0.1759527E+04  0.7818609E-02  0.8728124E-01
       -2   -1    0    0    0  501  0.00000000000E+00  0.00000000000E+00  0.72132701566E+03  0.72132701566E+03  0.25500000920E-02 0. -1.
        2   -1    0    0  501    0  0.00000000000E+00  0.00000000000E+00 -0.10729994923E+04  0.10729994923E+04  0.25500000920E-02 0.  1.
    10030    2    1    2    0    0  0.00000000000E+00  0.00000000000E+00 -0.35167247662E+03  0.17943265079E+04  0.17595266654E+04 0.  0.
        5    1    3    3  502    0  0.37493031389E+03  0.39158754934E+03 -0.88239437061E+03  0.10356425370E+04  0.46999998093E+01 0.  1.
       -5    1    3    3    0  502 -0.37493031389E+03 -0.39158754934E+03  0.53072189399E+03  0.75868397099E+03  0.46999998093E+01 0. -1.
</event>
<event>
 5   0  0.1777590E-04  0.2087014E+04  0.7818609E-02  0.8566985E-01
        2   -1    0    0  501    0  0.00000000000E+00  0.00000000000E+00  0.22094372741E+04  0.22094372741E+04  0.25500000920E-02 0. -1.
       -2   -1    0    0    0  501  0.00000000000E+00  0.00000000000E+00 -0.49284359673E+03  0.49284359674E+03  0.25500000920E-02 0.  1.
    10030    2    1    2    0    0  0.00000000000E+00  0.00000000000E+00  0.17165936774E+04  0.27022808708E+04  0.20870141475E+04 0.  0.
        4    1    3    3  502    0 -0.70125610502E+03 -0.56012207433E+02  0.18562294317E+04  0.19850659456E+04  0.12699999809E+01 0. -1.
       -4    1    3    3    0  502  0.70125610502E+03  0.56012207433E+02 -0.13963575436E+03  0.71721492526E+03  0.12699999809E+01 0.  1.
</event>
<event>
 5   0  0.8755004E-05  0.2097938E+04  0.7818609E-02  0.8562152E-01
       -1   -1    0    0    0  501  0.00000000000E+00  0.00000000000E+00  0.81444613197E+03  0.81444613198E+03  0.50400001928E-02 0. -1.
        1   -1    0    0  501    0  0.00000000000E+00  0.00000000000E+00 -0.13510232439E+04  0.13510232439E+04  0.50400001928E-02 0.  1.
    10030    2    1    2    0    0  0.00000000000E+00  0.00000000000E+00 -0.53657711191E+03  0.21654693759E+04  0.20979377066E+04 0.  0.
        3    1    3    3  502    0 -0.84589236440E+03  0.61595386773E+03 -0.34415684486E+03  0.11015339320E+04  0.10100000352E+00 0.  1.
       -3    1    3    3    0  502  0.84589236440E+03 -0.61595386773E+03 -0.19242026705E+03  0.10639354439E+04  0.10100000352E+00 0. -1.
</event>
<event>
 5   0  0.8271069E-05  0.2110155E+04  0.7818609E-02  0.8556783E-01
        1   -1    0    0  501    0  0.00000000000E+00  0.00000000000E+00  0.17012064599E+04  0.17012064599E+04  0.50400001928E-02 0. -1.
       -1   -1    0    0    0  501  0.00000000000E+00  0.00000000000E+00 -0.65435237047E+03  0.65435237049E+03  0.50400001928E-02 0.  1.
    10030    2    1    2    0    0  0.00000000000E+00  0.00000000000E+00  0.10468540894E+04  0.23555588304E+04  0.21101549514E+04 0.  0.
        2    1    3    3  502    0 -0.22760201211E+03  0.30494213316E+03  0.16219423791E+04  0.16659800304E+04  0.25500000920E-02 0. -1.
       -2    1    3    3    0  502  0.22760201211E+03 -0.30494213316E+03 -0.57508828968E+03  0.68957880001E+03  0.25500000920E-02 0.  1.
</event>
<event>
 5   0  0.1777590E-04  0.1897978E+04  0.7818609E-02  0.8655864E-01
       -2   -1    0    0    0  501  0.00000000000E+00  0.00000000000E+00  0.77023970707E+03  0.77023970707E+03  0.25500000920E-02 0. -1.
        2   -1    0    0  501    0  0.00000000000E+00  0.00000000000E+00 -0.11692205046E+04  0.11692205046E+04  0.25500000920E-02 0.  1.
    10030    2    1    2    0    0  0.00000000000E+00  0.00000000000E+00 -0.39898079752E+03  0.19394602117E+04  0.18979779334E+04 0.  0.
        4    1    3    3  502    0  0.66751440849E+03  0.49221669397E+03 -0.67079283280E+03  0.10666852379E+04  0.12699999809E+01 0.  1.
       -4    1    3    3    0  502 -0.66751440849E+03 -0.49221669397E+03  0.27181203528E+03  0.87277497374E+03  0.12699999809E+01 0. -1.
</event>
<event>
 5   0  0.8237966E-05  0.2099854E+04  0.7818609E-02  0.8561308E-01
        1   -1    0    0  501    0  0.00000000000E+00  0.00000000000E+00  0.24708479443E+04  0.24708479443E+04  0.50400001928E-02 0.  1.
       -1   -1    0    0    0  501  0.00000000000E+00  0.00000000000E+00 -0.44614104953E+03  0.44614104955E+03  0.50400001928E-02 0. -1.
    10030    2    1    2    0    0  0.00000000000E+00  0.00000000000E+00  0.20247068948E+04  0.29169889939E+04  0.20998539903E+04 0.  0.
        1    1    3    3  502    0 -0.32217272570E+03 -0.97490826315E+03  0.13170322177E+04  0.16699746253E+04  0.50400001928E-02 0.  1.
       -1    1    3    3    0  502  0.32217272570E+03  0.97490826315E+03  0.70767467710E+03  0.12470143686E+04  0.50400001928E-02 0. -1.
</event>
<event>
 5   0  0.1810875E-04  0.2088092E+04  0.7818609E-02  0.8566507E-01
        2   -1    0    0  501    0  0.00000000000E+00  0.00000000000E+00  0.11634478565E+04  0.11634478565E+04  0.25500000920E-02 0. -1.
       -2   -1    0    0    0  501  0.00000000000E+00  0.00000000000E+00 -0.93689799210E+03  0.93689799210E+03  0.25500000920E-02 0.  1.
    10030    2    1    2    0    0  0.00000000000E+00  0.00000000000E+00  0.22654986436E+03  0.21003458486E+04  0.20880919143E+04 0.  0.
        1    1    3    3  502    0 -0.71702212123E+03  0.37762587710E+03  0.77540075329E+03  0.11215918837E+04  0.50400001928E-02 0. -1.
       -1    1    3    3    0  502  0.71702212123E+03 -0.37762587710E+03 -0.54885088893E+03  0.97875396484E+03  0.50400001928E-02 0.  1.
</event>
<event>
 5   0  0.8237966E-05  0.1428133E+04  0.7818609E-02  0.8933702E-01
       -1   -1    0    0    0  501  0.00000000000E+00  0.00000000000E+00  0.44128138081E+03  0.44128138083E+03  0.50400001928E-02 0.  1.
        1   -1    0    0  501    0  0.00000000000E+00  0.00000000000E+00 -0.11554782326E+04  0.11554782326E+04  0.50400001928E-02 0. -1.
    10030    2    1    2    0    0  0.00000000000E+00  0.00000000000E+00 -0.71419685177E+03  0.15967596134E+04  0.14281330890E+04 0.  0.
        1    1    3    3  502    0 -0.61523953083E+02  0.21335556654E+03  0.40169902620E+03  0.45898573208E+03  0.50400001928E-02 0.  1.
       -1    1    3    3    0  502  0.61523953083E+02 -0.21335556654E+03 -0.11158958780E+04  0.11377738813E+04  0.50400001928E-02 0. -1.
</event>
<event>
 5   0  0.8237966E-05  0.2085024E+04  0.7818609E-02  0.8567869E-01
        1   -1    0    0  501    0  0.00000000000E+00  0.00000000000E+00  0.11579057894E+04  0.11579057894E+04  0.50400001928E-02 0.  1.
       -1   -1    0    0    0  501  0.00000000000E+00  0.00000000000E+00 -0.93861764061E+03  0.93861764062E+03  0.50400001928E-02 0. -1.
    10030    2    1    2    0    0  0.00000000000E+00  0.00000000000E+00  0.21928814878E+03  0.20965234300E+04  0.20850235491E+04 0.  0.
        1    1    3    3  502    0 -0.35375322448E+03 -0.83732208415E+02 -0.87282140157E+03  0.94549966982E+03  0.50400001928E-02 0. -1.
       -1    1    3    3    0  502  0.35375322448E+03  0.83732208415E+02  0.10921095503E+04  0.11510237602E+04  0.50400001928E-02 0.  1.
</event>
<event>
 5   0  0.1815400E-04  0.2101141E+04  0.7818609E-02  0.8560741E-01
        2   -1    0    0  501    0  0.00000000000E+00  0.00000000000E+00  0.14768469800E+04  0.14768469800E+04  0.25500000920E-02 0. -1.
       -2   -1    0    0    0  501  0.00000000000E+00  0.00000000000E+00 -0.74733395000E+03  0.74733395001E+03  0.25500000920E-02 0.  1.
    10030    2    1    2    0    0  0.00000000000E+00  0.00000000000E+00  0.72951303001E+03  0.22241809300E+04  0.21011405352E+04 0.  0.
        3    1    3    3  502    0 -0.66784970660E+03 -0.73592459596E+03  0.40850904904E+01  0.99379320772E+03  0.10100000352E+00 0.  1.
       -3    1    3    3    0  502  0.66784970660E+03  0.73592459596E+03  0.72542793952E+03  0.12303877223E+04  0.10100000352E+00 0. -1.
</event>
<event>
 5   0  0.8486612E-05  0.2309370E+04  0.7818609E-02  0.8474236E-01
        1   -1    0    0  501    0  0.00000000000E+00  0.00000000000E+00  0.28836949040E+04  0.28836949040E+04  0.50400001928E-02 0. -1.
       -1   -1    0    0    0  501  0.00000000000E+00  0.00000000000E+00 -0.46235719031E+03  0.46235719034E+03  0.50400001928E-02 0.  1.
    10030    2    1    2    0    0  0.00000000000E+00  0.00000000000E+00  0.24213377137E+04  0.33460520944E+04  0.23093696747E+04 0.  0.
        5    1    3    3  502    0  0.60447695932E+03  0.55015391953E+03  0.23924027358E+04  0.25281761548E+04  0.46999998093E+01 0. -1.
       -5    1    3    3    0  502 -0.60447695932E+03 -0.55015391953E+03  0.28934977894E+02  0.81787593953E+03  0.46999998093E+01 0.  1.
</event>
<event>
 5   0  0.1815400E-04  0.2105489E+04  0.7818609E-02  0.8558829E-01
        2   -1    0    0  501    0  0.00000000000E+00  0.00000000000E+00  0.44316745805E+03  0.44316745806E+03  0.25500000920E-02 0. -1.
       -2   -1    0    0    0  501  0.00000000000E+00  0.00000000000E+00 -0.25007951125E+04  0.25007951125E+04  0.25500000920E-02 0.  1.
    10030    2    1    2    0    0  0.00000000000E+00  0.00000000000E+00 -0.20576276544E+04  0.29439625706E+04  0.21054890293E+04 0.  0.
        3    1    3    3  502    0  0.63038734724E+03 -0.15278598965E+03 -0.21881998093E+04  0.22823124636E+04  0.10100000352E+00 0.  1.
       -3    1    3    3    0  502 -0.63038734724E+03  0.15278598965E+03  0.13057215481E+03  0.66165010693E+03  0.10100000352E+00 0. -1.
</event>
<event>
 5   0  0.1777590E-04  0.2145604E+04  0.7818609E-02  0.8541416E-01
       -2   -1    0    0    0  501  0.00000000000E+00  0.00000000000E+00  0.93934093168E+03  0.93934093168E+03  0.25500000920E-02 0. -1.
        2   -1    0    0  501    0  0.00000000000E+00  0.00000000000E+00 -0.12252250698E+04  0.12252250698E+04  0.25500000920E-02 0.  1.
    10030    2    1    2    0    0  0.00000000000E+00  0.00000000000E+00 -0.28588413815E+03  0.21645660015E+04  0.21456039323E+04 0.  0.
        4    1    3    3  502    0  0.69410224658E+03  0.80781384526E+03 -0.27277013835E+03  0.10994299880E+04  0.12699999809E+01 0.  1.
       -4    1    3    3    0  502 -0.69410224658E+03 -0.80781384526E+03 -0.13113999800E+02  0.10651360135E+04  0.12699999809E+01 0. -1.
</event>
<event>
 5   0  0.1815400E-04  0.2115285E+04  0.7818609E-02  0.8554540E-01
        2   -1    0    0  501    0  0.00000000000E+00  0.00000000000E+00  0.19456094643E+04  0.19456094643E+04  0.25500000920E-02 0.  1.
       -2   -1    0    0    0  501  0.00000000000E+00  0.00000000000E+00 -0.57493938705E+03  0.57493938706E+03  0.25500000920E-02 0. -1.
    10030    2    1    2    0    0  0.00000000000E+00  0.00000000000E+00  0.13706700772E+04  0.25205488513E+04  0.21152848629E+04 0.  0.
        3    1    3    3  502    0 -0.43430189652E+03  0.72891334852E+03 -0.67042104024E+02  0.85113304535E+03  0.10100000352E+00 0. -1.
       -3    1    3    3    0  502  0.43430189652E+03 -0.72891334852E+03  0.14377121812E+04  0.16694158060E+04  0.10100000352E+00 0.  1.
</event>
<event>
 5   0  0.1810875E-04  0.2097465E+04  0.7818609E-02  0.8562361E-01
       -2   -1    0    0    0  501  0.00000000000E+00  0.00000000000E+00  0.96430499999E+03  0.96430500000E+03  0.25500000920E-02 0.  1.
        2   -1    0    0  501    0  0.00000000000E+00  0.00000000000E+00 -0.11405521328E+04  0.11405521328E+04  0.25500000920E-02 0. -1.
    10030    2    1    2    0    0  0.00000000000E+00  0.00000000000E+00 -0.17624713277E+03  0.21048571328E+04  0.20974652554E+04 0.  0.
        1    1    3    3  502    0  0.97321437244E+03 -0.34343315368E+03 -0.27518752512E+03  0.10680920933E+04  0.50400001928E-02 0. -1.
       -1    1    3    3    0  502 -0.97321437244E+03  0.34343315368E+03  0.98940392357E+02  0.10367650395E+04  0.50400001928E-02 0.  1.
</event>
<event>
 5   0  0.8271069E-05  0.2151227E+04  0.7818609E-02  0.8539007E-01
       -1   -1    0    0    0  501  0.00000000000E+00  0.00000000000E+00  0.10690790346E+04  0.10690790346E+04  0.50400001928E-02 0.  1.
        1   -1    0    0  501    0  0.00000000000E+00  0.00000000000E+00 -0.10821881309E+04  0.10821881309E+04  0.50400001928E-02 0. -1.
    10030    2    1    2    0    0  0.00000000000E+00  0.00000000000E+00 -0.13109096365E+02  0.21512671655E+04  0.21512272239E+04 0.  0.
        2    1    3    3  502    0 -0.38373765098E+03 -0.59898983971E+03  0.80024493127E+03  0.10707172189E+04  0.25500000920E-02 0.  1.
       -2    1    3    3    0  502  0.38373765098E+03  0.59898983971E+03 -0.81335402763E+03  0.10805499466E+04  0.25500000920E-02 0. -1.
</event>
<event>
 5   0  0.8525278E-05  0.2081241E+04  0.7818609E-02  0.8569552E-01
        1   -1    0    0  501    0  0.00000000000E+00  0.00000000000E+00  0.20648685446E+04  0.20648685446E+04  0.50400001928E-02 0.  1.
       -1   -1    0    0    0  501  0.00000000000E+00  0.00000000000E+00 -0.52443559988E+03  0.52443559990E+03  0.50400001928E-02 0. -1.
    10030    2    1    2    0    0  0.00000000000E+00  0.00000000000E+00  0.15404329447E+04  0.25893041445E+04  0.20812405665E+04 0.  0.
        4    1    3    3  502    0  0.52113991289E+03  0.71939381316E+03  0.14445394759E+04  0.16958213873E+04  0.12699999809E+01 0.  1.
       -4    1    3    3    0  502 -0.52113991289E+03 -0.71939381316E+03  0.95893468828E+02  0.89348275723E+03  0.12699999809E+01 0. -1.
</event>
<event>
 5   0  0.1921687E-04  0.2125726E+04  0.7818609E-02  0.8549995E-01
       -2   -1    0    0    0  501  0.00000000000E+00  0.00000000000E+00  0.80035730285E+03  0.80035730285E+03  0.25500000920E-02 0.  1.
        2   -1    0    0  501    0  0.00000000000E+00  0.00000000000E+00 -0.14114674370E+04  0.14114674370E+04  0.25500000920E-02 0. -1.
    10030    2    1    2    0    0  0.00000000000E+00  0.00000000000E+00 -0.61111013420E+03  0.22118247399E+04  0.21257264838E+04 0.  0.
        5    1    3    3  502    0  0.35801283601E+01  0.48023657091E+03 -0.12921232083E+04  0.13784935462E+04  0.46999998093E+01 0. -1.
       -5    1    3    3    0  502 -0.35801283601E+01 -0.48023657091E+03  0.68101307411E+03  0.83333119374E+03  0.46999998093E+01 0.  1.
</event>
<event>
 5   0  0.8237966E-05  0.2084063E+04  0.7818609E-02  0.8568296E-01
       -1   -1    0    0    0  501  0.00000000000E+00  0.00000000000E+00  0.91569039333E+03  0.91569039334E+03  0.50400001928E-02 0. -1.
        1   -1    0    0  501    0  0.00000000000E+00  0.00000000000E+00 -0.11858043057E+04  0.11858043057E+04  0.50400001928E-02 0.  1.
    10030    2    1    2    0    0  0.00000000000E+00  0.00000000000E+00 -0.27011391240E+03  0.21014946991E+04  0.20840629656E+04 0.  0.
        1    1    3    3  502    0  0.51941636587E+03 -0.44583175704E+03  0.65718009846E+03  0.94891780390E+03  0.50400001928E-02 0. -1.
       -1    1    3    3    0  502 -0.51941636587E+03  0.44583175704E+03 -0.92729401086E+03  0.11525768952E+04  0.50400001928E-02 0.  1.
</event>
<event>
 5   0  0.8525278E-05  0.2124294E+04  0.7818609E-02  0.8550617E-01
       -1   -1    0    0    0  501  0.00000000000E+00  0.00000000000E+00  0.74352992446E+03  0.74352992447E+03  0.50400001928E-02 0. -1.
        1   -1    0    0  501    0  0.00000000000E+00  0.00000000000E+00 -0.15172975843E+04  0.15172975843E+04  0.50400001928E-02 0.  1.
    10030    2    1    2    0    0  0.00000000000E+00  0.00000000000E+00 -0.77376765984E+03  0.22608275088E+04  0.21242939140E+04 0.  0.
        4    1    3    3  502    0  0.96328601150E+03 -0.26452808473E+03 -0.77099551912E+03  0.12618758857E+04  0.12699999809E+01 0. -1.
       -4    1    3    3    0  502 -0.96328601150E+03  0.26452808473E+03 -0.27721407235E+01  0.99895162306E+03  0.12699999809E+01 0.  1.
</event>
<event>
 5   0  0.8486612E-05  0.2094848E+04  0.7818609E-02  0.8563516E-01
        1   -1    0    0  501    0  0.00000000000E+00  0.00000000000E+00  0.10987896184E+04  0.10987896184E+04  0.50400001928E-02 0. -1.
       -1   -1    0    0    0  501  0.00000000000E+00  0.00000000000E+00 -0.99845995781E+03  0.99845995782E+03  0.50400001928E-02 0.  1.
    10030    2    1    2    0    0  0.00000000000E+00  0.00000000000E+00  0.10032966055E+03  0.20972495762E+04  0.20948483821E+04 0.  0.
        5    1    3    3  502    0  0.57507642608E+03  0.87474887145E+03  0.84509575768E+02  0.10502677955E+04  0.46999998093E+01 0. -1.
       -5    1    3    3    0  502 -0.57507642608E+03 -0.87474887145E+03  0.15820084778E+02  0.10469817807E+04  0.46999998093E+01 0.  1.
</event>
<event>
 5   0  0.1777590E-04  0.2100550E+04  0.7818609E-02  0.8561001E-01
        2   -1    0    0  501    0  0.00000000000E+00  0.00000000000E+00  0.12922142185E+04  0.12922142185E+04  0.25500000920E-02 0. -1.
       -2   -1    0    0    0  501  0.00000000000E+00  0.00000000000E+00 -0.85363347842E+03  0.85363347843E+03  0.25500000920E-02 0.  1.
    10030    2    1    2    0    0  0.00000000000E+00  0.00000000000E+00  0.43858074005E+03  0.21458476969E+04  0.21005497549E+04 0.  0.
        4    1    3    3  502    0  0.56570505160E+03  0.88115995445E+03  0.30234952258E+03  0.10898999575E+04  0.12699999809E+01 0.  1.
       -4    1    3    3    0  502 -0.56570505160E+03 -0.88115995445E+03  0.13623121747E+03  0.10559477394E+04  0.12699999809E+01 0. -1.
</event>
<event>
 5   0  0.8237966E-05  0.2092097E+04  0.7818609E-02  0.8564733E-01
       -1   -1    0    0    0  501  0.00000000000E+00  0.00000000000E+00  0.13166365338E+04  0.13166365338E+04  0.50400001928E-02 0. -1.
        1   -1    0    0  501    0  0.00000000000E+00  0.00000000000E+00 -0.83106991487E+03  0.83106991489E+03  0.50400001928E-02 0.  1.
    10030    2    1    2    0    0  0.00000000000E+00  0.00000000000E+00  0.48556661892E+03  0.21477064487E+04  0.20920965676E+04 0.  0.
        1    1    3    3  502    0 -0.22841924845E+03  0.10031153948E+04  0.48541924613E+02  0.10299379432E+04  0.50400001928E-02 0. -1.
       -1    1    3    3    0  502  0.22841924845E+03 -0.10031153948E+04  0.43702469431E+03  0.11177685055E+04  0.50400001928E-02 0.  1.
</event>
<event>
 5   0  0.1886323E-04  0.1485834E+04  0.7818609E-02  0.8893928E-01
        2   -1    0    0  501    0  0.00000000000E+00  0.00000000000E+00  0.10517390148E+04  0.10517390148E+04  0.25500000920E-02 0. -1.
       -2   -1    0    0    0  501  0.00000000000E+00  0.00000000000E+00 -0.52477419441E+03  0.52477419441E+03  0.25500000920E-02 0.  1.
    10030    2    1    2    0    0  0.00000000000E+00  0.00000000000E+00  0.52696482044E+03  0.15765132093E+04  0.14858337649E+04 0.  0.
        2    1    3    3  502    0 -0.21799933921E+02 -0.20911998574E+03  0.10195125974E+04  0.10409670225E+04  0.25500000920E-02 0. -1.
       -2    1    3    3    0  502  0.21799933921E+02  0.20911998574E+03 -0.49254777699E+03  0.53554618679E+03  0.25500000920E-02 0.  1.
</event>
<event>
 5   0  0.1921687E-04  0.2115767E+04  0.7818609E-02  0.8554330E-01
        2   -1    0    0  501    0  0.00000000000E+00  0.00000000000E+00  0.21923912774E+04  0.21923912774E+04  0.25500000920E-02 0.  1.
       -2   -1    0    0    0  501  0.00000000000E+00  0.00000000000E+00 -0.51045515359E+03  0.51045515360E+03  0.25500000920E-02 0. -1.
    10030    2    1    2    0    0  0.00000000000E+00  0.00000000000E+00  0.16819361238E+04  0.27028464310E+04  0.21157669307E+04 0.  0.
        5    1    3    3  502    0  0.41034046532E+03 -0.95134701796E+03  0.56800920085E+03  0.11815654820E+04  0.46999998093E+01 0. -1.
       -5    1    3    3    0  502 -0.41034046532E+03  0.95134701796E+03  0.11139269230E+04  0.15212809490E+04  0.46999998093E+01 0.  1.
</event>
<event>
 5   0  0.8755004E-05  0.2248247E+04  0.7818609E-02  0.8498611E-01
       -1   -1    0    0    0  501  0.00000000000E+00  0.00000000000E+00  0.12099602450E+04  0.12099602450E+04  0.50400001928E-02 0.  1.
        1   -1    0    0  501    0  0.00000000000E+00  0.00000000000E+00 -0.10443764838E+04  0.10443764838E+04  0.50400001928E-02 0. -1.
    10030    2    1    2    0    0  0.00000000000E+00  0.00000000000E+00  0.16558376121E+03  0.22543367288E+04  0.22482473407E+04 0.  0.
        3    1    3    3  502    0  0.49071072468E+03  0.63097633388E+03 -0.70974492956E+03  0.10689555765E+04  0.10100000352E+00 0. -1.
       -3    1    3    3    0  502 -0.49071072468E+03 -0.63097633388E+03  0.87532869077E+03  0.11853811523E+04  0.10100000352E+00 0.  1.
</event>
<event>
 5   0  0.8486612E-05  0.2089772E+04  0.7818609E-02  0.8565762E-01
        1   -1    0    0  501    0  0.00000000000E+00  0.00000000000E+00  0.21264318529E+04  0.21264318529E+04  0.50400001928E-02 0.  1.
       -1   -1    0    0    0  501  0.00000000000E+00  0.00000000000E+00 -0.51343586342E+03  0.51343586344E+03  0.50400001928E-02 0. -1.
    10030    2    1    2    0    0  0.00000000000E+00  0.00000000000E+00  0.16129959895E+04  0.26398677164E+04  0.20897716377E+04 0.  0.
        5    1    3    3  502    0 -0.54429334244E+03 -0.71040086925E+03  0.14877536784E+04  0.17361905815E+04  0.46999998093E+01 0.  1.
       -5    1    3    3    0  502  0.54429334244E+03  0.71040086925E+03  0.12524231113E+03  0.90367713490E+03  0.46999998093E+01 0. -1.
</event>
<event>
 5   0  0.1886323E-04  0.2134761E+04  0.7818609E-02  0.8546083E-01
       -2   -1    0    0    0  501  0.00000000000E+00  0.00000000000E+00  0.44201514041E+03  0.44201514042E+03  0.25500000920E-02 0.  1.
        2   -1    0    0  501    0  0.00000000000E+00  0.00000000000E+00 -0.25775170331E+04  0.25775170331E+04  0.25500000920E-02 0. -1.
    10030    2    1    2    0    0  0.00000000000E+00  0.00000000000E+00 -0.21355018927E+04  0.30195321736E+04  0.21347613949E+04 0.  0.
        2    1    3    3  502    0  0.81732145821E+02 -0.20992391294E+03 -0.25435090696E+04  0.25534656019E+04  0.25500000920E-02 0. -1.
       -2    1    3    3    0  502 -0.81732145821E+02  0.20992391294E+03  0.40800717685E+03  0.46606657169E+03  0.25500000920E-02 0.  1.
</event>
<event>
 5   0  0.8525278E-05  0.2114248E+04  0.7818609E-02  0.8554993E-01
        1   -1    0    0  501    0  0.00000000000E+00  0.00000000000E+00  0.27251883984E+04  0.27251883984E+04  0.50400001928E-02 0.  1.
       -1   -1    0    0    0  501  0.00000000000E+00  0.00000000000E+00 -0.41006753313E+03  0.41006753316E+03  0.50400001928E-02 0. -1.
    10030    2    1    2    0    0  0.00000000000E+00  0.00000000000E+00  0.23151208652E+04  0.31352559315E+04  0.21142481254E+04 0.  0.
        4    1    3    3  502    0 -0.63763755750E+03 -0.73926643463E+03  0.55626857145E+03  0.11236248718E+04  0.12699999809E+01 0. -1.
       -4    1    3    3    0  502  0.63763755750E+03  0.73926643463E+03  0.17588522938E+04  0.20116310597E+04  0.12699999809E+01 0.  1.
</event>
<event>
 5   0  0.1815400E-04  0.1633062E+04  0.7818609E-02  0.8800490E-01
        2   -1    0    0  501    0  0.00000000000E+00  0.00000000000E+00  0.41700104814E+03  0.41700104814E+03  0.25500000920E-02 0.  1.
       -2   -1    0    0    0  501  0.00000000000E+00  0.00000000000E+00 -0.15988520775E+04  0.15988520775E+04  0.25500000920E-02 0. -1.
    10030    2    1    2    0    0  0.00000000000E+00  0.00000000000E+00 -0.11818510294E+04  0.20158531257E+04  0.16330621448E+04 0.  0.
        3    1    3    3  502    0  0.64207197156E+03  0.36919859290E+02  0.30093990455E+02  0.64383627665E+03  0.10100000352E+00 0.  1.
       -3    1    3    3    0  502 -0.64207197156E+03 -0.36919859290E+02 -0.12119450199E+04  0.13720168490E+04  0.10100000352E+00 0. -1.
</event>
<event>
 5   0  0.1921687E-04  0.1869812E+04  0.7818609E-02  0.8670031E-01
       -2   -1    0    0    0  501  0.00000000000E+00  0.00000000000E+00  0.10718509827E+04  0.10718509827E+04  0.25500000920E-02 0. -1.
        2   -1    0    0  501    0  0.00000000000E+00  0.00000000000E+00 -0.81545769064E+03  0.81545769064E+03  0.25500000920E-02 0.  1.
    10030    2    1    2    0    0  0.00000000000E+00  0.00000000000E+00  0.25639329203E+03  0.18873086733E+04  0.18698118911E+04 0.  0.
        5    1    3    3  502    0  0.41033797231E+03  0.34044310262E+03  0.90333345301E+03  0.10489576612E+04  0.46999998093E+01 0. -1.
       -5    1    3    3    0  502 -0.41033797231E+03 -0.34044310262E+03 -0.64694016098E+03  0.83835101212E+03  0.46999998093E+01 0.  1.
</event>
<event>
 5   0  0.1810875E-04  0.2055423E+04  0.7818609E-02  0.8581138E-01
       -2   -1    0    0    0  501  0.00000000000E+00  0.00000000000E+00  0.43797453948E+03  0.43797453949E+03  0.25500000920E-02 0.  1.
        2   -1    0    0  501    0  0.00000000000E+00  0.00000000000E+00 -0.24115352921E+04  0.24115352921E+04  0.25500000920E-02 0. -1.
    10030    2    1    2    0    0  0.00000000000E+00  0.00000000000E+00 -0.19735607526E+04  0.28495098316E+04  0.20554231282E+04 0.  0.
        1    1    3    3  502    0  0.27139406059E+02  0.47252651420E+03  0.27788545415E+03  0.54885169184E+03  0.50400001928E-02 0.  1.
       -1    1    3    3    0  502 -0.27139406059E+02 -0.47252651420E+03 -0.22514462067E+04  0.23006581397E+04  0.50400001928E-02 0. -1.
</event>
<event>
 5   0  0.8525278E-05  0.2105386E+04  0.7818609E-02  0.8558874E-01
       -1   -1    0    0    0  501  0.00000000000E+00  0.00000000000E+00  0.10810636476E+04  0.10810636476E+04  0.50400001928E-02 0. -1.
        1   -1    0    0  501    0  0.00000000000E+00  0.00000000000E+00 -0.10250672534E+04  0.10250672534E+04  0.50400001928E-02 0.  1.
    10030    2    1    2    0    0  0.00000000000E+00  0.00000000000E+00  0.55996394136E+02  0.21061309010E+04  0.21053863721E+04 0.  0.
        4    1    3    3  502    0 -0.23946863423E+03 -0.10040499638E+04  0.23471050881E+03  0.10585613786E+04  0.12699999809E+01 0.  1.
       -4    1    3    3    0  502  0.23946863423E+03  0.10040499638E+04 -0.17871411467E+03  0.10475695224E+04  0.12699999809E+01 0. -1.
</event>
<event>
 5   0  0.1810875E-04  0.2101121E+04  0.7818609E-02  0.8560750E-01
        2   -1    0    0  501    0  0.00000000000E+00  0.00000000000E+00  0.12335944144E+04  0.12335944144E+04  0.25500000920E-02 0. -1.
       -2   -1    0    0    0  501  0.00000000000E+00  0.00000000000E+00 -0.89468414816E+03  0.89468414817E+03  0.25500000920E-02 0.  1.
    10030    2    1    2    0    0  0.00000000000E+00  0.00000000000E+00  0.33891026619E+03  0.21282785625E+04  0.21011210035E+04 0.  0.
        1    1    3    3  502    0 -0.27179611369E+03 -0.99845910868E+03  0.35313747419E+03  0.10933891324E+04  0.50400001928E-02 0. -1.
       -1    1    3    3    0  502  0.27179611369E+03  0.99845910868E+03 -0.14227208001E+02  0.10348894301E+04  0.50400001928E-02 0.  1.
</event>
<event>
 5   0  0.8237966E-05  0.2082610E+04  0.7818609E-02  0.8568943E-01
        1   -1    0    0  501    0  0.00000000000E+00  0.00000000000E+00  0.20402067934E+04  0.20402067934E+04  0.50400001928E-02 0. -1.
       -1   -1    0    0    0  501  0.00000000000E+00  0.00000000000E+00 -0.53147384893E+03  0.53147384896E+03  0.50400001928E-02 0.  1.
    10030    2    1    2    0    0  0.00000000000E+00  0.00000000000E+00  0.15087329445E+04  0.25716806424E+04  0.20826104361E+04 0.  0.
        1    1    3    3  502    0 -0.83967902404E+03 -0.98745792758E+02  0.37481986478E+01  0.84547362113E+03  0.50400001928E-02 0.  1.
       -1    1    3    3    0  502  0.83967902404E+03  0.98745792758E+02  0.15049847458E+04  0.17262070212E+04  0.50400001928E-02 0. -1.
</event>
<event>
 5   0  0.1777590E-04  0.2064083E+04  0.7818609E-02  0.8577232E-01
       -2   -1    0    0    0  501  0.00000000000E+00  0.00000000000E+00  0.87056438790E+03  0.87056438790E+03  0.25500000920E-02 0.  1.
        2   -1    0    0  501    0  0.00000000000E+00  0.00000000000E+00 -0.12234707713E+04  0.12234707713E+04  0.25500000920E-02 0. -1.
    10030    2    1    2    0    0  0.00000000000E+00  0.00000000000E+00 -0.35290638338E+03  0.20940351592E+04  0.20640834122E+04 0.  0.
        4    1    3    3  502    0  0.51618907394E+03  0.13416303529E+03  0.71991620126E+03  0.89595302881E+03  0.12699999809E+01 0.  1.
       -4    1    3    3    0  502 -0.51618907394E+03 -0.13416303529E+03 -0.10728225846E+04  0.11980821304E+04  0.12699999809E+01 0. -1.
</event>
<event>
 5   0  0.8237966E-05  0.2079351E+04  0.7818609E-02  0.8570394E-01
       -1   -1    0    0    0  501  0.00000000000E+00  0.00000000000E+00  0.14496502391E+04  0.14496502391E+04  0.50400001928E-02 0. -1.
        1   -1    0    0  501    0  0.00000000000E+00  0.00000000000E+00 -0.74564555568E+03  0.74564555570E+03  0.50400001928E-02 0.  1.
    10030    2    1    2    0    0  0.00000000000E+00  0.00000000000E+00  0.70400468339E+03  0.21952957948E+04  0.20793511085E+04 0.  0.
        1    1    3    3  502    0 -0.60371804004E+03 -0.42924283830E+03  0.11222010822E+04  0.13446412738E+04  0.50400001928E-02 0. -1.
       -1    1    3    3    0  502  0.60371804004E+03  0.42924283830E+03 -0.41819639885E+03  0.85065452102E+03  0.50400001928E-02 0.  1.
</event>
<event>
 5   0  0.1921687E-04  0.2063882E+04  0.7818609E-02  0.8577323E-01
        2   -1    0    0  501    0  0.00000000000E+00  0.00000000000E+00  0.10289465589E+04  0.10289465589E+04  0.25500000920E-02 0.  1.
       -2   -1    0    0    0  501  0.00000000000E+00  0.00000000000E+00 -0.10349437807E+04  0.10349437807E+04  0.25500000920E-02 0. -1.
    10030    2    1    2    0    0  0.00000000000E+00  0.00000000000E+00 -0.59972218308E+01  0.20638903396E+04  0.20638816262E+04 0.  0.
        5    1    3    3  502    0  0.76780396775E+03 -0.48777390969E+03  0.48427486129E+03  0.10305292578E+04  0.46999998093E+01 0.  1.
       -5    1    3    3    0  502 -0.76780396775E+03  0.48777390969E+03 -0.49027208312E+03  0.10333610818E+04  0.46999998093E+01 0. -1.
</event>
<event>
 5   0  0.1921687E-04  0.2091048E+04  0.7818609E-02  0.8565197E-01
       -2   -1    0    0    0  501  0.00000000000E+00  0.00000000000E+00  0.83160096558E+03  0.83160096558E+03  0.25500000920E-02 0.  1.
        2   -1    0    0  501    0  0.00000000000E+00  0.00000000000E+00 -0.13144765181E+04  0.13144765181E+04  0.25500000920E-02 0. -1.
    10030    2    1    2    0    0  0.00000000000E+00  0.00000000000E+00 -0.48287555256E+03  0.21460774837E+04  0.20910475286E+04 0.  0.
        5    1    3    3  502    0 -0.21469968721E+03  0.66675057371E+03  0.55516240487E+03  0.89380068752E+03  0.46999998093E+01 0.  1.
       -5    1    3    3    0  502  0.21469968721E+03 -0.66675057371E+03 -0.10380379574E+04  0.12522767962E+04  0.46999998093E+01 0. -1.
</event>
<event>
 5   0  0.1886323E-04  0.2088764E+04  0.7818609E-02  0.8566209E-01
       -2   -1    0    0    0  501  0.00000000000E+00  0.00000000000E+00  0.81362780406E+03  0.81362780407E+03  0.25500000920E-02 0.  1.
        2   -1    0    0  501    0  0.00000000000E+00  0.00000000000E+00 -0.13405807364E+04  0.13405807364E+04  0.25500000920E-02 0. -1.
    10030    2    1    2    0    0  0.00000000000E+00  0.00000000000E+00 -0.52695293232E+03  0.21542085405E+04  0.20887639989E+04 0.  0.
        2    1    3    3  502    0  0.45646058181E+03 -0.64571935776E+03 -0.96707149304E+03  0.12492145630E+04  0.25500000920E-02 0. -1.
       -2    1    3    3    0  502 -0.45646058181E+03  0.64571935776E+03  0.44011856072E+03  0.90499397746E+03  0.25500000920E-02 0.  1.
</event>
<event>
 5   0  0.1886323E-04  0.2113484E+04  0.7818609E-02  0.8555327E-01
       -2   -1    0    0    0  501  0.00000000000E+00  0.00000000000E+00  0.56110640851E+03  0.56110640852E+03  0.25500000920E-02 0.  1.
        2   -1    0    0  501    0  0.00000000000E+00  0.00000000000E+00 -0.19901822444E+04  0.19901822444E+04  0.25500000920E-02 0. -1.
    10030    2    1    2    0    0  0.00000000000E+00  0.00000000000E+00 -0.14290758358E+04  0.25512886529E+04  0.21134843377E+04 0.  0.
        2    1    3    3  502    0 -0.65840393241E+03 -0.67172090691E+03 -0.12959765684E+04  0.16013306907E+04  0.25500000920E-02 0. -1.
       -2    1    3    3    0  502  0.65840393241E+03  0.67172090691E+03 -0.13309926745E+03  0.94995796223E+03  0.25500000920E-02 0.  1.
</event>
<event>
 5   0  0.1810875E-04  0.1485046E+04  0.7818609E-02  0.8894458E-01
       -2   -1    0    0    0  501  0.00000000000E+00  0.00000000000E+00  0.14469822906E+04  0.14469822906E+04  0.25500000920E-02 0. -1.
        2   -1    0    0  501    0  0.00000000000E+00  0.00000000000E+00 -0.38102775498E+03  0.38102775499E+03  0.25500000920E-02 0.  1.
    10030    2    1    2    0    0  0.00000000000E+00  0.00000000000E+00  0.10659545356E+04  0.18280100456E+04  0.14850460110E+04 0.  0.
        1    1    3    3  502    0  0.22086543579E+03  0.70586051776E+03  0.61388138251E+03  0.96118206552E+03  0.50400001928E-02 0.  1.
       -1    1    3    3    0  502 -0.22086543579E+03 -0.70586051776E+03  0.45207315313E+03  0.86682798009E+03  0.50400001928E-02 0. -1.
</event>
<event>
 5   0  0.8486612E-05  0.2084284E+04  0.7818609E-02  0.8568198E-01
       -1   -1    0    0    0  501  0.00000000000E+00  0.00000000000E+00  0.18512728977E+04  0.18512728977E+04  0.50400001928E-02 0. -1.
        1   -1    0    0  501    0  0.00000000000E+00  0.00000000000E+00 -0.58665583957E+03  0.58665583959E+03  0.50400001928E-02 0.  1.
    10030    2    1    2    0    0  0.00000000000E+00  0.00000000000E+00  0.12646170581E+04  0.24379287373E+04  0.20842841036E+04 0.  0.
        5    1    3    3  502    0 -0.72260659838E+03  0.27028119573E+03 -0.18715146795E+03  0.79388915016E+03  0.46999998093E+01 0.  1.
       -5    1    3    3    0  502  0.72260659838E+03 -0.27028119573E+03  0.14517685261E+04  0.16440395871E+04  0.46999998093E+01 0. -1.
</event>
<event>
 5   0  0.8755004E-05  0.2109881E+04  0.7818609E-02  0.8556903E-01
        1   -1    0    0  501    0  0.00000000000E+00  0.00000000000E+00  0.16366725209E+04  0.16366725209E+04  0.50400001928E-02 0. -1.
       -1   -1    0    0    0  501  0.00000000000E+00  0.00000000000E+00 -0.67997675201E+03  0.67997675203E+03  0.50400001928E-02 0.  1.
    10030    2    1    2    0    0  0.00000000000E+00  0.00000000000E+00  0.95669576893E+03  0.23166492730E+04  0.21098808165E+04 0.  0.
        3    1    3    3  502    0 -0.20791645773E+03  0.58024363705E+03  0.14183971133E+04  0.15465323511E+04  0.10100000352E+00 0. -1.
       -3    1    3    3    0  502  0.20791645773E+03 -0.58024363705E+03 -0.46170134439E+03  0.77011692187E+03  0.10100000352E+00 0.  1.
</event>
<event>
 5   0  0.1815400E-04  0.2117085E+04  0.7818609E-02  0.8553754E-01
       -2   -1    0    0    0  501  0.00000000000E+00  0.00000000000E+00  0.10914847479E+04  0.10914847479E+04  0.25500000920E-02 0. -1.
        2   -1    0    0  501    0  0.00000000000E+00  0.00000000000E+00 -0.10265947929E+04  0.10265947929E+04  0.25500000920E-02 0.  1.
    10030    2    1    2    0    0  0.00000000000E+00  0.00000000000E+00  0.64889954931E+02  0.21180795408E+04  0.21170853159E+04 0.  0.
        3    1    3    3  502    0 -0.39773721492E+03 -0.97172867104E+03  0.16689948236E+03  0.10631589484E+04  0.10100000352E+00 0. -1.
       -3    1    3    3    0  502  0.39773721492E+03  0.97172867104E+03 -0.10200952743E+03  0.10549205923E+04  0.10100000352E+00 0.  1.
</event>
<event>
 5   0  0.8237966E-05  0.2087352E+04  0.7818609E-02  0.8566836E-01
        1   -1    0    0  501    0  0.00000000000E+00  0.00000000000E+00  0.10896786757E+04  0.10896786757E+04  0.50400001928E-02 0.  1.
       -1   -1    0    0    0  501  0.00000000000E+00  0.00000000000E+00 -0.99961519380E+03  0.99961519382E+03  0.50400001928E-02 0. -1.
    10030    2    1    2    0    0  0.00000000000E+00  0.00000000000E+00  0.90063481852E+02  0.20892938695E+04  0.20873517773E+04 0.  0.
        1    1    3    3  502    0  0.18825563938E+03  0.96400182497E+03  0.39823348583E+03  0.10598724516E+04  0.50400001928E-02 0.  1.
       -1    1    3    3    0  502 -0.18825563938E+03 -0.96400182497E+03 -0.30817000398E+03  0.10294214179E+04  0.50400001928E-02 0. -1.
</event>
<event>
 5   0  0.1886323E-04  0.2103905E+04  0.7818609E-02  0.8559525E-01
       -2   -1    0    0    0  501  0.00000000000E+00  0.00000000000E+00  0.11749110997E+04  0.11749110997E+04  0.25500000920E-02 0. -1.
        2   -1    0    0  501    0  0.00000000000E+00  0.00000000000E+00 -0.94186185908E+03  0.94186185908E+03  0.25500000920E-02 0.  1.
    10030    2    1    2    0    0  0.00000000000E+00  0.00000000000E+00  0.23304924066E+03  0.21167729588E+04  0.21039048958E+04 0.  0.
        2    1    3    3  502    0 -0.80926164458E+03  0.58875236267E+03  0.44265251846E+03  0.10942920113E+04  0.25500000920E-02 0. -1.
       -2    1    3    3    0  502  0.80926164458E+03 -0.58875236267E+03 -0.20960327781E+03  0.10224809475E+04  0.25500000920E-02 0.  1.
</event>
<event>
 5   0  0.8525278E-05  0.2096652E+04  0.7818609E-02  0.8562720E-01
        1   -1    0    0  501    0  0.00000000000E+00  0.00000000000E+00  0.22182550333E+04  0.22182550333E+04  0.50400001928E-02 0.  1.
       -1   -1    0    0    0  501  0.00000000000E+00  0.00000000000E+00 -0.49542878776E+03  0.49542878778E+03  0.50400001928E-02 0. -1.
    10030    2    1    2    0    0  0.00000000000E+00  0.00000000000E+00  0.17228262455E+04  0.27136838211E+04  0.20966519998E+04 0.  0.
        4    1    3    3  502    0  0.28588129713E+03  0.99617408372E+03  0.65719804342E+03  0.12271926508E+04  0.12699999809E+01 0. -1.
       -4    1    3    3    0  502 -0.28588129713E+03 -0.99617408372E+03  0.10656282021E+04  0.14864911702E+04  0.12699999809E+01 0.  1.
</event>
<event>
 5   0  0.8237966E-05  0.2125592E+04  0.7818609E-02  0.8550053E-01
       -1   -1    0    0    0  501  0.00000000000E+00  0.00000000000E+00  0.17966960069E+04  0.17966960069E+04  0.50400001928E-02 0.  1.
        1   -1    0    0  501    0  0.00000000000E+00  0.00000000000E+00 -0.62867362219E+03  0.62867362221E+03  0.50400001928E-02 0. -1.
    10030    2    1    2    0    0  0.00000000000E+00  0.00000000000E+00  0.11680223847E+04  0.24253696291E+04  0.21255920462E+04 0.  0.
        1    1    3    3  502    0  0.16683084516E+03 -0.53583547854E+03 -0.44581928867E+03  0.71673358310E+03  0.50400001928E-02 0. -1.
       -1    1    3    3    0  502 -0.16683084516E+03  0.53583547854E+03  0.16138416734E+04  0.17086360460E+04  0.50400001928E-02 0.  1.
</event>
<event>
 5   0  0.8271069E-05  0.1787884E+04  0.7818609E-02  0.8712769E-01
        1   -1    0    0  501    0  0.00000000000E+00  0.00000000000E+00  0.93218197326E+03  0.93218197328E+03  0.50400001928E-02 0. -1.
       -1   -1    0    0    0  501  0.00000000000E+00  0.00000000000E+00 -0.85727051311E+03  0.85727051313E+03  0.50400001928E-02 0.  1.
    10030    2    1    2    0    0  0.00000000000E+00  0.00000000000E+00  0.74911460152E+02  0.17894524864E+04  0.17878837977E+04 0.  0.
        2    1    3    3  502    0  0.18296740518E+02 -0.13384978678E+03  0.92190610972E+03  0.93175179704E+03  0.25500000920E-02 0. -1.
       -2    1    3    3    0  502 -0.18296740518E+02  0.13384978678E+03 -0.84699464957E+03  0.85770068937E+03  0.25500000920E-02 0.  1.
</event>
<event>
 5   0  0.8755004E-05  0.2094272E+04  0.7818609E-02  0.8563771E-01
        1   -1    0    0  501    0  0.00000000000E+00  0.00000000000E+00  0.13049524163E+04  0.13049524163E+04  0.50400001928E-02 0.  1.
       -1   -1    0    0    0  501  0.00000000000E+00  0.00000000000E+00 -0.84025571330E+03  0.84025571331E+03  0.50400001928E-02 0. -1.
    10030    2    1    2    0    0  0.00000000000E+00  0.00000000000E+00  0.46469670304E+03  0.21452081297E+04  0.20942719245E+04 0.  0.
        3    1    3    3  502    0  0.28676317749E+03  0.99267247076E+03  0.58328310514E+02  0.10349077042E+04  0.10100000352E+00 0.  1.
       -3    1    3    3    0  502 -0.28676317749E+03 -0.99267247076E+03  0.40636839252E+03  0.11103004255E+04  0.10100000352E+00 0. -1.
</event>
<event>
 5   0  0.1777590E-04  0.1900901E+04  0.7818609E-02  0.8654408E-01
       -2   -1    0    0    0  501  0.00000000000E+00  0.00000000000E+00  0.10752064529E+04  0.10752064529E+04  0.25500000920E-02 0.  1.
        2   -1    0    0  501    0  0.00000000000E+00  0.00000000000E+00 -0.84016992391E+03  0.84016992391E+03  0.25500000920E-02 0. -1.
    10030    2    1    2    0    0  0.00000000000E+00  0.00000000000E+00  0.23503652896E+03  0.19153763768E+04  0.19009009692E+04 0.  0.
        4    1    3    3  502    0 -0.20734506802E+03 -0.62877604241E+03 -0.56958595531E+03  0.87337338070E+03  0.12699999809E+01 0. -1.
       -4    1    3    3    0  502  0.20734506802E+03  0.62877604241E+03  0.80462248426E+03  0.10420029961E+04  0.12699999809E+01 0.  1.
</event>
<event>
 5   0  0.1777590E-04  0.2076139E+04  0.7818609E-02  0.8571828E-01
        2   -1    0    0  501    0  0.00000000000E+00  0.00000000000E+00  0.14187178324E+04  0.14187178324E+04  0.25500000920E-02 0.  1.
       -2   -1    0    0    0  501  0.00000000000E+00  0.00000000000E+00 -0.75955104696E+03  0.75955104697E+03  0.25500000920E-02 0. -1.
    10030    2    1    2    0    0  0.00000000000E+00  0.00000000000E+00  0.65916678540E+03  0.21782688793E+04  0.20761393161E+04 0.  0.
        4    1    3    3  502    0  0.13015117646E+03  0.24359143207E+03  0.13794629107E+04  0.14068388854E+04  0.12699999809E+01 0.  1.
       -4    1    3    3    0  502 -0.13015117646E+03 -0.24359143207E+03 -0.72029612531E+03  0.77142999394E+03  0.12699999809E+01 0. -1.
</event>
<event>
 5   0  0.8271069E-05  0.2091286E+04  0.7818609E-02  0.8565092E-01
        1   -1    0    0  501    0  0.00000000000E+00  0.00000000000E+00  0.18235789585E+04  0.18235789585E+04  0.50400001928E-02 0. -1.
       -1   -1    0    0    0  501  0.00000000000E+00  0.00000000000E+00 -0.59957310291E+03  0.59957310293E+03  0.50400001928E-02 0.  1.
    10030    2    1    2    0    0  0.00000000000E+00  0.00000000000E+00  0.12240058556E+04  0.24231520615E+04  0.20912856281E+04 0.  0.
        2    1    3    3  502    0 -0.55701557564E+03 -0.56226045807E+03  0.14037925694E+04  0.16115324235E+04  0.25500000920E-02 0. -1.
       -2    1    3    3    0  502  0.55701557564E+03  0.56226045807E+03 -0.17978671377E+03  0.81161963793E+03  0.25500000920E-02 0.  1.
</event>
<event>
 5   0  0.1777590E-04  0.2072471E+04  0.7818609E-02  0.8573468E-01
        2   -1    0    0  501    0  0.00000000000E+00  0.00000000000E+00  0.88479807590E+03  0.88479807590E+03  0.25500000920E-02 0.  1.
       -2   -1    0    0    0  501  0.00000000000E+00  0.00000000000E+00 -0.12135918521E+04  0.12135918521E+04  0.25500000920E-02 0. -1.
    10030    2    1    2    0    0  0.00000000000E+00  0.00000000000E+00 -0.32879377622E+03  0.20983899280E+04  0.20724707339E+04 0.  0.
        4    1    3    3  502    0 -0.26673632963E+03  0.73232704723E+03  0.52702783793E+03  0.94085659295E+03  0.12699999809E+01 0.  1.
       -4    1    3    3    0  502  0.26673632963E+03 -0.73232704723E+03 -0.85582161415E+03  0.11575333351E+04  0.12699999809E+01 0. -1.
</event>
<event>
 5   0  0.1810875E-04  0.1971820E+04  0.7818609E-02  0.8619910E-01
        2   -1    0    0  501    0  0.00000000000E+00  0.00000000000E+00  0.13576098455E+04  0.13576098455E+04  0.25500000920E-02 0. -1.
       -2   -1    0    0    0  501  0.00000000000E+00  0.00000000000E+00 -0.71597747782E+03  0.71597747782E+03  0.25500000920E-02 0.  1.
    10030    2    1    2    0    0  0.00000000000E+00  0.00000000000E+00  0.64163236771E+03  0.20735873234E+04  0.19718195385E+04 0.  0.
        1    1    3    3  502    0  0.14042242942E+03 -0.43034499556E+03 -0.60023114476E+03  0.75179299082E+03  0.50400001928E-02 0.  1.
       -1    1    3    3    0  502 -0.14042242942E+03  0.43034499556E+03  0.12418635125E+04  0.13217943325E+04  0.50400001928E-02 0. -1.
</event>
<event>
 5   0  0.1777590E-04  0.2090141E+04  0.7818609E-02  0.8565599E-01
       -2   -1    0    0    0  501  0.00000000000E+00  0.00000000000E+00  0.10507605768E+04  0.10507605768E+04  0.25500000920E-02 0. -1.
        2   -1    0    0  501    0  0.00000000000E+00  0.00000000000E+00 -0.10394108169E+04  0.10394108169E+04  0.25500000920E-02 0.  1.
    10030    2    1    2    0    0  0.00000000000E+00  0.00000000000E+00  0.11349759945E+02  0.20901713937E+04  0.20901405785E+04 0.  0.
        4    1    3    3  502    0 -0.66404172425E+03 -0.69668171955E+03 -0.40158223432E+03  0.10428742655E+04  0.12699999809E+01 0. -1.
       -4    1    3    3    0  502  0.66404172425E+03  0.69668171955E+03  0.41293199427E+03  0.10472971282E+04  0.12699999809E+01 0.  1.
</event>
<event>
 5   0  0.8486612E-05  0.1830699E+04  0.7818609E-02  0.8690142E-01
       -1   -1    0    0    0  501  0.00000000000E+00  0.00000000000E+00  0.91828094711E+03  0.91828094713E+03  0.50400001928E-02 0.  1.
        1   -1    0    0  501    0  0.00000000000E+00  0.00000000000E+00 -0.91242736630E+03  0.91242736632E+03  0.50400001928E-02 0. -1.
    10030    2    1    2    0    0  0.00000000000E+00  0.00000000000E+00  0.58535808115E+01  0.18307083134E+04  0.18306989552E+04 0.  0.
        5    1    3    3  502    0 -0.22674956805E+03 -0.88381407770E+03  0.75727475565E+02  0.91558693258E+03  0.46999998093E+01 0.  1.
       -5    1    3    3    0  502  0.22674956805E+03  0.88381407770E+03 -0.69873894754E+02  0.91512138087E+03  0.46999998093E+01 0. -1.
</event>
<event>
 5   0  0.1921687E-04  0.2029640E+04  0.7818609E-02  0.8592887E-01
        2   -1    0    0  501    0  0.00000000000E+00  0.00000000000E+00  0.19102363968E+04  0.19102363968E+04  0.25500000920E-02 0. -1.
       -2   -1    0    0    0  501  0.00000000000E+00  0.00000000000E+00 -0.53912685299E+03  0.53912685300E+03  0.25500000920E-02 0.  1.
    10030    2    1    2    0    0  0.00000000000E+00  0.00000000000E+00  0.13711095438E+04  0.24493632498E+04  0.20296401032E+04 0.  0.
        5    1    3    3  502    0 -0.17985758408E+03  0.70553716039E+03 -0.16752871631E+03  0.74714081406E+03  0.46999998093E+01 0.  1.
       -5    1    3    3    0  502  0.17985758408E+03 -0.70553716039E+03  0.15386382601E+04  0.17022224357E+04  0.46999998093E+01 0. -1.
</event>
<event>
 5   0  0.8486612E-05  0.1876046E+04  0.7818609E-02  0.8666872E-01
       -1   -1    0    0    0  501  0.00000000000E+00  0.00000000000E+00  0.13408685463E+04  0.13408685463E+04  0.50400001928E-02 0. -1.
        1   -1    0    0  501    0  0.00000000000E+00  0.00000000000E+00 -0.65620708013E+03  0.65620708014E+03  0.50400001928E-02 0.  1.
    10030    2    1    2    0    0  0.00000000000E+00  0.00000000000E+00  0.68466146614E+03  0.19970756264E+04  0.18760463039E+04 0.  0.
        5    1    3    3  502    0 -0.48004059797E+03  0.29527196878E+03  0.11405315159E+04  0.12721865980E+04  0.46999998093E+01 0. -1.
       -5    1    3    3    0  502  0.48004059797E+03 -0.29527196878E+03 -0.45587004979E+03  0.72488902844E+03  0.46999998093E+01 0.  1.
</event>
<event>
 5   0  0.8755004E-05  0.2016012E+04  0.7818609E-02  0.8599171E-01
       -1   -1    0    0    0  501  0.00000000000E+00  0.00000000000E+00  0.71170528326E+03  0.71170528328E+03  0.50400001928E-02 0.  1.
        1   -1    0    0  501    0  0.00000000000E+00  0.00000000000E+00 -0.14276638964E+04  0.14276638964E+04  0.50400001928E-02 0. -1.
    10030    2    1    2    0    0  0.00000000000E+00  0.00000000000E+00 -0.71595861314E+03  0.21393691797E+04  0.20160118430E+04 0.  0.
        3    1    3    3  502    0  0.27044833636E+03 -0.39084760955E+03 -0.13012870753E+04  0.13853707876E+04  0.10100000352E+00 0. -1.
       -3    1    3    3    0  502 -0.27044833636E+03  0.39084760955E+03  0.58532846214E+03  0.75399839212E+03  0.10100000352E+00 0.  1.
</event>
<event>
 5   0  0.1815400E-04  0.1835538E+04  0.7818609E-02  0.8687626E-01
       -2   -1    0    0    0  501  0.00000000000E+00  0.00000000000E+00  0.56185214064E+03  0.56185214065E+03  0.25500000920E-02 0. -1.
        2   -1    0    0  501    0  0.00000000000E+00  0.00000000000E+00 -0.14991479608E+04  0.14991479608E+04  0.25500000920E-02 0.  1.
    10030    2    1    2    0    0  0.00000000000E+00  0.00000000000E+00 -0.93729582019E+03  0.20610001015E+04  0.18355375136E+04 0.  0.
        3    1    3    3  502    0 -0.72900034262E+03 -0.31025025424E+03  0.51506638846E+02  0.79394563028E+03  0.10100000352E+00 0. -1.
       -3    1    3    3    0  502  0.72900034262E+03  0.31025025424E+03 -0.98880245904E+03  0.12670544712E+04  0.10100000352E+00 0.  1.
</event>
<event>
 5   0  0.8237966E-05  0.2148655E+04  0.7818609E-02  0.8540108E-01
       -1   -1    0    0    0  501  0.00000000000E+00  0.00000000000E+00  0.14956147495E+04  0.14956147495E+04  0.50400001928E-02 0. -1.
        1   -1    0    0  501    0  0.00000000000E+00  0.00000000000E+00 -0.77170905390E+03  0.77170905392E+03  0.50400001928E-02 0.  1.
    10030    2    1    2    0    0  0.00000000000E+00  0.00000000000E+00  0.72390569561E+03  0.22673238034E+04  0.21486548754E+04 0.  0.
        1    1    3    3  502    0  0.54473148178E+02  0.33561987423E+03 -0.71343485966E+03  0.79031469863E+03  0.50400001928E-02 0.  1.
       -1    1    3    3    0  502 -0.54473148178E+02 -0.33561987423E+03  0.14373405553E+04  0.14770091048E+04  0.50400001928E-02 0. -1.
</event>
<event>
 5   0  0.8525278E-05  0.2069713E+04  0.7818609E-02  0.8574704E-01
       -1   -1    0    0    0  501  0.00000000000E+00  0.00000000000E+00  0.40735725397E+03  0.40735725400E+03  0.50400001928E-02 0. -1.
        1   -1    0    0  501    0  0.00000000000E+00  0.00000000000E+00 -0.26289653098E+04  0.26289653098E+04  0.50400001928E-02 0.  1.
    10030    2    1    2    0    0  0.00000000000E+00  0.00000000000E+00 -0.22216080558E+04  0.30363225638E+04  0.20697131100E+04 0.  0.
        4    1    3    3  502    0 -0.10244847089E+04  0.54103870692E+01 -0.89655654508E+03  0.13614012790E+04  0.12699999809E+01 0.  1.
       -4    1    3    3    0  502  0.10244847089E+04 -0.54103870692E+01 -0.13250515107E+04  0.16749212848E+04  0.12699999809E+01 0. -1.
</event>
<event>
 5   0  0.8486612E-05  0.2317261E+04  0.7818609E-02  0.8471146E-01
       -1   -1    0    0    0  501  0.00000000000E+00  0.00000000000E+00  0.80813924795E+03  0.80813924797E+03  0.50400001928E-02 0.  1.
        1   -1    0    0  501    0  0.00000000000E+00  0.00000000000E+00 -0.16611306151E+04  0.16611306151E+04  0.50400001928E-02 0. -1.
    10030    2    1    2    0    0  0.00000000000E+00  0.00000000000E+00 -0.85299136710E+03  0.24692698630E+04  0.23172611817E+04 0.  0.
        5    1    3    3  502    0  0.12689653503E+03  0.86450416083E+03  0.38429278870E+03  0.95455393359E+03  0.46999998093E+01 0.  1.
       -5    1    3    3    0  502 -0.12689653503E+03 -0.86450416083E+03 -0.12372841558E+04  0.15147159294E+04  0.46999998093E+01 0. -1.
</event>
<event>
 5   0  0.8237966E-05  0.2110873E+04  0.7818609E-02  0.8556469E-01
       -1   -1    0    0    0  501  0.00000000000E+00  0.00000000000E+00  0.70492546175E+03  0.70492546176E+03  0.50400001928E-02 0.  1.
        1   -1    0    0  501    0  0.00000000000E+00  0.00000000000E+00 -0.15802323865E+04  0.15802323865E+04  0.50400001928E-02 0. -1.
    10030    2    1    2    0    0  0.00000000000E+00  0.00000000000E+00 -0.87530692476E+03  0.22851578483E+04  0.21108728477E+04 0.  0.
        1    1    3    3  502    0 -0.18538880265E+02  0.71678667705E+03  0.40077172721E+03  0.82142851657E+03  0.50400001928E-02 0.  1.
       -1    1    3    3    0  502  0.18538880265E+02 -0.71678667705E+03 -0.12760786520E+04  0.14637293317E+04  0.50400001928E-02 0. -1.
</event>
<event>
 5   0  0.8237966E-05  0.1979197E+04  0.7818609E-02  0.8616409E-01
       -1   -1    0    0    0  501  0.00000000000E+00  0.00000000000E+00  0.13104279826E+04  0.13104279826E+04  0.50400001928E-02 0.  1.
        1   -1    0    0  501    0  0.00000000000E+00  0.00000000000E+00 -0.74731696498E+03  0.74731696500E+03  0.50400001928E-02 0. -1.
    10030    2    1    2    0    0  0.00000000000E+00  0.00000000000E+00  0.56311101758E+03  0.20577449476E+04  0.19791968702E+04 0.  0.
        1    1    3    3  502    0 -0.19751956280E+02 -0.94845076380E+03  0.57443747327E+03  0.11090209204E+04  0.50400001928E-02 0. -1.
       -1    1    3    3    0  502  0.19751956280E+02  0.94845076380E+03 -0.11326455689E+02  0.94872402718E+03  0.50400001928E-02 0.  1.
</event>
<event>
 5   0  0.1777590E-04  0.2112408E+04  0.7818609E-02  0.8555797E-01
       -2   -1    0    0    0  501  0.00000000000E+00  0.00000000000E+00  0.11179648892E+04  0.11179648892E+04  0.25500000920E-02 0. -1.
        2   -1    0    0  501    0  0.00000000000E+00  0.00000000000E+00 -0.99785476070E+03  0.99785476071E+03  0.25500000920E-02 0.  1.
    10030    2    1    2    0    0  0.00000000000E+00  0.00000000000E+00  0.12011012849E+03  0.21158196499E+04  0.21124077135E+04 0.  0.
        4    1    3    3  502    0  0.50357146540E+03  0.52181315647E+03  0.82920930633E+03  0.11015729107E+04  0.12699999809E+01 0. -1.
       -4    1    3    3    0  502 -0.50357146540E+03 -0.52181315647E+03 -0.70909917784E+03  0.10142467392E+04  0.12699999809E+01 0.  1.
</event>
<event>
 5   0  0.8525278E-05  0.2113093E+04  0.7818609E-02  0.8555498E-01
        1   -1    0    0  501    0  0.00000000000E+00  0.00000000000E+00  0.19141480419E+04  0.19141480419E+04  0.50400001928E-02 0. -1.
       -1   -1    0    0    0  501  0.00000000000E+00  0.00000000000E+00 -0.58317867901E+03  0.58317867903E+03  0.50400001928E-02 0.  1.
    10030    2    1    2    0    0  0.00000000000E+00  0.00000000000E+00  0.13309693629E+04  0.24973267210E+04  0.21130928295E+04 0.  0.
        4    1    3    3  502    0  0.26565603463E+02 -0.98531069943E+03  0.11151193454E+04  0.14882995912E+04  0.12699999809E+01 0. -1.
       -4    1    3    3    0  502 -0.26565603463E+02  0.98531069943E+03  0.21585001752E+03  0.10090271298E+04  0.12699999809E+01 0.  1.
</event>
<event>
 5   0  0.8237966E-05  0.2110254E+04  0.7818609E-02  0.8556740E-01
       -1   -1    0    0    0  501  0.00000000000E+00  0.00000000000E+00  0.58416592538E+03  0.58416592540E+03  0.50400001928E-02 0.  1.
        1   -1    0    0  501    0  0.00000000000E+00  0.00000000000E+00 -0.19057826030E+04  0.19057826030E+04  0.50400001928E-02 0. -1.
    10030    2    1    2    0    0  0.00000000000E+00  0.00000000000E+00 -0.13216166776E+04  0.24899485284E+04  0.21102542575E+04 0.  0.
        1    1    3    3  502    0  0.78973748145E+03 -0.23698301153E+03 -0.14376340573E+04  0.16572983799E+04  0.50400001928E-02 0. -1.
       -1    1    3    3    0  502 -0.78973748145E+03  0.23698301153E+03  0.11601737968E+03  0.83265014848E+03  0.50400001928E-02 0.  1.
</event>
<event>
 5   0  0.8755004E-05  0.2165120E+04  0.7818609E-02  0.8533088E-01
        1   -1    0    0  501    0  0.00000000000E+00  0.00000000000E+00  0.12374506004E+04  0.12374506004E+04  0.50400001928E-02 0. -1.
       -1   -1    0    0    0  501  0.00000000000E+00  0.00000000000E+00 -0.94705699010E+03  0.94705699012E+03  0.50400001928E-02 0.  1.
    10030    2    1    2    0    0  0.00000000000E+00  0.00000000000E+00  0.29039361033E+03  0.21845075906E+04  0.21651200808E+04 0.  0.
        3    1    3    3  502    0  0.53838448431E+03  0.86008663966E+03  0.52584064294E+03  0.11428540032E+04  0.10100000352E+00 0. -1.
       -3    1    3    3    0  502 -0.53838448431E+03 -0.86008663966E+03 -0.23544703261E+03  0.10416535874E+04  0.10100000352E+00 0.  1.
</event>
<event>
 5   0  0.8755004E-05  0.2107665E+04  0.7818609E-02  0.8557874E-01
       -1   -1    0    0    0  501  0.00000000000E+00  0.00000000000E+00  0.10101817724E+04  0.10101817724E+04  0.50400001928E-02 0.  1.
        1   -1    0    0  501    0  0.00000000000E+00  0.00000000000E+00 -0.10993695026E+04  0.10993695026E+04  0.50400001928E-02 0. -1.
    10030    2    1    2    0    0  0.00000000000E+00  0.00000000000E+00 -0.89187730226E+02  0.21095512751E+04  0.21076650898E+04 0.  0.
        3    1    3    3  502    0 -0.55782364434E+03 -0.77358860412E+03  0.40408900237E+03  0.10358061974E+04  0.10100000352E+00 0.  1.
       -3    1    3    3    0  502  0.55782364434E+03  0.77358860412E+03 -0.49327673260E+03  0.10737450776E+04  0.10100000352E+00 0. -1.
</event>
<event>
 5   0  0.1777590E-04  0.2117176E+04  0.7818609E-02  0.8553715E-01
       -2   -1    0    0    0  501  0.00000000000E+00  0.00000000000E+00  0.12616715502E+04  0.12616715502E+04  0.25500000920E-02 0.  1.
        2   -1    0    0  501    0  0.00000000000E+00  0.00000000000E+00 -0.88819366496E+03  0.88819366497E+03  0.25500000920E-02 0. -1.
    10030    2    1    2    0    0  0.00000000000E+00  0.00000000000E+00  0.37347788524E+03  0.21498652152E+04  0.21171761175E+04 0.  0.
        4    1    3    3  502    0 -0.49602124672E+03  0.75367306469E+03 -0.37547642254E+03  0.97726369135E+03  0.12699999809E+01 0. -1.
       -4    1    3    3    0  502  0.49602124672E+03 -0.75367306469E+03  0.74895430778E+03  0.11726015238E+04  0.12699999809E+01 0.  1.
</event>
<event>
 5   0  0.8271069E-05  0.2114329E+04  0.7818609E-02  0.8554958E-01
       -1   -1    0    0    0  501  0.00000000000E+00  0.00000000000E+00  0.67321820682E+03  0.67321820684E+03  0.50400001928E-02 0. -1.
        1   -1    0    0  501    0  0.00000000000E+00  0.00000000000E+00 -0.16600807180E+04  0.16600807181E+04  0.50400001928E-02 0.  1.
    10030    2    1    2    0    0  0.00000000000E+00  0.00000000000E+00 -0.98686251123E+03  0.23332989249E+04  0.21143287958E+04 0.  0.
        2    1    3    3  502    0  0.70105189895E+03  0.77353516933E+03 -0.30954231171E+03  0.10888741277E+04  0.25500000920E-02 0. -1.
       -2    1    3    3    0  502 -0.70105189895E+03 -0.77353516933E+03 -0.67732019952E+03  0.12444247972E+04  0.25500000920E-02 0.  1.
</event>
<event>
 5   0  0.8525278E-05  0.1918649E+04  0.7818609E-02  0.8645629E-01
       -1   -1    0    0    0  501  0.00000000000E+00  0.00000000000E+00  0.11670686749E+04  0.11670686749E+04  0.50400001928E-02 0.  1.
        1   -1    0    0  501    0  0.00000000000E+00  0.00000000000E+00 -0.78855955220E+03  0.78855955221E+03  0.50400001928E-02 0. -1.
    10030    2    1    2    0    0  0.00000000000E+00  0.00000000000E+00  0.37850912269E+03  0.19556282271E+04  0.19186486408E+04 0.  0.
        4    1    3    3  502    0  0.36095328017E+03  0.81939486206E+03 -0.16177587809E+03  0.90987266036E+03  0.12699999809E+01 0. -1.
       -4    1    3    3    0  502 -0.36095328017E+03 -0.81939486206E+03  0.54028500078E+03  0.10457555668E+04  0.12699999809E+01 0.  1.
</event>
<event>
 5   0  0.1777590E-04  0.2134732E+04  0.7818609E-02  0.8546096E-01
        2   -1    0    0  501    0  0.00000000000E+00  0.00000000000E+00  0.11064173153E+04  0.11064173153E+04  0.25500000920E-02 0.  1.
       -2   -1    0    0    0  501  0.00000000000E+00  0.00000000000E+00 -0.10296929155E+04  0.10296929155E+04  0.25500000920E-02 0. -1.
    10030    2    1    2    0    0  0.00000000000E+00  0.00000000000E+00  0.76724399813E+02  0.21361102307E+04  0.21347318999E+04 0.  0.
        4    1    3    3  502    0 -0.46997638342E+03  0.50785530054E+03  0.85158223249E+03  0.10972641974E+04  0.12699999809E+01 0.  1.
       -4    1    3    3    0  502  0.46997638342E+03 -0.50785530054E+03 -0.77485783268E+03  0.10388460334E+04  0.12699999809E+01 0. -1.
</event>
<event>
 5   0  0.1921687E-04  0.2090116E+04  0.7818609E-02  0.8565610E-01
       -2   -1    0    0    0  501  0.00000000000E+00  0.00000000000E+00  0.45595387620E+03  0.45595387621E+03  0.25500000920E-02 0. -1.
        2   -1    0    0  501    0  0.00000000000E+00  0.00000000000E+00 -0.23952991999E+04  0.23952991999E+04  0.25500000920E-02 0.  1.
    10030    2    1    2    0    0  0.00000000000E+00  0.00000000000E+00 -0.19393453237E+04  0.28512530761E+04  0.20901157431E+04 0.  0.
        5    1    3    3  502    0 -0.15869947558E+03 -0.38612710740E+03  0.33725007610E+03  0.53669299459E+03  0.46999998093E+01 0. -1.
       -5    1    3    3    0  502  0.15869947558E+03  0.38612710740E+03 -0.22765953998E+04  0.23145600815E+04  0.46999998093E+01 0.  1.
</event>
<event>
 5   0  0.8525278E-05  0.2074255E+04  0.7818609E-02  0.8572670E-01
        1   -1    0    0  501    0  0.00000000000E+00  0.00000000000E+00  0.48094975430E+03  0.48094975432E+03  0.50400001928E-02 0. -1.
       -1   -1    0    0    0  501  0.00000000000E+00  0.00000000000E+00 -0.22364773204E+04  0.22364773204E+04  0.50400001928E-02 0.  1.
    10030    2    1    2    0    0  0.00000000000E+00  0.00000000000E+00 -0.17555275661E+04  0.27174270747E+04  0.20742547749E+04 0.  0.
        4    1    3    3  502    0  0.61687786598E+03 -0.15598233910E+03  0.19518820399E+03  0.66555904285E+03  0.12699999809E+01 0. -1.
       -4    1    3    3    0  502 -0.61687786598E+03  0.15598233910E+03 -0.19507157701E+04  0.20518680318E+04  0.12699999809E+01 0.  1.
</event>
<event>
 5   0  0.1777590E-04  0.2152476E+04  0.7818609E-02  0.8538473E-01
       -2   -1    0    0    0  501  0.00000000000E+00  0.00000000000E+00  0.87097445016E+03  0.87097445016E+03  0.25500000920E-02 0. -1.
        2   -1    0    0  501    0  0.00000000000E+00  0.00000000000E+00 -0.13298768329E+04  0.13298768329E+04  0.25500000920E-02 0.  1.
    10030    2    1    2    0    0  0.00000000000E+00  0.00000000000E+00 -0.45890238274E+03  0.22008512831E+04  0.21524764745E+04 0.  0.
        4    1    3    3  502    0  0.12401852616E+03  0.95860758478E+02 -0.13181422626E+04  0.13274300423E+04  0.12699999809E+01 0.  1.
       -4    1    3    3    0  502 -0.12401852616E+03 -0.95860758478E+02  0.85923987984E+03  0.87342124078E+03  0.12699999809E+01 0. -1.
</event>
<event>
 5   0  0.1815400E-04  0.2061236E+04  0.7818609E-02  0.8578514E-01
        2   -1    0    0  501    0  0.00000000000E+00  0.00000000000E+00  0.18614058581E+04  0.18614058581E+04  0.25500000920E-02 0.  1.
       -2   -1    0    0    0  501  0.00000000000E+00  0.00000000000E+00 -0.57062996909E+03  0.57062996910E+03  0.25500000920E-02 0. -1.
    10030    2    1    2    0    0  0.00000000000E+00  0.00000000000E+00  0.12907758890E+04  0.24320358272E+04  0.20612364903E+04 0.  0.
        3    1    3    3  502    0  0.96409786362E+03  0.34281070710E+03  0.79071154891E+03  0.12931467957E+04  0.10100000352E+00 0. -1.
       -3    1    3    3    0  502 -0.96409786362E+03 -0.34281070710E+03  0.50006434010E+03  0.11388890315E+04  0.10100000352E+00 0.  1.
</event>
<event>
 5   0  0.8486612E-05  0.2200799E+04  0.7818609E-02  0.8518095E-01
        1   -1    0    0  501    0  0.00000000000E+00  0.00000000000E+00  0.19568878814E+04  0.19568878814E+04  0.50400001928E-02 0. -1.
       -1   -1    0    0    0  501  0.00000000000E+00  0.00000000000E+00 -0.61877822140E+03  0.61877822142E+03  0.50400001928E-02 0.  1.
    10030    2    1    2    0    0  0.00000000000E+00  0.00000000000E+00  0.13381096600E+04  0.25756661029E+04  0.22007994936E+04 0.  0.
        5    1    3    3  502    0 -0.54820403484E+03 -0.14381536218E+03 -0.43481519887E+03  0.71435066276E+03  0.46999998093E+01 0.  1.
       -5    1    3    3    0  502  0.54820403484E+03  0.14381536218E+03  0.17729248589E+04  0.18613154401E+04  0.46999998093E+01 0. -1.
</event>
<event>
 5   0  0.1886323E-04  0.2039542E+04  0.7818609E-02  0.8588354E-01
       -2   -1    0    0    0  501  0.00000000000E+00  0.00000000000E+00  0.10363382707E+04  0.10363382707E+04  0.25500000920E-02 0. -1.
        2   -1    0    0  501    0  0.00000000000E+00  0.00000000000E+00 -0.10034681418E+04  0.10034681418E+04  0.25500000920E-02 0.  1.
    10030    2    1    2    0    0  0.00000000000E+00  0.00000000000E+00  0.32870128863E+02  0.20398064125E+04  0.20395415551E+04 0.  0.
        2    1    3    3  502    0 -0.13264191708E+03 -0.98266571023E+03 -0.22172746725E+03  0.10160653749E+04  0.25500000920E-02 0.  1.
       -2    1    3    3    0  502  0.13264191708E+03  0.98266571023E+03  0.25459759611E+03  0.10237410377E+04  0.25500000920E-02 0. -1.
</event>
<event>
 5   0  0.6441125E-05  0.2384928E+04  0.7818609E-02  0.8445168E-01
       -3   -1    0    0    0  501  0.00000000000E+00  0.00000000000E+00  0.79624597691E+03  0.79624598332E+03  0.10100000352E+00 0. -1.
        3   -1    0    0  501    0  0.00000000000E+00  0.00000000000E+00 -0.17858432056E+04  0.17858432085E+04  0.10100000352E+00 0.  1.
    10030    2    1    2    0    0  0.00000000000E+00  0.00000000000E+00 -0.98959722869E+03  0.25820891918E+04  0.23849280742E+04 0.  0.
        2    1    3    3  502    0  0.32431827406E+03 -0.98854644158E+03  0.13609599834E+03  0.10492514145E+04  0.25500000920E-02 0. -1.
       -2    1    3    3    0  502 -0.32431827406E+03  0.98854644158E+03 -0.11256932270E+04  0.15328377773E+04  0.25500000920E-02 0.  1.
</event>
<event>
 5   0  0.1886323E-04  0.2116854E+04  0.7818609E-02  0.8553855E-01
        2   -1    0    0  501    0  0.00000000000E+00  0.00000000000E+00  0.11044373970E+04  0.11044373970E+04  0.25500000920E-02 0. -1.
       -2   -1    0    0    0  501  0.00000000000E+00  0.00000000000E+00 -0.10143335210E+04  0.10143335210E+04  0.25500000920E-02 0.  1.
    10030    2    1    2    0    0  0.00000000000E+00  0.00000000000E+00  0.90103876007E+02  0.21187709180E+04  0.21168541505E+04 0.  0.
        2    1    3    3  502    0 -0.36101427320E+02 -0.91913633542E+03  0.56912222133E+03  0.10816723251E+04  0.25500000920E-02 0. -1.
       -2    1    3    3    0  502  0.36101427320E+02  0.91913633542E+03 -0.47901834532E+03  0.10370985929E+04  0.25500000920E-02 0.  1.
</event>
<event>
 5   0  0.8755004E-05  0.2094156E+04  0.7818609E-02  0.8563822E-01
       -1   -1    0    0    0  501  0.00000000000E+00  0.00000000000E+00  0.14120194885E+04  0.14120194885E+04  0.50400001928E-02 0. -1.
        1   -1    0    0  501    0  0.00000000000E+00  0.00000000000E+00 -0.77645691654E+03  0.77645691656E+03  0.50400001928E-02 0.  1.
    10030    2    1    2    0    0  0.00000000000E+00  0.00000000000E+00  0.63556257197E+03  0.21884764051E+04  0.20941559619E+04 0.  0.
        3    1    3    3  502    0 -0.28409034636E+03 -0.77278955920E+03  0.99380273477E+03  0.12905637968E+04  0.10100000352E+00 0. -1.
       -3    1    3    3    0  502  0.28409034636E+03  0.77278955920E+03 -0.35824016280E+03  0.89791260831E+03  0.10100000352E+00 0.  1.
</event>
<event>
 5   0  0.1815400E-04  0.2124922E+04  0.7818609E-02  0.8550344E-01
        2   -1    0    0  501    0  0.00000000000E+00  0.00000000000E+00  0.99967732327E+03  0.99967732327E+03  0.25500000920E-02 0. -1.
       -2   -1    0    0    0  501  0.00000000000E+00  0.00000000000E+00 -0.11291880585E+04  0.11291880585E+04  0.25500000920E-02 0.  1.
    10030    2    1    2    0    0  0.00000000000E+00  0.00000000000E+00 -0.12951073522E+03  0.21288653818E+04  0.21249223005E+04 0.  0.
        3    1    3    3  502    0 -0.29598043305E+03 -0.10123975584E+04 -0.19254774839E+03  0.10722070130E+04  0.10100000352E+00 0.  1.
       -3    1    3    3    0  502  0.29598043305E+03  0.10123975584E+04  0.63037013170E+02  0.10566583688E+04  0.10100000352E+00 0. -1.
</event>
<event>
 5   0  0.8525278E-05  0.2082829E+04  0.7818609E-02  0.8568845E-01
        1   -1    0    0  501    0  0.00000000000E+00  0.00000000000E+00  0.77862632377E+03  0.77862632379E+03  0.50400001928E-02 0.  1.
       -1   -1    0    0    0  501  0.00000000000E+00  0.00000000000E+00 -0.13928944421E+04  0.13928944421E+04  0.50400001928E-02 0. -1.
    10030    2    1    2    0    0  0.00000000000E+00  0.00000000000E+00 -0.61426811829E+03  0.21715207659E+04  0.20828291134E+04 0.  0.
        4    1    3    3  502    0 -0.60367604662E+03  0.81110811083E+03 -0.47069789943E+02  0.10121948008E+04  0.12699999809E+01 0.  1.
       -4    1    3    3    0  502  0.60367604662E+03 -0.81110811083E+03 -0.56719832835E+03  0.11593259651E+04  0.12699999809E+01 0. -1.
</event>
<event>
 5   0  0.8237966E-05  0.2161002E+04  0.7818609E-02  0.8534837E-01
        1   -1    0    0  501    0  0.00000000000E+00  0.00000000000E+00  0.11352267340E+04  0.11352267340E+04  0.50400001928E-02 0.  1.
       -1   -1    0    0    0  501  0.00000000000E+00  0.00000000000E+00 -0.10284134753E+04  0.10284134753E+04  0.50400001928E-02 0. -1.
    10030    2    1    2    0    0  0.00000000000E+00  0.00000000000E+00  0.10681325869E+03  0.21636402093E+04  0.21610020553E+04 0.  0.
        1    1    3    3  502    0  0.78838751547E+03  0.44799905527E+03  0.64168195432E+03  0.11108617189E+04  0.50400001928E-02 0.  1.
       -1    1    3    3    0  502 -0.78838751547E+03 -0.44799905527E+03 -0.53486869564E+03  0.10527784903E+04  0.50400001928E-02 0. -1.
</event>
<event>
 5   0  0.1886323E-04  0.1839566E+04  0.7818609E-02  0.8685537E-01
        2   -1    0    0  501    0  0.00000000000E+00  0.00000000000E+00  0.20655763153E+04  0.20655763153E+04  0.25500000920E-02 0.  1.
       -2   -1    0    0    0  501  0.00000000000E+00  0.00000000000E+00 -0.40957137024E+03  0.40957137025E+03  0.25500000920E-02 0. -1.
    10030    2    1    2    0    0  0.00000000000E+00  0.00000000000E+00  0.16560049450E+04  0.24751476855E+04  0.18395661682E+04 0.  0.
        2    1    3    3  502    0 -0.89455753513E+03 -0.13383919497E+03  0.10525642246E+04  0.13878175531E+04  0.25500000920E-02 0.  1.
       -2    1    3    3    0  502  0.89455753513E+03  0.13383919497E+03  0.60344072040E+03  0.10873301324E+04  0.25500000920E-02 0. -1.
</event>
<event>
 5   0  0.8755004E-05  0.1992684E+04  0.7818609E-02  0.8610049E-01
       -1   -1    0    0    0  501  0.00000000000E+00  0.00000000000E+00  0.61670607445E+03  0.61670607447E+03  0.50400001928E-02 0. -1.
        1   -1    0    0  501    0  0.00000000000E+00  0.00000000000E+00 -0.16096761713E+04  0.16096761713E+04  0.50400001928E-02 0.  1.
    10030    2    1    2    0    0  0.00000000000E+00  0.00000000000E+00 -0.99297009686E+03  0.22263822458E+04  0.19926836907E+04 0.  0.
        3    1    3    3  502    0  0.61811152730E+03  0.15291072536E+03  0.35971288509E+03  0.73132545423E+03  0.10100000352E+00 0. -1.
       -3    1    3    3    0  502 -0.61811152730E+03 -0.15291072536E+03 -0.13526829819E+04  0.14950567916E+04  0.10100000352E+00 0.  1.
</event>
<event>
 5   0  0.1777590E-04  0.2065779E+04  0.7818609E-02  0.8576470E-01
       -2   -1    0    0    0  501  0.00000000000E+00  0.00000000000E+00  0.62892966116E+03  0.62892966116E+03  0.25500000920E-02 0.  1.
        2   -1    0    0  501    0  0.00000000000E+00  0.00000000000E+00 -0.16963112273E+04  0.16963112273E+04  0.25500000920E-02 0. -1.
    10030    2    1    2    0    0  0.00000000000E+00  0.00000000000E+00 -0.10673815662E+04  0.23252408885E+04  0.20657787349E+04 0.  0.
        4    1    3    3  502    0  0.27166153348E+03 -0.67716326517E+03 -0.13566182551E+04  0.15403781287E+04  0.12699999809E+01 0. -1.
       -4    1    3    3    0  502 -0.27166153348E+03  0.67716326517E+03  0.28923668897E+03  0.78486275973E+03  0.12699999809E+01 0.  1.
</event>
<event>
 5   0  0.1815400E-04  0.1999570E+04  0.7818609E-02  0.8606822E-01
       -2   -1    0    0    0  501  0.00000000000E+00  0.00000000000E+00  0.66081497834E+03  0.66081497834E+03  0.25500000920E-02 0. -1.
        2   -1    0    0  501    0  0.00000000000E+00  0.00000000000E+00 -0.15126329790E+04  0.15126329790E+04  0.25500000920E-02 0.  1.
    10030    2    1    2    0    0  0.00000000000E+00  0.00000000000E+00 -0.85181800061E+03  0.21734479573E+04  0.19995704831E+04 0.  0.
        3    1    3    3  502    0  0.83713700667E+03  0.25564211608E+02 -0.10193903573E+04  0.13193212678E+04  0.10100000352E+00 0.  1.
       -3    1    3    3    0  502 -0.83713700667E+03 -0.25564211608E+02  0.16757235667E+03  0.85412668953E+03  0.10100000352E+00 0. -1.
</event>
<event>
 5   0  0.6441125E-05  0.2084201E+04  0.7818609E-02  0.8568235E-01
       -4   -1    0    0    0  501  0.00000000000E+00  0.00000000000E+00  0.13507882983E+04  0.13507888953E+04  0.12699999809E+01 0. -1.
        4   -1    0    0  501    0  0.00000000000E+00  0.00000000000E+00 -0.80395393738E+03  0.80395494048E+03  0.12699999809E+01 0.  1.
    10030    2    1    2    0    0  0.00000000000E+00  0.00000000000E+00  0.54683436088E+03  0.21547438358E+04  0.20842008491E+04 0.  0.
        4    1    3    3  502    0  0.16995685347E+03  0.76078693307E+03  0.98840977525E+03  0.12588238901E+04  0.12699999809E+01 0. -1.
       -4    1    3    3    0  502 -0.16995685347E+03 -0.76078693307E+03 -0.44157541437E+03  0.89591994567E+03  0.12699999809E+01 0.  1.
</event>
<event>
 5   0  0.8525278E-05  0.2119514E+04  0.7818609E-02  0.8552696E-01
        1   -1    0    0  501    0  0.00000000000E+00  0.00000000000E+00  0.10120498200E+04  0.10120498200E+04  0.50400001928E-02 0. -1.
       -1   -1    0    0    0  501  0.00000000000E+00  0.00000000000E+00 -0.11097132896E+04  0.11097132896E+04  0.50400001928E-02 0.  1.
    10030    2    1    2    0    0  0.00000000000E+00  0.00000000000E+00 -0.97663469561E+02  0.21217631096E+04  0.21195142227E+04 0.  0.
        4    1    3    3  502    0  0.92180662279E+03  0.50626508346E+03 -0.17955258959E+03  0.10668985565E+04  0.12699999809E+01 0.  1.
       -4    1    3    3    0  502 -0.92180662279E+03 -0.50626508346E+03  0.81889120033E+02  0.10548645531E+04  0.12699999809E+01 0. -1.
</event>
<event>
 5   0  0.8755004E-05  0.2200400E+04  0.7818609E-02  0.8518262E-01
        1   -1    0    0  501    0  0.00000000000E+00  0.00000000000E+00  0.16535950139E+04  0.16535950139E+04  0.50400001928E-02 0.  1.
       -1   -1    0    0    0  501  0.00000000000E+00  0.00000000000E+00 -0.73200523479E+03  0.73200523481E+03  0.50400001928E-02 0. -1.
    10030    2    1    2    0    0  0.00000000000E+00  0.00000000000E+00  0.92158977911E+03  0.23856002487E+04  0.22004001513E+04 0.  0.
        3    1    3    3  502    0  0.76182863164E+03 -0.33724756715E+03  0.12398282801E+04  0.14937513045E+04  0.10100000352E+00 0.  1.
       -3    1    3    3    0  502 -0.76182863164E+03  0.33724756715E+03 -0.31823850097E+03  0.89184894418E+03  0.10100000352E+00 0. -1.
</event>
<event>
 5   0  0.8486612E-05  0.2113001E+04  0.7818609E-02  0.8555538E-01
        1   -1    0    0  501    0  0.00000000000E+00  0.00000000000E+00  0.79327688317E+03  0.79327688318E+03  0.50400001928E-02 0. -1.
       -1   -1    0    0    0  501  0.00000000000E+00  0.00000000000E+00 -0.14070659067E+04  0.14070659067E+04  0.50400001928E-02 0.  1.
    10030    2    1    2    0    0  0.00000000000E+00  0.00000000000E+00 -0.61378902355E+03  0.22003427899E+04  0.21130005745E+04 0.  0.
        5    1    3    3  502    0  0.10416089570E+04  0.83108507045E+02 -0.46927117471E+03  0.11454666162E+04  0.46999998093E+01 0. -1.
       -5    1    3    3    0  502 -0.10416089570E+04 -0.83108507045E+02 -0.14451784884E+03  0.10548761738E+04  0.46999998093E+01 0.  1.
</event>
<event>
 5   0  0.1777590E-04  0.2154002E+04  0.7818609E-02  0.8537821E-01
       -2   -1    0    0    0  501  0.00000000000E+00  0.00000000000E+00  0.17052264469E+04  0.17052264469E+04  0.25500000920E-02 0.  1.
        2   -1    0    0  501    0  0.00000000000E+00  0.00000000000E+00 -0.68022102506E+03  0.68022102507E+03  0.25500000920E-02 0. -1.
    10030    2    1    2    0    0  0.00000000000E+00  0.00000000000E+00  0.10250054219E+04  0.23854474720E+04  0.21540017472E+04 0.  0.
        4    1    3    3  502    0  0.46869248176E+03 -0.59683604203E+03  0.13588456083E+04  0.15563897017E+04  0.12699999809E+01 0.  1.
       -4    1    3    3    0  502 -0.46869248176E+03  0.59683604203E+03 -0.33384018642E+03  0.82905777029E+03  0.12699999809E+01 0. -1.
</event>
<event>
 5   0  0.1810875E-04  0.2061538E+04  0.7818609E-02  0.8578378E-01
        2   -1    0    0  501    0  0.00000000000E+00  0.00000000000E+00  0.10389260558E+04  0.10389260558E+04  0.25500000920E-02 0.  1.
       -2   -1    0    0    0  501  0.00000000000E+00  0.00000000000E+00 -0.10226759428E+04  0.10226759428E+04  0.25500000920E-02 0. -1.
    10030    2    1    2    0    0  0.00000000000E+00  0.00000000000E+00  0.16250112950E+02  0.20616019986E+04  0.20615379537E+04 0.  0.
        1    1    3    3  502    0  0.24850158379E+01 -0.10298252002E+04 -0.35905453312E+02  0.10304539387E+04  0.50400001928E-02 0.  1.
       -1    1    3    3    0  502 -0.24850158379E+01  0.10298252002E+04  0.52155566262E+02  0.10311480599E+04  0.50400001928E-02 0. -1.
</event>
<event>
 5   0  0.1921687E-04  0.1993027E+04  0.7818609E-02  0.8609888E-01
        2   -1    0    0  501    0  0.00000000000E+00  0.00000000000E+00  0.97841312364E+03  0.97841312365E+03  0.25500000920E-02 0. -1.
       -2   -1    0    0    0  501  0.00000000000E+00  0.00000000000E+00 -0.10149490895E+04  0.10149490895E+04  0.25500000920E-02 0.  1.
    10030    2    1    2    0    0  0.00000000000E+00  0.00000000000E+00 -0.36535965869E+02  0.19933622132E+04  0.19930273546E+04 0.  0.
        5    1    3    3  502    0  0.64266062826E+03  0.69172546890E+03 -0.33694450925E+03  0.10025220695E+04  0.46999998093E+01 0.  1.
       -5    1    3    3    0  502 -0.64266062826E+03 -0.69172546890E+03  0.30040854338E+03  0.99084014370E+03  0.46999998093E+01 0. -1.
</event>
<event>
 5   0  0.1777590E-04  0.2577061E+04  0.7818609E-02  0.8376035E-01
        2   -1    0    0  501    0  0.00000000000E+00  0.00000000000E+00  0.17060478496E+04  0.17060478496E+04  0.25500000920E-02 0. -1.
       -2   -1    0    0    0  501  0.00000000000E+00  0.00000000000E+00 -0.97319101069E+03  0.97319101069E+03  0.25500000920E-02 0.  1.
    10030    2    1    2    0    0  0.00000000000E+00  0.00000000000E+00  0.73285683890E+03  0.26792388603E+04  0.25770606753E+04 0.  0.
        4    1    3    3  502    0  0.64421572626E+03  0.66459409255E+03  0.12984143371E+04  0.15945471500E+04  0.12699999809E+01 0. -1.
       -4    1    3    3    0  502 -0.64421572626E+03 -0.66459409255E+03 -0.56555749817E+03  0.10846917103E+04  0.12699999809E+01 0.  1.
</event>
<event>
 5   0  0.1886323E-04  0.2090542E+04  0.7818609E-02  0.8565421E-01
        2   -1    0    0  501    0  0.00000000000E+00  0.00000000000E+00  0.15480116347E+04  0.15480116347E+04  0.25500000920E-02 0. -1.
       -2   -1    0    0    0  501  0.00000000000E+00  0.00000000000E+00 -0.70580343285E+03  0.70580343285E+03  0.25500000920E-02 0.  1.
    10030    2    1    2    0    0  0.00000000000E+00  0.00000000000E+00  0.84220820183E+03  0.22538150675E+04  0.20905424424E+04 0.  0.
        2    1    3    3  502    0  0.35237910977E+03  0.31860157710E+03  0.14249043015E+04  0.15020087451E+04  0.25500000920E-02 0. -1.
       -2    1    3    3    0  502 -0.35237910977E+03 -0.31860157710E+03 -0.58269609964E+03  0.75180632245E+03  0.25500000920E-02 0.  1.
</event>
<event>
 5   0  0.1921687E-04  0.2102252E+04  0.7818609E-02  0.8560252E-01
        2   -1    0    0  501    0  0.00000000000E+00  0.00000000000E+00  0.15571569168E+04  0.15571569168E+04  0.25500000920E-02 0. -1.
       -2   -1    0    0    0  501  0.00000000000E+00  0.00000000000E+00 -0.70954052763E+03  0.70954052763E+03  0.25500000920E-02 0.  1.
    10030    2    1    2    0    0  0.00000000000E+00  0.00000000000E+00  0.84761638912E+03  0.22666974444E+04  0.21022520689E+04 0.  0.
        5    1    3    3  502    0 -0.40703663236E+03  0.60523906062E+03 -0.39226571645E+03  0.82818332686E+03  0.46999998093E+01 0.  1.
       -5    1    3    3    0  502  0.40703663236E+03 -0.60523906062E+03  0.12398821056E+04  0.14385141175E+04  0.46999998093E+01 0. -1.
</event>
<event>
 5   0  0.1921687E-04  0.2110715E+04  0.7818609E-02  0.8556538E-01
       -2   -1    0    0    0  501  0.00000000000E+00  0.00000000000E+00  0.98267310546E+03  0.98267310546E+03  0.25500000920E-02 0. -1.
        2   -1    0    0  501    0  0.00000000000E+00  0.00000000000E+00 -0.11334178330E+04  0.11334178330E+04  0.25500000920E-02 0.  1.
    10030    2    1    2    0    0  0.00000000000E+00  0.00000000000E+00 -0.15074472756E+03  0.21160909385E+04  0.21107147811E+04 0.  0.
        5    1    3    3  502    0 -0.38573125206E+03  0.40183319365E+03  0.82329163306E+03  0.99402702046E+03  0.46999998093E+01 0. -1.
       -5    1    3    3    0  502  0.38573125206E+03 -0.40183319365E+03 -0.97403636062E+03  0.11220639180E+04  0.46999998093E+01 0.  1.
</event>
<event>
 5   0  0.8271069E-05  0.2142860E+04  0.7818609E-02  0.8542595E-01
       -1   -1    0    0    0  501  0.00000000000E+00  0.00000000000E+00  0.55325285973E+03  0.55325285976E+03  0.50400001928E-02 0. -1.
        1   -1    0    0  501    0  0.00000000000E+00  0.00000000000E+00 -0.20749330098E+04  0.20749330098E+04  0.50400001928E-02 0.  1.
    10030    2    1    2    0    0  0.00000000000E+00  0.00000000000E+00 -0.15216801501E+04  0.26281858696E+04  0.21428603515E+04 0.  0.
        2    1    3    3  502    0  0.13581828119E+03  0.83804301178E+03 -0.15624771436E+04  0.17782287590E+04  0.25500000920E-02 0.  1.
       -2    1    3    3    0  502 -0.13581828119E+03 -0.83804301178E+03  0.40796993534E+02  0.84995711055E+03  0.25500000920E-02 0. -1.
</event>
<event>
 5   0  0.8271069E-05  0.2068532E+04  0.7818609E-02  0.8575233E-01
        1   -1    0    0  501    0  0.00000000000E+00  0.00000000000E+00  0.12863139015E+04  0.12863139015E+04  0.50400001928E-02 0. -1.
       -1   -1    0    0    0  501  0.00000000000E+00  0.00000000000E+00 -0.83160580224E+03  0.83160580226E+03  0.50400001928E-02 0.  1.
    10030    2    1    2    0    0  0.00000000000E+00  0.00000000000E+00  0.45470809929E+03  0.21179197038E+04  0.20685319471E+04 0.  0.
        2    1    3    3  502    0  0.28461649286E+03  0.30421469371E+03  0.11966096830E+04  0.12670547981E+04  0.25500000920E-02 0. -1.
       -2    1    3    3    0  502 -0.28461649286E+03 -0.30421469371E+03 -0.74190158371E+03  0.85086490572E+03  0.25500000920E-02 0.  1.
</event>
<event>
 5   0  0.8271069E-05  0.2080797E+04  0.7818609E-02  0.8569750E-01
       -1   -1    0    0    0  501  0.00000000000E+00  0.00000000000E+00  0.77809989129E+03  0.77809989131E+03  0.50400001928E-02 0. -1.
        1   -1    0    0  501    0  0.00000000000E+00  0.00000000000E+00 -0.13911181738E+04  0.13911181738E+04  0.50400001928E-02 0.  1.
    10030    2    1    2    0    0  0.00000000000E+00  0.00000000000E+00 -0.61301828246E+03  0.21692180651E+04  0.20807968664E+04 0.  0.
        2    1    3    3  502    0  0.34869084203E+03  0.97118987983E+03 -0.16807390289E+03  0.10454874092E+04  0.25500000920E-02 0.  1.
       -2    1    3    3    0  502 -0.34869084203E+03 -0.97118987983E+03 -0.44494437957E+03  0.11237306559E+04  0.25500000920E-02 0. -1.
</event>
<event>
 5   0  0.8486612E-05  0.1527766E+04  0.7818609E-02  0.8866196E-01
        1   -1    0    0  501    0  0.00000000000E+00  0.00000000000E+00  0.11239603907E+04  0.11239603907E+04  0.50400001928E-02 0. -1.
       -1   -1    0    0    0  501  0.00000000000E+00  0.00000000000E+00 -0.51916201631E+03  0.51916201634E+03  0.50400001928E-02 0.  1.
    10030    2    1    2    0    0  0.00000000000E+00  0.00000000000E+00  0.60479837435E+03  0.16431224070E+04  0.15277663993E+04 0.  0.
        5    1    3    3  502    0  0.10647885638E+02 -0.51905070028E+03 -0.30023805288E+03  0.59974326617E+03  0.46999998093E+01 0.  1.
       -5    1    3    3    0  502 -0.10647885638E+02  0.51905070028E+03  0.90503642722E+03  0.10433791408E+04  0.46999998093E+01 0. -1.
</event>
<event>
 5   0  0.1815400E-04  0.1956079E+04  0.7818609E-02  0.8627435E-01
        2   -1    0    0  501    0  0.00000000000E+00  0.00000000000E+00  0.94080861823E+03  0.94080861823E+03  0.25500000920E-02 0. -1.
       -2   -1    0    0    0  501  0.00000000000E+00  0.00000000000E+00 -0.10167436250E+04  0.10167436250E+04  0.25500000920E-02 0.  1.
    10030    2    1    2    0    0  0.00000000000E+00  0.00000000000E+00 -0.75935006742E+02  0.19575522432E+04  0.19560788991E+04 0.  0.
        3    1    3    3  502    0 -0.71765874129E+03 -0.56055249961E+03  0.31910368453E+03  0.96492504654E+03  0.10100000352E+00 0. -1.
       -3    1    3    3    0  502  0.71765874129E+03  0.56055249961E+03 -0.39503869127E+03  0.99262719667E+03  0.10100000352E+00 0.  1.
</event>
<event>
 5   0  0.8237966E-05  0.2056137E+04  0.7818609E-02  0.8580815E-01
        1   -1    0    0  501    0  0.00000000000E+00  0.00000000000E+00  0.71570880667E+03  0.71570880669E+03  0.50400001928E-02 0.  1.
       -1   -1    0    0    0  501  0.00000000000E+00  0.00000000000E+00 -0.14767525422E+04  0.14767525422E+04  0.50400001928E-02 0. -1.
    10030    2    1    2    0    0  0.00000000000E+00  0.00000000000E+00 -0.76104373554E+03  0.21924613489E+04  0.20561369602E+04 0.  0.
        1    1    3    3  502    0 -0.81319213548E+03  0.12610536364E+03 -0.10376098580E+04  0.13243180243E+04  0.50400001928E-02 0. -1.
       -1    1    3    3    0  502  0.81319213548E+03 -0.12610536364E+03  0.27656612250E+03  0.86814332462E+03  0.50400001928E-02 0.  1.
</event>
<event>
 5   0  0.8271069E-05  0.2066069E+04  0.7818609E-02  0.8576339E-01
       -1   -1    0    0    0  501  0.00000000000E+00  0.00000000000E+00  0.63078938795E+03  0.63078938797E+03  0.50400001928E-02 0.  1.
        1   -1    0    0  501    0  0.00000000000E+00  0.00000000000E+00 -0.16917854869E+04  0.16917854869E+04  0.50400001928E-02 0. -1.
    10030    2    1    2    0    0  0.00000000000E+00  0.00000000000E+00 -0.10609960989E+04  0.23225748749E+04  0.20660690519E+04 0.  0.
        2    1    3    3  502    0  0.33070513919E+03  0.93049062493E+03 -0.18956000581E+03  0.10055404954E+04  0.25500000920E-02 0.  1.
       -2    1    3    3    0  502 -0.33070513919E+03 -0.93049062493E+03 -0.87143609313E+03  0.13170343794E+04  0.25500000920E-02 0. -1.
</event>
<event>
 5   0  0.8486612E-05  0.2103406E+04  0.7818609E-02  0.8559744E-01
        1   -1    0    0  501    0  0.00000000000E+00  0.00000000000E+00  0.10311833409E+04  0.10311833409E+04  0.50400001928E-02 0.  1.
       -1   -1    0    0    0  501  0.00000000000E+00  0.00000000000E+00 -0.10726313379E+04  0.10726313379E+04  0.50400001928E-02 0. -1.
    10030    2    1    2    0    0  0.00000000000E+00  0.00000000000E+00 -0.41447997016E+02  0.21038146788E+04  0.21034063484E+04 0.  0.
        5    1    3    3  502    0  0.55008619300E+03  0.20071730460E+03  0.85304459608E+03  0.10346929153E+04  0.46999998093E+01 0.  1.
       -5    1    3    3    0  502 -0.55008619300E+03 -0.20071730460E+03 -0.89449259310E+03  0.10691217635E+04  0.46999998093E+01 0. -1.
</event>
<event>
 5   0  0.1886323E-04  0.2086473E+04  0.7818609E-02  0.8567226E-01
       -2   -1    0    0    0  501  0.00000000000E+00  0.00000000000E+00  0.94516950209E+03  0.94516950210E+03  0.25500000920E-02 0. -1.
        2   -1    0    0  501    0  0.00000000000E+00  0.00000000000E+00 -0.11514782358E+04  0.11514782358E+04  0.25500000920E-02 0.  1.
    10030    2    1    2    0    0  0.00000000000E+00  0.00000000000E+00 -0.20630873367E+03  0.20966477379E+04  0.20864727276E+04 0.  0.
        2    1    3    3  502    0  0.68420565611E+03  0.71534630365E+03  0.22782155215E+03  0.10157560601E+04  0.25500000920E-02 0. -1.
       -2    1    3    3    0  502 -0.68420565611E+03 -0.71534630365E+03 -0.43413028583E+03  0.10808916778E+04  0.25500000920E-02 0.  1.
</event>
<event>
 5   0  0.1777590E-04  0.1691009E+04  0.7818609E-02  0.8766509E-01
        2   -1    0    0  501    0  0.00000000000E+00  0.00000000000E+00  0.74678364935E+03  0.74678364935E+03  0.25500000920E-02 0. -1.
       -2   -1    0    0    0  501  0.00000000000E+00  0.00000000000E+00 -0.95727593834E+03  0.95727593834E+03  0.25500000920E-02 0.  1.
    10030    2    1    2    0    0  0.00000000000E+00  0.00000000000E+00 -0.21049228899E+03  0.17040595877E+04  0.16910091882E+04 0.  0.
        4    1    3    3  502    0 -0.34585329512E+03 -0.15993240581E+03 -0.86584495437E+03  0.94598201573E+03  0.12699999809E+01 0.  1.
       -4    1    3    3    0  502  0.34585329512E+03  0.15993240581E+03  0.65535266539E+03  0.75807757196E+03  0.12699999809E+01 0. -1.
</event>
<event>
 5   0  0.8755004E-05  0.2088798E+04  0.7818609E-02  0.8566194E-01
        1   -1    0    0  501    0  0.00000000000E+00  0.00000000000E+00  0.12006734366E+04  0.12006734366E+04  0.50400001928E-02 0.  1.
       -1   -1    0    0    0  501  0.00000000000E+00  0.00000000000E+00 -0.90846449244E+03  0.90846449246E+03  0.50400001928E-02 0. -1.
    10030    2    1    2    0    0  0.00000000000E+00  0.00000000000E+00  0.29220894419E+03  0.21091379291E+04  0.20887979167E+04 0.  0.
        3    1    3    3  502    0 -0.67116351824E+03  0.72098014724E+03 -0.20440153988E+03  0.10060083701E+04  0.10100000352E+00 0. -1.
       -3    1    3    3    0  502  0.67116351824E+03 -0.72098014724E+03  0.49661048406E+03  0.11031295590E+04  0.10100000352E+00 0.  1.
</event>
<event>
 5   0  0.1886323E-04  0.1952060E+04  0.7818609E-02  0.8629368E-01
       -2   -1    0    0    0  501  0.00000000000E+00  0.00000000000E+00  0.56002041215E+03  0.56002041216E+03  0.25500000920E-02 0.  1.
        2   -1    0    0  501    0  0.00000000000E+00  0.00000000000E+00 -0.17010703224E+04  0.17010703224E+04  0.25500000920E-02 0. -1.
    10030    2    1    2    0    0  0.00000000000E+00  0.00000000000E+00 -0.11410499103E+04  0.22610907346E+04  0.19520595309E+04 0.  0.
        2    1    3    3  502    0 -0.63728731100E+03 -0.47905991088E+00 -0.14268122920E+04  0.15626671632E+04  0.25500000920E-02 0. -1.
       -2    1    3    3    0  502  0.63728731100E+03  0.47905991088E+00  0.28576238173E+03  0.69842357140E+03  0.25500000920E-02 0.  1.
</event>
<event>
 5   0  0.8486612E-05  0.1408545E+04  0.7818609E-02  0.8947656E-01
        1   -1    0    0  501    0  0.00000000000E+00  0.00000000000E+00  0.74521967006E+03  0.74521967008E+03  0.50400001928E-02 0.  1.
       -1   -1    0    0    0  501  0.00000000000E+00  0.00000000000E+00 -0.66557543582E+03  0.66557543584E+03  0.50400001928E-02 0. -1.
    10030    2    1    2    0    0  0.00000000000E+00  0.00000000000E+00  0.79644234247E+02  0.14107951059E+04  0.14085452165E+04 0.  0.
        5    1    3    3  502    0  0.97625234966E+02  0.63884949653E+03  0.32012347135E+03  0.72122152812E+03  0.46999998093E+01 0.  1.
       -5    1    3    3    0  502 -0.97625234966E+02 -0.63884949653E+03 -0.24047923710E+03  0.68957357780E+03  0.46999998093E+01 0. -1.
</event>
<event>
 5   0  0.8525278E-05  0.2106011E+04  0.7818609E-02  0.8558600E-01
        1   -1    0    0  501    0  0.00000000000E+00  0.00000000000E+00  0.99264647325E+03  0.99264647326E+03  0.50400001928E-02 0. -1.
       -1   -1    0    0    0  501  0.00000000000E+00  0.00000000000E+00 -0.11170350240E+04  0.11170350240E+04  0.50400001928E-02 0.  1.
    10030    2    1    2    0    0  0.00000000000E+00  0.00000000000E+00 -0.12438855072E+03  0.21096814972E+04  0.21060112792E+04 0.  0.
        4    1    3    3  502    0  0.97342988532E+03 -0.26733885818E+02  0.33917695238E+03  0.10311755720E+04  0.12699999809E+01 0. -1.
       -4    1    3    3    0  502 -0.97342988532E+03  0.26733885818E+02 -0.46356550310E+03  0.10785059253E+04  0.12699999809E+01 0.  1.
</event>
<event>
 5   0  0.8271069E-05  0.2116866E+04  0.7818609E-02  0.8553850E-01
        1   -1    0    0  501    0  0.00000000000E+00  0.00000000000E+00  0.21244182968E+04  0.21244182968E+04  0.50400001928E-02 0.  1.
       -1   -1    0    0    0  501  0.00000000000E+00  0.00000000000E+00 -0.52733503843E+03  0.52733503846E+03  0.50400001928E-02 0. -1.
    10030    2    1    2    0    0  0.00000000000E+00  0.00000000000E+00  0.15970832584E+04  0.26517533353E+04  0.21168658004E+04 0.  0.
        2    1    3    3  502    0  0.84806168892E+03 -0.16012323693E+03  0.30993684722E+02  0.86360215824E+03  0.25500000920E-02 0. -1.
       -2    1    3    3    0  502 -0.84806168892E+03  0.16012323693E+03  0.15660895737E+04  0.17881511770E+04  0.25500000920E-02 0.  1.
</event>
<event>
 5   0  0.8486612E-05  0.2171564E+04  0.7818609E-02  0.8530358E-01
       -1   -1    0    0    0  501  0.00000000000E+00  0.00000000000E+00  0.75442129269E+03  0.75442129270E+03  0.50400001928E-02 0.  1.
        1   -1    0    0  501    0  0.00000000000E+00  0.00000000000E+00 -0.15626839914E+04  0.15626839914E+04  0.50400001928E-02 0. -1.
    10030    2    1    2    0    0  0.00000000000E+00  0.00000000000E+00 -0.80826269873E+03  0.23171052841E+04  0.21715635629E+04 0.  0.
        5    1    3    3  502    0 -0.66030421011E+03 -0.36464524764E+03  0.42919285338E+03  0.86786888520E+03  0.46999998093E+01 0.  1.
       -5    1    3    3    0  502  0.66030421011E+03  0.36464524764E+03 -0.12374555521E+04  0.14492363989E+04  0.46999998093E+01 0. -1.
</event>
<event>
 5   0  0.8237966E-05  0.2046351E+04  0.7818609E-02  0.8585251E-01
       -1   -1    0    0    0  501  0.00000000000E+00  0.00000000000E+00  0.11763590812E+04  0.11763590812E+04  0.50400001928E-02 0.  1.
        1   -1    0    0  501    0  0.00000000000E+00  0.00000000000E+00 -0.88993926239E+03  0.88993926241E+03  0.50400001928E-02 0. -1.
    10030    2    1    2    0    0  0.00000000000E+00  0.00000000000E+00  0.28641981882E+03  0.20662983436E+04  0.20463510286E+04 0.  0.
        1    1    3    3  502    0 -0.10942313945E+03 -0.73194512495E+03 -0.57019745087E+03  0.93426025410E+03  0.50400001928E-02 0. -1.
       -1    1    3    3    0  502  0.10942313945E+03  0.73194512495E+03  0.85661726969E+03  0.11320380895E+04  0.50400001928E-02 0.  1.
</event>
<event>
 5   0  0.1815400E-04  0.2119937E+04  0.7818609E-02  0.8552511E-01
       -2   -1    0    0    0  501  0.00000000000E+00  0.00000000000E+00  0.56277069526E+03  0.56277069527E+03  0.25500000920E-02 0. -1.
        2   -1    0    0  501    0  0.00000000000E+00  0.00000000000E+00 -0.19964315390E+04  0.19964315390E+04  0.25500000920E-02 0.  1.
    10030    2    1    2    0    0  0.00000000000E+00  0.00000000000E+00 -0.14336608437E+04  0.25592022343E+04  0.21199369474E+04 0.  0.
        3    1    3    3  502    0  0.34131172909E+03  0.57770855556E+03  0.27373572290E+03  0.72468760703E+03  0.10100000352E+00 0. -1.
       -3    1    3    3    0  502 -0.34131172909E+03 -0.57770855556E+03 -0.17073965666E+04  0.18345146272E+04  0.10100000352E+00 0.  1.
</event>
<event>
 5   0  0.1815400E-04  0.2135038E+04  0.7818609E-02  0.8545964E-01
        2   -1    0    0  501    0  0.00000000000E+00  0.00000000000E+00  0.10031160143E+04  0.10031160143E+04  0.25500000920E-02 0. -1.
       -2   -1    0    0    0  501  0.00000000000E+00  0.00000000000E+00 -0.11360573331E+04  0.11360573331E+04  0.25500000920E-02 0.  1.
    10030    2    1    2    0    0  0.00000000000E+00  0.00000000000E+00 -0.13294131880E+03  0.21391733475E+04  0.21350384578E+04 0.  0.
        3    1    3    3  502    0 -0.14309762287E+03  0.13552078177E+03  0.98472971752E+03  0.10042586513E+04  0.10100000352E+00 0. -1.
       -3    1    3    3    0  502  0.14309762287E+03 -0.13552078177E+03 -0.11176710363E+04  0.11349146962E+04  0.10100000352E+00 0.  1.
</event>
<event>
 5   0  0.8486612E-05  0.2073251E+04  0.7818609E-02  0.8573119E-01
        1   -1    0    0  501    0  0.00000000000E+00  0.00000000000E+00  0.13064085843E+04  0.13064085843E+04  0.50400001928E-02 0.  1.
       -1   -1    0    0    0  501  0.00000000000E+00  0.00000000000E+00 -0.82255455816E+03  0.82255455818E+03  0.50400001928E-02 0. -1.
    10030    2    1    2    0    0  0.00000000000E+00  0.00000000000E+00  0.48385402613E+03  0.21289631425E+04  0.20732509118E+04 0.  0.
        5    1    3    3  502    0 -0.77448009937E+03  0.26425004216E+03  0.89536196275E+03  0.12129891357E+04  0.46999998093E+01 0.  1.
       -5    1    3    3    0  502  0.77448009937E+03 -0.26425004216E+03 -0.41150793662E+03  0.91597400673E+03  0.46999998093E+01 0. -1.
</event>
<event>
 5   0  0.8755004E-05  0.2062212E+04  0.7818609E-02  0.8578074E-01
        1   -1    0    0  501    0  0.00000000000E+00  0.00000000000E+00  0.13788532799E+04  0.13788532799E+04  0.50400001928E-02 0. -1.
       -1   -1    0    0    0  501  0.00000000000E+00  0.00000000000E+00 -0.77106059178E+03  0.77106059179E+03  0.50400001928E-02 0.  1.
    10030    2    1    2    0    0  0.00000000000E+00  0.00000000000E+00  0.60779268814E+03  0.21499138717E+04  0.20622118475E+04 0.  0.
        3    1    3    3  502    0  0.60874304301E+01  0.10153718913E+04  0.11693095940E+03  0.10221007749E+04  0.10100000352E+00 0.  1.
       -3    1    3    3    0  502 -0.60874304301E+01 -0.10153718913E+04  0.49086172874E+03  0.11278130969E+04  0.10100000352E+00 0. -1.
</event>
<event>
 5   0  0.8755004E-05  0.2087053E+04  0.7818609E-02  0.8566968E-01
        1   -1    0    0  501    0  0.00000000000E+00  0.00000000000E+00  0.16162097562E+04  0.16162097563E+04  0.50400001928E-02 0.  1.
       -1   -1    0    0    0  501  0.00000000000E+00  0.00000000000E+00 -0.67376626589E+03  0.67376626591E+03  0.50400001928E-02 0. -1.
    10030    2    1    2    0    0  0.00000000000E+00  0.00000000000E+00  0.94244349036E+03  0.22899760222E+04  0.20870530538E+04 0.  0.
        3    1    3    3  502    0 -0.45512515830E+03 -0.87857873929E+03  0.10746397518E+03  0.99528288793E+03  0.10100000352E+00 0.  1.
       -3    1    3    3    0  502  0.45512515830E+03  0.87857873929E+03  0.83497951518E+03  0.12946931342E+04  0.10100000352E+00 0. -1.
</event>
<event>
 5   0  0.1886323E-04  0.2137010E+04  0.7818609E-02  0.8545113E-01
        2   -1    0    0  501    0  0.00000000000E+00  0.00000000000E+00  0.85725610198E+03  0.85725610198E+03  0.25500000920E-02 0. -1.
       -2   -1    0    0    0  501  0.00000000000E+00  0.00000000000E+00 -0.13318104681E+04  0.13318104681E+04  0.25500000920E-02 0.  1.
    10030    2    1    2    0    0  0.00000000000E+00  0.00000000000E+00 -0.47455436613E+03  0.21890665701E+04  0.21370097337E+04 0.  0.
        2    1    3    3  502    0 -0.10071412921E+04  0.30909291191E+03 -0.42003466037E+03  0.11341521619E+04  0.25500000920E-02 0.  1.
       -2    1    3    3    0  502  0.10071412921E+04 -0.30909291191E+03 -0.54519705756E+02  0.10549144082E+04  0.25500000920E-02 0. -1.
</event>
<event>
 5   0  0.1886323E-04  0.2121915E+04  0.7818609E-02  0.8551651E-01
        2   -1    0    0  501    0  0.00000000000E+00  0.00000000000E+00  0.14601170329E+04  0.14601170329E+04  0.25500000920E-02 0. -1.
       -2   -1    0    0    0  501  0.00000000000E+00  0.00000000000E+00 -0.77091794703E+03  0.77091794703E+03  0.25500000920E-02 0.  1.
    10030    2    1    2    0    0  0.00000000000E+00  0.00000000000E+00  0.68919908588E+03  0.22310349799E+04  0.21219146311E+04 0.  0.
        2    1    3    3  502    0  0.10951863155E+03  0.77351303177E+03  0.10993689870E+04  0.13486767257E+04  0.25500000920E-02 0. -1.
       -2    1    3    3    0  502 -0.10951863155E+03 -0.77351303177E+03 -0.41016990111E+03  0.88235825420E+03  0.25500000920E-02 0.  1.
</event>
<event>
 5   0  0.8525278E-05  0.2020414E+04  0.7818609E-02  0.8597135E-01
        1   -1    0    0  501    0  0.00000000000E+00  0.00000000000E+00  0.16959134784E+04  0.16959134784E+04  0.50400001928E-02 0.  1.
       -1   -1    0    0    0  501  0.00000000000E+00  0.00000000000E+00 -0.60175161506E+03  0.60175161508E+03  0.50400001928E-02 0. -1.
    10030    2    1    2    0    0  0.00000000000E+00  0.00000000000E+00  0.10941618634E+04  0.22976650935E+04  0.20204144868E+04 0.  0.
        4    1    3    3  502    0  0.38285011504E+03 -0.71827267572E+02  0.16070717011E+04  0.16536064925E+04  0.12699999809E+01 0.  1.
       -4    1    3    3    0  502 -0.38285011504E+03  0.71827267572E+02 -0.51290983770E+03  0.64405860095E+03  0.12699999809E+01 0. -1.
</event>
<event>
 5   0  0.1810875E-04  0.1351761E+04  0.7818609E-02  0.8989496E-01
        2   -1    0    0  501    0  0.00000000000E+00  0.00000000000E+00  0.50964047055E+03  0.50964047055E+03  0.25500000920E-02 0. -1.
       -2   -1    0    0    0  501  0.00000000000E+00  0.00000000000E+00 -0.89634590468E+03  0.89634590469E+03  0.25500000920E-02 0.  1.
    10030    2    1    2    0    0  0.00000000000E+00  0.00000000000E+00 -0.38670543414E+03  0.14059863752E+04  0.13517605537E+04 0.  0.
        1    1    3    3  502    0  0.31270707991E+03 -0.28771063259E+02 -0.81586013660E+03  0.87420893065E+03  0.50400001928E-02 0.  1.
       -1    1    3    3    0  502 -0.31270707991E+03  0.28771063259E+02  0.42915470247E+03  0.53177744459E+03  0.50400001928E-02 0. -1.
</event>
<event>
 5   0  0.6441125E-05  0.2142273E+04  0.7818609E-02  0.8542847E-01
       -4   -1    0    0    0  501  0.00000000000E+00  0.00000000000E+00  0.16624529323E+04  0.16624534174E+04  0.12699999809E+01 0.  1.
        4   -1    0    0  501    0  0.00000000000E+00  0.00000000000E+00 -0.69014343165E+03  0.69014460017E+03  0.12699999809E+01 0. -1.
    10030    2    1    2    0    0  0.00000000000E+00  0.00000000000E+00  0.97230950064E+03  0.23525980176E+04  0.21422725474E+04 0.  0.
        2    1    3    3  502    0  0.90044398035E+03  0.24498919419E+03 -0.91317937480E+02  0.93763427451E+03  0.25500000920E-02 0. -1.
       -2    1    3    3    0  502 -0.90044398035E+03 -0.24498919419E+03  0.10636274381E+04  0.14149637430E+04  0.25500000920E-02 0.  1.
</event>
<event>
 5   0  0.6441125E-05  0.2045051E+04  0.7818609E-02  0.8585843E-01
        4   -1    0    0  501    0  0.00000000000E+00  0.00000000000E+00  0.98475709175E+03  0.98475791068E+03  0.12699999809E+01 0.  1.
       -4   -1    0    0    0  501  0.00000000000E+00  0.00000000000E+00 -0.10617406380E+04  0.10617413976E+04  0.12699999809E+01 0. -1.
    10030    2    1    2    0    0  0.00000000000E+00  0.00000000000E+00 -0.76983546281E+02  0.20464993083E+04  0.20450508435E+04 0.  0.
        2    1    3    3  502    0  0.67512900736E+03  0.30341354737E+03 -0.74446949906E+03  0.10498065500E+04  0.25500000920E-02 0. -1.
       -2    1    3    3    0  502 -0.67512900736E+03 -0.30341354737E+03  0.66748595278E+03  0.99669275831E+03  0.25500000920E-02 0.  1.
</event>
<event>
 5   0  0.1886323E-04  0.2126768E+04  0.7818609E-02  0.8549543E-01
       -2   -1    0    0    0  501  0.00000000000E+00  0.00000000000E+00  0.68533984341E+03  0.68533984342E+03  0.25500000920E-02 0. -1.
        2   -1    0    0  501    0  0.00000000000E+00  0.00000000000E+00 -0.16499624735E+04  0.16499624735E+04  0.25500000920E-02 0.  1.
    10030    2    1    2    0    0  0.00000000000E+00  0.00000000000E+00 -0.96462263008E+03  0.23353023169E+04  0.21267675221E+04 0.  0.
        2    1    3    3  502    0 -0.69948751576E+03 -0.49671501129E+03  0.20760863224E+03  0.88267204065E+03  0.25500000920E-02 0. -1.
       -2    1    3    3    0  502  0.69948751576E+03  0.49671501129E+03 -0.11722312623E+04  0.14526302763E+04  0.25500000920E-02 0.  1.
</event>
<event>
 5   0  0.8486612E-05  0.2066483E+04  0.7818609E-02  0.8576153E-01
       -1   -1    0    0    0  501  0.00000000000E+00  0.00000000000E+00  0.10453422580E+04  0.10453422580E+04  0.50400001928E-02 0.  1.
        1   -1    0    0  501    0  0.00000000000E+00  0.00000000000E+00 -0.10212805254E+04  0.10212805255E+04  0.50400001928E-02 0. -1.
    10030    2    1    2    0    0  0.00000000000E+00  0.00000000000E+00  0.24061732512E+02  0.20666227834E+04  0.20664827031E+04 0.  0.
        5    1    3    3  502    0 -0.24798187198E+03  0.99368806736E+03 -0.12456029609E+03  0.10317210579E+04  0.46999998093E+01 0. -1.
       -5    1    3    3    0  502  0.24798187198E+03 -0.99368806736E+03  0.14862202860E+03  0.10349017255E+04  0.46999998093E+01 0.  1.
</event>
<event>
 5   0  0.1815400E-04  0.2075316E+04  0.7818609E-02  0.8572195E-01
       -2   -1    0    0    0  501  0.00000000000E+00  0.00000000000E+00  0.42813285225E+03  0.42813285226E+03  0.25500000920E-02 0.  1.
        2   -1    0    0  501    0  0.00000000000E+00  0.00000000000E+00 -0.25149535205E+04  0.25149535205E+04  0.25500000920E-02 0. -1.
    10030    2    1    2    0    0  0.00000000000E+00  0.00000000000E+00 -0.20868206682E+04  0.29430863727E+04  0.20753160955E+04 0.  0.
        3    1    3    3  502    0  0.10081613860E+04  0.21408960548E+03 -0.12142385326E+04  0.15926703876E+04  0.10100000352E+00 0. -1.
       -3    1    3    3    0  502 -0.10081613860E+04 -0.21408960548E+03 -0.87258213566E+03  0.13504159852E+04  0.10100000352E+00 0.  1.
</event>
<event>
 5   0  0.8755004E-05  0.2060055E+04  0.7818609E-02  0.8579047E-01
       -1   -1    0    0    0  501  0.00000000000E+00  0.00000000000E+00  0.67478633394E+03  0.67478633396E+03  0.50400001928E-02 0.  1.
        1   -1    0    0  501    0  0.00000000000E+00  0.00000000000E+00 -0.15722846054E+04  0.15722846054E+04  0.50400001928E-02 0. -1.
    10030    2    1    2    0    0  0.00000000000E+00  0.00000000000E+00 -0.89749827148E+03  0.22470709394E+04  0.20600545282E+04 0.  0.
        3    1    3    3  502    0  0.64885773698E+03 -0.20548200526E+03 -0.12920564137E+04  0.14603592037E+04  0.10100000352E+00 0. -1.
       -3    1    3    3    0  502 -0.64885773698E+03  0.20548200526E+03  0.39455814223E+03  0.78671173572E+03  0.10100000352E+00 0.  1.
</event>
<event>
 5   0  0.1777590E-04  0.2092905E+04  0.7818609E-02  0.8564375E-01
       -2   -1    0    0    0  501  0.00000000000E+00  0.00000000000E+00  0.85167476614E+03  0.85167476615E+03  0.25500000920E-02 0. -1.
        2   -1    0    0  501    0  0.00000000000E+00  0.00000000000E+00 -0.12857752419E+04  0.12857752419E+04  0.25500000920E-02 0.  1.
    10030    2    1    2    0    0  0.00000000000E+00  0.00000000000E+00 -0.43410047574E+03  0.21374500080E+04  0.20929045162E+04 0.  0.
        4    1    3    3  502    0  0.23117916236E+03 -0.21494983576E+03 -0.12359895292E+04  0.12756641275E+04  0.12699999809E+01 0.  1.
       -4    1    3    3    0  502 -0.23117916236E+03  0.21494983576E+03  0.80188905344E+03  0.86178588056E+03  0.12699999809E+01 0. -1.
</event>
<event>
 5   0  0.8271069E-05  0.2124374E+04  0.7818609E-02  0.8550582E-01
       -1   -1    0    0    0  501  0.00000000000E+00  0.00000000000E+00  0.89179816943E+03  0.89179816944E+03  0.50400001928E-02 0. -1.
        1   -1    0    0  501    0  0.00000000000E+00  0.00000000000E+00 -0.12651310286E+04  0.12651310286E+04  0.50400001928E-02 0.  1.
    10030    2    1    2    0    0  0.00000000000E+00  0.00000000000E+00 -0.37333285920E+03  0.21569291981E+04  0.21243742942E+04 0.  0.
        2    1    3    3  502    0  0.15408470952E+03  0.85383239649E+03 -0.80881239065E+03  0.11861489545E+04  0.25500000920E-02 0.  1.
       -2    1    3    3    0  502 -0.15408470952E+03 -0.85383239649E+03  0.43547953145E+03  0.97078024358E+03  0.25500000920E-02 0. -1.
</event>
<event>
 5   0  0.8237966E-05  0.2096915E+04  0.7818609E-02  0.8562604E-01
       -1   -1    0    0    0  501  0.00000000000E+00  0.00000000000E+00  0.13428145034E+04  0.13428145035E+04  0.50400001928E-02 0. -1.
        1   -1    0    0  501    0  0.00000000000E+00  0.00000000000E+00 -0.81862593387E+03  0.81862593388E+03  0.50400001928E-02 0.  1.
    10030    2    1    2    0    0  0.00000000000E+00  0.00000000000E+00  0.52418856958E+03  0.21614404373E+04  0.20969146639E+04 0.  0.
        1    1    3    3  502    0 -0.93995719273E+03  0.12951138286E+03 -0.19769238379E+03  0.96921359931E+03  0.50400001928E-02 0.  1.
       -1    1    3    3    0  502  0.93995719273E+03 -0.12951138286E+03  0.72188095336E+03  0.11922268380E+04  0.50400001928E-02 0. -1.
</event>
<event>
 5   0  0.1921687E-04  0.2101839E+04  0.7818609E-02  0.8560434E-01
       -2   -1    0    0    0  501  0.00000000000E+00  0.00000000000E+00  0.58537827304E+03  0.58537827305E+03  0.25500000920E-02 0.  1.
        2   -1    0    0  501    0  0.00000000000E+00  0.00000000000E+00 -0.18866978461E+04  0.18866978461E+04  0.25500000920E-02 0. -1.
    10030    2    1    2    0    0  0.00000000000E+00  0.00000000000E+00 -0.13013195731E+04  0.24720761192E+04  0.21018391251E+04 0.  0.
        5    1    3    3  502    0  0.49180854718E+01 -0.17678206200E+03 -0.18690581147E+04  0.18774121580E+04  0.46999998093E+01 0. -1.
       -5    1    3    3    0  502 -0.49180854718E+01  0.17678206200E+03  0.56773854163E+03  0.59466396113E+03  0.46999998093E+01 0.  1.
</event>
<event>
 5   0  0.8486612E-05  0.2095853E+04  0.7818609E-02  0.8563072E-01
       -1   -1    0    0    0  501  0.00000000000E+00  0.00000000000E+00  0.68103100189E+03  0.68103100191E+03  0.50400001928E-02 0. -1.
        1   -1    0    0  501    0  0.00000000000E+00  0.00000000000E+00 -0.16124819780E+04  0.16124819781E+04  0.50400001928E-02 0.  1.
    10030    2    1    2    0    0  0.00000000000E+00  0.00000000000E+00 -0.93145097616E+03  0.22935129800E+04  0.20958532554E+04 0.  0.
        5    1    3    3  502    0  0.30194755124E+03  0.35875838619E+03 -0.14912569083E+04  0.15632495514E+04  0.46999998093E+01 0.  1.
       -5    1    3    3    0  502 -0.30194755124E+03 -0.35875838619E+03  0.55980593218E+03  0.73026342854E+03  0.46999998093E+01 0. -1.
</event>
<event>
 5   0  0.1815400E-04  0.2103495E+04  0.7818609E-02  0.8559705E-01
        2   -1    0    0  501    0  0.00000000000E+00  0.00000000000E+00  0.20420382936E+04  0.20420382936E+04  0.25500000920E-02 0. -1.
       -2   -1    0    0    0  501  0.00000000000E+00  0.00000000000E+00 -0.54170044624E+03  0.54170044625E+03  0.25500000920E-02 0.  1.
    10030    2    1    2    0    0  0.00000000000E+00  0.00000000000E+00  0.15003378474E+04  0.25837387399E+04  0.21034952388E+04 0.  0.
        3    1    3    3  502    0  0.49299828335E+03  0.97944260110E+02 -0.38462534923E+03  0.63291156961E+03  0.10100000352E+00 0.  1.
       -3    1    3    3    0  502 -0.49299828335E+03 -0.97944260110E+02  0.18849631966E+04  0.19508271703E+04  0.10100000352E+00 0. -1.
</event>
<event>
 5   0  0.1810875E-04  0.2057701E+04  0.7818609E-02  0.8580109E-01
       -2   -1    0    0    0  501  0.00000000000E+00  0.00000000000E+00  0.59952654713E+03  0.59952654713E+03  0.25500000920E-02 0.  1.
        2   -1    0    0  501    0  0.00000000000E+00  0.00000000000E+00 -0.17656151473E+04  0.17656151473E+04  0.25500000920E-02 0. -1.
    10030    2    1    2    0    0  0.00000000000E+00  0.00000000000E+00 -0.11660886002E+04  0.23651416944E+04  0.20577008070E+04 0.  0.
        1    1    3    3  502    0 -0.62735392836E+03  0.81452341044E+03 -0.53835286592E+03  0.11605365767E+04  0.50400001928E-02 0. -1.
       -1    1    3    3    0  502  0.62735392836E+03 -0.81452341044E+03 -0.62773573426E+03  0.12046051177E+04  0.50400001928E-02 0.  1.
</event>
<event>
 5   0  0.8271069E-05  0.2148057E+04  0.7818609E-02  0.8540365E-01
       -1   -1    0    0    0  501  0.00000000000E+00  0.00000000000E+00  0.74731618292E+03  0.74731618294E+03  0.50400001928E-02 0.  1.
        1   -1    0    0  501    0  0.00000000000E+00  0.00000000000E+00 -0.15435726469E+04  0.15435726469E+04  0.50400001928E-02 0. -1.
    10030    2    1    2    0    0  0.00000000000E+00  0.00000000000E+00 -0.79625646394E+03  0.22908888298E+04  0.21480566273E+04 0.  0.
        2    1    3    3  502    0  0.39899626097E+03  0.47530014764E+03 -0.13330172125E+04  0.14703887702E+04  0.25500000920E-02 0. -1.
       -2    1    3    3    0  502 -0.39899626097E+03 -0.47530014764E+03  0.53676074858E+03  0.82050005962E+03  0.25500000920E-02 0.  1.
</event>
<event>
 5   0  0.8271069E-05  0.1968363E+04  0.7818609E-02  0.8621556E-01
        1   -1    0    0  501    0  0.00000000000E+00  0.00000000000E+00  0.76830388336E+03  0.76830388338E+03  0.50400001928E-02 0.  1.
       -1   -1    0    0    0  501  0.00000000000E+00  0.00000000000E+00 -0.12607165565E+04  0.12607165565E+04  0.50400001928E-02 0. -1.
    10030    2    1    2    0    0  0.00000000000E+00  0.00000000000E+00 -0.49241267314E+03  0.20290204399E+04  0.19683632045E+04 0.  0.
        2    1    3    3  502    0 -0.31956647351E+03  0.92502826764E+03 -0.35339831921E+03  0.10405240982E+04  0.25500000920E-02 0.  1.
       -2    1    3    3    0  502  0.31956647351E+03 -0.92502826764E+03 -0.13901435392E+03  0.98849634168E+03  0.25500000920E-02 0. -1.
</event>
<event>
 5   0  0.1815400E-04  0.2075581E+04  0.7818609E-02  0.8572077E-01
        2   -1    0    0  501    0  0.00000000000E+00  0.00000000000E+00  0.12456325614E+04  0.12456325614E+04  0.25500000920E-02 0. -1.
       -2   -1    0    0    0  501  0.00000000000E+00  0.00000000000E+00 -0.86462785262E+03  0.86462785262E+03  0.25500000920E-02 0.  1.
    10030    2    1    2    0    0  0.00000000000E+00  0.00000000000E+00  0.38100470875E+03  0.21102604140E+04  0.20755805036E+04 0.  0.
        3    1    3    3  502    0  0.42926186065E+03  0.69138388056E+03 -0.46425413862E+03  0.93691479374E+03  0.10100000352E+00 0.  1.
       -3    1    3    3    0  502 -0.42926186065E+03 -0.69138388056E+03  0.84525884737E+03  0.11733456203E+04  0.10100000352E+00 0. -1.
</event>
<event>
 5   0  0.1921687E-04  0.2078208E+04  0.7818609E-02  0.8570904E-01
        2   -1    0    0  501    0  0.00000000000E+00  0.00000000000E+00  0.69163082996E+03  0.69163082997E+03  0.25500000920E-02 0. -1.
       -2   -1    0    0    0  501  0.00000000000E+00  0.00000000000E+00 -0.15611469588E+04  0.15611469588E+04  0.25500000920E-02 0.  1.
    10030    2    1    2    0    0  0.00000000000E+00  0.00000000000E+00 -0.86951612886E+03  0.22527777888E+04  0.20782082348E+04 0.  0.
        5    1    3    3  502    0 -0.52088162519E+02  0.52235150219E+03  0.53731318782E+03  0.75119359709E+03  0.46999998093E+01 0. -1.
       -5    1    3    3    0  502  0.52088162519E+02 -0.52235150219E+03 -0.14068293167E+04  0.15015841917E+04  0.46999998093E+01 0.  1.
</event>
<event>
 5   0  0.8525278E-05  0.2119955E+04  0.7818609E-02  0.8552504E-01
       -1   -1    0    0    0  501  0.00000000000E+00  0.00000000000E+00  0.14624290491E+04  0.14624290491E+04  0.50400001928E-02 0. -1.
        1   -1    0    0  501    0  0.00000000000E+00  0.00000000000E+00 -0.76827795425E+03  0.76827795426E+03  0.50400001928E-02 0.  1.
    10030    2    1    2    0    0  0.00000000000E+00  0.00000000000E+00  0.69415109482E+03  0.22307070033E+04  0.21199547147E+04 0.  0.
        4    1    3    3  502    0 -0.89835644576E+03 -0.39324128633E+02  0.93760754849E+03  0.12991151676E+04  0.12699999809E+01 0. -1.
       -4    1    3    3    0  502  0.89835644576E+03  0.39324128633E+02 -0.24345645367E+03  0.93159183576E+03  0.12699999809E+01 0.  1.
</event>
<event>
 5   0  0.8525278E-05  0.2102705E+04  0.7818609E-02  0.8560053E-01
       -1   -1    0    0    0  501  0.00000000000E+00  0.00000000000E+00  0.87166020761E+03  0.87166020763E+03  0.50400001928E-02 0. -1.
        1   -1    0    0  501    0  0.00000000000E+00  0.00000000000E+00 -0.12680880015E+04  0.12680880016E+04  0.50400001928E-02 0.  1.
    10030    2    1    2    0    0  0.00000000000E+00  0.00000000000E+00 -0.39642779393E+03  0.21397482092E+04  0.21027047826E+04 0.  0.
        4    1    3    3  502    0 -0.44866388538E+03 -0.16748756430E+03 -0.11506452063E+04  0.12463295591E+04  0.12699999809E+01 0.  1.
       -4    1    3    3    0  502  0.44866388538E+03  0.16748756430E+03  0.75421741238E+03  0.89341865006E+03  0.12699999809E+01 0. -1.
</event>
<event>
 5   0  0.8237966E-05  0.2105833E+04  0.7818609E-02  0.8558678E-01
        1   -1    0    0  501    0  0.00000000000E+00  0.00000000000E+00  0.22342837193E+04  0.22342837193E+04  0.50400001928E-02 0.  1.
       -1   -1    0    0    0  501  0.00000000000E+00  0.00000000000E+00 -0.49619186108E+03  0.49619186110E+03  0.50400001928E-02 0. -1.
    10030    2    1    2    0    0  0.00000000000E+00  0.00000000000E+00  0.17380918582E+04  0.27304755804E+04  0.21058332288E+04 0.  0.
        1    1    3    3  502    0 -0.81587751913E+03  0.51740987311E+03  0.14118724355E+04  0.17107755192E+04  0.50400001928E-02 0.  1.
       -1    1    3    3    0  502  0.81587751913E+03 -0.51740987311E+03  0.32621942273E+03  0.10197000612E+04  0.50400001928E-02 0. -1.
</event>
<event>
 5   0  0.8237966E-05  0.2085684E+04  0.7818609E-02  0.8567576E-01
        1   -1    0    0  501    0  0.00000000000E+00  0.00000000000E+00  0.11059688297E+04  0.11059688297E+04  0.50400001928E-02 0. -1.
       -1   -1    0    0    0  501  0.00000000000E+00  0.00000000000E+00 -0.98331872316E+03  0.98331872318E+03  0.50400001928E-02 0.  1.
    10030    2    1    2    0    0  0.00000000000E+00  0.00000000000E+00  0.12265010652E+03  0.20892875529E+04  0.20856844032E+04 0.  0.
        1    1    3    3  502    0 -0.88701108973E+03  0.18621656104E+03  0.57802092345E+03  0.10749760318E+04  0.50400001928E-02 0.  1.
       -1    1    3    3    0  502  0.88701108973E+03 -0.18621656104E+03 -0.45537081693E+03  0.10143115211E+04  0.50400001928E-02 0. -1.
</event>
<event>
 5   0  0.8271069E-05  0.1964497E+04  0.7818609E-02  0.8623402E-01
       -1   -1    0    0    0  501  0.00000000000E+00  0.00000000000E+00  0.67713014080E+03  0.67713014082E+03  0.50400001928E-02 0. -1.
        1   -1    0    0  501    0  0.00000000000E+00  0.00000000000E+00 -0.14248553116E+04  0.14248553116E+04  0.50400001928E-02 0.  1.
    10030    2    1    2    0    0  0.00000000000E+00  0.00000000000E+00 -0.74772517083E+03  0.21019854525E+04  0.19644973686E+04 0.  0.
        2    1    3    3  502    0 -0.93013604633E+02  0.40194351053E+03 -0.13276534980E+04  0.13902783632E+04  0.25500000920E-02 0.  1.
       -2    1    3    3    0  502  0.93013604633E+02 -0.40194351053E+03  0.57992832717E+03  0.71170708931E+03  0.25500000920E-02 0. -1.
</event>
<event>
 5   0  0.8486612E-05  0.2118046E+04  0.7818609E-02  0.8553335E-01
       -1   -1    0    0    0  501  0.00000000000E+00  0.00000000000E+00  0.43808619983E+03  0.43808619985E+03  0.50400001928E-02 0.  1.
        1   -1    0    0  501    0  0.00000000000E+00  0.00000000000E+00 -0.25600672283E+04  0.25600672283E+04  0.50400001928E-02 0. -1.
    10030    2    1    2    0    0  0.00000000000E+00  0.00000000000E+00 -0.21219810285E+04  0.29981534282E+04  0.21180463861E+04 0.  0.
        5    1    3    3  502    0  0.44535035289E+03 -0.83022885219E+03 -0.17455722069E+04  0.19835980700E+04  0.46999998093E+01 0.  1.
       -5    1    3    3    0  502 -0.44535035289E+03  0.83022885219E+03 -0.37640882159E+03  0.10145553582E+04  0.46999998093E+01 0. -1.
</event>
<event>
 5   0  0.8271069E-05  0.2100963E+04  0.7818609E-02  0.8560819E-01
       -1   -1    0    0    0  501  0.00000000000E+00  0.00000000000E+00  0.88638731163E+03  0.88638731165E+03  0.50400001928E-02 0.  1.
        1   -1    0    0  501    0  0.00000000000E+00  0.00000000000E+00 -0.12449540871E+04  0.12449540872E+04  0.50400001928E-02 0. -1.
    10030    2    1    2    0    0  0.00000000000E+00  0.00000000000E+00 -0.35856677551E+03  0.21313413988E+04  0.21009631186E+04 0.  0.
        2    1    3    3  502    0  0.87147019610E+03  0.53794037473E+03  0.57916521627E+02  0.10257653108E+04  0.25500000920E-02 0. -1.
       -2    1    3    3    0  502 -0.87147019610E+03 -0.53794037473E+03 -0.41648329714E+03  0.11055760880E+04  0.25500000920E-02 0.  1.
</event>
<event>
 5   0  0.1810875E-04  0.2082168E+04  0.7818609E-02  0.8569139E-01
       -2   -1    0    0    0  501  0.00000000000E+00  0.00000000000E+00  0.90464401060E+03  0.90464401060E+03  0.25500000920E-02 0. -1.
        2   -1    0    0  501    0  0.00000000000E+00  0.00000000000E+00 -0.11981019453E+04  0.11981019453E+04  0.25500000920E-02 0.  1.
    10030    2    1    2    0    0  0.00000000000E+00  0.00000000000E+00 -0.29345793467E+03  0.21027459559E+04  0.20821678596E+04 0.  0.
        1    1    3    3  502    0  0.96151455218E+03 -0.39905542235E+03 -0.15684216214E+03  0.10527843692E+04  0.50400001928E-02 0. -1.
       -1    1    3    3    0  502 -0.96151455218E+03  0.39905542235E+03 -0.13661577253E+03  0.10499615867E+04  0.50400001928E-02 0.  1.
</event>
<event>
 5   0  0.1810875E-04  0.1730097E+04  0.7818609E-02  0.8744383E-01
        2   -1    0    0  501    0  0.00000000000E+00  0.00000000000E+00  0.19366239862E+04  0.19366239862E+04  0.25500000920E-02 0.  1.
       -2   -1    0    0    0  501  0.00000000000E+00  0.00000000000E+00 -0.38639860794E+03  0.38639860794E+03  0.25500000920E-02 0. -1.
    10030    2    1    2    0    0  0.00000000000E+00  0.00000000000E+00  0.15502253783E+04  0.23230225942E+04  0.17300968902E+04 0.  0.
        1    1    3    3  502    0  0.42010785454E+03 -0.22074961153E+03  0.17462268987E+04  0.18095660756E+04  0.50400001928E-02 0.  1.
       -1    1    3    3    0  502 -0.42010785454E+03  0.22074961153E+03 -0.19600152036E+03  0.51345651855E+03  0.50400001928E-02 0. -1.
</event>
<event>
 5   0  0.1886323E-04  0.2113940E+04  0.7818609E-02  0.8555128E-01
        2   -1    0    0  501    0  0.00000000000E+00  0.00000000000E+00  0.15643569134E+04  0.15643569134E+04  0.25500000920E-02 0.  1.
       -2   -1    0    0    0  501  0.00000000000E+00  0.00000000000E+00 -0.71414991462E+03  0.71414991463E+03  0.25500000920E-02 0. -1.
    10030    2    1    2    0    0  0.00000000000E+00  0.00000000000E+00  0.85020699880E+03  0.22785068281E+04  0.21139397874E+04 0.  0.
        2    1    3    3  502    0 -0.10545608450E+04  0.49660118218E+02  0.48028105877E+03  0.11598424887E+04  0.25500000920E-02 0.  1.
       -2    1    3    3    0  502  0.10545608450E+04 -0.49660118218E+02  0.36992594003E+03  0.11186643394E+04  0.25500000920E-02 0. -1.
</event>
<event>
 5   0  0.8525278E-05  0.2026500E+04  0.7818609E-02  0.8594330E-01
       -1   -1    0    0    0  501  0.00000000000E+00  0.00000000000E+00  0.71144314790E+03  0.71144314792E+03  0.50400001928E-02 0.  1.
        1   -1    0    0  501    0  0.00000000000E+00  0.00000000000E+00 -0.14430883419E+04  0.14430883420E+04  0.50400001928E-02 0. -1.
    10030    2    1    2    0    0  0.00000000000E+00  0.00000000000E+00 -0.73164519404E+03  0.21545314899E+04  0.20264997535E+04 0.  0.
        4    1    3    3  502    0 -0.35390369072E+03  0.31997888389E+01  0.64359026664E+03  0.73448492508E+03  0.12699999809E+01 0.  1.
       -4    1    3    3    0  502  0.35390369072E+03 -0.31997888389E+01 -0.13752354607E+04  0.14200465648E+04  0.12699999809E+01 0. -1.
</event>
<event>
 5   0  0.8525278E-05  0.2002603E+04  0.7818609E-02  0.8605405E-01
        1   -1    0    0  501    0  0.00000000000E+00  0.00000000000E+00  0.20692414737E+04  0.20692414737E+04  0.50400001928E-02 0.  1.
       -1   -1    0    0    0  501  0.00000000000E+00  0.00000000000E+00 -0.48452772215E+03  0.48452772218E+03  0.50400001928E-02 0. -1.
    10030    2    1    2    0    0  0.00000000000E+00  0.00000000000E+00  0.15847137516E+04  0.25537691959E+04  0.20026031638E+04 0.  0.
        4    1    3    3  502    0 -0.61977990975E+03 -0.95667715480E+02  0.17877870836E+04  0.18945880073E+04  0.12699999809E+01 0.  1.
       -4    1    3    3    0  502  0.61977990975E+03  0.95667715480E+02 -0.20307333202E+03  0.65918118859E+03  0.12699999809E+01 0. -1.
</event>
<event>
 5   0  0.8237966E-05  0.2046277E+04  0.7818609E-02  0.8585285E-01
       -1   -1    0    0    0  501  0.00000000000E+00  0.00000000000E+00  0.76449480637E+03  0.76449480639E+03  0.50400001928E-02 0. -1.
        1   -1    0    0  501    0  0.00000000000E+00  0.00000000000E+00 -0.13692858993E+04  0.13692858993E+04  0.50400001928E-02 0.  1.
    10030    2    1    2    0    0  0.00000000000E+00  0.00000000000E+00 -0.60479109291E+03  0.21337807057E+04  0.20462765781E+04 0.  0.
        1    1    3    3  502    0  0.71930094366E+03 -0.71654631833E+03 -0.43421115350E+03  0.11042516922E+04  0.50400001928E-02 0.  1.
       -1    1    3    3    0  502 -0.71930094366E+03  0.71654631833E+03 -0.17057993941E+03  0.10295290135E+04  0.50400001928E-02 0. -1.
</event>
<event>
 5   0  0.8271069E-05  0.2085006E+04  0.7818609E-02  0.8567877E-01
        1   -1    0    0  501    0  0.00000000000E+00  0.00000000000E+00  0.12073659992E+04  0.12073659992E+04  0.50400001928E-02 0.  1.
       -1   -1    0    0    0  501  0.00000000000E+00  0.00000000000E+00 -0.90015196249E+03  0.90015196250E+03  0.50400001928E-02 0. -1.
    10030    2    1    2    0    0  0.00000000000E+00  0.00000000000E+00  0.30721403673E+03  0.21075179617E+04  0.20850063536E+04 0.  0.
        2    1    3    3  502    0  0.78396282258E+03  0.68674022459E+03  0.17842883154E+03  0.10573772700E+04  0.25500000920E-02 0. -1.
       -2    1    3    3    0  502 -0.78396282258E+03 -0.68674022459E+03  0.12878520519E+03  0.10501406917E+04  0.25500000920E-02 0.  1.
</event>
<event>
 5   0  0.8271069E-05  0.2112222E+04  0.7818609E-02  0.8555878E-01
        1   -1    0    0  501    0  0.00000000000E+00  0.00000000000E+00  0.15203850847E+04  0.15203850847E+04  0.50400001928E-02 0. -1.
       -1   -1    0    0    0  501  0.00000000000E+00  0.00000000000E+00 -0.73361064371E+03  0.73361064373E+03  0.50400001928E-02 0.  1.
    10030    2    1    2    0    0  0.00000000000E+00  0.00000000000E+00  0.78677444097E+03  0.22539957284E+04  0.21122222238E+04 0.  0.
        2    1    3    3  502    0  0.40238988470E+03 -0.95501347136E+03  0.17625419843E+03  0.10512059229E+04  0.25500000920E-02 0.  1.
       -2    1    3    3    0  502 -0.40238988470E+03  0.95501347136E+03  0.61052024254E+03  0.12027898056E+04  0.25500000920E-02 0. -1.
</event>
<event>
 5   0  0.1815400E-04  0.2121956E+04  0.7818609E-02  0.8551633E-01
        2   -1    0    0  501    0  0.00000000000E+00  0.00000000000E+00  0.22262990634E+04  0.22262990634E+04  0.25500000920E-02 0.  1.
       -2   -1    0    0    0  501  0.00000000000E+00  0.00000000000E+00 -0.50562571273E+03  0.50562571274E+03  0.25500000920E-02 0. -1.
    10030    2    1    2    0    0  0.00000000000E+00  0.00000000000E+00  0.17206733507E+04  0.27319247761E+04  0.21219557495E+04 0.  0.
        3    1    3    3  502    0 -0.95382728641E+03 -0.17644768039E+03  0.14137238143E+04  0.17145073081E+04  0.10100000352E+00 0.  1.
       -3    1    3    3    0  502  0.95382728641E+03  0.17644768039E+03  0.30694953638E+03  0.10174174680E+04  0.10100000352E+00 0. -1.
</event>
<event>
 5   0  0.1810875E-04  0.1977447E+04  0.7818609E-02  0.8617238E-01
       -2   -1    0    0    0  501  0.00000000000E+00  0.00000000000E+00  0.83910296028E+03  0.83910296029E+03  0.25500000920E-02 0.  1.
        2   -1    0    0  501    0  0.00000000000E+00  0.00000000000E+00 -0.11650225578E+04  0.11650225578E+04  0.25500000920E-02 0. -1.
    10030    2    1    2    0    0  0.00000000000E+00  0.00000000000E+00 -0.32591959755E+03  0.20041255181E+04  0.19774467144E+04 0.  0.
        1    1    3    3  502    0 -0.94144163253E+03  0.30110554885E+03 -0.13819702386E+03  0.99803572904E+03  0.50400001928E-02 0. -1.
       -1    1    3    3    0  502  0.94144163253E+03 -0.30110554885E+03 -0.18772257369E+03  0.10060897891E+04  0.50400001928E-02 0.  1.
</event>
<event>
 5   0  0.1815400E-04  0.2009484E+04  0.7818609E-02  0.8602200E-01
       -2   -1    0    0    0  501  0.00000000000E+00  0.00000000000E+00  0.79177220841E+03  0.79177220842E+03  0.25500000920E-02 0. -1.
        2   -1    0    0  501    0  0.00000000000E+00  0.00000000000E+00 -0.12749956827E+04  0.12749956827E+04  0.25500000920E-02 0.  1.
    10030    2    1    2    0    0  0.00000000000E+00  0.00000000000E+00 -0.48322347430E+03  0.20667678911E+04  0.20094836625E+04 0.  0.
        3    1    3    3  502    0  0.21218989973E+03 -0.69320438138E+03  0.47388415619E+03  0.86609645629E+03  0.10100000352E+00 0. -1.
       -3    1    3    3    0  502 -0.21218989973E+03  0.69320438138E+03 -0.95710763049E+03  0.12006714348E+04  0.10100000352E+00 0.  1.
</event>
<event>
 5   0  0.8237966E-05  0.2081258E+04  0.7818609E-02  0.8569545E-01
        1   -1    0    0  501    0  0.00000000000E+00  0.00000000000E+00  0.11753673331E+04  0.11753673332E+04  0.50400001928E-02 0.  1.
       -1   -1    0    0    0  501  0.00000000000E+00  0.00000000000E+00 -0.92133623559E+03  0.92133623561E+03  0.50400001928E-02 0. -1.
    10030    2    1    2    0    0  0.00000000000E+00  0.00000000000E+00  0.25403109755E+03  0.20967035688E+04  0.20812578064E+04 0.  0.
        1    1    3    3  502    0 -0.92880641135E+03 -0.45876966095E+03  0.27502088558E+02  0.10362949949E+04  0.50400001928E-02 0.  1.
       -1    1    3    3    0  502  0.92880641135E+03  0.45876966095E+03  0.22652900899E+03  0.10604085739E+04  0.50400001928E-02 0. -1.
</event>
<event>
 5   0  0.1886323E-04  0.2125825E+04  0.7818609E-02  0.8549952E-01
        2   -1    0    0  501    0  0.00000000000E+00  0.00000000000E+00  0.15180795254E+04  0.15180795254E+04  0.25500000920E-02 0. -1.
       -2   -1    0    0    0  501  0.00000000000E+00  0.00000000000E+00 -0.74421851953E+03  0.74421851953E+03  0.25500000920E-02 0.  1.
    10030    2    1    2    0    0  0.00000000000E+00  0.00000000000E+00  0.77386100587E+03  0.22622980449E+04  0.21258249193E+04 0.  0.
        2    1    3    3  502    0  0.10408016874E+04 -0.13370245549E+03  0.56702344185E+03  0.11927531525E+04  0.25500000920E-02 0. -1.
       -2    1    3    3    0  502 -0.10408016874E+04  0.13370245549E+03  0.20683756402E+03  0.10695448925E+04  0.25500000920E-02 0.  1.
</event>
<event>
 5   0  0.1886323E-04  0.2104317E+04  0.7818609E-02  0.8559344E-01
        2   -1    0    0  501    0  0.00000000000E+00  0.00000000000E+00  0.22731133070E+04  0.22731133070E+04  0.25500000920E-02 0.  1.
       -2   -1    0    0    0  501  0.00000000000E+00  0.00000000000E+00 -0.48701395042E+03  0.48701395042E+03  0.25500000920E-02 0. -1.
    10030    2    1    2    0    0  0.00000000000E+00  0.00000000000E+00  0.17860993566E+04  0.27601272574E+04  0.21043173633E+04 0.  0.
        2    1    3    3  502    0  0.68646044969E+02 -0.98060751468E+03  0.13851098073E+04  0.16984794834E+04  0.25500000920E-02 0. -1.
       -2    1    3    3    0  502 -0.68646044969E+02  0.98060751468E+03  0.40098954924E+03  0.10616477740E+04  0.25500000920E-02 0.  1.
</event>
<event>
 5   0  0.8237966E-05  0.2116228E+04  0.7818609E-02  0.8554128E-01
        1   -1    0    0  501    0  0.00000000000E+00  0.00000000000E+00  0.73910517552E+03  0.73910517554E+03  0.50400001928E-02 0. -1.
       -1   -1    0    0    0  501  0.00000000000E+00  0.00000000000E+00 -0.15148121707E+04  0.15148121707E+04  0.50400001928E-02 0.  1.
    10030    2    1    2    0    0  0.00000000000E+00  0.00000000000E+00 -0.77570699517E+03  0.22539173462E+04  0.21162282630E+04 0.  0.
        1    1    3    3  502    0  0.34016726926E+03  0.11745288588E+03  0.67192292254E+03  0.76222658399E+03  0.50400001928E-02 0. -1.
       -1    1    3    3    0  502 -0.34016726926E+03 -0.11745288588E+03 -0.14476299177E+04  0.14916907622E+04  0.50400001928E-02 0.  1.
</event>
<event>
 5   0  0.8525278E-05  0.1461453E+04  0.7818609E-02  0.8910499E-01
        1   -1    0    0  501    0  0.00000000000E+00  0.00000000000E+00  0.53017165577E+03  0.53017165580E+03  0.50400001928E-02 0. -1.
       -1   -1    0    0    0  501  0.00000000000E+00  0.00000000000E+00 -0.10071478033E+04  0.10071478033E+04  0.50400001928E-02 0.  1.
    10030    2    1    2    0    0  0.00000000000E+00  0.00000000000E+00 -0.47697614754E+03  0.15373194591E+04  0.14614530010E+04 0.  0.
        4    1    3    3  502    0  0.47489724954E+02  0.32864395307E+03  0.44622278200E+03  0.55621803813E+03  0.12699999809E+01 0. -1.
       -4    1    3    3    0  502 -0.47489724954E+02 -0.32864395307E+03 -0.92319892954E+03  0.98110142099E+03  0.12699999809E+01 0.  1.
</event>
<event>
 5   0  0.8486612E-05  0.2114005E+04  0.7818609E-02  0.8555099E-01
       -1   -1    0    0    0  501  0.00000000000E+00  0.00000000000E+00  0.86049842582E+03  0.86049842584E+03  0.50400001928E-02 0.  1.
        1   -1    0    0  501    0  0.00000000000E+00  0.00000000000E+00 -0.12983803600E+04  0.12983803600E+04  0.50400001928E-02 0. -1.
    10030    2    1    2    0    0  0.00000000000E+00  0.00000000000E+00 -0.43788193414E+03  0.21588787858E+04  0.21140049725E+04 0.  0.
        5    1    3    3  502    0  0.45867392159E+03  0.35118648837E+03 -0.11228960851E+04  0.12627871649E+04  0.46999998093E+01 0. -1.
       -5    1    3    3    0  502 -0.45867392159E+03 -0.35118648837E+03  0.68501415098E+03  0.89609162087E+03  0.46999998093E+01 0.  1.
</event>
<event>
 5   0  0.1777590E-04  0.2135067E+04  0.7818609E-02  0.8545952E-01
        2   -1    0    0  501    0  0.00000000000E+00  0.00000000000E+00  0.12245052781E+04  0.12245052781E+04  0.25500000920E-02 0. -1.
       -2   -1    0    0    0  501  0.00000000000E+00  0.00000000000E+00 -0.93068406235E+03  0.93068406235E+03  0.25500000920E-02 0.  1.
    10030    2    1    2    0    0  0.00000000000E+00  0.00000000000E+00  0.29382121573E+03  0.21551893404E+04  0.21350667873E+04 0.  0.
        4    1    3    3  502    0 -0.40307547554E+03 -0.30990612510E+03  0.10944343208E+04  0.12067724478E+04  0.12699999809E+01 0. -1.
       -4    1    3    3    0  502  0.40307547554E+03  0.30990612510E+03 -0.80061310505E+03  0.94841689264E+03  0.12699999809E+01 0.  1.
</event>
<event>
 5   0  0.8486612E-05  0.2071025E+04  0.7818609E-02  0.8574115E-01
       -1   -1    0    0    0  501  0.00000000000E+00  0.00000000000E+00  0.10142123744E+04  0.10142123744E+04  0.50400001928E-02 0. -1.
        1   -1    0    0  501    0  0.00000000000E+00  0.00000000000E+00 -0.10572604634E+04  0.10572604634E+04  0.50400001928E-02 0.  1.
    10030    2    1    2    0    0  0.00000000000E+00  0.00000000000E+00 -0.43048088995E+02  0.20714728378E+04  0.20710254899E+04 0.  0.
        5    1    3    3  502    0  0.62925338689E+02 -0.38047923656E+03  0.93969368606E+03  0.10157609765E+04  0.46999998093E+01 0. -1.
       -5    1    3    3    0  502 -0.62925338689E+02  0.38047923656E+03 -0.98274177505E+03  0.10557118613E+04  0.46999998093E+01 0.  1.
</event>
<event>
 5   0  0.1810875E-04  0.2070870E+04  0.7818609E-02  0.8574185E-01
       -2   -1    0    0    0  501  0.00000000000E+00  0.00000000000E+00  0.12569953033E+04  0.12569953033E+04  0.25500000920E-02 0.  1.
        2   -1    0    0  501    0  0.00000000000E+00  0.00000000000E+00 -0.85292727130E+03  0.85292727130E+03  0.25500000920E-02 0. -1.
    10030    2    1    2    0    0  0.00000000000E+00  0.00000000000E+00  0.40406803204E+03  0.21099225746E+04  0.20708699371E+04 0.  0.
        1    1    3    3  502    0  0.17810327696E+03 -0.96876708272E+03 -0.12319585173E+03  0.99267701481E+03  0.50400001928E-02 0.  1.
       -1    1    3    3    0  502 -0.17810327696E+03  0.96876708272E+03  0.52726388377E+03  0.11172455598E+04  0.50400001928E-02 0. -1.
</event>
<event>
 5   0  0.8486612E-05  0.2123944E+04  0.7818609E-02  0.8550769E-01
        1   -1    0    0  501    0  0.00000000000E+00  0.00000000000E+00  0.11751994513E+04  0.11751994513E+04  0.50400001928E-02 0. -1.
       -1   -1    0    0    0  501  0.00000000000E+00  0.00000000000E+00 -0.95965351160E+03  0.95965351161E+03  0.50400001928E-02 0.  1.
    10030    2    1    2    0    0  0.00000000000E+00  0.00000000000E+00  0.21554593973E+03  0.21348529629E+04  0.21239437660E+04 0.  0.
        5    1    3    3  502    0 -0.77561122548E+03 -0.71463054959E+03  0.23288153288E+03  0.10800580974E+04  0.46999998093E+01 0.  1.
       -5    1    3    3    0  502  0.77561122548E+03  0.71463054959E+03 -0.17335593152E+02  0.10547948655E+04  0.46999998093E+01 0. -1.
</event>
<event>
 5   0  0.8755004E-05  0.2113515E+04  0.7818609E-02  0.8555313E-01
        1   -1    0    0  501    0  0.00000000000E+00  0.00000000000E+00  0.75993028098E+03  0.75993028100E+03  0.50400001928E-02 0. -1.
       -1   -1    0    0    0  501  0.00000000000E+00  0.00000000000E+00 -0.14695252804E+04  0.14695252804E+04  0.50400001928E-02 0.  1.
    10030    2    1    2    0    0  0.00000000000E+00  0.00000000000E+00 -0.70959499944E+03  0.22294555614E+04  0.21135153269E+04 0.  0.
        3    1    3    3  502    0 -0.79773680940E+03 -0.69187049691E+03 -0.39787838410E+03  0.11284396396E+04  0.10100000352E+00 0. -1.
       -3    1    3    3    0  502  0.79773680940E+03  0.69187049691E+03 -0.31171661534E+03  0.11010159218E+04  0.10100000352E+00 0.  1.
</event>
<event>
 5   0  0.8755004E-05  0.2042065E+04  0.7818609E-02  0.8587202E-01
        1   -1    0    0  501    0  0.00000000000E+00  0.00000000000E+00  0.76787658547E+03  0.76787658549E+03  0.50400001928E-02 0.  1.
       -1   -1    0    0    0  501  0.00000000000E+00  0.00000000000E+00 -0.13576501591E+04  0.13576501591E+04  0.50400001928E-02 0. -1.
    10030    2    1    2    0    0  0.00000000000E+00  0.00000000000E+00 -0.58977357363E+03  0.21255267446E+04  0.20420653941E+04 0.  0.
        3    1    3    3  502    0  0.56946999568E+03 -0.72850930510E+03 -0.74558019367E+03  0.11878180496E+04  0.10100000352E+00 0. -1.
       -3    1    3    3    0  502 -0.56946999568E+03  0.72850930510E+03  0.15580662004E+03  0.93770869499E+03  0.10100000352E+00 0.  1.
</event>
<event>
 5   0  0.8486612E-05  0.2051217E+04  0.7818609E-02  0.8583043E-01
       -1   -1    0    0    0  501  0.00000000000E+00  0.00000000000E+00  0.65449168094E+03  0.65449168096E+03  0.50400001928E-02 0. -1.
        1   -1    0    0  501    0  0.00000000000E+00  0.00000000000E+00 -0.16071593362E+04  0.16071593363E+04  0.50400001928E-02 0.  1.
    10030    2    1    2    0    0  0.00000000000E+00  0.00000000000E+00 -0.95266765531E+03  0.22616510172E+04  0.20512166298E+04 0.  0.
        5    1    3    3  502    0 -0.80487235807E+03  0.59362555697E+03 -0.22577764518E+03  0.10252845701E+04  0.46999998093E+01 0. -1.
       -5    1    3    3    0  502  0.80487235807E+03 -0.59362555697E+03 -0.72689001013E+03  0.12363664471E+04  0.46999998093E+01 0.  1.
</event>
<event>
 5   0  0.1777590E-04  0.2083326E+04  0.7818609E-02  0.8568624E-01
       -2   -1    0    0    0  501  0.00000000000E+00  0.00000000000E+00  0.79477958789E+03  0.79477958790E+03  0.25500000920E-02 0. -1.
        2   -1    0    0  501    0  0.00000000000E+00  0.00000000000E+00 -0.13652364560E+04  0.13652364560E+04  0.25500000920E-02 0.  1.
    10030    2    1    2    0    0  0.00000000000E+00  0.00000000000E+00 -0.57045686812E+03  0.21600160439E+04  0.20833262518E+04 0.  0.
        4    1    3    3  502    0 -0.45954289999E+03  0.78185658551E+03  0.24606125478E+03  0.93969524381E+03  0.12699999809E+01 0. -1.
       -4    1    3    3    0  502  0.45954289999E+03 -0.78185658551E+03 -0.81651812291E+03  0.12203208001E+04  0.12699999809E+01 0.  1.
</event>
<event>
 5   0  0.1815400E-04  0.2141644E+04  0.7818609E-02  0.8543118E-01
       -2   -1    0    0    0  501  0.00000000000E+00  0.00000000000E+00  0.76196089352E+03  0.76196089352E+03  0.25500000920E-02 0. -1.
        2   -1    0    0  501    0  0.00000000000E+00  0.00000000000E+00 -0.15048799062E+04  0.15048799062E+04  0.25500000920E-02 0.  1.
    10030    2    1    2    0    0  0.00000000000E+00  0.00000000000E+00 -0.74291901266E+03  0.22668407997E+04  0.21416438901E+04 0.  0.
        3    1    3    3  502    0 -0.29031452988E+03 -0.48033390530E+03 -0.13367226852E+04  0.14497692003E+04  0.10100000352E+00 0.  1.
       -3    1    3    3    0  502  0.29031452988E+03  0.48033390530E+03  0.59380367253E+03  0.81707159940E+03  0.10100000352E+00 0. -1.
</event>
<event>
 5   0  0.1886323E-04  0.2079637E+04  0.7818609E-02  0.8570267E-01
        2   -1    0    0  501    0  0.00000000000E+00  0.00000000000E+00  0.11954154873E+04  0.11954154874E+04  0.25500000920E-02 0.  1.
       -2   -1    0    0    0  501  0.00000000000E+00  0.00000000000E+00 -0.90447441978E+03  0.90447441979E+03  0.25500000920E-02 0. -1.
    10030    2    1    2    0    0  0.00000000000E+00  0.00000000000E+00  0.29094106756E+03  0.20998899071E+04  0.20796372081E+04 0.  0.
        2    1    3    3  502    0 -0.75752355884E+03 -0.24397293364E+03 -0.53026866533E+03  0.95632086246E+03  0.25500000920E-02 0. -1.
       -2    1    3    3    0  502  0.75752355884E+03  0.24397293364E+03  0.82120973289E+03  0.11435690447E+04  0.25500000920E-02 0.  1.
</event>
<event>
 5   0  0.1810875E-04  0.2069076E+04  0.7818609E-02  0.8574990E-01
        2   -1    0    0  501    0  0.00000000000E+00  0.00000000000E+00  0.79788944806E+03  0.79788944806E+03  0.25500000920E-02 0.  1.
       -2   -1    0    0    0  501  0.00000000000E+00  0.00000000000E+00 -0.13413742977E+04  0.13413742977E+04  0.25500000920E-02 0. -1.
    10030    2    1    2    0    0  0.00000000000E+00  0.00000000000E+00 -0.54348484961E+03  0.21392637457E+04  0.20690755404E+04 0.  0.
        1    1    3    3  502    0  0.41474629797E+03 -0.90971524934E+03  0.31177984255E+01  0.99980300422E+03  0.50400001928E-02 0.  1.
       -1    1    3    3    0  502 -0.41474629797E+03  0.90971524934E+03 -0.54660264803E+03  0.11394607415E+04  0.50400001928E-02 0. -1.
</event>
<event>
 5   0  0.1921687E-04  0.2057934E+04  0.7818609E-02  0.8580003E-01
       -2   -1    0    0    0  501  0.00000000000E+00  0.00000000000E+00  0.62316079884E+03  0.62316079885E+03  0.25500000920E-02 0.  1.
        2   -1    0    0  501    0  0.00000000000E+00  0.00000000000E+00 -0.16990370046E+04  0.16990370046E+04  0.25500000920E-02 0. -1.
    10030    2    1    2    0    0  0.00000000000E+00  0.00000000000E+00 -0.10758762058E+04  0.23221978035E+04  0.20579341652E+04 0.  0.
        5    1    3    3  502    0  0.16995371521E+03 -0.16037069295E+03  0.59281197755E+03  0.63722143341E+03  0.46999998093E+01 0.  1.
       -5    1    3    3    0  502 -0.16995371521E+03  0.16037069295E+03 -0.16686881833E+04  0.16849763701E+04  0.46999998093E+01 0. -1.
</event>
<event>
 5   0  0.1815400E-04  0.2131602E+04  0.7818609E-02  0.8547449E-01
        2   -1    0    0  501    0  0.00000000000E+00  0.00000000000E+00  0.18362714353E+04  0.18362714353E+04  0.25500000920E-02 0. -1.
       -2   -1    0    0    0  501  0.00000000000E+00  0.00000000000E+00 -0.61860785272E+03  0.61860785272E+03  0.25500000920E-02 0.  1.
    10030    2    1    2    0    0  0.00000000000E+00  0.00000000000E+00  0.12176635825E+04  0.24548792880E+04  0.21316021482E+04 0.  0.
        3    1    3    3  502    0  0.55782020392E+03  0.77620013569E+03  0.65861544993E+02  0.95811679030E+03  0.10100000352E+00 0.  1.
       -3    1    3    3    0  502 -0.55782020392E+03 -0.77620013569E+03  0.11518020375E+04  0.14967624977E+04  0.10100000352E+00 0. -1.
</event>
<event>
 5   0  0.8237966E-05  0.2047193E+04  0.7818609E-02  0.8584869E-01
        1   -1    0    0  501    0  0.00000000000E+00  0.00000000000E+00  0.96571751165E+03  0.96571751166E+03  0.50400001928E-02 0.  1.
       -1   -1    0    0    0  501  0.00000000000E+00  0.00000000000E+00 -0.10849440266E+04  0.10849440267E+04  0.50400001928E-02 0. -1.
    10030    2    1    2    0    0  0.00000000000E+00  0.00000000000E+00 -0.11922651500E+03  0.20506615383E+04  0.20471926590E+04 0.  0.
        1    1    3    3  502    0  0.24340006383E+03 -0.43645451908E+03  0.83521633335E+03  0.97330491719E+03  0.50400001928E-02 0.  1.
       -1    1    3    3    0  502 -0.24340006383E+03  0.43645451908E+03 -0.95444284835E+03  0.10773566211E+04  0.50400001928E-02 0. -1.
</event>
<event>
 5   0  0.8755004E-05  0.2132859E+04  0.7818609E-02  0.8546905E-01
       -1   -1    0    0    0  501  0.00000000000E+00  0.00000000000E+00  0.10340604899E+04  0.10340604899E+04  0.50400001928E-02 0.  1.
        1   -1    0    0  501    0  0.00000000000E+00  0.00000000000E+00 -0.10998114412E+04  0.10998114412E+04  0.50400001928E-02 0. -1.
    10030    2    1    2    0    0  0.00000000000E+00  0.00000000000E+00 -0.65750951343E+02  0.21338719311E+04  0.21328586992E+04 0.  0.
        3    1    3    3  502    0 -0.10360931938E+03  0.56912132433E+03  0.86345055585E+03  0.10393174902E+04  0.10100000352E+00 0.  1.
       -3    1    3    3    0  502  0.10360931938E+03 -0.56912132433E+03 -0.92920150719E+03  0.10945544409E+04  0.10100000352E+00 0. -1.
</event>
<event>
 5   0  0.8486612E-05  0.2025475E+04  0.7818609E-02  0.8594802E-01
        1   -1    0    0  501    0  0.00000000000E+00  0.00000000000E+00  0.91414893859E+03  0.91414893860E+03  0.50400001928E-02 0. -1.
       -1   -1    0    0    0  501  0.00000000000E+00  0.00000000000E+00 -0.11219588026E+04  0.11219588026E+04  0.50400001928E-02 0.  1.
    10030    2    1    2    0    0  0.00000000000E+00  0.00000000000E+00 -0.20780986401E+03  0.20361077412E+04  0.20254752021E+04 0.  0.
        5    1    3    3  502    0  0.40555602404E+03 -0.85260951834E+03  0.26434672445E+03  0.98046925507E+03  0.46999998093E+01 0. -1.
       -5    1    3    3    0  502 -0.40555602404E+03  0.85260951834E+03 -0.47215658846E+03  0.10556384861E+04  0.46999998093E+01 0.  1.
</event>
<event>
 5   0  0.8755004E-05  0.2072004E+04  0.7818609E-02  0.8573677E-01
        1   -1    0    0  501    0  0.00000000000E+00  0.00000000000E+00  0.10990620335E+04  0.10990620336E+04  0.50400001928E-02 0. -1.
       -1   -1    0    0    0  501  0.00000000000E+00  0.00000000000E+00 -0.97656013654E+03  0.97656013656E+03  0.50400001928E-02 0.  1.
    10030    2    1    2    0    0  0.00000000000E+00  0.00000000000E+00  0.12250189700E+03  0.20756221701E+04  0.20720040247E+04 0.  0.
        3    1    3    3  502    0  0.40242483148E+03 -0.77595195431E+03  0.61832720957E+03  0.10706893708E+04  0.10100000352E+00 0. -1.
       -3    1    3    3    0  502 -0.40242483148E+03  0.77595195431E+03 -0.49582531257E+03  0.10049327993E+04  0.10100000352E+00 0.  1.
</event>
<event>
 5   0  0.1886323E-04  0.2107315E+04  0.7818609E-02  0.8558028E-01
        2   -1    0    0  501    0  0.00000000000E+00  0.00000000000E+00  0.90988326497E+03  0.90988326498E+03  0.25500000920E-02 0. -1.
       -2   -1    0    0    0  501  0.00000000000E+00  0.00000000000E+00 -0.12201495706E+04  0.12201495706E+04  0.25500000920E-02 0.  1.
    10030    2    1    2    0    0  0.00000000000E+00  0.00000000000E+00 -0.31026630566E+03  0.21300328356E+04  0.21073145708E+04 0.  0.
        2    1    3    3  502    0  0.25895494678E+03 -0.63700326443E+03  0.65182367756E+03  0.94747291781E+03  0.25500000920E-02 0. -1.
       -2    1    3    3    0  502 -0.25895494678E+03  0.63700326443E+03 -0.96208998322E+03  0.11825599178E+04  0.25500000920E-02 0.  1.
</event>
<event>
 5   0  0.1815400E-04  0.2114578E+04  0.7818609E-02  0.8554849E-01
        2   -1    0    0  501    0  0.00000000000E+00  0.00000000000E+00  0.11201171542E+04  0.11201171542E+04  0.25500000920E-02 0.  1.
       -2   -1    0    0    0  501  0.00000000000E+00  0.00000000000E+00 -0.99798447320E+03  0.99798447321E+03  0.25500000920E-02 0. -1.
    10030    2    1    2    0    0  0.00000000000E+00  0.00000000000E+00  0.12213268103E+03  0.21181016274E+04  0.21145775258E+04 0.  0.
        3    1    3    3  502    0  0.33600177886E+03 -0.26449530196E+03  0.10296341827E+04  0.11148997805E+04  0.10100000352E+00 0.  1.
       -3    1    3    3    0  502 -0.33600177886E+03  0.26449530196E+03 -0.90750150163E+03  0.10032018470E+04  0.10100000352E+00 0. -1.
</event>
<event>
 5   0  0.8755004E-05  0.2082111E+04  0.7818609E-02  0.8569165E-01
       -1   -1    0    0    0  501  0.00000000000E+00  0.00000000000E+00  0.13951192831E+04  0.13951192831E+04  0.50400001928E-02 0.  1.
        1   -1    0    0  501    0  0.00000000000E+00  0.00000000000E+00 -0.77684898110E+03  0.77684898111E+03  0.50400001928E-02 0. -1.
    10030    2    1    2    0    0  0.00000000000E+00  0.00000000000E+00  0.61827030201E+03  0.21719682642E+04  0.20821114222E+04 0.  0.
        3    1    3    3  502    0 -0.78050802581E+03 -0.68169800503E+03  0.41288616045E+03  0.11155177901E+04  0.10100000352E+00 0. -1.
       -3    1    3    3    0  502  0.78050802581E+03  0.68169800503E+03  0.20538414156E+03  0.10564504741E+04  0.10100000352E+00 0.  1.
</event>
<event>
 5   0  0.8271069E-05  0.2172815E+04  0.7818609E-02  0.8529829E-01
        1   -1    0    0  501    0  0.00000000000E+00  0.00000000000E+00  0.88516564952E+03  0.88516564954E+03  0.50400001928E-02 0.  1.
       -1   -1    0    0    0  501  0.00000000000E+00  0.00000000000E+00 -0.13334021433E+04  0.13334021433E+04  0.50400001928E-02 0. -1.
    10030    2    1    2    0    0  0.00000000000E+00  0.00000000000E+00 -0.44823649373E+03  0.22185677928E+04  0.21728154770E+04 0.  0.
        2    1    3    3  502    0 -0.58986078460E+03  0.70258319085E+03 -0.81837226956E+03  0.12293461908E+04  0.25500000920E-02 0. -1.
       -2    1    3    3    0  502  0.58986078460E+03 -0.70258319085E+03  0.37013577583E+03  0.98922160198E+03  0.25500000920E-02 0.  1.
</event>
<event>
 5   0  0.1886323E-04  0.2096103E+04  0.7818609E-02  0.8562962E-01
       -2   -1    0    0    0  501  0.00000000000E+00  0.00000000000E+00  0.66433656994E+03  0.66433656995E+03  0.25500000920E-02 0.  1.
        2   -1    0    0  501    0  0.00000000000E+00  0.00000000000E+00 -0.16533967567E+04  0.16533967567E+04  0.25500000920E-02 0. -1.
    10030    2    1    2    0    0  0.00000000000E+00  0.00000000000E+00 -0.98906018676E+03  0.23177333266E+04  0.20961029842E+04 0.  0.
        2    1    3    3  502    0  0.61535091634E+03  0.48719868372E+03  0.27345214839E+03  0.83114101398E+03  0.25500000920E-02 0.  1.
       -2    1    3    3    0  502 -0.61535091634E+03 -0.48719868372E+03 -0.12625123352E+04  0.14865923127E+04  0.25500000920E-02 0. -1.
</event>
<event>
 5   0  0.8525278E-05  0.2122882E+04  0.7818609E-02  0.8551230E-01
       -1   -1    0    0    0  501  0.00000000000E+00  0.00000000000E+00  0.58979546224E+03  0.58979546227E+03  0.50400001928E-02 0. -1.
        1   -1    0    0  501    0  0.00000000000E+00  0.00000000000E+00 -0.19102504743E+04  0.19102504743E+04  0.50400001928E-02 0.  1.
    10030    2    1    2    0    0  0.00000000000E+00  0.00000000000E+00 -0.13204550120E+04  0.25000459365E+04  0.21228820613E+04 0.  0.
        4    1    3    3  502    0  0.24294253181E+03  0.50029560093E+03 -0.17249174427E+04  0.18123627007E+04  0.12699999809E+01 0.  1.
       -4    1    3    3    0  502 -0.24294253181E+03 -0.50029560093E+03  0.40446243067E+03  0.68768323579E+03  0.12699999809E+01 0. -1.
</event>
<event>
 5   0  0.1810875E-04  0.2110336E+04  0.7818609E-02  0.8556704E-01
        2   -1    0    0  501    0  0.00000000000E+00  0.00000000000E+00  0.15412194548E+04  0.15412194548E+04  0.25500000920E-02 0.  1.
       -2   -1    0    0    0  501  0.00000000000E+00  0.00000000000E+00 -0.72240164686E+03  0.72240164686E+03  0.25500000920E-02 0. -1.
    10030    2    1    2    0    0  0.00000000000E+00  0.00000000000E+00  0.81881780790E+03  0.22636211016E+04  0.21103359659E+04 0.  0.
        1    1    3    3  502    0 -0.45773535092E+02  0.93155766520E+03  0.93869179702E+03  0.13232676184E+04  0.50400001928E-02 0.  1.
       -1    1    3    3    0  502  0.45773535092E+02 -0.93155766520E+03 -0.11987398912E+03  0.94035348322E+03  0.50400001928E-02 0. -1.
</event>
<event>
 5   0  0.8525278E-05  0.2089305E+04  0.7818609E-02  0.8565969E-01
        1   -1    0    0  501    0  0.00000000000E+00  0.00000000000E+00  0.15694739946E+04  0.15694739946E+04  0.50400001928E-02 0.  1.
       -1   -1    0    0    0  501  0.00000000000E+00  0.00000000000E+00 -0.69532779510E+03  0.69532779512E+03  0.50400001928E-02 0. -1.
    10030    2    1    2    0    0  0.00000000000E+00  0.00000000000E+00  0.87414619952E+03  0.22648017898E+04  0.20893050444E+04 0.  0.
        4    1    3    3  502    0 -0.75890894621E+03 -0.61299090381E+03  0.32063018800E+02  0.97607903720E+03  0.12699999809E+01 0. -1.
       -4    1    3    3    0  502  0.75890894621E+03  0.61299090381E+03  0.84208318072E+03  0.12887227526E+04  0.12699999809E+01 0.  1.
</event>
<event>
 5   0  0.8755004E-05  0.2131834E+04  0.7818609E-02  0.8547348E-01
       -1   -1    0    0    0  501  0.00000000000E+00  0.00000000000E+00  0.12285165012E+04  0.12285165012E+04  0.50400001928E-02 0. -1.
        1   -1    0    0  501    0  0.00000000000E+00  0.00000000000E+00 -0.92483858991E+03  0.92483858992E+03  0.50400001928E-02 0.  1.
    10030    2    1    2    0    0  0.00000000000E+00  0.00000000000E+00  0.30367791132E+03  0.21533550912E+04  0.21318343920E+04 0.  0.
        3    1    3    3  502    0  0.76533463557E+03  0.60315713057E+03  0.58822314381E+03  0.11382188303E+04  0.10100000352E+00 0. -1.
       -3    1    3    3    0  502 -0.76533463557E+03 -0.60315713057E+03 -0.28454523249E+03  0.10151362609E+04  0.10100000352E+00 0.  1.
</event>
<event>
 5   0  0.8271069E-05  0.2088714E+04  0.7818609E-02  0.8566231E-01
       -1   -1    0    0    0  501  0.00000000000E+00  0.00000000000E+00  0.79701213482E+03  0.79701213483E+03  0.50400001928E-02 0.  1.
        1   -1    0    0  501    0  0.00000000000E+00  0.00000000000E+00 -0.13684630508E+04  0.13684630508E+04  0.50400001928E-02 0. -1.
    10030    2    1    2    0    0  0.00000000000E+00  0.00000000000E+00 -0.57145091602E+03  0.21654751857E+04  0.20887141093E+04 0.  0.
        2    1    3    3  502    0  0.67278836468E+03  0.51444257776E+03  0.34778444092E+03  0.91555959217E+03  0.25500000920E-02 0.  1.
       -2    1    3    3    0  502 -0.67278836468E+03 -0.51444257776E+03 -0.91923535694E+03  0.12499155935E+04  0.25500000920E-02 0. -1.
</event>
<event>
 5   0  0.1810875E-04  0.2147540E+04  0.7818609E-02  0.8540586E-01
        2   -1    0    0  501    0  0.00000000000E+00  0.00000000000E+00  0.23159126110E+04  0.23159126110E+04  0.25500000920E-02 0. -1.
       -2   -1    0    0    0  501  0.00000000000E+00  0.00000000000E+00 -0.49785190383E+03  0.49785190384E+03  0.25500000920E-02 0.  1.
    10030    2    1    2    0    0  0.00000000000E+00  0.00000000000E+00  0.18180607071E+04  0.28137645148E+04  0.21475395247E+04 0.  0.
        1    1    3    3  502    0  0.10307686694E+04 -0.13516292688E+03  0.55690225020E+03  0.11793613454E+04  0.50400001928E-02 0.  1.
       -1    1    3    3    0  502 -0.10307686694E+04  0.13516292688E+03  0.12611584569E+04  0.16344031694E+04  0.50400001928E-02 0. -1.
</event>
<event>
 5   0  0.1921687E-04  0.2173058E+04  0.7818609E-02  0.8529726E-01
       -2   -1    0    0    0  501  0.00000000000E+00  0.00000000000E+00  0.17371661704E+04  0.17371661704E+04  0.25500000920E-02 0.  1.
        2   -1    0    0  501    0  0.00000000000E+00  0.00000000000E+00 -0.67958120463E+03  0.67958120463E+03  0.25500000920E-02 0. -1.
    10030    2    1    2    0    0  0.00000000000E+00  0.00000000000E+00  0.10575849658E+04  0.24167473750E+04  0.21730581941E+04 0.  0.
        5    1    3    3  502    0  0.40210289669E+03 -0.59319871255E+03 -0.37946120035E+03  0.81091574449E+03  0.46999998093E+01 0. -1.
       -5    1    3    3    0  502 -0.40210289669E+03  0.59319871255E+03  0.14370461661E+04  0.16058316306E+04  0.46999998093E+01 0.  1.
</event>
<event>
 5   0  0.8486612E-05  0.2019760E+04  0.7818609E-02  0.8597437E-01
       -1   -1    0    0    0  501  0.00000000000E+00  0.00000000000E+00  0.61057019681E+03  0.61057019683E+03  0.50400001928E-02 0.  1.
        1   -1    0    0  501    0  0.00000000000E+00  0.00000000000E+00 -0.16703370213E+04  0.16703370213E+04  0.50400001928E-02 0. -1.
    10030    2    1    2    0    0  0.00000000000E+00  0.00000000000E+00 -0.10597668245E+04  0.22809072181E+04  0.20197603856E+04 0.  0.
        5    1    3    3  502    0  0.43287331215E+02 -0.44935882133E+03  0.49026454915E+03  0.66646722463E+03  0.46999998093E+01 0.  1.
       -5    1    3    3    0  502 -0.43287331215E+02  0.44935882133E+03 -0.15500313736E+04  0.16144399935E+04  0.46999998093E+01 0. -1.
</event>
<event>
 5   0  0.1777590E-04  0.2125346E+04  0.7818609E-02  0.8550160E-01
       -2   -1    0    0    0  501  0.00000000000E+00  0.00000000000E+00  0.75160670380E+03  0.75160670380E+03  0.25500000920E-02 0. -1.
        2   -1    0    0  501    0  0.00000000000E+00  0.00000000000E+00 -0.15024800867E+04  0.15024800867E+04  0.25500000920E-02 0.  1.
    10030    2    1    2    0    0  0.00000000000E+00  0.00000000000E+00 -0.75087338292E+03  0.22540867905E+04  0.21253461888E+04 0.  0.
        4    1    3    3  502    0 -0.86932435809E+03  0.51438968254E+03 -0.25365494504E+02  0.10104289219E+04  0.12699999809E+01 0. -1.
       -4    1    3    3    0  502  0.86932435809E+03 -0.51438968254E+03 -0.72550788842E+03  0.12436578686E+04  0.12699999809E+01 0.  1.
</event>
<event>
 5   0  0.8237966E-05  0.2100654E+04  0.7818609E-02  0.8560955E-01
        1   -1    0    0  501    0  0.00000000000E+00  0.00000000000E+00  0.21528602295E+04  0.21528602295E+04  0.50400001928E-02 0.  1.
       -1   -1    0    0    0  501  0.00000000000E+00  0.00000000000E+00 -0.51242856110E+03  0.51242856113E+03  0.50400001928E-02 0. -1.
    10030    2    1    2    0    0  0.00000000000E+00  0.00000000000E+00  0.16404316684E+04  0.26652887906E+04  0.21006542502E+04 0.  0.
        1    1    3    3  502    0  0.32931430404E+02  0.84198042229E+03  0.16157901298E+04  0.18223043803E+04  0.50400001928E-02 0.  1.
       -1    1    3    3    0  502 -0.32931430404E+02 -0.84198042229E+03  0.24641538526E+02  0.84298441034E+03  0.50400001928E-02 0. -1.
</event>
<event>
 5   0  0.8486612E-05  0.1465703E+04  0.7818609E-02  0.8907586E-01
        1   -1    0    0  501    0  0.00000000000E+00  0.00000000000E+00  0.10828671032E+04  0.10828671032E+04  0.50400001928E-02 0.  1.
       -1   -1    0    0    0  501  0.00000000000E+00  0.00000000000E+00 -0.49597152742E+03  0.49597152745E+03  0.50400001928E-02 0. -1.
    10030    2    1    2    0    0  0.00000000000E+00  0.00000000000E+00  0.58689557576E+03  0.15788386306E+04  0.14657029047E+04 0.  0.
        5    1    3    3  502    0  0.43622277866E+03  0.28569346150E+03  0.84810908254E+03  0.99560141244E+03  0.46999998093E+01 0.  1.
       -5    1    3    3    0  502 -0.43622277866E+03 -0.28569346150E+03 -0.26121350679E+03  0.58323721820E+03  0.46999998093E+01 0. -1.
</event>
<event>
 5   0  0.8271069E-05  0.2117146E+04  0.7818609E-02  0.8553728E-01
       -1   -1    0    0    0  501  0.00000000000E+00  0.00000000000E+00  0.14361944219E+04  0.14361944219E+04  0.50400001928E-02 0.  1.
        1   -1    0    0  501    0  0.00000000000E+00  0.00000000000E+00 -0.78024038076E+03  0.78024038077E+03  0.50400001928E-02 0. -1.
    10030    2    1    2    0    0  0.00000000000E+00  0.00000000000E+00  0.65595404112E+03  0.22164348027E+04  0.21171460815E+04 0.  0.
        2    1    3    3  502    0  0.54946580372E+03  0.76526563382E+03 -0.17739662527E+03  0.95865203407E+03  0.25500000920E-02 0. -1.
       -2    1    3    3    0  502 -0.54946580372E+03 -0.76526563382E+03  0.83335066639E+03  0.12577827686E+04  0.25500000920E-02 0.  1.
</event>
<event>
 5   0  0.8271069E-05  0.1683667E+04  0.7818609E-02  0.8770735E-01
        1   -1    0    0  501    0  0.00000000000E+00  0.00000000000E+00  0.11132811229E+04  0.11132811229E+04  0.50400001928E-02 0.  1.
       -1   -1    0    0    0  501  0.00000000000E+00  0.00000000000E+00 -0.63657216931E+03  0.63657216933E+03  0.50400001928E-02 0. -1.
    10030    2    1    2    0    0  0.00000000000E+00  0.00000000000E+00  0.47670895358E+03  0.17498532922E+04  0.16836671636E+04 0.  0.
        2    1    3    3  502    0  0.24296019106E+02 -0.54950321073E+03  0.90069773651E+03  0.10553674657E+04  0.25500000920E-02 0.  1.
       -2    1    3    3    0  502 -0.24296019106E+02  0.54950321073E+03 -0.42398878293E+03  0.69448582650E+03  0.25500000920E-02 0. -1.
</event>
<event>
 5   0  0.8486612E-05  0.2103303E+04  0.7818609E-02  0.8559790E-01
        1   -1    0    0  501    0  0.00000000000E+00  0.00000000000E+00  0.10173928406E+04  0.10173928406E+04  0.50400001928E-02 0. -1.
       -1   -1    0    0    0  501  0.00000000000E+00  0.00000000000E+00 -0.10870637810E+04  0.10870637810E+04  0.50400001928E-02 0.  1.
    10030    2    1    2    0    0  0.00000000000E+00  0.00000000000E+00 -0.69670940440E+02  0.21044566216E+04  0.21033030291E+04 0.  0.
        5    1    3    3  502    0  0.61511541013E+03 -0.27473423930E+03 -0.84280728795E+03  0.10789773328E+04  0.46999998093E+01 0.  1.
       -5    1    3    3    0  502 -0.61511541013E+03  0.27473423930E+03  0.77313634751E+03  0.10254792888E+04  0.46999998093E+01 0. -1.
</event>
<event>
 5   0  0.8486612E-05  0.2115976E+04  0.7818609E-02  0.8554238E-01
       -1   -1    0    0    0  501  0.00000000000E+00  0.00000000000E+00  0.66045766147E+03  0.66045766149E+03  0.50400001928E-02 0.  1.
        1   -1    0    0  501    0  0.00000000000E+00  0.00000000000E+00 -0.16947919871E+04  0.16947919871E+04  0.50400001928E-02 0. -1.
    10030    2    1    2    0    0  0.00000000000E+00  0.00000000000E+00 -0.10343343256E+04  0.23552496486E+04  0.21159757584E+04 0.  0.
        5    1    3    3  502    0  0.59129825781E+03 -0.62368507495E+03 -0.12039468589E+04  0.14792318383E+04  0.46999998093E+01 0. -1.
       -5    1    3    3    0  502 -0.59129825781E+03  0.62368507495E+03  0.16961253333E+03  0.87601781024E+03  0.46999998093E+01 0.  1.
</event>
<event>
 5   0  0.8271069E-05  0.2019414E+04  0.7818609E-02  0.8597597E-01
       -1   -1    0    0    0  501  0.00000000000E+00  0.00000000000E+00  0.11772624029E+04  0.11772624029E+04  0.50400001928E-02 0. -1.
        1   -1    0    0  501    0  0.00000000000E+00  0.00000000000E+00 -0.86599953469E+03  0.86599953471E+03  0.50400001928E-02 0.  1.
    10030    2    1    2    0    0  0.00000000000E+00  0.00000000000E+00  0.31126286823E+03  0.20432619376E+04  0.20194144628E+04 0.  0.
        2    1    3    3  502    0  0.49004838223E+03  0.47833163388E+03 -0.59512827831E+03  0.90726304705E+03  0.25500000920E-02 0.  1.
       -2    1    3    3    0  502 -0.49004838223E+03 -0.47833163388E+03  0.90639114653E+03  0.11359988906E+04  0.25500000920E-02 0. -1.
</event>
<event>
 5   0  0.8271069E-05  0.2105239E+04  0.7818609E-02  0.8558939E-01
        1   -1    0    0  501    0  0.00000000000E+00  0.00000000000E+00  0.77088945179E+03  0.77088945181E+03  0.50400001928E-02 0.  1.
       -1   -1    0    0    0  501  0.00000000000E+00  0.00000000000E+00 -0.14373112807E+04  0.14373112807E+04  0.50400001928E-02 0. -1.
    10030    2    1    2    0    0  0.00000000000E+00  0.00000000000E+00 -0.66642182889E+03  0.22082007325E+04  0.21052392788E+04 0.  0.
        2    1    3    3  502    0 -0.28532161927E+03 -0.18008925177E+03  0.71263300292E+03  0.78847090110E+03  0.25500000920E-02 0.  1.
       -2    1    3    3    0  502  0.28532161927E+03  0.18008925177E+03 -0.13790548318E+04  0.14197298314E+04  0.25500000920E-02 0. -1.
</event>
<event>
 5   0  0.8271069E-05  0.2146437E+04  0.7818609E-02  0.8541059E-01
        1   -1    0    0  501    0  0.00000000000E+00  0.00000000000E+00  0.23915680024E+04  0.23915680024E+04  0.50400001928E-02 0.  1.
       -1   -1    0    0    0  501  0.00000000000E+00  0.00000000000E+00 -0.48160798838E+03  0.48160798841E+03  0.50400001928E-02 0. -1.
    10030    2    1    2    0    0  0.00000000000E+00  0.00000000000E+00  0.19099600140E+04  0.28731759908E+04  0.21464372851E+04 0.  0.
        2    1    3    3  502    0  0.94579700225E+03 -0.28900022884E+03  0.15129365488E+04  0.18074927669E+04  0.25500000920E-02 0.  1.
       -2    1    3    3    0  502 -0.94579700225E+03  0.28900022884E+03  0.39702346522E+03  0.10656832239E+04  0.25500000920E-02 0. -1.
</event>
<event>
 5   0  0.1810875E-04  0.2138001E+04  0.7818609E-02  0.8544686E-01
        2   -1    0    0  501    0  0.00000000000E+00  0.00000000000E+00  0.56681938546E+03  0.56681938547E+03  0.25500000920E-02 0. -1.
       -2   -1    0    0    0  501  0.00000000000E+00  0.00000000000E+00 -0.20160951432E+04  0.20160951432E+04  0.25500000920E-02 0.  1.
    10030    2    1    2    0    0  0.00000000000E+00  0.00000000000E+00 -0.14492757578E+04  0.25829145287E+04  0.21380007578E+04 0.  0.
        1    1    3    3  502    0 -0.91444055614E+03  0.53201180622E+03 -0.90992923398E+03  0.13954244170E+04  0.50400001928E-02 0.  1.
       -1    1    3    3    0  502  0.91444055614E+03 -0.53201180622E+03 -0.53934652379E+03  0.11874901117E+04  0.50400001928E-02 0. -1.
</event>
<event>
 5   0  0.8486612E-05  0.2117233E+04  0.7818609E-02  0.8553690E-01
        1   -1    0    0  501    0  0.00000000000E+00  0.00000000000E+00  0.23541336630E+04  0.23541336630E+04  0.50400001928E-02 0.  1.
       -1   -1    0    0    0  501  0.00000000000E+00  0.00000000000E+00 -0.47604318548E+03  0.47604318550E+03  0.50400001928E-02 0. -1.
    10030    2    1    2    0    0  0.00000000000E+00  0.00000000000E+00  0.18780904775E+04  0.28301768485E+04  0.21172333721E+04 0.  0.
        5    1    3    3  502    0 -0.88786779492E+03 -0.21194403570E+03  0.16556861543E+04  0.18906475682E+04  0.46999998093E+01 0.  1.
       -5    1    3    3    0  502  0.88786779492E+03  0.21194403570E+03  0.22240432316E+03  0.93952928027E+03  0.46999998093E+01 0. -1.
</event>
<event>
 5   0  0.8271069E-05  0.2108872E+04  0.7818609E-02  0.8557345E-01
       -1   -1    0    0    0  501  0.00000000000E+00  0.00000000000E+00  0.64897811344E+03  0.64897811346E+03  0.50400001928E-02 0.  1.
        1   -1    0    0  501    0  0.00000000000E+00  0.00000000000E+00 -0.17132088078E+04  0.17132088078E+04  0.50400001928E-02 0. -1.
    10030    2    1    2    0    0  0.00000000000E+00  0.00000000000E+00 -0.10642306944E+04  0.23621869213E+04  0.21088717553E+04 0.  0.
        2    1    3    3  502    0 -0.37510099818E+03 -0.68110378541E+02  0.56907893975E+03  0.68497490623E+03  0.25500000920E-02 0.  1.
       -2    1    3    3    0  502  0.37510099818E+03  0.68110378541E+02 -0.16333096341E+04  0.16772120150E+04  0.25500000920E-02 0. -1.
</event>
<event>
 5   0  0.8237966E-05  0.2143709E+04  0.7818609E-02  0.8542230E-01
        1   -1    0    0  501    0  0.00000000000E+00  0.00000000000E+00  0.98914084169E+03  0.98914084170E+03  0.50400001928E-02 0. -1.
       -1   -1    0    0    0  501  0.00000000000E+00  0.00000000000E+00 -0.11614846966E+04  0.11614846966E+04  0.50400001928E-02 0.  1.
    10030    2    1    2    0    0  0.00000000000E+00  0.00000000000E+00 -0.17234385488E+03  0.21506255383E+04  0.21437088892E+04 0.  0.
        1    1    3    3  502    0 -0.30843909802E+03 -0.29682576910E+03  0.89966425830E+03  0.99631119239E+03  0.50400001928E-02 0. -1.
       -1    1    3    3    0  502  0.30843909802E+03  0.29682576910E+03 -0.10720081132E+04  0.11543143459E+04  0.50400001928E-02 0.  1.
</event>
<event>
 5   0  0.1921687E-04  0.1928473E+04  0.7818609E-02  0.8640812E-01
       -2   -1    0    0    0  501  0.00000000000E+00  0.00000000000E+00  0.70765714899E+03  0.70765714899E+03  0.25500000920E-02 0. -1.
        2   -1    0    0  501    0  0.00000000000E+00  0.00000000000E+00 -0.13138458180E+04  0.13138458180E+04  0.25500000920E-02 0.  1.
    10030    2    1    2    0    0  0.00000000000E+00  0.00000000000E+00 -0.60618866905E+03  0.20215029670E+04  0.19284733712E+04 0.  0.
        5    1    3    3  502    0  0.19038052911E+03 -0.47651529830E+03 -0.11588195529E+04  0.12673580479E+04  0.46999998093E+01 0.  1.
       -5    1    3    3    0  502 -0.19038052911E+03  0.47651529830E+03  0.55263088381E+03  0.75414491918E+03  0.46999998093E+01 0. -1.
</event>
<event>
 5   0  0.1921687E-04  0.2072130E+04  0.7818609E-02  0.8573621E-01
        2   -1    0    0  501    0  0.00000000000E+00  0.00000000000E+00  0.26487745045E+04  0.26487745045E+04  0.25500000920E-02 0. -1.
       -2   -1    0    0    0  501  0.00000000000E+00  0.00000000000E+00 -0.40525542239E+03  0.40525542240E+03  0.25500000920E-02 0.  1.
    10030    2    1    2    0    0  0.00000000000E+00  0.00000000000E+00  0.22435190821E+04  0.30540299269E+04  0.20721295622E+04 0.  0.
        5    1    3    3  502    0 -0.58044527033E+03 -0.81081744296E+03  0.15361909357E+04  0.18314601602E+04  0.46999998093E+01 0.  1.
       -5    1    3    3    0  502  0.58044527033E+03  0.81081744296E+03  0.70732814644E+03  0.12225697667E+04  0.46999998093E+01 0. -1.
</event>
<event>
 5   0  0.1777590E-04  0.2154628E+04  0.7818609E-02  0.8537554E-01
       -2   -1    0    0    0  501  0.00000000000E+00  0.00000000000E+00  0.10729075246E+04  0.10729075246E+04  0.25500000920E-02 0.  1.
        2   -1    0    0  501    0  0.00000000000E+00  0.00000000000E+00 -0.10817386972E+04  0.10817386972E+04  0.25500000920E-02 0. -1.
    10030    2    1    2    0    0  0.00000000000E+00  0.00000000000E+00 -0.88311725704E+01  0.21546462218E+04  0.21546281237E+04 0.  0.
        4    1    3    3  502    0  0.99632187528E+03 -0.39547093712E+03  0.10305360791E+03  0.10768826307E+04  0.12699999809E+01 0.  1.
       -4    1    3    3    0  502 -0.99632187528E+03  0.39547093712E+03 -0.11188478048E+03  0.10777635911E+04  0.12699999809E+01 0. -1.
</event>
<event>
 5   0  0.8486612E-05  0.2182999E+04  0.7818609E-02  0.8525538E-01
       -1   -1    0    0    0  501  0.00000000000E+00  0.00000000000E+00  0.15342325926E+04  0.15342325926E+04  0.50400001928E-02 0. -1.
        1   -1    0    0  501    0  0.00000000000E+00  0.00000000000E+00 -0.77652606396E+03  0.77652606397E+03  0.50400001928E-02 0.  1.
    10030    2    1    2    0    0  0.00000000000E+00  0.00000000000E+00  0.75770652866E+03  0.23107586566E+04  0.21829994012E+04 0.  0.
        5    1    3    3  502    0 -0.32422760657E+03  0.99588210554E+03  0.70415770491E+03  0.12620478883E+04  0.46999998093E+01 0. -1.
       -5    1    3    3    0  502  0.32422760657E+03 -0.99588210554E+03  0.53548823748E+02  0.10487107683E+04  0.46999998093E+01 0.  1.
</event>
<event>
 5   0  0.1886323E-04  0.2106312E+04  0.7818609E-02  0.8558468E-01
       -2   -1    0    0    0  501  0.00000000000E+00  0.00000000000E+00  0.48145919628E+03  0.48145919628E+03  0.25500000920E-02 0. -1.
        2   -1    0    0  501    0  0.00000000000E+00  0.00000000000E+00 -0.23036998326E+04  0.23036998326E+04  0.25500000920E-02 0.  1.
    10030    2    1    2    0    0  0.00000000000E+00  0.00000000000E+00 -0.18222406363E+04  0.27851590289E+04  0.21063119141E+04 0.  0.
        2    1    3    3  502    0  0.88365639121E+03 -0.34488488597E+03 -0.30611831462E+03  0.99674601823E+03  0.25500000920E-02 0. -1.
       -2    1    3    3    0  502 -0.88365639121E+03  0.34488488597E+03 -0.15161223217E+04  0.17884130107E+04  0.25500000920E-02 0.  1.
</event>
<event>
 5   0  0.8271069E-05  0.1981718E+04  0.7818609E-02  0.8615216E-01
        1   -1    0    0  501    0  0.00000000000E+00  0.00000000000E+00  0.85596632554E+03  0.85596632556E+03  0.50400001928E-02 0.  1.
       -1   -1    0    0    0  501  0.00000000000E+00  0.00000000000E+00 -0.11470091393E+04  0.11470091393E+04  0.50400001928E-02 0. -1.
    10030    2    1    2    0    0  0.00000000000E+00  0.00000000000E+00 -0.29104281371E+03  0.20029754648E+04  0.19817176371E+04 0.  0.
        2    1    3    3  502    0  0.20431470822E+02  0.82056893358E+03 -0.70649798413E+03  0.10830005639E+04  0.25500000920E-02 0. -1.
       -2    1    3    3    0  502 -0.20431470822E+02 -0.82056893358E+03  0.41545517042E+03  0.91997490095E+03  0.25500000920E-02 0.  1.
</event>
<event>
 5   0  0.1886323E-04  0.2095792E+04  0.7818609E-02  0.8563099E-01
       -2   -1    0    0    0  501  0.00000000000E+00  0.00000000000E+00  0.10943444380E+04  0.10943444380E+04  0.25500000920E-02 0.  1.
        2   -1    0    0  501    0  0.00000000000E+00  0.00000000000E+00 -0.10034194978E+04  0.10034194978E+04  0.25500000920E-02 0. -1.
    10030    2    1    2    0    0  0.00000000000E+00  0.00000000000E+00  0.90924940188E+02  0.20977639359E+04  0.20957924959E+04 0.  0.
        2    1    3    3  502    0  0.88206016429E+03 -0.53426303074E+03  0.23170045838E+03  0.10569542194E+04  0.25500000920E-02 0. -1.
       -2    1    3    3    0  502 -0.88206016429E+03  0.53426303074E+03 -0.14077551819E+03  0.10408097165E+04  0.25500000920E-02 0.  1.
</event>
<event>
 5   0  0.8486612E-05  0.2060850E+04  0.7818609E-02  0.8578688E-01
       -1   -1    0    0    0  501  0.00000000000E+00  0.00000000000E+00  0.96258170874E+03  0.96258170876E+03  0.50400001928E-02 0. -1.
        1   -1    0    0  501    0  0.00000000000E+00  0.00000000000E+00 -0.11030501701E+04  0.11030501701E+04  0.50400001928E-02 0.  1.
    10030    2    1    2    0    0  0.00000000000E+00  0.00000000000E+00 -0.14046846132E+03  0.20656318788E+04  0.20608502299E+04 0.  0.
        5    1    3    3  502    0  0.91572187324E+03 -0.42365611390E+03  0.13935084716E+03  0.10185635967E+04  0.46999998093E+01 0. -1.
       -5    1    3    3    0  502 -0.91572187324E+03  0.42365611390E+03 -0.27981930847E+03  0.10470682821E+04  0.46999998093E+01 0.  1.
</event>
<event>
 5   0  0.1777590E-04  0.2024397E+04  0.7818609E-02  0.8595299E-01
       -2   -1    0    0    0  501  0.00000000000E+00  0.00000000000E+00  0.13324582345E+04  0.13324582345E+04  0.25500000920E-02 0. -1.
        2   -1    0    0  501    0  0.00000000000E+00  0.00000000000E+00 -0.76891390010E+03  0.76891390010E+03  0.25500000920E-02 0.  1.
    10030    2    1    2    0    0  0.00000000000E+00  0.00000000000E+00  0.56354433436E+03  0.21013721346E+04  0.20243968561E+04 0.  0.
        4    1    3    3  502    0  0.84822186235E+02  0.31753067979E+02  0.13282427737E+04  0.13313277355E+04  0.12699999809E+01 0. -1.
       -4    1    3    3    0  502 -0.84822186235E+02 -0.31753067979E+02 -0.76469843929E+03  0.77004439908E+03  0.12699999809E+01 0.  1.
</event>
<event>
 5   0  0.8237966E-05  0.2100533E+04  0.7818609E-02  0.8561009E-01
       -1   -1    0    0    0  501  0.00000000000E+00  0.00000000000E+00  0.95399015749E+03  0.95399015751E+03  0.50400001928E-02 0.  1.
        1   -1    0    0  501    0  0.00000000000E+00  0.00000000000E+00 -0.11562585500E+04  0.11562585500E+04  0.50400001928E-02 0. -1.
    10030    2    1    2    0    0  0.00000000000E+00  0.00000000000E+00 -0.20226839254E+03  0.21102487076E+04  0.21005325765E+04 0.  0.
        1    1    3    3  502    0 -0.72942028108E+03 -0.32596184788E+03  0.58374801293E+03  0.98947805197E+03  0.50400001928E-02 0.  1.
       -1    1    3    3    0  502  0.72942028108E+03  0.32596184788E+03 -0.78601640547E+03  0.11207706556E+04  0.50400001928E-02 0. -1.
</event>
<event>
 5   0  0.8486612E-05  0.2110722E+04  0.7818609E-02  0.8556535E-01
       -1   -1    0    0    0  501  0.00000000000E+00  0.00000000000E+00  0.72346274422E+03  0.72346274424E+03  0.50400001928E-02 0.  1.
        1   -1    0    0  501    0  0.00000000000E+00  0.00000000000E+00 -0.15395227571E+04  0.15395227571E+04  0.50400001928E-02 0. -1.
    10030    2    1    2    0    0  0.00000000000E+00  0.00000000000E+00 -0.81606001290E+03  0.22629855014E+04  0.21107224912E+04 0.  0.
        5    1    3    3  502    0 -0.70025797726E+03  0.70786806106E+03 -0.33047061199E+02  0.99626935356E+03  0.46999998093E+01 0.  1.
       -5    1    3    3    0  502  0.70025797726E+03 -0.70786806106E+03 -0.78301295170E+03  0.12667161478E+04  0.46999998093E+01 0. -1.
</event>
<event>
 5   0  0.8237966E-05  0.2036353E+04  0.7818609E-02  0.8589811E-01
       -1   -1    0    0    0  501  0.00000000000E+00  0.00000000000E+00  0.13222177167E+04  0.13222177167E+04  0.50400001928E-02 0.  1.
        1   -1    0    0  501    0  0.00000000000E+00  0.00000000000E+00 -0.78404875688E+03  0.78404875690E+03  0.50400001928E-02 0. -1.
    10030    2    1    2    0    0  0.00000000000E+00  0.00000000000E+00  0.53816895980E+03  0.21062664736E+04  0.20363527760E+04 0.  0.
        1    1    3    3  502    0  0.54099014735E+00 -0.64595589965E+03 -0.54497147227E+03  0.84513503216E+03  0.50400001928E-02 0. -1.
       -1    1    3    3    0  502 -0.54099014735E+00  0.64595589965E+03  0.10831404321E+04  0.12611314414E+04  0.50400001928E-02 0.  1.
</event>
<event>
 5   0  0.1886323E-04  0.2081343E+04  0.7818609E-02  0.8569507E-01
       -2   -1    0    0    0  501  0.00000000000E+00  0.00000000000E+00  0.67660957099E+03  0.67660957100E+03  0.25500000920E-02 0.  1.
        2   -1    0    0  501    0  0.00000000000E+00  0.00000000000E+00 -0.16006234280E+04  0.16006234280E+04  0.25500000920E-02 0. -1.
    10030    2    1    2    0    0  0.00000000000E+00  0.00000000000E+00 -0.92401385697E+03  0.22772329990E+04  0.20813429616E+04 0.  0.
        2    1    3    3  502    0 -0.56823409798E+03  0.38499513323E+03 -0.13178596547E+04  0.14858887281E+04  0.25500000920E-02 0. -1.
       -2    1    3    3    0  502  0.56823409798E+03 -0.38499513323E+03  0.39384579771E+03  0.79134427091E+03  0.25500000920E-02 0.  1.
</event>
<event>
 5   0  0.1815400E-04  0.2095071E+04  0.7818609E-02  0.8563418E-01
        2   -1    0    0  501    0  0.00000000000E+00  0.00000000000E+00  0.18383600063E+04  0.18383600063E+04  0.25500000920E-02 0. -1.
       -2   -1    0    0    0  501  0.00000000000E+00  0.00000000000E+00 -0.59690735291E+03  0.59690735292E+03  0.25500000920E-02 0.  1.
    10030    2    1    2    0    0  0.00000000000E+00  0.00000000000E+00  0.12414526534E+04  0.24352673592E+04  0.20950709822E+04 0.  0.
        3    1    3    3  502    0 -0.78268791642E+03  0.64724894121E+03  0.32256065108E+03  0.10656345294E+04  0.10100000352E+00 0.  1.
       -3    1    3    3    0  502  0.78268791642E+03 -0.64724894121E+03  0.91889200230E+03  0.13696328298E+04  0.10100000352E+00 0. -1.
</event>
<event>
 5   0  0.8486612E-05  0.2098271E+04  0.7818609E-02  0.8562005E-01
        1   -1    0    0  501    0  0.00000000000E+00  0.00000000000E+00  0.91263757575E+03  0.91263757577E+03  0.50400001928E-02 0. -1.
       -1   -1    0    0    0  501  0.00000000000E+00  0.00000000000E+00 -0.12060487562E+04  0.12060487562E+04  0.50400001928E-02 0.  1.
    10030    2    1    2    0    0  0.00000000000E+00  0.00000000000E+00 -0.29341118041E+03  0.21186863319E+04  0.20982711103E+04 0.  0.
        5    1    3    3  502    0  0.13228523215E+03  0.69979392645E+03 -0.92455944688E+03  0.11670660577E+04  0.46999998093E+01 0.  1.
       -5    1    3    3    0  502 -0.13228523215E+03 -0.69979392645E+03  0.63114826646E+03  0.95162027427E+03  0.46999998093E+01 0. -1.
</event>
<event>
 5   0  0.1921687E-04  0.2079859E+04  0.7818609E-02  0.8570168E-01
        2   -1    0    0  501    0  0.00000000000E+00  0.00000000000E+00  0.99470996401E+03  0.99470996402E+03  0.25500000920E-02 0. -1.
       -2   -1    0    0    0  501  0.00000000000E+00  0.00000000000E+00 -0.10872045326E+04  0.10872045326E+04  0.25500000920E-02 0.  1.
    10030    2    1    2    0    0  0.00000000000E+00  0.00000000000E+00 -0.92494568579E+02  0.20819144966E+04  0.20798588236E+04 0.  0.
        5    1    3    3  502    0 -0.15116449337E+03  0.99494762657E+03  0.21604148270E+03  0.10293043748E+04  0.46999998093E+01 0. -1.
       -5    1    3    3    0  502  0.15116449337E+03 -0.99494762657E+03 -0.30853605128E+03  0.10526101218E+04  0.46999998093E+01 0.  1.
</event>
<event>
 5   0  0.1921687E-04  0.1459000E+04  0.7818609E-02  0.8912185E-01
        2   -1    0    0  501    0  0.00000000000E+00  0.00000000000E+00  0.10166361600E+04  0.10166361600E+04  0.25500000920E-02 0.  1.
       -2   -1    0    0    0  501  0.00000000000E+00  0.00000000000E+00 -0.52346190208E+03  0.52346190209E+03  0.25500000920E-02 0. -1.
    10030    2    1    2    0    0  0.00000000000E+00  0.00000000000E+00  0.49317425795E+03  0.15400980621E+04  0.14590000659E+04 0.  0.
        5    1    3    3  502    0 -0.44955093944E+03 -0.55562827988E+03  0.40075083178E+03  0.81941573803E+03  0.46999998093E+01 0.  1.
       -5    1    3    3    0  502  0.44955093944E+03  0.55562827988E+03  0.92423426167E+02  0.72068232409E+03  0.46999998093E+01 0. -1.
</event>
<event>
 5   0  0.1921687E-04  0.2102627E+04  0.7818609E-02  0.8560087E-01
       -2   -1    0    0    0  501  0.00000000000E+00  0.00000000000E+00  0.93897968413E+03  0.93897968413E+03  0.25500000920E-02 0. -1.
        2   -1    0    0  501    0  0.00000000000E+00  0.00000000000E+00 -0.11770862018E+04  0.11770862018E+04  0.25500000920E-02 0.  1.
    10030    2    1    2    0    0  0.00000000000E+00  0.00000000000E+00 -0.23810651767E+03  0.21160658859E+04  0.21026269569E+04 0.  0.
        5    1    3    3  502    0 -0.78850743349E+02  0.97524080004E+02  0.93141389958E+03  0.93983101047E+03  0.46999998093E+01 0. -1.
       -5    1    3    3    0  502  0.78850743349E+02 -0.97524080004E+02 -0.11695204172E+04  0.11762348755E+04  0.46999998093E+01 0.  1.
</event>
<event>
 5   0  0.8237966E-05  0.2121728E+04  0.7818609E-02  0.8551732E-01
        1   -1    0    0  501    0  0.00000000000E+00  0.00000000000E+00  0.25350923352E+04  0.25350923352E+04  0.50400001928E-02 0. -1.
       -1   -1    0    0    0  501  0.00000000000E+00  0.00000000000E+00 -0.44394127811E+03  0.44394127814E+03  0.50400001928E-02 0.  1.
    10030    2    1    2    0    0  0.00000000000E+00  0.00000000000E+00  0.20911510571E+04  0.29790336134E+04  0.21217277219E+04 0.  0.
        1    1    3    3  502    0  0.71284524922E+02 -0.13560596404E+03  0.25194788485E+04  0.25241323517E+04  0.50400001928E-02 0. -1.
       -1    1    3    3    0  502 -0.71284524922E+02  0.13560596404E+03 -0.42832779137E+03  0.45490126166E+03  0.50400001928E-02 0.  1.
</event>
<event>
 5   0  0.1777590E-04  0.1481809E+04  0.7818609E-02  0.8896641E-01
        2   -1    0    0  501    0  0.00000000000E+00  0.00000000000E+00  0.84956391516E+03  0.84956391516E+03  0.25500000920E-02 0. -1.
       -2   -1    0    0    0  501  0.00000000000E+00  0.00000000000E+00 -0.64614240798E+03  0.64614240799E+03  0.25500000920E-02 0.  1.
    10030    2    1    2    0    0  0.00000000000E+00  0.00000000000E+00  0.20342150717E+03  0.14957063231E+04  0.14818087243E+04 0.  0.
        4    1    3    3  502    0 -0.25148466014E+03  0.19075351663E+03  0.77830047981E+03  0.83987182842E+03  0.12699999809E+01 0. -1.
       -4    1    3    3    0  502  0.25148466014E+03 -0.19075351663E+03 -0.57487897264E+03  0.65583449473E+03  0.12699999809E+01 0.  1.
</event>
<event>
 5   0  0.8237966E-05  0.2027538E+04  0.7818609E-02  0.8593853E-01
        1   -1    0    0  501    0  0.00000000000E+00  0.00000000000E+00  0.17830373321E+04  0.17830373321E+04  0.50400001928E-02 0.  1.
       -1   -1    0    0    0  501  0.00000000000E+00  0.00000000000E+00 -0.57639178636E+03  0.57639178639E+03  0.50400001928E-02 0. -1.
    10030    2    1    2    0    0  0.00000000000E+00  0.00000000000E+00  0.12066455457E+04  0.23594291185E+04  0.20275384810E+04 0.  0.
        1    1    3    3  502    0  0.14287842728E+03 -0.76109407873E+03  0.13646737212E+04  0.15690802424E+04  0.50400001928E-02 0.  1.
       -1    1    3    3    0  502 -0.14287842728E+03  0.76109407873E+03 -0.15802817549E+03  0.79034887609E+03  0.50400001928E-02 0. -1.
</event>
<event>
 5   0  0.8755004E-05  0.2070947E+04  0.7818609E-02  0.8574151E-01
       -1   -1    0    0    0  501  0.00000000000E+00  0.00000000000E+00  0.69271437948E+03  0.69271437950E+03  0.50400001928E-02 0.  1.
        1   -1    0    0  501    0  0.00000000000E+00  0.00000000000E+00 -0.15478317400E+04  0.15478317400E+04  0.50400001928E-02 0. -1.
    10030    2    1    2    0    0  0.00000000000E+00  0.00000000000E+00 -0.85511736054E+03  0.22405461195E+04  0.20709469364E+04 0.  0.
        3    1    3    3  502    0 -0.40112779223E+03 -0.16816717651E+03 -0.14442066025E+04  0.15082826081E+04  0.10100000352E+00 0. -1.
       -3    1    3    3    0  502  0.40112779223E+03  0.16816717651E+03  0.58908924197E+03  0.73226351143E+03  0.10100000352E+00 0.  1.
</event>
<event>
 5   0  0.8271069E-05  0.2085959E+04  0.7818609E-02  0.8567454E-01
        1   -1    0    0  501    0  0.00000000000E+00  0.00000000000E+00  0.82297319771E+03  0.82297319773E+03  0.50400001928E-02 0.  1.
       -1   -1    0    0    0  501  0.00000000000E+00  0.00000000000E+00 -0.13218003252E+04  0.13218003252E+04  0.50400001928E-02 0. -1.
    10030    2    1    2    0    0  0.00000000000E+00  0.00000000000E+00 -0.49882712752E+03  0.21447735230E+04  0.20859590029E+04 0.  0.
        2    1    3    3  502    0 -0.19524800741E+03 -0.81966771844E+03  0.38259575324E+03  0.92539530118E+03  0.25500000920E-02 0.  1.
       -2    1    3    3    0  502  0.19524800741E+03  0.81966771844E+03 -0.88142288076E+03  0.12193782218E+04  0.25500000920E-02 0. -1.
</event>
<event>
 5   0  0.1777590E-04  0.2076354E+04  0.7818609E-02  0.8571732E-01
        2   -1    0    0  501    0  0.00000000000E+00  0.00000000000E+00  0.15020898217E+04  0.15020898217E+04  0.25500000920E-02 0.  1.
       -2   -1    0    0    0  501  0.00000000000E+00  0.00000000000E+00 -0.71754137036E+03  0.71754137037E+03  0.25500000920E-02 0. -1.
    10030    2    1    2    0    0  0.00000000000E+00  0.00000000000E+00  0.78454845132E+03  0.22196311920E+04  0.20763541018E+04 0.  0.
        4    1    3    3  502    0 -0.74650152838E+03  0.39880465503E+02 -0.37782067276E+03  0.83761868237E+03  0.12699999809E+01 0. -1.
       -4    1    3    3    0  502  0.74650152838E+03 -0.39880465503E+02  0.11623691241E+04  0.13820125097E+04  0.12699999809E+01 0.  1.
</event>
<event>
 5   0  0.8525278E-05  0.2143366E+04  0.7818609E-02  0.8542377E-01
       -1   -1    0    0    0  501  0.00000000000E+00  0.00000000000E+00  0.82463950567E+03  0.82463950568E+03  0.50400001928E-02 0.  1.
        1   -1    0    0  501    0  0.00000000000E+00  0.00000000000E+00 -0.13927350396E+04  0.13927350396E+04  0.50400001928E-02 0. -1.
    10030    2    1    2    0    0  0.00000000000E+00  0.00000000000E+00 -0.56809553395E+03  0.22173745453E+04  0.21433658900E+04 0.  0.
        4    1    3    3  502    0 -0.76464329557E+03  0.42382035861E+03 -0.92528868689E+03  0.12729744038E+04  0.12699999809E+01 0.  1.
       -4    1    3    3    0  502  0.76464329557E+03 -0.42382035861E+03  0.35719315294E+03  0.94440014148E+03  0.12699999809E+01 0. -1.
</event>
<event>
 5   0  0.8755004E-05  0.2123056E+04  0.7818609E-02  0.8551154E-01
        1   -1    0    0  501    0  0.00000000000E+00  0.00000000000E+00  0.13193820344E+04  0.13193820344E+04  0.50400001928E-02 0. -1.
       -1   -1    0    0    0  501  0.00000000000E+00  0.00000000000E+00 -0.85406779445E+03  0.85406779447E+03  0.50400001928E-02 0.  1.
    10030    2    1    2    0    0  0.00000000000E+00  0.00000000000E+00  0.46531423994E+03  0.21734498289E+04  0.21230560089E+04 0.  0.
        3    1    3    3  502    0 -0.23192721264E+03  0.64518624655E+03  0.10623171490E+04  0.12643469698E+04  0.10100000352E+00 0. -1.
       -3    1    3    3    0  502  0.23192721264E+03 -0.64518624655E+03 -0.59700290910E+03  0.90910285907E+03  0.10100000352E+00 0.  1.
</event>
<event>
 5   0  0.1810875E-04  0.2030088E+04  0.7818609E-02  0.8592681E-01
       -2   -1    0    0    0  501  0.00000000000E+00  0.00000000000E+00  0.58371622138E+03  0.58371622139E+03  0.25500000920E-02 0.  1.
        2   -1    0    0  501    0  0.00000000000E+00  0.00000000000E+00 -0.17650953261E+04  0.17650953261E+04  0.25500000920E-02 0. -1.
    10030    2    1    2    0    0  0.00000000000E+00  0.00000000000E+00 -0.11813791047E+04  0.23488115475E+04  0.20300884455E+04 0.  0.
        1    1    3    3  502    0 -0.85944926353E+03 -0.39966823656E+03 -0.10109321964E+04  0.13857747442E+04  0.50400001928E-02 0. -1.
       -1    1    3    3    0  502  0.85944926353E+03  0.39966823656E+03 -0.17044690832E+03  0.96303680329E+03  0.50400001928E-02 0.  1.
</event>
<event>
 5   0  0.1921687E-04  0.2087592E+04  0.7818609E-02  0.8566729E-01
       -2   -1    0    0    0  501  0.00000000000E+00  0.00000000000E+00  0.11722061577E+04  0.11722061577E+04  0.25500000920E-02 0. -1.
        2   -1    0    0  501    0  0.00000000000E+00  0.00000000000E+00 -0.92945290036E+03  0.92945290037E+03  0.25500000920E-02 0.  1.
    10030    2    1    2    0    0  0.00000000000E+00  0.00000000000E+00  0.24275325734E+03  0.21016590581E+04  0.20875923099E+04 0.  0.
        5    1    3    3  502    0 -0.10984944205E+02  0.10258064832E+04 -0.72505356358E+02  0.10284350863E+04  0.46999998093E+01 0. -1.
       -5    1    3    3    0  502  0.10984944205E+02 -0.10258064832E+04  0.31525861370E+03  0.10732239718E+04  0.46999998093E+01 0.  1.
</event>
<event>
 5   0  0.8525278E-05  0.2014572E+04  0.7818609E-02  0.8599838E-01
       -1   -1    0    0    0  501  0.00000000000E+00  0.00000000000E+00  0.79970567308E+03  0.79970567310E+03  0.50400001928E-02 0. -1.
        1   -1    0    0  501    0  0.00000000000E+00  0.00000000000E+00 -0.12687480436E+04  0.12687480437E+04  0.50400001928E-02 0.  1.
    10030    2    1    2    0    0  0.00000000000E+00  0.00000000000E+00 -0.46904237057E+03  0.20684537168E+04  0.20145719230E+04 0.  0.
        4    1    3    3  502    0 -0.51397546490E+03 -0.78619566440E+03  0.13900697872E+03  0.94952564698E+03  0.12699999809E+01 0. -1.
       -4    1    3    3    0  502  0.51397546490E+03  0.78619566440E+03 -0.60804934928E+03  0.11189280698E+04  0.12699999809E+01 0.  1.
</event>
<event>
 5   0  0.1777590E-04  0.2511352E+04  0.7818609E-02  0.8398953E-01
       -2   -1    0    0    0  501  0.00000000000E+00  0.00000000000E+00  0.62508895118E+03  0.62508895119E+03  0.25500000920E-02 0. -1.
        2   -1    0    0  501    0  0.00000000000E+00  0.00000000000E+00 -0.25223956591E+04  0.25223956591E+04  0.25500000920E-02 0.  1.
    10030    2    1    2    0    0  0.00000000000E+00  0.00000000000E+00 -0.18973067079E+04  0.31474846103E+04  0.25113515541E+04 0.  0.
        4    1    3    3  502    0 -0.49312179005E+03  0.95924314505E+02  0.49365262630E+03  0.70431889247E+03  0.12699999809E+01 0. -1.
       -4    1    3    3    0  502  0.49312179005E+03 -0.95924314505E+02 -0.23909593342E+04  0.24431657178E+04  0.12699999809E+01 0.  1.
</event>
<event>
 5   0  0.1886323E-04  0.2072652E+04  0.7818609E-02  0.8573387E-01
        2   -1    0    0  501    0  0.00000000000E+00  0.00000000000E+00  0.11149077649E+04  0.11149077649E+04  0.25500000920E-02 0. -1.
       -2   -1    0    0    0  501  0.00000000000E+00  0.00000000000E+00 -0.96328248879E+03  0.96328248879E+03  0.25500000920E-02 0.  1.
    10030    2    1    2    0    0  0.00000000000E+00  0.00000000000E+00  0.15162527610E+03  0.20781902537E+04  0.20726515641E+04 0.  0.
        2    1    3    3  502    0 -0.31256069574E+03  0.92736023290E+03 -0.26609704321E+03  0.10141493117E+04  0.25500000920E-02 0.  1.
       -2    1    3    3    0  502  0.31256069574E+03 -0.92736023290E+03  0.41772231931E+03  0.10640409419E+04  0.25500000920E-02 0. -1.
</event>
<event>
 5   0  0.8237966E-05  0.2072259E+04  0.7818609E-02  0.8573563E-01
        1   -1    0    0  501    0  0.00000000000E+00  0.00000000000E+00  0.16402288716E+04  0.16402288716E+04  0.50400001928E-02 0. -1.
       -1   -1    0    0    0  501  0.00000000000E+00  0.00000000000E+00 -0.65452085058E+03  0.65452085060E+03  0.50400001928E-02 0.  1.
    10030    2    1    2    0    0  0.00000000000E+00  0.00000000000E+00  0.98570802099E+03  0.22947497222E+04  0.20722586674E+04 0.  0.
        1    1    3    3  502    0  0.77601854578E+03 -0.99799118478E+02 -0.25933996329E+03  0.82427050416E+03  0.50400001928E-02 0.  1.
       -1    1    3    3    0  502 -0.77601854578E+03  0.99799118478E+02  0.12450479843E+04  0.14704792180E+04  0.50400001928E-02 0. -1.
</event>
<event>
 5   0  0.1886323E-04  0.2088752E+04  0.7818609E-02  0.8566214E-01
       -2   -1    0    0    0  501  0.00000000000E+00  0.00000000000E+00  0.68489839591E+03  0.68489839591E+03  0.25500000920E-02 0. -1.
        2   -1    0    0  501    0  0.00000000000E+00  0.00000000000E+00 -0.15925301514E+04  0.15925301514E+04  0.25500000920E-02 0.  1.
    10030    2    1    2    0    0  0.00000000000E+00  0.00000000000E+00 -0.90763175545E+03  0.22774285473E+04  0.20887521118E+04 0.  0.
        2    1    3    3  502    0  0.66515463377E+03  0.76455655188E+03 -0.17853420153E+03  0.10290052813E+04  0.25500000920E-02 0.  1.
       -2    1    3    3    0  502 -0.66515463377E+03 -0.76455655188E+03 -0.72909755392E+03  0.12484232660E+04  0.25500000920E-02 0. -1.
</event>
<event>
 5   0  0.8271069E-05  0.2147714E+04  0.7818609E-02  0.8540511E-01
        1   -1    0    0  501    0  0.00000000000E+00  0.00000000000E+00  0.87382924872E+03  0.87382924874E+03  0.50400001928E-02 0.  1.
       -1   -1    0    0    0  501  0.00000000000E+00  0.00000000000E+00 -0.13196732896E+04  0.13196732896E+04  0.50400001928E-02 0. -1.
    10030    2    1    2    0    0  0.00000000000E+00  0.00000000000E+00 -0.44584404092E+03  0.21935025384E+04  0.21477142447E+04 0.  0.
        2    1    3    3  502    0  0.78533368474E+03 -0.26493627680E+03  0.47444472735E+03  0.95500682012E+03  0.25500000920E-02 0.  1.
       -2    1    3    3    0  502 -0.78533368474E+03  0.26493627680E+03 -0.92028876827E+03  0.12384957183E+04  0.25500000920E-02 0. -1.
</event>
<event>
 5   0  0.8525278E-05  0.2115643E+04  0.7818609E-02  0.8554384E-01
       -1   -1    0    0    0  501  0.00000000000E+00  0.00000000000E+00  0.45505513930E+03  0.45505513933E+03  0.50400001928E-02 0.  1.
        1   -1    0    0  501    0  0.00000000000E+00  0.00000000000E+00 -0.24590127640E+04  0.24590127640E+04  0.50400001928E-02 0. -1.
    10030    2    1    2    0    0  0.00000000000E+00  0.00000000000E+00 -0.20039576247E+04  0.29140679034E+04  0.21156430662E+04 0.  0.
        4    1    3    3  502    0 -0.48633639943E+03 -0.18600437808E+03  0.26631648427E+03  0.58484767656E+03  0.12699999809E+01 0.  1.
       -4    1    3    3    0  502  0.48633639943E+03  0.18600437808E+03 -0.22702741090E+04  0.23292202268E+04  0.12699999809E+01 0. -1.
</event>
<event>
 5   0  0.1810875E-04  0.2062711E+04  0.7818609E-02  0.8577850E-01
        2   -1    0    0  501    0  0.00000000000E+00  0.00000000000E+00  0.19262735447E+04  0.19262735447E+04  0.25500000920E-02 0.  1.
       -2   -1    0    0    0  501  0.00000000000E+00  0.00000000000E+00 -0.55220288043E+03  0.55220288044E+03  0.25500000920E-02 0. -1.
    10030    2    1    2    0    0  0.00000000000E+00  0.00000000000E+00  0.13740706643E+04  0.24784764252E+04  0.20627106437E+04 0.  0.
        1    1    3    3  502    0  0.92487502056E+03  0.39287539362E+03  0.40794945148E+03  0.10845126249E+04  0.50400001928E-02 0. -1.
       -1    1    3    3    0  502 -0.92487502056E+03 -0.39287539362E+03  0.96612121282E+03  0.13939638003E+04  0.50400001928E-02 0.  1.
</event>
<event>
 5   0  0.1886323E-04  0.2346655E+04  0.7818609E-02  0.8459749E-01
        2   -1    0    0  501    0  0.00000000000E+00  0.00000000000E+00  0.16330479153E+04  0.16330479153E+04  0.25500000920E-02 0. -1.
       -2   -1    0    0    0  501  0.00000000000E+00  0.00000000000E+00 -0.84302351775E+03  0.84302351775E+03  0.25500000920E-02 0.  1.
    10030    2    1    2    0    0  0.00000000000E+00  0.00000000000E+00  0.79002439754E+03  0.24760714330E+04  0.23466553204E+04 0.  0.
        2    1    3    3  502    0 -0.24729403388E+03 -0.10082586508E+04 -0.18191221841E+03  0.10539601042E+04  0.25500000920E-02 0. -1.
       -2    1    3    3    0  502  0.24729403388E+03  0.10082586508E+04  0.97193661595E+03  0.14221113288E+04  0.25500000920E-02 0.  1.
</event>
<event>
 5   0  0.8237966E-05  0.2125880E+04  0.7818609E-02  0.8549928E-01
       -1   -1    0    0    0  501  0.00000000000E+00  0.00000000000E+00  0.78802957085E+03  0.78802957087E+03  0.50400001928E-02 0.  1.
        1   -1    0    0  501    0  0.00000000000E+00  0.00000000000E+00 -0.14337557644E+04  0.14337557644E+04  0.50400001928E-02 0. -1.
    10030    2    1    2    0    0  0.00000000000E+00  0.00000000000E+00 -0.64572619356E+03  0.22217853353E+04  0.21258804668E+04 0.  0.
        1    1    3    3  502    0  0.17641733767E+03  0.95637373469E+03  0.12552344516E+03  0.98057632683E+03  0.50400001928E-02 0.  1.
       -1    1    3    3    0  502 -0.17641733767E+03 -0.95637373469E+03 -0.77124963872E+03  0.12412090085E+04  0.50400001928E-02 0. -1.
</event>
<event>
 5   0  0.8271069E-05  0.2103315E+04  0.7818609E-02  0.8559784E-01
       -1   -1    0    0    0  501  0.00000000000E+00  0.00000000000E+00  0.76301074214E+03  0.76301074216E+03  0.50400001928E-02 0.  1.
        1   -1    0    0  501    0  0.00000000000E+00  0.00000000000E+00 -0.14494995741E+04  0.14494995741E+04  0.50400001928E-02 0. -1.
    10030    2    1    2    0    0  0.00000000000E+00  0.00000000000E+00 -0.68648883195E+03  0.22125103163E+04  0.21033152363E+04 0.  0.
        2    1    3    3  502    0  0.44258522793E+03 -0.55296442581E+03  0.47450243020E+03  0.85252794468E+03  0.25500000920E-02 0.  1.
       -2    1    3    3    0  502 -0.44258522793E+03  0.55296442581E+03 -0.11609912621E+04  0.13599823716E+04  0.25500000920E-02 0. -1.
</event>
<event>
 5   0  0.1810875E-04  0.2076760E+04  0.7818609E-02  0.8571550E-01
       -2   -1    0    0    0  501  0.00000000000E+00  0.00000000000E+00  0.85151959740E+03  0.85151959740E+03  0.25500000920E-02 0.  1.
        2   -1    0    0  501    0  0.00000000000E+00  0.00000000000E+00 -0.12662459938E+04  0.12662459938E+04  0.25500000920E-02 0. -1.
    10030    2    1    2    0    0  0.00000000000E+00  0.00000000000E+00 -0.41472639639E+03  0.21177655912E+04  0.20767602450E+04 0.  0.
        1    1    3    3  502    0  0.59311527643E+03 -0.85184450938E+03 -0.23635839352E+03  0.10645609844E+04  0.50400001928E-02 0.  1.
       -1    1    3    3    0  502 -0.59311527643E+03  0.85184450938E+03 -0.17836800287E+03  0.10532046068E+04  0.50400001928E-02 0. -1.
</event>
<event>
 5   0  0.8271069E-05  0.2107107E+04  0.7818609E-02  0.8558119E-01
       -1   -1    0    0    0  501  0.00000000000E+00  0.00000000000E+00  0.16195449290E+04  0.16195449290E+04  0.50400001928E-02 0. -1.
        1   -1    0    0  501    0  0.00000000000E+00  0.00000000000E+00 -0.68536223389E+03  0.68536223391E+03  0.50400001928E-02 0.  1.
    10030    2    1    2    0    0  0.00000000000E+00  0.00000000000E+00  0.93418269507E+03  0.23049071629E+04  0.21071069555E+04 0.  0.
        2    1    3    3  502    0 -0.37451008668E+02  0.80899150424E+03 -0.27004028051E+03  0.85369291029E+03  0.25500000920E-02 0.  1.
       -2    1    3    3    0  502  0.37451008668E+02 -0.80899150424E+03  0.12042229756E+04  0.14512142526E+04  0.25500000920E-02 0. -1.
</event>
<event>
 5   0  0.8755004E-05  0.2154181E+04  0.7818609E-02  0.8537745E-01
       -1   -1    0    0    0  501  0.00000000000E+00  0.00000000000E+00  0.84869872666E+03  0.84869872668E+03  0.50400001928E-02 0.  1.
        1   -1    0    0  501    0  0.00000000000E+00  0.00000000000E+00 -0.13669440234E+04  0.13669440234E+04  0.50400001928E-02 0. -1.
    10030    2    1    2    0    0  0.00000000000E+00  0.00000000000E+00 -0.51824529675E+03  0.22156427501E+04  0.21541807279E+04 0.  0.
        3    1    3    3  502    0  0.41661008636E+03 -0.70782504617E+03  0.45756780475E+03  0.94018538926E+03  0.10100000352E+00 0.  1.
       -3    1    3    3    0  502 -0.41661008636E+03  0.70782504617E+03 -0.97581310150E+03  0.12754573608E+04  0.10100000352E+00 0. -1.
</event>
<event>
 5   0  0.1777590E-04  0.2074887E+04  0.7818609E-02  0.8572387E-01
        2   -1    0    0  501    0  0.00000000000E+00  0.00000000000E+00  0.22746396007E+04  0.22746396007E+04  0.25500000920E-02 0. -1.
       -2   -1    0    0    0  501  0.00000000000E+00  0.00000000000E+00 -0.47316914204E+03  0.47316914205E+03  0.25500000920E-02 0.  1.
    10030    2    1    2    0    0  0.00000000000E+00  0.00000000000E+00  0.18014704586E+04  0.27478087427E+04  0.20748872435E+04 0.  0.
        4    1    3    3  502    0  0.41820226310E+03  0.57047981490E+03  0.19057752945E+04  0.20328112156E+04  0.12699999809E+01 0. -1.
       -4    1    3    3    0  502 -0.41820226310E+03 -0.57047981490E+03 -0.10430483593E+03  0.71499752711E+03  0.12699999809E+01 0.  1.
</event>
<event>
 5   0  0.1777590E-04  0.2111983E+04  0.7818609E-02  0.8555983E-01
        2   -1    0    0  501    0  0.00000000000E+00  0.00000000000E+00  0.17120249664E+04  0.17120249664E+04  0.25500000920E-02 0. -1.
       -2   -1    0    0    0  501  0.00000000000E+00  0.00000000000E+00 -0.65134422301E+03  0.65134422301E+03  0.25500000920E-02 0.  1.
    10030    2    1    2    0    0  0.00000000000E+00  0.00000000000E+00  0.10606807434E+04  0.23633691894E+04  0.21119825487E+04 0.  0.
        4    1    3    3  502    0  0.15127441588E+03 -0.95711156599E+03  0.10000252257E+04  0.13924792866E+04  0.12699999809E+01 0. -1.
       -4    1    3    3    0  502 -0.15127441588E+03  0.95711156599E+03  0.60655517686E+02  0.97088990281E+03  0.12699999809E+01 0.  1.
</event>
<event>
 5   0  0.1777590E-04  0.2058033E+04  0.7818609E-02  0.8579959E-01
        2   -1    0    0  501    0  0.00000000000E+00  0.00000000000E+00  0.97960276219E+03  0.97960276219E+03  0.25500000920E-02 0. -1.
       -2   -1    0    0    0  501  0.00000000000E+00  0.00000000000E+00 -0.10809226023E+04  0.10809226023E+04  0.25500000920E-02 0.  1.
    10030    2    1    2    0    0  0.00000000000E+00  0.00000000000E+00 -0.10131984015E+03  0.20605253645E+04  0.20580328151E+04 0.  0.
        4    1    3    3  502    0  0.24429642689E+03  0.40502882772E+03 -0.96562889391E+03  0.10752533976E+04  0.12699999809E+01 0.  1.
       -4    1    3    3    0  502 -0.24429642689E+03 -0.40502882772E+03  0.86430905375E+03  0.98527196691E+03  0.12699999809E+01 0. -1.
</event>
<event>
 5   0  0.1815400E-04  0.2125859E+04  0.7818609E-02  0.8549937E-01
       -2   -1    0    0    0  501  0.00000000000E+00  0.00000000000E+00  0.38180658429E+03  0.38180658429E+03  0.25500000920E-02 0.  1.
        2   -1    0    0  501    0  0.00000000000E+00  0.00000000000E+00 -0.29591388877E+04  0.29591388877E+04  0.25500000920E-02 0. -1.
    10030    2    1    2    0    0  0.00000000000E+00  0.00000000000E+00 -0.25773323034E+04  0.33409454720E+04  0.21258586135E+04 0.  0.
        3    1    3    3  502    0 -0.19066812471E+03 -0.44907950827E+03 -0.27727785299E+04  0.28153734254E+04  0.10100000352E+00 0. -1.
       -3    1    3    3    0  502  0.19066812471E+03  0.44907950827E+03  0.19544622645E+03  0.52557204660E+03  0.10100000352E+00 0.  1.
</event>
<event>
 5   0  0.8237966E-05  0.1970852E+04  0.7818609E-02  0.8620371E-01
       -1   -1    0    0    0  501  0.00000000000E+00  0.00000000000E+00  0.55637755638E+03  0.55637755641E+03  0.50400001928E-02 0. -1.
        1   -1    0    0  501    0  0.00000000000E+00  0.00000000000E+00 -0.17453339399E+04  0.17453339399E+04  0.50400001928E-02 0.  1.
    10030    2    1    2    0    0  0.00000000000E+00  0.00000000000E+00 -0.11889563835E+04  0.23017114963E+04  0.19708522345E+04 0.  0.
        1    1    3    3  502    0 -0.83148673882E+03  0.41211636618E+03 -0.20739365657E+03  0.95090600214E+03  0.50400001928E-02 0. -1.
       -1    1    3    3    0  502  0.83148673882E+03 -0.41211636618E+03 -0.98156272692E+03  0.13508054941E+04  0.50400001928E-02 0.  1.
</event>
<event>
 5   0  0.1886323E-04  0.2045590E+04  0.7818609E-02  0.8585597E-01
       -2   -1    0    0    0  501  0.00000000000E+00  0.00000000000E+00  0.56743482667E+03  0.56743482668E+03  0.25500000920E-02 0.  1.
        2   -1    0    0  501    0  0.00000000000E+00  0.00000000000E+00 -0.18435773903E+04  0.18435773903E+04  0.25500000920E-02 0. -1.
    10030    2    1    2    0    0  0.00000000000E+00  0.00000000000E+00 -0.12761425637E+04  0.24110122170E+04  0.20455903959E+04 0.  0.
        2    1    3    3  502    0 -0.88115248899E+03  0.10994964914E+03 -0.39871293487E+02  0.88888039367E+03  0.25500000920E-02 0.  1.
       -2    1    3    3    0  502  0.88115248899E+03 -0.10994964914E+03 -0.12362712702E+04  0.15221318234E+04  0.25500000920E-02 0. -1.
</event>
<event>
 5   0  0.1810875E-04  0.2091005E+04  0.7818609E-02  0.8565216E-01
        2   -1    0    0  501    0  0.00000000000E+00  0.00000000000E+00  0.11134382136E+04  0.11134382136E+04  0.25500000920E-02 0.  1.
       -2   -1    0    0    0  501  0.00000000000E+00  0.00000000000E+00 -0.98171172093E+03  0.98171172094E+03  0.25500000920E-02 0. -1.
    10030    2    1    2    0    0  0.00000000000E+00  0.00000000000E+00  0.13172649271E+03  0.20951499346E+04  0.20910048731E+04 0.  0.
        1    1    3    3  502    0  0.59317149198E+02 -0.79819752182E+03  0.73983140261E+03  0.10899487659E+04  0.50400001928E-02 0.  1.
       -1    1    3    3    0  502 -0.59317149198E+02  0.79819752182E+03 -0.60810490990E+03  0.10052011687E+04  0.50400001928E-02 0. -1.
</event>
<event>
 5   0  0.8271069E-05  0.2087535E+04  0.7818609E-02  0.8566754E-01
       -1   -1    0    0    0  501  0.00000000000E+00  0.00000000000E+00  0.88820865114E+03  0.88820865115E+03  0.50400001928E-02 0. -1.
        1   -1    0    0  501    0  0.00000000000E+00  0.00000000000E+00 -0.12265708130E+04  0.12265708131E+04  0.50400001928E-02 0.  1.
    10030    2    1    2    0    0  0.00000000000E+00  0.00000000000E+00 -0.33836216190E+03  0.21147794642E+04  0.20875352044E+04 0.  0.
        2    1    3    3  502    0  0.43004333616E+02 -0.27334111767E+03 -0.11887382320E+04  0.12205176457E+04  0.25500000920E-02 0.  1.
       -2    1    3    3    0  502 -0.43004333616E+02  0.27334111767E+03  0.85037607011E+03  0.89426181846E+03  0.25500000920E-02 0. -1.
</event>
<event>
 5   0  0.8271069E-05  0.1557174E+04  0.7818609E-02  0.8847298E-01
        1   -1    0    0  501    0  0.00000000000E+00  0.00000000000E+00  0.17873720682E+04  0.17873720682E+04  0.50400001928E-02 0.  1.
       -1   -1    0    0    0  501  0.00000000000E+00  0.00000000000E+00 -0.33915593514E+03  0.33915593518E+03  0.50400001928E-02 0. -1.
    10030    2    1    2    0    0  0.00000000000E+00  0.00000000000E+00  0.14482161330E+04  0.21265280033E+04  0.15571741653E+04 0.  0.
        2    1    3    3  502    0 -0.53409954526E+03 -0.28044615738E+03  0.13963066682E+04  0.15210472324E+04  0.25500000920E-02 0.  1.
       -2    1    3    3    0  502  0.53409954526E+03  0.28044615738E+03  0.51909464777E+02  0.60548077094E+03  0.25500000920E-02 0. -1.
</event>
<event>
 5   0  0.1810875E-04  0.2428540E+04  0.7818609E-02  0.8428895E-01
        2   -1    0    0  501    0  0.00000000000E+00  0.00000000000E+00  0.10055594388E+04  0.10055594388E+04  0.25500000920E-02 0. -1.
       -2   -1    0    0    0  501  0.00000000000E+00  0.00000000000E+00 -0.14662999850E+04  0.14662999850E+04  0.25500000920E-02 0.  1.
    10030    2    1    2    0    0  0.00000000000E+00  0.00000000000E+00 -0.46074054619E+03  0.24718594238E+04  0.24285401294E+04 0.  0.
        1    1    3    3  502    0 -0.98888528236E+02  0.12048118904E+04 -0.11386828891E+03  0.12142144043E+04  0.50400001928E-02 0. -1.
       -1    1    3    3    0  502  0.98888528236E+02 -0.12048118904E+04 -0.34687225729E+03  0.12576450195E+04  0.50400001928E-02 0.  1.
</event>
<event>
 5   0  0.1777590E-04  0.2094735E+04  0.7818609E-02  0.8563566E-01
        2   -1    0    0  501    0  0.00000000000E+00  0.00000000000E+00  0.23174185051E+04  0.23174185051E+04  0.25500000920E-02 0.  1.
       -2   -1    0    0    0  501  0.00000000000E+00  0.00000000000E+00 -0.47336244185E+03  0.47336244185E+03  0.25500000920E-02 0. -1.
    10030    2    1    2    0    0  0.00000000000E+00  0.00000000000E+00  0.18440560632E+04  0.27907809470E+04  0.20947351932E+04 0.  0.
        4    1    3    3  502    0 -0.11312993490E+03 -0.75864849804E+03 -0.28135110870E+02  0.76755398709E+03  0.12699999809E+01 0. -1.
       -4    1    3    3    0  502  0.11312993490E+03  0.75864849804E+03  0.18721911741E+04  0.20232269599E+04  0.12699999809E+01 0.  1.
</event>
<event>
 5   0  0.1777590E-04  0.2063995E+04  0.7818609E-02  0.8577272E-01
        2   -1    0    0  501    0  0.00000000000E+00  0.00000000000E+00  0.18036150852E+04  0.18036150852E+04  0.25500000920E-02 0. -1.
       -2   -1    0    0    0  501  0.00000000000E+00  0.00000000000E+00 -0.59049119603E+03  0.59049119603E+03  0.25500000920E-02 0.  1.
    10030    2    1    2    0    0  0.00000000000E+00  0.00000000000E+00  0.12131238891E+04  0.23941062812E+04  0.20639949892E+04 0.  0.
        4    1    3    3  502    0  0.75127085902E+02 -0.10026793641E+04  0.33699866108E+03  0.10604620204E+04  0.12699999809E+01 0.  1.
       -4    1    3    3    0  502 -0.75127085902E+02  0.10026793641E+04  0.87612522806E+03  0.13336442608E+04  0.12699999809E+01 0. -1.
</event>
<event>
 5   0  0.8755004E-05  0.2111316E+04  0.7818609E-02  0.8556275E-01
       -1   -1    0    0    0  501  0.00000000000E+00  0.00000000000E+00  0.20008743402E+04  0.20008743402E+04  0.50400001928E-02 0.  1.
        1   -1    0    0  501    0  0.00000000000E+00  0.00000000000E+00 -0.55696351588E+03  0.55696351591E+03  0.50400001928E-02 0. -1.
    10030    2    1    2    0    0  0.00000000000E+00  0.00000000000E+00  0.14439108243E+04  0.25578378561E+04  0.21113161842E+04 0.  0.
        3    1    3    3  502    0 -0.14398193284E+03  0.10436140109E+04  0.80370176655E+03  0.13250651080E+04  0.10100000352E+00 0. -1.
       -3    1    3    3    0  502  0.14398193284E+03 -0.10436140109E+04  0.64020905777E+03  0.12327727481E+04  0.10100000352E+00 0.  1.
</event>
<event>
 5   0  0.8486612E-05  0.1933992E+04  0.7818609E-02  0.8638119E-01
       -1   -1    0    0    0  501  0.00000000000E+00  0.00000000000E+00  0.13706241932E+04  0.13706241932E+04  0.50400001928E-02 0.  1.
        1   -1    0    0  501    0  0.00000000000E+00  0.00000000000E+00 -0.68222988634E+03  0.68222988636E+03  0.50400001928E-02 0. -1.
    10030    2    1    2    0    0  0.00000000000E+00  0.00000000000E+00  0.68839430688E+03  0.20528540796E+04  0.19339915073E+04 0.  0.
        5    1    3    3  502    0  0.35894062906E+02 -0.76459568300E+02 -0.67829451818E+03  0.68354955397E+03  0.46999998093E+01 0. -1.
       -5    1    3    3    0  502 -0.35894062906E+02  0.76459568300E+02  0.13666888251E+04  0.13693045256E+04  0.46999998093E+01 0.  1.
</event>
<event>
 5   0  0.1886323E-04  0.2188719E+04  0.7818609E-02  0.8523138E-01
        2   -1    0    0  501    0  0.00000000000E+00  0.00000000000E+00  0.97179937005E+03  0.97179937006E+03  0.25500000920E-02 0. -1.
       -2   -1    0    0    0  501  0.00000000000E+00  0.00000000000E+00 -0.12323765906E+04  0.12323765906E+04  0.25500000920E-02 0.  1.
    10030    2    1    2    0    0  0.00000000000E+00  0.00000000000E+00 -0.26057722053E+03  0.22041759606E+04  0.21887190723E+04 0.  0.
        2    1    3    3  502    0 -0.10637094005E+03  0.89191803449E+03 -0.75983551358E+03  0.11765128834E+04  0.25500000920E-02 0.  1.
       -2    1    3    3    0  502  0.10637094005E+03 -0.89191803449E+03  0.49925829305E+03  0.10276630772E+04  0.25500000920E-02 0. -1.
</event>
<event>
 5   0  0.8271069E-05  0.1877486E+04  0.7818609E-02  0.8666145E-01
        1   -1    0    0  501    0  0.00000000000E+00  0.00000000000E+00  0.54141019921E+03  0.54141019923E+03  0.50400001928E-02 0. -1.
       -1   -1    0    0    0  501  0.00000000000E+00  0.00000000000E+00 -0.16276715084E+04  0.16276715084E+04  0.50400001928E-02 0.  1.
    10030    2    1    2    0    0  0.00000000000E+00  0.00000000000E+00 -0.10862613092E+04  0.21690817077E+04  0.18774855053E+04 0.  0.
        2    1    3    3  502    0 -0.52592562141E+03 -0.77482583200E+03 -0.46750291143E+03  0.10466669964E+04  0.25500000920E-02 0. -1.
       -2    1    3    3    0  502  0.52592562141E+03  0.77482583200E+03 -0.61875839778E+03  0.11224147112E+04  0.25500000920E-02 0.  1.
</event>
<event>
 5   0  0.8271069E-05  0.2017869E+04  0.7818609E-02  0.8598312E-01
        1   -1    0    0  501    0  0.00000000000E+00  0.00000000000E+00  0.12129875452E+04  0.12129875452E+04  0.50400001928E-02 0.  1.
       -1   -1    0    0    0  501  0.00000000000E+00  0.00000000000E+00 -0.83920810114E+03  0.83920810116E+03  0.50400001928E-02 0. -1.
    10030    2    1    2    0    0  0.00000000000E+00  0.00000000000E+00  0.37377944406E+03  0.20521956464E+04  0.20178691479E+04 0.  0.
        2    1    3    3  502    0  0.26404317627E+03 -0.63451445391E+03 -0.56433787274E+03  0.88927196390E+03  0.25500000920E-02 0. -1.
       -2    1    3    3    0  502 -0.26404317627E+03  0.63451445391E+03  0.93811731680E+03  0.11629236825E+04  0.25500000920E-02 0.  1.
</event>
<event>
 5   0  0.8237966E-05  0.2025723E+04  0.7818609E-02  0.8594688E-01
       -1   -1    0    0    0  501  0.00000000000E+00  0.00000000000E+00  0.58442431142E+03  0.58442431144E+03  0.50400001928E-02 0.  1.
        1   -1    0    0  501    0  0.00000000000E+00  0.00000000000E+00 -0.17553833331E+04  0.17553833331E+04  0.50400001928E-02 0. -1.
    10030    2    1    2    0    0  0.00000000000E+00  0.00000000000E+00 -0.11709590217E+04  0.23398076446E+04  0.20257232740E+04 0.  0.
        1    1    3    3  502    0 -0.97700147788E+03 -0.78964675433E+02 -0.29072404862E+03  0.10223931632E+04  0.50400001928E-02 0.  1.
       -1    1    3    3    0  502  0.97700147788E+03  0.78964675433E+02 -0.88023497308E+03  0.13174144813E+04  0.50400001928E-02 0. -1.
</event>
<event>
 5   0  0.1886323E-04  0.2052808E+04  0.7818609E-02  0.8582322E-01
       -2   -1    0    0    0  501  0.00000000000E+00  0.00000000000E+00  0.65800801424E+03  0.65800801424E+03  0.25500000920E-02 0.  1.
        2   -1    0    0  501    0  0.00000000000E+00  0.00000000000E+00 -0.16010518274E+04  0.16010518274E+04  0.25500000920E-02 0. -1.
    10030    2    1    2    0    0  0.00000000000E+00  0.00000000000E+00 -0.94304381312E+03  0.22590598416E+04  0.20528077685E+04 0.  0.
        2    1    3    3  502    0  0.47175397976E+03  0.21695973623E+03  0.50280497530E+03  0.72279747354E+03  0.25500000920E-02 0.  1.
       -2    1    3    3    0  502 -0.47175397976E+03 -0.21695973623E+03 -0.14458487884E+04  0.15362623681E+04  0.25500000920E-02 0. -1.
</event>
<event>
 5   0  0.1777590E-04  0.1857145E+04  0.7818609E-02  0.8676487E-01
       -2   -1    0    0    0  501  0.00000000000E+00  0.00000000000E+00  0.98343495454E+03  0.98343495455E+03  0.25500000920E-02 0.  1.
        2   -1    0    0  501    0  0.00000000000E+00  0.00000000000E+00 -0.87677088263E+03  0.87677088263E+03  0.25500000920E-02 0. -1.
    10030    2    1    2    0    0  0.00000000000E+00  0.00000000000E+00  0.10666407191E+03  0.18602058372E+04  0.18571452642E+04 0.  0.
        4    1    3    3  502    0  0.37618721885E+03 -0.58203622218E+03 -0.56571765311E+03  0.89460665294E+03  0.12699999809E+01 0. -1.
       -4    1    3    3    0  502 -0.37618721885E+03  0.58203622218E+03  0.67238172502E+03  0.96559918424E+03  0.12699999809E+01 0.  1.
</event>
<event>
 5   0  0.8237966E-05  0.2069146E+04  0.7818609E-02  0.8574958E-01
        1   -1    0    0  501    0  0.00000000000E+00  0.00000000000E+00  0.52114364059E+03  0.52114364061E+03  0.50400001928E-02 0. -1.
       -1   -1    0    0    0  501  0.00000000000E+00  0.00000000000E+00 -0.20538323125E+04  0.20538323125E+04  0.50400001928E-02 0.  1.
    10030    2    1    2    0    0  0.00000000000E+00  0.00000000000E+00 -0.15326886719E+04  0.25749759531E+04  0.20691463443E+04 0.  0.
        1    1    3    3  502    0 -0.18341588517E+02 -0.55022649656E+03 -0.18564086615E+04  0.19363209264E+04  0.50400001928E-02 0.  1.
       -1    1    3    3    0  502  0.18341588517E+02  0.55022649656E+03  0.32371998964E+03  0.63865502669E+03  0.50400001928E-02 0. -1.
</event>
<event>
 5   0  0.1810875E-04  0.2058415E+04  0.7818609E-02  0.8579786E-01
        2   -1    0    0  501    0  0.00000000000E+00  0.00000000000E+00  0.13158215966E+04  0.13158215966E+04  0.25500000920E-02 0. -1.
       -2   -1    0    0    0  501  0.00000000000E+00  0.00000000000E+00 -0.80502430695E+03  0.80502430696E+03  0.25500000920E-02 0.  1.
    10030    2    1    2    0    0  0.00000000000E+00  0.00000000000E+00  0.51079728963E+03  0.21208459035E+04  0.20584152826E+04 0.  0.
        1    1    3    3  502    0  0.50280976828E+03 -0.85959477126E+03 -0.12383039894E+02  0.99592879944E+03  0.50400001928E-02 0.  1.
       -1    1    3    3    0  502 -0.50280976828E+03  0.85959477126E+03  0.52318032952E+03  0.11249171041E+04  0.50400001928E-02 0. -1.
</event>
<event>
 5   0  0.8271069E-05  0.1408707E+04  0.7818609E-02  0.8947540E-01
       -1   -1    0    0    0  501  0.00000000000E+00  0.00000000000E+00  0.13331209648E+04  0.13331209648E+04  0.50400001928E-02 0. -1.
        1   -1    0    0  501    0  0.00000000000E+00  0.00000000000E+00 -0.37214451043E+03  0.37214451047E+03  0.50400001928E-02 0.  1.
    10030    2    1    2    0    0  0.00000000000E+00  0.00000000000E+00  0.96097645433E+03  0.17052654752E+04  0.14087067102E+04 0.  0.
        2    1    3    3  502    0  0.63971280532E+03  0.27237480586E+03  0.34410657030E+03  0.77577692663E+03  0.25500000920E-02 0.  1.
       -2    1    3    3    0  502 -0.63971280532E+03 -0.27237480586E+03  0.61686988403E+03  0.92948854861E+03  0.25500000920E-02 0. -1.
</event>
<event>
 5   0  0.8237966E-05  0.2081773E+04  0.7818609E-02  0.8569315E-01
        1   -1    0    0  501    0  0.00000000000E+00  0.00000000000E+00  0.10140411060E+04  0.10140411061E+04  0.50400001928E-02 0. -1.
       -1   -1    0    0    0  501  0.00000000000E+00  0.00000000000E+00 -0.10684423962E+04  0.10684423962E+04  0.50400001928E-02 0.  1.
    10030    2    1    2    0    0  0.00000000000E+00  0.00000000000E+00 -0.54401290131E+02  0.20824835023E+04  0.20817728110E+04 0.  0.
        1    1    3    3  502    0  0.20813921956E+03 -0.44044367247E+03  0.89296768855E+03  0.10172039403E+04  0.50400001928E-02 0. -1.
       -1    1    3    3    0  502 -0.20813921956E+03  0.44044367247E+03 -0.94736897868E+03  0.10652795620E+04  0.50400001928E-02 0.  1.
</event>
<event>
 5   0  0.8755004E-05  0.2075450E+04  0.7818609E-02  0.8572136E-01
       -1   -1    0    0    0  501  0.00000000000E+00  0.00000000000E+00  0.95620416543E+03  0.95620416544E+03  0.50400001928E-02 0. -1.
        1   -1    0    0  501    0  0.00000000000E+00  0.00000000000E+00 -0.11261953502E+04  0.11261953503E+04  0.50400001928E-02 0.  1.
    10030    2    1    2    0    0  0.00000000000E+00  0.00000000000E+00 -0.16999118482E+03  0.20823995157E+04  0.20754495272E+04 0.  0.
        3    1    3    3  502    0 -0.22501851635E+03  0.11736836316E+03  0.92458658432E+03  0.95878518317E+03  0.10100000352E+00 0. -1.
       -3    1    3    3    0  502  0.22501851635E+03 -0.11736836316E+03 -0.10945777691E+04  0.11236143325E+04  0.10100000352E+00 0.  1.
</event>
<event>
 5   0  0.8237966E-05  0.2071556E+04  0.7818609E-02  0.8573878E-01
        1   -1    0    0  501    0  0.00000000000E+00  0.00000000000E+00  0.71566233487E+03  0.71566233489E+03  0.50400001928E-02 0. -1.
       -1   -1    0    0    0  501  0.00000000000E+00  0.00000000000E+00 -0.14990818110E+04  0.14990818110E+04  0.50400001928E-02 0.  1.
    10030    2    1    2    0    0  0.00000000000E+00  0.00000000000E+00 -0.78341947610E+03  0.22147441459E+04  0.20715563126E+04 0.  0.
        1    1    3    3  502    0  0.38309428449E+02  0.93583403477E+02  0.71037238286E+03  0.71753354491E+03  0.50400001928E-02 0. -1.
       -1    1    3    3    0  502 -0.38309428449E+02 -0.93583403477E+02 -0.14937918590E+04  0.14972106010E+04  0.50400001928E-02 0.  1.
</event>
<event>
 5   0  0.8237966E-05  0.2199326E+04  0.7818609E-02  0.8518709E-01
        1   -1    0    0  501    0  0.00000000000E+00  0.00000000000E+00  0.12882066707E+04  0.12882066708E+04  0.50400001928E-02 0.  1.
       -1   -1    0    0    0  501  0.00000000000E+00  0.00000000000E+00 -0.93871509396E+03  0.93871509397E+03  0.50400001928E-02 0. -1.
    10030    2    1    2    0    0  0.00000000000E+00  0.00000000000E+00  0.34949157679E+03  0.22269217647E+04  0.21993263023E+04 0.  0.
        1    1    3    3  502    0 -0.86280182407E+03 -0.62609481035E+03 -0.98524459370E+02  0.10705740368E+04  0.50400001928E-02 0. -1.
       -1    1    3    3    0  502  0.86280182407E+03  0.62609481035E+03  0.44801603616E+03  0.11563477279E+04  0.50400001928E-02 0.  1.
</event>
<event>
 5   0  0.8271069E-05  0.1654933E+04  0.7818609E-02  0.8787494E-01
       -1   -1    0    0    0  501  0.00000000000E+00  0.00000000000E+00  0.50216130649E+03  0.50216130651E+03  0.50400001928E-02 0. -1.
        1   -1    0    0  501    0  0.00000000000E+00  0.00000000000E+00 -0.13635072248E+04  0.13635072249E+04  0.50400001928E-02 0.  1.
    10030    2    1    2    0    0  0.00000000000E+00  0.00000000000E+00 -0.86134591836E+03  0.18656685314E+04  0.16549327110E+04 0.  0.
        2    1    3    3  502    0 -0.33952392373E+03 -0.26164836531E+03  0.36724363112E+03  0.56445039326E+03  0.25500000920E-02 0. -1.
       -2    1    3    3    0  502  0.33952392373E+03  0.26164836531E+03 -0.12285895495E+04  0.13012181381E+04  0.25500000920E-02 0.  1.
</event>
<event>
 5   0  0.8237966E-05  0.2097116E+04  0.7818609E-02  0.8562515E-01
       -1   -1    0    0    0  501  0.00000000000E+00  0.00000000000E+00  0.82216039435E+03  0.82216039436E+03  0.50400001928E-02 0.  1.
        1   -1    0    0  501    0  0.00000000000E+00  0.00000000000E+00 -0.13372984297E+04  0.13372984297E+04  0.50400001928E-02 0. -1.
    10030    2    1    2    0    0  0.00000000000E+00  0.00000000000E+00 -0.51513803533E+03  0.21594588241E+04  0.20971159284E+04 0.  0.
        1    1    3    3  502    0 -0.19246513511E+03  0.85044606451E+03 -0.85726727108E+03  0.12227871896E+04  0.50400001928E-02 0. -1.
       -1    1    3    3    0  502  0.19246513511E+03 -0.85044606451E+03  0.34212923575E+03  0.93667163449E+03  0.50400001928E-02 0.  1.
</event>
<event>
 5   0  0.1886323E-04  0.2091616E+04  0.7818609E-02  0.8564946E-01
        2   -1    0    0  501    0  0.00000000000E+00  0.00000000000E+00  0.14184871653E+04  0.14184871654E+04  0.25500000920E-02 0.  1.
       -2   -1    0    0    0  501  0.00000000000E+00  0.00000000000E+00 -0.77104290906E+03  0.77104290907E+03  0.25500000920E-02 0. -1.
    10030    2    1    2    0    0  0.00000000000E+00  0.00000000000E+00  0.64744425629E+03  0.21895300744E+04  0.20916160933E+04 0.  0.
        2    1    3    3  502    0 -0.64638619636E+03 -0.79267063716E+03  0.55204397022E+03  0.11622798282E+04  0.25500000920E-02 0. -1.
       -2    1    3    3    0  502  0.64638619636E+03  0.79267063716E+03  0.95400286065E+02  0.10272502463E+04  0.25500000920E-02 0.  1.
</event>
<event>
 5   0  0.8271069E-05  0.2046804E+04  0.7818609E-02  0.8585046E-01
        1   -1    0    0  501    0  0.00000000000E+00  0.00000000000E+00  0.14464695828E+04  0.14464695828E+04  0.50400001928E-02 0. -1.
       -1   -1    0    0    0  501  0.00000000000E+00  0.00000000000E+00 -0.72407442014E+03  0.72407442016E+03  0.50400001928E-02 0.  1.
    10030    2    1    2    0    0  0.00000000000E+00  0.00000000000E+00  0.72239516267E+03  0.21705440030E+04  0.20468039715E+04 0.  0.
        2    1    3    3  502    0 -0.69818838709E+03 -0.40482387709E+03  0.10285283647E+04  0.13073714057E+04  0.25500000920E-02 0. -1.
       -2    1    3    3    0  502  0.69818838709E+03  0.40482387709E+03 -0.30613320205E+03  0.86317259730E+03  0.25500000920E-02 0.  1.
</event>
<event>
 5   0  0.8486612E-05  0.2090413E+04  0.7818609E-02  0.8565478E-01
       -1   -1    0    0    0  501  0.00000000000E+00  0.00000000000E+00  0.67060161719E+03  0.67060161721E+03  0.50400001928E-02 0.  1.
        1   -1    0    0  501    0  0.00000000000E+00  0.00000000000E+00 -0.16290694278E+04  0.16290694278E+04  0.50400001928E-02 0. -1.
    10030    2    1    2    0    0  0.00000000000E+00  0.00000000000E+00 -0.95846781064E+03  0.22996710451E+04  0.20904129667E+04 0.  0.
        5    1    3    3  502    0  0.76462441100E+03  0.68903323780E+03 -0.27933803894E+03  0.10665219748E+04  0.46999998093E+01 0. -1.
       -5    1    3    3    0  502 -0.76462441100E+03 -0.68903323780E+03 -0.67912977170E+03  0.12331490703E+04  0.46999998093E+01 0.  1.
</event>
<event>
 5   0  0.1810875E-04  0.2109990E+04  0.7818609E-02  0.8556855E-01
        2   -1    0    0  501    0  0.00000000000E+00  0.00000000000E+00  0.12450323040E+04  0.12450323040E+04  0.25500000920E-02 0.  1.
       -2   -1    0    0    0  501  0.00000000000E+00  0.00000000000E+00 -0.89396446716E+03  0.89396446716E+03  0.25500000920E-02 0. -1.
    10030    2    1    2    0    0  0.00000000000E+00  0.00000000000E+00  0.35106783687E+03  0.21389967712E+04  0.21099901803E+04 0.  0.
        1    1    3    3  502    0  0.10743766798E+03  0.66406019502E+03 -0.64834756042E+03  0.93427691518E+03  0.50400001928E-02 0. -1.
       -1    1    3    3    0  502 -0.10743766798E+03 -0.66406019502E+03  0.99941539728E+03  0.12047198560E+04  0.50400001928E-02 0.  1.
</event>
<event>
 5   0  0.1810875E-04  0.2176436E+04  0.7818609E-02  0.8528300E-01
        2   -1    0    0  501    0  0.00000000000E+00  0.00000000000E+00  0.96445928472E+03  0.96445928472E+03  0.25500000920E-02 0. -1.
       -2   -1    0    0    0  501  0.00000000000E+00  0.00000000000E+00 -0.12278576928E+04  0.12278576928E+04  0.25500000920E-02 0.  1.
    10030    2    1    2    0    0  0.00000000000E+00  0.00000000000E+00 -0.26339840809E+03  0.21923169775E+04  0.21764363093E+04 0.  0.
        1    1    3    3  502    0  0.62641209903E+02 -0.10860871178E+04 -0.10486645034E+03  0.10929346372E+04  0.50400001928E-02 0.  1.
       -1    1    3    3    0  502 -0.62641209903E+02  0.10860871178E+04 -0.15853195775E+03  0.10993823404E+04  0.50400001928E-02 0. -1.
</event>
<event>
 5   0  0.1886323E-04  0.2098562E+04  0.7818609E-02  0.8561877E-01
        2   -1    0    0  501    0  0.00000000000E+00  0.00000000000E+00  0.71015320489E+03  0.71015320490E+03  0.25500000920E-02 0. -1.
       -2   -1    0    0    0  501  0.00000000000E+00  0.00000000000E+00 -0.15503567101E+04  0.15503567101E+04  0.25500000920E-02 0.  1.
    10030    2    1    2    0    0  0.00000000000E+00  0.00000000000E+00 -0.84020350517E+03  0.22605099150E+04  0.20985621615E+04 0.  0.
        2    1    3    3  502    0  0.12761559828E+03  0.84143274093E+03 -0.10812214179E+04  0.13759849392E+04  0.25500000920E-02 0.  1.
       -2    1    3    3    0  502 -0.12761559828E+03 -0.84143274093E+03  0.24101791273E+03  0.88452497574E+03  0.25500000920E-02 0. -1.
</event>
<event>
 5   0  0.1921687E-04  0.2092929E+04  0.7818609E-02  0.8564365E-01
        2   -1    0    0  501    0  0.00000000000E+00  0.00000000000E+00  0.66836658687E+03  0.66836658687E+03  0.25500000920E-02 0.  1.
       -2   -1    0    0    0  501  0.00000000000E+00  0.00000000000E+00 -0.16384539326E+04  0.16384539326E+04  0.25500000920E-02 0. -1.
    10030    2    1    2    0    0  0.00000000000E+00  0.00000000000E+00 -0.97008734569E+03  0.23068205194E+04  0.20929289168E+04 0.  0.
        5    1    3    3  502    0 -0.74793164492E+03 -0.21811624295E+03  0.28498870249E+03  0.82958850731E+03  0.46999998093E+01 0.  1.
       -5    1    3    3    0  502  0.74793164492E+03  0.21811624295E+03 -0.12550760482E+04  0.14772320121E+04  0.46999998093E+01 0. -1.
</event>
<event>
 5   0  0.8525278E-05  0.1943405E+04  0.7818609E-02  0.8633548E-01
       -1   -1    0    0    0  501  0.00000000000E+00  0.00000000000E+00  0.12188680094E+04  0.12188680094E+04  0.50400001928E-02 0.  1.
        1   -1    0    0  501    0  0.00000000000E+00  0.00000000000E+00 -0.77465763907E+03  0.77465763908E+03  0.50400001928E-02 0. -1.
    10030    2    1    2    0    0  0.00000000000E+00  0.00000000000E+00  0.44421037034E+03  0.19935256485E+04  0.19434046563E+04 0.  0.
        4    1    3    3  502    0  0.20088270750E+02 -0.65880506196E+03 -0.51029483337E+03  0.83356468144E+03  0.12699999809E+01 0. -1.
       -4    1    3    3    0  502 -0.20088270750E+02  0.65880506196E+03  0.95450520371E+03  0.11599609671E+04  0.12699999809E+01 0.  1.
</event>
<event>
 5   0  0.1810875E-04  0.2089504E+04  0.7818609E-02  0.8565881E-01
       -2   -1    0    0    0  501  0.00000000000E+00  0.00000000000E+00  0.10145736470E+04  0.10145736470E+04  0.25500000920E-02 0. -1.
        2   -1    0    0  501    0  0.00000000000E+00  0.00000000000E+00 -0.10758275291E+04  0.10758275291E+04  0.25500000920E-02 0.  1.
    10030    2    1    2    0    0  0.00000000000E+00  0.00000000000E+00 -0.61253882049E+02  0.20904011761E+04  0.20895035389E+04 0.  0.
        1    1    3    3  502    0  0.30863908731E+03 -0.73044869269E+02 -0.10265005187E+04  0.10743821267E+04  0.50400001928E-02 0.  1.
       -1    1    3    3    0  502 -0.30863908731E+03  0.73044869269E+02  0.96524663669E+03  0.10160190494E+04  0.50400001928E-02 0. -1.
</event>
<event>
 5   0  0.8237966E-05  0.2046277E+04  0.7818609E-02  0.8585285E-01
        1   -1    0    0  501    0  0.00000000000E+00  0.00000000000E+00  0.11555554786E+04  0.11555554787E+04  0.50400001928E-02 0.  1.
       -1   -1    0    0    0  501  0.00000000000E+00  0.00000000000E+00 -0.90589514897E+03  0.90589514898E+03  0.50400001928E-02 0. -1.
    10030    2    1    2    0    0  0.00000000000E+00  0.00000000000E+00  0.24966032968E+03  0.20614506276E+04  0.20462767188E+04 0.  0.
        1    1    3    3  502    0  0.90961724876E+03 -0.41787915529E+03 -0.88365147251E+02  0.10049054318E+04  0.50400001928E-02 0. -1.
       -1    1    3    3    0  502 -0.90961724876E+03  0.41787915529E+03  0.33802547693E+03  0.10565451958E+04  0.50400001928E-02 0.  1.
</event>
<event>
 5   0  0.8271069E-05  0.2141175E+04  0.7818609E-02  0.8543319E-01
        1   -1    0    0  501    0  0.00000000000E+00  0.00000000000E+00  0.14337467035E+04  0.14337467035E+04  0.50400001928E-02 0. -1.
       -1   -1    0    0    0  501  0.00000000000E+00  0.00000000000E+00 -0.79941444209E+03  0.79941444211E+03  0.50400001928E-02 0.  1.
    10030    2    1    2    0    0  0.00000000000E+00  0.00000000000E+00  0.63433226140E+03  0.22331611456E+04  0.21411752110E+04 0.  0.
        2    1    3    3  502    0 -0.39756519282E+02 -0.71538336637E+03  0.11468304683E+04  0.13522477823E+04  0.25500000920E-02 0. -1.
       -2    1    3    3    0  502  0.39756519282E+02  0.71538336637E+03 -0.51249820685E+03  0.88091336335E+03  0.25500000920E-02 0.  1.
</event>
<event>
 5   0  0.8237966E-05  0.2085496E+04  0.7818609E-02  0.8567660E-01
       -1   -1    0    0    0  501  0.00000000000E+00  0.00000000000E+00  0.87603099017E+03  0.87603099018E+03  0.50400001928E-02 0.  1.
        1   -1    0    0  501    0  0.00000000000E+00  0.00000000000E+00 -0.12411923292E+04  0.12411923292E+04  0.50400001928E-02 0. -1.
    10030    2    1    2    0    0  0.00000000000E+00  0.00000000000E+00 -0.36516133904E+03  0.21172233194E+04  0.20854955720E+04 0.  0.
        1    1    3    3  502    0 -0.75880691945E+03  0.64362923240E+03 -0.49921731498E+03  0.11132225552E+04  0.50400001928E-02 0.  1.
       -1    1    3    3    0  502  0.75880691945E+03 -0.64362923240E+03  0.13405597594E+03  0.10040007642E+04  0.50400001928E-02 0. -1.
</event>
<event>
 5   0  0.8486612E-05  0.2096084E+04  0.7818609E-02  0.8562970E-01
       -1   -1    0    0    0  501  0.00000000000E+00  0.00000000000E+00  0.40583182693E+03  0.40583182696E+03  0.50400001928E-02 0.  1.
        1   -1    0    0  501    0  0.00000000000E+00  0.00000000000E+00 -0.27065206780E+04  0.27065206781E+04  0.50400001928E-02 0. -1.
    10030    2    1    2    0    0  0.00000000000E+00  0.00000000000E+00 -0.23006888511E+04  0.31123525050E+04  0.20960841886E+04 0.  0.
        5    1    3    3  502    0 -0.79019552350E+02  0.98359963927E+03 -0.16745960548E+04  0.19437094374E+04  0.46999998093E+01 0. -1.
       -5    1    3    3    0  502  0.79019552350E+02 -0.98359963927E+03 -0.62609279628E+03  0.11686430677E+04  0.46999998093E+01 0.  1.
</event>
<event>
 5   0  0.8271069E-05  0.2104073E+04  0.7818609E-02  0.8559451E-01
       -1   -1    0    0    0  501  0.00000000000E+00  0.00000000000E+00  0.93793226354E+03  0.93793226355E+03  0.50400001928E-02 0. -1.
        1   -1    0    0  501    0  0.00000000000E+00  0.00000000000E+00 -0.11800218549E+04  0.11800218550E+04  0.50400001928E-02 0.  1.
    10030    2    1    2    0    0  0.00000000000E+00  0.00000000000E+00 -0.24208959140E+03  0.21179541185E+04  0.21040727834E+04 0.  0.
        2    1    3    3  502    0 -0.14453614315E+03  0.10378160544E+04 -0.21562055119E+03  0.10697874001E+04  0.25500000920E-02 0.  1.
       -2    1    3    3    0  502  0.14453614315E+03 -0.10378160544E+04 -0.26469040209E+02  0.10481667184E+04  0.25500000920E-02 0. -1.
</event>
<event>
 5   0  0.1810875E-04  0.2106068E+04  0.7818609E-02  0.8558575E-01
        2   -1    0    0  501    0  0.00000000000E+00  0.00000000000E+00  0.19997790450E+04  0.19997790450E+04  0.25500000920E-02 0. -1.
       -2   -1    0    0    0  501  0.00000000000E+00  0.00000000000E+00 -0.55450146245E+03  0.55450146245E+03  0.25500000920E-02 0.  1.
    10030    2    1    2    0    0  0.00000000000E+00  0.00000000000E+00  0.14452775826E+04  0.25542805075E+04  0.21060678100E+04 0.  0.
        1    1    3    3  502    0 -0.71686336006E+03 -0.73393609758E+03  0.43480130672E+03  0.11142744046E+04  0.50400001928E-02 0. -1.
       -1    1    3    3    0  502  0.71686336006E+03  0.73393609758E+03  0.10104762759E+04  0.14400061029E+04  0.50400001928E-02 0.  1.
</event>
<event>
 5   0  0.1815400E-04  0.2107137E+04  0.7818609E-02  0.8558106E-01
       -2   -1    0    0    0  501  0.00000000000E+00  0.00000000000E+00  0.13993273109E+04  0.13993273109E+04  0.25500000920E-02 0.  1.
        2   -1    0    0  501    0  0.00000000000E+00  0.00000000000E+00 -0.79324334953E+03  0.79324334954E+03  0.25500000920E-02 0. -1.
    10030    2    1    2    0    0  0.00000000000E+00  0.00000000000E+00  0.60608396135E+03  0.21925706604E+04  0.21071374736E+04 0.  0.
        3    1    3    3  502    0 -0.96540948483E+03 -0.41867465512E+03  0.35714162556E+03  0.11112398891E+04  0.10100000352E+00 0.  1.
       -3    1    3    3    0  502  0.96540948483E+03  0.41867465512E+03  0.24894233578E+03  0.10813307713E+04  0.10100000352E+00 0. -1.
</event>
<event>
 5   0  0.8237966E-05  0.2100193E+04  0.7818609E-02  0.8561158E-01
        1   -1    0    0  501    0  0.00000000000E+00  0.00000000000E+00  0.14753238082E+04  0.14753238082E+04  0.50400001928E-02 0. -1.
       -1   -1    0    0    0  501  0.00000000000E+00  0.00000000000E+00 -0.74743127654E+03  0.74743127655E+03  0.50400001928E-02 0.  1.
    10030    2    1    2    0    0  0.00000000000E+00  0.00000000000E+00  0.72789253161E+03  0.22227550847E+04  0.21001934742E+04 0.  0.
        1    1    3    3  502    0  0.49226462311E+03 -0.74030124146E+03  0.95542765486E+03  0.13050717953E+04  0.50400001928E-02 0. -1.
       -1    1    3    3    0  502 -0.49226462311E+03  0.74030124146E+03 -0.22753512325E+03  0.91768328938E+03  0.50400001928E-02 0.  1.
</event>
<event>
 5   0  0.8271069E-05  0.2050173E+04  0.7818609E-02  0.8583516E-01
        1   -1    0    0  501    0  0.00000000000E+00  0.00000000000E+00  0.11781126613E+04  0.11781126613E+04  0.50400001928E-02 0. -1.
       -1   -1    0    0    0  501  0.00000000000E+00  0.00000000000E+00 -0.89193671210E+03  0.89193671212E+03  0.50400001928E-02 0.  1.
    10030    2    1    2    0    0  0.00000000000E+00  0.00000000000E+00  0.28617594921E+03  0.20700493734E+04  0.20501726109E+04 0.  0.
        2    1    3    3  502    0 -0.65785852997E+02  0.27399870807E+02  0.11756084921E+04  0.11777664701E+04  0.25500000920E-02 0. -1.
       -2    1    3    3    0  502  0.65785852997E+02 -0.27399870807E+02 -0.88943254286E+03  0.89228290338E+03  0.25500000920E-02 0.  1.
</event>
<event>
 5   0  0.8237966E-05  0.2108943E+04  0.7818609E-02  0.8557314E-01
       -1   -1    0    0    0  501  0.00000000000E+00  0.00000000000E+00  0.77714560707E+03  0.77714560708E+03  0.50400001928E-02 0.  1.
        1   -1    0    0  501    0  0.00000000000E+00  0.00000000000E+00 -0.14307610871E+04  0.14307610872E+04  0.50400001928E-02 0. -1.
    10030    2    1    2    0    0  0.00000000000E+00  0.00000000000E+00 -0.65361548008E+03  0.22079066942E+04  0.21089425726E+04 0.  0.
        1    1    3    3  502    0 -0.61008789026E+03 -0.44150486043E+03 -0.10995326506E+04  0.13327062037E+04  0.50400001928E-02 0. -1.
       -1    1    3    3    0  502  0.61008789026E+03  0.44150486043E+03  0.44591717053E+03  0.87520049053E+03  0.50400001928E-02 0.  1.
</event>
<event>
 5   0  0.8525278E-05  0.2088487E+04  0.7818609E-02  0.8566332E-01
        1   -1    0    0  501    0  0.00000000000E+00  0.00000000000E+00  0.12211361133E+04  0.12211361133E+04  0.50400001928E-02 0. -1.
       -1   -1    0    0    0  501  0.00000000000E+00  0.00000000000E+00 -0.89297524465E+03  0.89297524466E+03  0.50400001928E-02 0.  1.
    10030    2    1    2    0    0  0.00000000000E+00  0.00000000000E+00  0.32816086865E+03  0.21141113580E+04  0.20884868394E+04 0.  0.
        4    1    3    3  502    0 -0.52686300698E+03  0.34131659887E+03  0.10088015583E+04  0.11881766896E+04  0.12699999809E+01 0. -1.
       -4    1    3    3    0  502  0.52686300698E+03 -0.34131659887E+03 -0.68064068964E+03  0.92593466837E+03  0.12699999809E+01 0.  1.
</event>
<event>
 5   0  0.8755004E-05  0.1883000E+04  0.7818609E-02  0.8663365E-01
        1   -1    0    0  501    0  0.00000000000E+00  0.00000000000E+00  0.15036513865E+04  0.15036513865E+04  0.50400001928E-02 0.  1.
       -1   -1    0    0    0  501  0.00000000000E+00  0.00000000000E+00 -0.58951325273E+03  0.58951325275E+03  0.50400001928E-02 0. -1.
    10030    2    1    2    0    0  0.00000000000E+00  0.00000000000E+00  0.91413813374E+03  0.20931646392E+04  0.18830001804E+04 0.  0.
        3    1    3    3  502    0 -0.31788185648E+03 -0.87493469528E+03  0.61373458354E+03  0.11150021278E+04  0.10100000352E+00 0.  1.
       -3    1    3    3    0  502  0.31788185648E+03  0.87493469528E+03  0.30040355020E+03  0.97816251148E+03  0.10100000352E+00 0. -1.
</event>
<event>
 5   0  0.1810875E-04  0.2084850E+04  0.7818609E-02  0.8567946E-01
        2   -1    0    0  501    0  0.00000000000E+00  0.00000000000E+00  0.20109179171E+04  0.20109179171E+04  0.25500000920E-02 0.  1.
       -2   -1    0    0    0  501  0.00000000000E+00  0.00000000000E+00 -0.54037519685E+03  0.54037519686E+03  0.25500000920E-02 0. -1.
    10030    2    1    2    0    0  0.00000000000E+00  0.00000000000E+00  0.14705427202E+04  0.25512931139E+04  0.20848502731E+04 0.  0.
        1    1    3    3  502    0  0.24210891138E+03 -0.98464484515E+03  0.10312722374E+04  0.14462588370E+04  0.50400001928E-02 0. -1.
       -1    1    3    3    0  502 -0.24210891138E+03  0.98464484515E+03  0.43927048287E+03  0.11050342769E+04  0.50400001928E-02 0.  1.
</event>
<event>
 5   0  0.8486612E-05  0.2058348E+04  0.7818609E-02  0.8579817E-01
        1   -1    0    0  501    0  0.00000000000E+00  0.00000000000E+00  0.23940743584E+04  0.23940743584E+04  0.50400001928E-02 0.  1.
       -1   -1    0    0    0  501  0.00000000000E+00  0.00000000000E+00 -0.44242528660E+03  0.44242528663E+03  0.50400001928E-02 0. -1.
    10030    2    1    2    0    0  0.00000000000E+00  0.00000000000E+00  0.19516490718E+04  0.28364996450E+04  0.20583479144E+04 0.  0.
        5    1    3    3  502    0  0.20380957239E+03  0.50804732794E+03 -0.22515448109E+03  0.59191811898E+03  0.46999998093E+01 0. -1.
       -5    1    3    3    0  502 -0.20380957239E+03 -0.50804732794E+03  0.21768035529E+04  0.22445815260E+04  0.46999998093E+01 0.  1.
</event>
<event>
 5   0  0.1886323E-04  0.2106236E+04  0.7818609E-02  0.8558501E-01
        2   -1    0    0  501    0  0.00000000000E+00  0.00000000000E+00  0.14006566449E+04  0.14006566449E+04  0.25500000920E-02 0. -1.
       -2   -1    0    0    0  501  0.00000000000E+00  0.00000000000E+00 -0.79181284082E+03  0.79181284083E+03  0.25500000920E-02 0.  1.
    10030    2    1    2    0    0  0.00000000000E+00  0.00000000000E+00  0.60884380412E+03  0.21924694858E+04  0.21062363752E+04 0.  0.
        2    1    3    3  502    0  0.51618629130E+03  0.48583375051E+03  0.11151379552E+04  0.13213687523E+04  0.25500000920E-02 0. -1.
       -2    1    3    3    0  502 -0.51618629130E+03 -0.48583375051E+03 -0.50629415106E+03  0.87110073348E+03  0.25500000920E-02 0.  1.
</event>
<event>
 5   0  0.8525278E-05  0.2141315E+04  0.7818609E-02  0.8543259E-01
        1   -1    0    0  501    0  0.00000000000E+00  0.00000000000E+00  0.12633423677E+04  0.12633423677E+04  0.50400001928E-02 0.  1.
       -1   -1    0    0    0  501  0.00000000000E+00  0.00000000000E+00 -0.90736072585E+03  0.90736072587E+03  0.50400001928E-02 0. -1.
    10030    2    1    2    0    0  0.00000000000E+00  0.00000000000E+00  0.35598164183E+03  0.21707030936E+04  0.21413147809E+04 0.  0.
        4    1    3    3  502    0 -0.16125918621E+03  0.82431926141E+03  0.85102968688E+03  0.11957256837E+04  0.12699999809E+01 0.  1.
       -4    1    3    3    0  502  0.16125918621E+03 -0.82431926141E+03 -0.49504804505E+03  0.97497740983E+03  0.12699999809E+01 0. -1.
</event>
<event>
 5   0  0.1815400E-04  0.2070225E+04  0.7818609E-02  0.8574474E-01
        2   -1    0    0  501    0  0.00000000000E+00  0.00000000000E+00  0.85879146667E+03  0.85879146667E+03  0.25500000920E-02 0.  1.
       -2   -1    0    0    0  501  0.00000000000E+00  0.00000000000E+00 -0.12476346891E+04  0.12476346891E+04  0.25500000920E-02 0. -1.
    10030    2    1    2    0    0  0.00000000000E+00  0.00000000000E+00 -0.38884322246E+03  0.21064261558E+04  0.20702251323E+04 0.  0.
        3    1    3    3  502    0 -0.49376893333E+03  0.77743236936E+03  0.28633313972E+03  0.96446644605E+03  0.10100000352E+00 0.  1.
       -3    1    3    3    0  502  0.49376893333E+03 -0.77743236936E+03 -0.67517636219E+03  0.11419597098E+04  0.10100000352E+00 0. -1.
</event>
<event>
 5   0  0.8237966E-05  0.2135265E+04  0.7818609E-02  0.8545866E-01
        1   -1    0    0  501    0  0.00000000000E+00  0.00000000000E+00  0.10713121945E+04  0.10713121946E+04  0.50400001928E-02 0. -1.
       -1   -1    0    0    0  501  0.00000000000E+00  0.00000000000E+00 -0.10639659419E+04  0.10639659419E+04  0.50400001928E-02 0.  1.
    10030    2    1    2    0    0  0.00000000000E+00  0.00000000000E+00  0.73462526783E+01  0.21352781364E+04  0.21352654993E+04 0.  0.
        1    1    3    3  502    0  0.85964153314E+02 -0.16453278630E+02 -0.10603722408E+04  0.10639783057E+04  0.50400001928E-02 0.  1.
       -1    1    3    3    0  502 -0.85964153314E+02  0.16453278630E+02  0.10677184934E+04  0.10712998307E+04  0.50400001928E-02 0. -1.
</event>
<event>
 5   0  0.1815400E-04  0.2085006E+04  0.7818609E-02  0.8567877E-01
        2   -1    0    0  501    0  0.00000000000E+00  0.00000000000E+00  0.71100568527E+03  0.71100568527E+03  0.25500000920E-02 0.  1.
       -2   -1    0    0    0  501  0.00000000000E+00  0.00000000000E+00 -0.15285559696E+04  0.15285559696E+04  0.25500000920E-02 0. -1.
    10030    2    1    2    0    0  0.00000000000E+00  0.00000000000E+00 -0.81755028432E+03  0.22395616549E+04  0.20850055008E+04 0.  0.
        3    1    3    3  502    0 -0.27362718535E+03 -0.84898199156E+03 -0.98837586611E+03  0.13313636323E+04  0.10100000352E+00 0. -1.
       -3    1    3    3    0  502  0.27362718535E+03  0.84898199156E+03  0.17082558179E+03  0.90819802254E+03  0.10100000352E+00 0.  1.
</event>
<event>
 5   0  0.8755004E-05  0.2088928E+04  0.7818609E-02  0.8566136E-01
        1   -1    0    0  501    0  0.00000000000E+00  0.00000000000E+00  0.14084545103E+04  0.14084545103E+04  0.50400001928E-02 0. -1.
       -1   -1    0    0    0  501  0.00000000000E+00  0.00000000000E+00 -0.77454037295E+03  0.77454037296E+03  0.50400001928E-02 0.  1.
    10030    2    1    2    0    0  0.00000000000E+00  0.00000000000E+00  0.63391413737E+03  0.21829948833E+04  0.20889278415E+04 0.  0.
        3    1    3    3  502    0 -0.55465150670E+03 -0.59459040032E+03 -0.36809964485E+03  0.89256562603E+03  0.10100000352E+00 0.  1.
       -3    1    3    3    0  502  0.55465150670E+03  0.59459040032E+03  0.10020137822E+04  0.12904292573E+04  0.10100000352E+00 0. -1.
</event>
<event>
 5   0  0.8486612E-05  0.1798586E+04  0.7818609E-02  0.8707052E-01
        1   -1    0    0  501    0  0.00000000000E+00  0.00000000000E+00  0.12438265257E+04  0.12438265257E+04  0.50400001928E-02 0. -1.
       -1   -1    0    0    0  501  0.00000000000E+00  0.00000000000E+00 -0.65019332279E+03  0.65019332281E+03  0.50400001928E-02 0.  1.
    10030    2    1    2    0    0  0.00000000000E+00  0.00000000000E+00  0.59363320290E+03  0.18940198485E+04  0.17985857797E+04 0.  0.
        5    1    3    3  502    0 -0.10085072564E+03  0.66671193852E+03 -0.32975883100E+03  0.75062550879E+03  0.46999998093E+01 0.  1.
       -5    1    3    3    0  502  0.10085072564E+03 -0.66671193852E+03  0.92339203390E+03  0.11433943397E+04  0.46999998093E+01 0. -1.
</event>
<event>
 5   0  0.8755004E-05  0.2095822E+04  0.7818609E-02  0.8563086E-01
       -1   -1    0    0    0  501  0.00000000000E+00  0.00000000000E+00  0.91782051132E+03  0.91782051133E+03  0.50400001928E-02 0.  1.
        1   -1    0    0  501    0  0.00000000000E+00  0.00000000000E+00 -0.11964397508E+04  0.11964397508E+04  0.50400001928E-02 0. -1.
    10030    2    1    2    0    0  0.00000000000E+00  0.00000000000E+00 -0.27861923950E+03  0.21142602622E+04  0.20958215037E+04 0.  0.
        3    1    3    3  502    0 -0.13945541943E+03  0.17580316043E+02 -0.11868868513E+04  0.11951808606E+04  0.10100000352E+00 0. -1.
       -3    1    3    3    0  502  0.13945541943E+03 -0.17580316043E+02  0.90826761181E+03  0.91907940157E+03  0.10100000352E+00 0.  1.
</event>
<event>
 5   0  0.1921687E-04  0.2126424E+04  0.7818609E-02  0.8549692E-01
        2   -1    0    0  501    0  0.00000000000E+00  0.00000000000E+00  0.21270898931E+04  0.21270898931E+04  0.25500000920E-02 0.  1.
       -2   -1    0    0    0  501  0.00000000000E+00  0.00000000000E+00 -0.53143980127E+03  0.53143980127E+03  0.25500000920E-02 0. -1.
    10030    2    1    2    0    0  0.00000000000E+00  0.00000000000E+00  0.15956500919E+04  0.26585296944E+04  0.21264244450E+04 0.  0.
        5    1    3    3  502    0  0.48435350458E+03  0.71733600459E+03  0.25883428620E+02  0.86594532319E+03  0.46999998093E+01 0. -1.
       -5    1    3    3    0  502 -0.48435350458E+03 -0.71733600459E+03  0.15697666632E+04  0.17925843712E+04  0.46999998093E+01 0.  1.
</event>
<event>
 5   0  0.1810875E-04  0.2123954E+04  0.7818609E-02  0.8550764E-01
       -2   -1    0    0    0  501  0.00000000000E+00  0.00000000000E+00  0.10972522353E+04  0.10972522353E+04  0.25500000920E-02 0.  1.
        2   -1    0    0  501    0  0.00000000000E+00  0.00000000000E+00 -0.10278361386E+04  0.10278361386E+04  0.25500000920E-02 0. -1.
    10030    2    1    2    0    0  0.00000000000E+00  0.00000000000E+00  0.69416096669E+02  0.21250883739E+04  0.21239543315E+04 0.  0.
        1    1    3    3  502    0  0.44781064881E+03 -0.70367822714E+03 -0.62298459965E+03  0.10410606303E+04  0.50400001928E-02 0. -1.
       -1    1    3    3    0  502 -0.44781064881E+03  0.70367822714E+03  0.69240069632E+03  0.10840277436E+04  0.50400001928E-02 0.  1.
</event>
<event>
 5   0  0.1810875E-04  0.1756423E+04  0.7818609E-02  0.8729823E-01
       -2   -1    0    0    0  501  0.00000000000E+00  0.00000000000E+00  0.10500460008E+04  0.10500460008E+04  0.25500000920E-02 0.  1.
        2   -1    0    0  501    0  0.00000000000E+00  0.00000000000E+00 -0.73449662345E+03  0.73449662345E+03  0.25500000920E-02 0. -1.
    10030    2    1    2    0    0  0.00000000000E+00  0.00000000000E+00  0.31554937730E+03  0.17845426242E+04  0.17564227760E+04 0.  0.
        1    1    3    3  502    0  0.87240537332E+02 -0.37769207407E+03  0.95842195956E+03  0.10338447015E+04  0.50400001928E-02 0.  1.
       -1    1    3    3    0  502 -0.87240537332E+02  0.37769207407E+03 -0.64287258225E+03  0.75069792274E+03  0.50400001928E-02 0. -1.
</event>
<event>
 5   0  0.8271069E-05  0.2108436E+04  0.7818609E-02  0.8557536E-01
        1   -1    0    0  501    0  0.00000000000E+00  0.00000000000E+00  0.85645227153E+03  0.85645227155E+03  0.50400001928E-02 0.  1.
       -1   -1    0    0    0  501  0.00000000000E+00  0.00000000000E+00 -0.12976504488E+04  0.12976504488E+04  0.50400001928E-02 0. -1.
    10030    2    1    2    0    0  0.00000000000E+00  0.00000000000E+00 -0.44119817726E+03  0.21541027204E+04  0.21084360788E+04 0.  0.
        2    1    3    3  502    0 -0.26690643666E+01  0.52048079521E+03  0.71602783387E+03  0.88521366967E+03  0.25500000920E-02 0.  1.
       -2    1    3    3    0  502  0.26690643666E+01 -0.52048079521E+03 -0.11572260111E+04  0.12688890507E+04  0.25500000920E-02 0. -1.
</event>
<event>
 5   0  0.8271069E-05  0.2149939E+04  0.7818609E-02  0.8539558E-01
       -1   -1    0    0    0  501  0.00000000000E+00  0.00000000000E+00  0.13925589258E+04  0.13925589259E+04  0.50400001928E-02 0.  1.
        1   -1    0    0  501    0  0.00000000000E+00  0.00000000000E+00 -0.82980986700E+03  0.82980986701E+03  0.50400001928E-02 0. -1.
    10030    2    1    2    0    0  0.00000000000E+00  0.00000000000E+00  0.56274905885E+03  0.22223687929E+04  0.21499387313E+04 0.  0.
        2    1    3    3  502    0 -0.75540690978E+03  0.34695446899E+03 -0.42316051731E+03  0.93278176778E+03  0.25500000920E-02 0. -1.
       -2    1    3    3    0  502  0.75540690978E+03 -0.34695446899E+03  0.98590957616E+03  0.12895870251E+04  0.25500000920E-02 0.  1.
</event>
<event>
 5   0  0.1886323E-04  0.2102260E+04  0.7818609E-02  0.8560248E-01
       -2   -1    0    0    0  501  0.00000000000E+00  0.00000000000E+00  0.83313437523E+03  0.83313437523E+03  0.25500000920E-02 0. -1.
        2   -1    0    0  501    0  0.00000000000E+00  0.00000000000E+00 -0.13261663464E+04  0.13261663464E+04  0.25500000920E-02 0.  1.
    10030    2    1    2    0    0  0.00000000000E+00  0.00000000000E+00 -0.49303197113E+03  0.21593007216E+04  0.21022604695E+04 0.  0.
        2    1    3    3  502    0 -0.27452980990E+03  0.23480264687E+03 -0.12604037131E+04  0.13111507997E+04  0.25500000920E-02 0.  1.
       -2    1    3    3    0  502  0.27452980990E+03 -0.23480264687E+03  0.76737174202E+03  0.84814992186E+03  0.25500000920E-02 0. -1.
</event>
<event>
 5   0  0.8486612E-05  0.2093210E+04  0.7818609E-02  0.8564240E-01
       -1   -1    0    0    0  501  0.00000000000E+00  0.00000000000E+00  0.74203104163E+03  0.74203104165E+03  0.50400001928E-02 0.  1.
        1   -1    0    0  501    0  0.00000000000E+00  0.00000000000E+00 -0.14761948939E+04  0.14761948939E+04  0.50400001928E-02 0. -1.
    10030    2    1    2    0    0  0.00000000000E+00  0.00000000000E+00 -0.73416385226E+03  0.22182259356E+04  0.20932103906E+04 0.  0.
        5    1    3    3  502    0 -0.26526386870E+03 -0.75912987312E+03  0.34278882893E+03  0.87416780742E+03  0.46999998093E+01 0.  1.
       -5    1    3    3    0  502  0.26526386870E+03  0.75912987312E+03 -0.10769526812E+04  0.13440581281E+04  0.46999998093E+01 0. -1.
</event>
<event>
 5   0  0.8525278E-05  0.2101950E+04  0.7818609E-02  0.8560385E-01
       -1   -1    0    0    0  501  0.00000000000E+00  0.00000000000E+00  0.59443465503E+03  0.59443465505E+03  0.50400001928E-02 0. -1.
        1   -1    0    0  501    0  0.00000000000E+00  0.00000000000E+00 -0.18581488932E+04  0.18581488932E+04  0.50400001928E-02 0.  1.
    10030    2    1    2    0    0  0.00000000000E+00  0.00000000000E+00 -0.12637142381E+04  0.24525835482E+04  0.21019496629E+04 0.  0.
        4    1    3    3  502    0  0.72389095463E+03 -0.57437155403E+03 -0.12159935458E+04  0.15272729660E+04  0.12699999809E+01 0.  1.
       -4    1    3    3    0  502 -0.72389095463E+03  0.57437155403E+03 -0.47720692350E+02  0.92531058226E+03  0.12699999809E+01 0. -1.
</event>
<event>
 5   0  0.8755004E-05  0.2091005E+04  0.7818609E-02  0.8565216E-01
        1   -1    0    0  501    0  0.00000000000E+00  0.00000000000E+00  0.12064757762E+04  0.12064757763E+04  0.50400001928E-02 0. -1.
       -1   -1    0    0    0  501  0.00000000000E+00  0.00000000000E+00 -0.90600681241E+03  0.90600681243E+03  0.50400001928E-02 0.  1.
    10030    2    1    2    0    0  0.00000000000E+00  0.00000000000E+00  0.30046896383E+03  0.21124825887E+04  0.20910048037E+04 0.  0.
        3    1    3    3  502    0 -0.38313638471E+03  0.70101312963E+03  0.83159679739E+03  0.11531548642E+04  0.10100000352E+00 0. -1.
       -3    1    3    3    0  502  0.38313638471E+03 -0.70101312963E+03 -0.53112783355E+03  0.95932772449E+03  0.10100000352E+00 0.  1.
</event>
<event>
 5   0  0.8486612E-05  0.2096202E+04  0.7818609E-02  0.8562918E-01
        1   -1    0    0  501    0  0.00000000000E+00  0.00000000000E+00  0.12858291301E+04  0.12858291301E+04  0.50400001928E-02 0. -1.
       -1   -1    0    0    0  501  0.00000000000E+00  0.00000000000E+00 -0.85432439778E+03  0.85432439779E+03  0.50400001928E-02 0.  1.
    10030    2    1    2    0    0  0.00000000000E+00  0.00000000000E+00  0.43150473230E+03  0.21401535279E+04  0.20962015144E+04 0.  0.
        5    1    3    3  502    0 -0.48498803469E+03 -0.15890217142E+03  0.11503864907E+04  0.12585207435E+04  0.46999998093E+01 0. -1.
       -5    1    3    3    0  502  0.48498803469E+03  0.15890217142E+03 -0.71888175841E+03  0.88163278435E+03  0.46999998093E+01 0.  1.
</event>
<event>
 5   0  0.1886323E-04  0.2108104E+04  0.7818609E-02  0.8557682E-01
        2   -1    0    0  501    0  0.00000000000E+00  0.00000000000E+00  0.24600643999E+04  0.24600643999E+04  0.25500000920E-02 0.  1.
       -2   -1    0    0    0  501  0.00000000000E+00  0.00000000000E+00 -0.45162450665E+03  0.45162450666E+03  0.25500000920E-02 0. -1.
    10030    2    1    2    0    0  0.00000000000E+00  0.00000000000E+00  0.20084398933E+04  0.29116889066E+04  0.21081037650E+04 0.  0.
        2    1    3    3  502    0 -0.71950930500E+03 -0.14906598570E+03 -0.39570396048E+02  0.73585333071E+03  0.25500000920E-02 0. -1.
       -2    1    3    3    0  502  0.71950930500E+03  0.14906598570E+03  0.20480102893E+04  0.21758355759E+04  0.25500000920E-02 0.  1.
</event>
<event>
 5   0  0.1886323E-04  0.2120799E+04  0.7818609E-02  0.8552136E-01
       -2   -1    0    0    0  501  0.00000000000E+00  0.00000000000E+00  0.86798694371E+03  0.86798694371E+03  0.25500000920E-02 0. -1.
        2   -1    0    0  501    0  0.00000000000E+00  0.00000000000E+00 -0.12954659299E+04  0.12954659299E+04  0.25500000920E-02 0.  1.
    10030    2    1    2    0    0  0.00000000000E+00  0.00000000000E+00 -0.42747898621E+03  0.21634528736E+04  0.21207993900E+04 0.  0.
        2    1    3    3  502    0  0.21735572055E+03  0.84385351713E+03  0.40266079546E+03  0.95993123911E+03  0.25500000920E-02 0. -1.
       -2    1    3    3    0  502 -0.21735572055E+03 -0.84385351713E+03 -0.83013978167E+03  0.12035216345E+04  0.25500000920E-02 0.  1.
</event>
<event>
 5   0  0.8525278E-05  0.2090691E+04  0.7818609E-02  0.8565355E-01
       -1   -1    0    0    0  501  0.00000000000E+00  0.00000000000E+00  0.90234013226E+03  0.90234013228E+03  0.50400001928E-02 0.  1.
        1   -1    0    0  501    0  0.00000000000E+00  0.00000000000E+00 -0.12110147835E+04  0.12110147835E+04  0.50400001928E-02 0. -1.
    10030    2    1    2    0    0  0.00000000000E+00  0.00000000000E+00 -0.30867465123E+03  0.21133549158E+04  0.20906910245E+04 0.  0.
        4    1    3    3  502    0  0.55072008049E+03 -0.21760386998E+03 -0.10251289847E+04  0.11838644768E+04  0.12699999809E+01 0. -1.
       -4    1    3    3    0  502 -0.55072008049E+03  0.21760386998E+03  0.71645433347E+03  0.92949043897E+03  0.12699999809E+01 0.  1.
</event>
<event>
 5   0  0.8237966E-05  0.1487007E+04  0.7818609E-02  0.8893139E-01
       -1   -1    0    0    0  501  0.00000000000E+00  0.00000000000E+00  0.69871757924E+03  0.69871757926E+03  0.50400001928E-02 0. -1.
        1   -1    0    0  501    0  0.00000000000E+00  0.00000000000E+00 -0.79115987040E+03  0.79115987042E+03  0.50400001928E-02 0.  1.
    10030    2    1    2    0    0  0.00000000000E+00  0.00000000000E+00 -0.92442291164E+02  0.14898774497E+04  0.14870068049E+04 0.  0.
        1    1    3    3  502    0  0.45314451741E+03 -0.39728875056E+03  0.39007213253E+03  0.71786807533E+03  0.50400001928E-02 0. -1.
       -1    1    3    3    0  502 -0.45314451741E+03  0.39728875056E+03 -0.48251442369E+03  0.77200937434E+03  0.50400001928E-02 0.  1.
</event>
<event>
 5   0  0.8237966E-05  0.2100237E+04  0.7818609E-02  0.8561139E-01
       -1   -1    0    0    0  501  0.00000000000E+00  0.00000000000E+00  0.46300474998E+03  0.46300475000E+03  0.50400001928E-02 0.  1.
        1   -1    0    0  501    0  0.00000000000E+00  0.00000000000E+00 -0.23817230706E+04  0.23817230706E+04  0.50400001928E-02 0. -1.
    10030    2    1    2    0    0  0.00000000000E+00  0.00000000000E+00 -0.19187183206E+04  0.28447278206E+04  0.21002372198E+04 0.  0.
        1    1    3    3  502    0 -0.97507760095E+03  0.25981528379E+03 -0.13530184402E+04  0.16878800933E+04  0.50400001928E-02 0.  1.
       -1    1    3    3    0  502  0.97507760095E+03 -0.25981528379E+03 -0.56569988036E+03  0.11568477273E+04  0.50400001928E-02 0. -1.
</event>
<event>
 5   0  0.8486612E-05  0.2112328E+04  0.7818609E-02  0.8555832E-01
        1   -1    0    0  501    0  0.00000000000E+00  0.00000000000E+00  0.23046049340E+04  0.23046049340E+04  0.50400001928E-02 0.  1.
       -1   -1    0    0    0  501  0.00000000000E+00  0.00000000000E+00 -0.48402334695E+03  0.48402334698E+03  0.50400001928E-02 0. -1.
    10030    2    1    2    0    0  0.00000000000E+00  0.00000000000E+00  0.18205815870E+04  0.27886282810E+04  0.21123281881E+04 0.  0.
        5    1    3    3  502    0 -0.59548000554E+03 -0.12514527370E+03  0.20499275570E+04  0.21383364692E+04  0.46999998093E+01 0.  1.
       -5    1    3    3    0  502  0.59548000554E+03  0.12514527370E+03 -0.22934596997E+03  0.65029181178E+03  0.46999998093E+01 0. -1.
</event>
<event>
 5   0  0.1810875E-04  0.2173437E+04  0.7818609E-02  0.8529566E-01
        2   -1    0    0  501    0  0.00000000000E+00  0.00000000000E+00  0.17833732782E+04  0.17833732782E+04  0.25500000920E-02 0. -1.
       -2   -1    0    0    0  501  0.00000000000E+00  0.00000000000E+00 -0.66220438137E+03  0.66220438138E+03  0.25500000920E-02 0.  1.
    10030    2    1    2    0    0  0.00000000000E+00  0.00000000000E+00  0.11211688968E+04  0.24455776596E+04  0.21734374603E+04 0.  0.
        1    1    3    3  502    0  0.54528166842E+03  0.28402190459E+03  0.15688628643E+04  0.16850315211E+04  0.50400001928E-02 0. -1.
       -1    1    3    3    0  502 -0.54528166842E+03 -0.28402190459E+03 -0.44769396746E+03  0.76054613846E+03  0.50400001928E-02 0.  1.
</event>
<event>
 5   0  0.1815400E-04  0.2090437E+04  0.7818609E-02  0.8565468E-01
        2   -1    0    0  501    0  0.00000000000E+00  0.00000000000E+00  0.22379198145E+04  0.22379198145E+04  0.25500000920E-02 0. -1.
       -2   -1    0    0    0  501  0.00000000000E+00  0.00000000000E+00 -0.48816816401E+03  0.48816816402E+03  0.25500000920E-02 0.  1.
    10030    2    1    2    0    0  0.00000000000E+00  0.00000000000E+00  0.17497516505E+04  0.27260879785E+04  0.20904365162E+04 0.  0.
        3    1    3    3  502    0 -0.17148669711E+03  0.89908732792E+03  0.15330344240E+04  0.17854860027E+04  0.10100000352E+00 0. -1.
       -3    1    3    3    0  502  0.17148669711E+03 -0.89908732792E+03  0.21671722656E+03  0.94060197587E+03  0.10100000352E+00 0.  1.
</event>
<event>
 5   0  0.1810875E-04  0.2029479E+04  0.7818609E-02  0.8592961E-01
       -2   -1    0    0    0  501  0.00000000000E+00  0.00000000000E+00  0.15877627432E+04  0.15877627432E+04  0.25500000920E-02 0. -1.
        2   -1    0    0  501    0  0.00000000000E+00  0.00000000000E+00 -0.64852052282E+03  0.64852052283E+03  0.25500000920E-02 0.  1.
    10030    2    1    2    0    0  0.00000000000E+00  0.00000000000E+00  0.93924222041E+03  0.22362832661E+04  0.20294794647E+04 0.  0.
        1    1    3    3  502    0 -0.41932869287E+03  0.73189643539E+03  0.10911823163E+04  0.13791982425E+04  0.50400001928E-02 0. -1.
       -1    1    3    3    0  502  0.41932869287E+03 -0.73189643539E+03 -0.15194009587E+03  0.85708502353E+03  0.50400001928E-02 0.  1.
</event>
<event>
 5   0  0.1815400E-04  0.2091803E+04  0.7818609E-02  0.8564863E-01
        2   -1    0    0  501    0  0.00000000000E+00  0.00000000000E+00  0.29776548091E+04  0.29776548091E+04  0.25500000920E-02 0.  1.
       -2   -1    0    0    0  501  0.00000000000E+00  0.00000000000E+00 -0.36737311116E+03  0.36737311117E+03  0.25500000920E-02 0. -1.
    10030    2    1    2    0    0  0.00000000000E+00  0.00000000000E+00  0.26102816979E+04  0.33450279202E+04  0.20918033475E+04 0.  0.
        3    1    3    3  502    0 -0.59148081604E+03 -0.49199661422E+03  0.17213856529E+03  0.78837929958E+03  0.10100000352E+00 0. -1.
       -3    1    3    3    0  502  0.59148081604E+03  0.49199661422E+03  0.24381431326E+04  0.25566486206E+04  0.10100000352E+00 0.  1.
</event>
<event>
 5   0  0.1921687E-04  0.1382191E+04  0.7818609E-02  0.8966811E-01
       -2   -1    0    0    0  501  0.00000000000E+00  0.00000000000E+00  0.35208410156E+03  0.35208410157E+03  0.25500000920E-02 0.  1.
        2   -1    0    0  501    0  0.00000000000E+00  0.00000000000E+00 -0.13565317958E+04  0.13565317958E+04  0.25500000920E-02 0. -1.
    10030    2    1    2    0    0  0.00000000000E+00  0.00000000000E+00 -0.10044476942E+04  0.17086158974E+04  0.13821914174E+04 0.  0.
        5    1    3    3  502    0 -0.32772757563E+03  0.60036110796E+03 -0.38014758593E+03  0.78254271504E+03  0.46999998093E+01 0. -1.
       -5    1    3    3    0  502  0.32772757563E+03 -0.60036110796E+03 -0.62430010830E+03  0.92607318231E+03  0.46999998093E+01 0.  1.
</event>
<event>
 5   0  0.8271069E-05  0.2105192E+04  0.7818609E-02  0.8558960E-01
       -1   -1    0    0    0  501  0.00000000000E+00  0.00000000000E+00  0.91247375201E+03  0.91247375202E+03  0.50400001928E-02 0. -1.
        1   -1    0    0  501    0  0.00000000000E+00  0.00000000000E+00 -0.12142357236E+04  0.12142357236E+04  0.50400001928E-02 0.  1.
    10030    2    1    2    0    0  0.00000000000E+00  0.00000000000E+00 -0.30176197162E+03  0.21267094757E+04  0.21051918930E+04 0.  0.
        2    1    3    3  502    0  0.25160819414E+03 -0.41813796161E+03 -0.10930508775E+04  0.11970406255E+04  0.25500000920E-02 0.  1.
       -2    1    3    3    0  502 -0.25160819414E+03  0.41813796161E+03  0.79128890590E+03  0.92966885013E+03  0.25500000920E-02 0. -1.
</event>
<event>
 5   0  0.8755004E-05  0.1911357E+04  0.7818609E-02  0.8649224E-01
        1   -1    0    0  501    0  0.00000000000E+00  0.00000000000E+00  0.12247152204E+04  0.12247152204E+04  0.50400001928E-02 0.  1.
       -1   -1    0    0    0  501  0.00000000000E+00  0.00000000000E+00 -0.74574203473E+03  0.74574203474E+03  0.50400001928E-02 0. -1.
    10030    2    1    2    0    0  0.00000000000E+00  0.00000000000E+00  0.47897318568E+03  0.19704572552E+04  0.19113572355E+04 0.  0.
        3    1    3    3  502    0  0.86679323253E+03 -0.29369780748E+03 -0.44218331475E+02  0.91626643566E+03  0.10100000352E+00 0. -1.
       -3    1    3    3    0  502 -0.86679323253E+03  0.29369780748E+03  0.52319151715E+03  0.10541908195E+04  0.10100000352E+00 0.  1.
</event>
<event>
 5   0  0.1810875E-04  0.1989069E+04  0.7818609E-02  0.8611749E-01
        2   -1    0    0  501    0  0.00000000000E+00  0.00000000000E+00  0.18376577982E+04  0.18376577982E+04  0.25500000920E-02 0. -1.
       -2   -1    0    0    0  501  0.00000000000E+00  0.00000000000E+00 -0.53823864344E+03  0.53823864345E+03  0.25500000920E-02 0.  1.
    10030    2    1    2    0    0  0.00000000000E+00  0.00000000000E+00  0.12994191547E+04  0.23758964416E+04  0.19890685663E+04 0.  0.
        1    1    3    3  502    0 -0.18917544347E+03 -0.22274481003E+03  0.17852141693E+04  0.18089754639E+04  0.50400001928E-02 0. -1.
       -1    1    3    3    0  502  0.18917544347E+03  0.22274481003E+03 -0.48579501454E+03  0.56692097772E+03  0.50400001928E-02 0.  1.
</event>
<event>
 5   0  0.8755004E-05  0.2404167E+04  0.7818609E-02  0.8437945E-01
       -1   -1    0    0    0  501  0.00000000000E+00  0.00000000000E+00  0.12878097792E+04  0.12878097792E+04  0.50400001928E-02 0. -1.
        1   -1    0    0  501    0  0.00000000000E+00  0.00000000000E+00 -0.11220639334E+04  0.11220639334E+04  0.50400001928E-02 0.  1.
    10030    2    1    2    0    0  0.00000000000E+00  0.00000000000E+00  0.16574584583E+03  0.24098737126E+04  0.24041671375E+04 0.  0.
        3    1    3    3  502    0  0.89222515851E+03  0.27503039054E+03 -0.67608837748E+03  0.11527371572E+04  0.10100000352E+00 0.  1.
       -3    1    3    3    0  502 -0.89222515851E+03 -0.27503039054E+03  0.84183422331E+03  0.12571365554E+04  0.10100000352E+00 0. -1.
</event>
<event>
 5   0  0.8271069E-05  0.2135745E+04  0.7818609E-02  0.8545659E-01
        1   -1    0    0  501    0  0.00000000000E+00  0.00000000000E+00  0.13252047955E+04  0.13252047956E+04  0.50400001928E-02 0.  1.
       -1   -1    0    0    0  501  0.00000000000E+00  0.00000000000E+00 -0.86050982563E+03  0.86050982564E+03  0.50400001928E-02 0. -1.
    10030    2    1    2    0    0  0.00000000000E+00  0.00000000000E+00  0.46469496991E+03  0.21857146212E+04  0.21357450668E+04 0.  0.
        2    1    3    3  502    0 -0.10230749668E+04 -0.13530708506E+03 -0.48595626425E+02  0.10331272574E+04  0.25500000920E-02 0. -1.
       -2    1    3    3    0  502  0.10230749668E+04  0.13530708506E+03  0.51329059634E+03  0.11525873638E+04  0.25500000920E-02 0.  1.
</event>
<event>
 5   0  0.8525278E-05  0.1547966E+04  0.7818609E-02  0.8853168E-01
       -1   -1    0    0    0  501  0.00000000000E+00  0.00000000000E+00  0.10506654918E+04  0.10506654919E+04  0.50400001928E-02 0. -1.
        1   -1    0    0  501    0  0.00000000000E+00  0.00000000000E+00 -0.57016212207E+03  0.57016212209E+03  0.50400001928E-02 0.  1.
    10030    2    1    2    0    0  0.00000000000E+00  0.00000000000E+00  0.48050336977E+03  0.16208276139E+04  0.15479659769E+04 0.  0.
        4    1    3    3  502    0  0.22204044797E+02 -0.46872448480E+03 -0.40422978128E+03  0.61935368831E+03  0.12699999809E+01 0.  1.
       -4    1    3    3    0  502 -0.22204044797E+02  0.46872448480E+03  0.88473315105E+03  0.10014739256E+04  0.12699999809E+01 0. -1.
</event>
<event>
 5   0  0.1777590E-04  0.2119953E+04  0.7818609E-02  0.8552504E-01
        2   -1    0    0  501    0  0.00000000000E+00  0.00000000000E+00  0.22165056272E+04  0.22165056272E+04  0.25500000920E-02 0. -1.
       -2   -1    0    0    0  501  0.00000000000E+00  0.00000000000E+00 -0.50690160401E+03  0.50690160401E+03  0.25500000920E-02 0.  1.
    10030    2    1    2    0    0  0.00000000000E+00  0.00000000000E+00  0.17096040232E+04  0.27234072312E+04  0.21199530728E+04 0.  0.
        4    1    3    3  502    0  0.77898240778E+03 -0.57435868855E+03  0.14101044465E+04  0.17102916879E+04  0.12699999809E+01 0. -1.
       -4    1    3    3    0  502 -0.77898240778E+03  0.57435868855E+03  0.29949957668E+03  0.10131155433E+04  0.12699999809E+01 0.  1.
</event>
<event>
 5   0  0.8486612E-05  0.2080038E+04  0.7818609E-02  0.8570088E-01
       -1   -1    0    0    0  501  0.00000000000E+00  0.00000000000E+00  0.95000488478E+03  0.95000488479E+03  0.50400001928E-02 0.  1.
        1   -1    0    0  501    0  0.00000000000E+00  0.00000000000E+00 -0.11385621202E+04  0.11385621202E+04  0.50400001928E-02 0. -1.
    10030    2    1    2    0    0  0.00000000000E+00  0.00000000000E+00 -0.18855723543E+03  0.20885670050E+04  0.20800380534E+04 0.  0.
        5    1    3    3  502    0  0.51776012393E+03 -0.75182540884E+03  0.40606218940E+03  0.99911239756E+03  0.46999998093E+01 0.  1.
       -5    1    3    3    0  502 -0.51776012393E+03  0.75182540884E+03 -0.59461942483E+03  0.10894546075E+04  0.46999998093E+01 0. -1.
</event>
<event>
 5   0  0.8486612E-05  0.1693603E+04  0.7818609E-02  0.8765021E-01
        1   -1    0    0  501    0  0.00000000000E+00  0.00000000000E+00  0.72198609219E+03  0.72198609220E+03  0.50400001928E-02 0.  1.
       -1   -1    0    0    0  501  0.00000000000E+00  0.00000000000E+00 -0.99319424125E+03  0.99319424126E+03  0.50400001928E-02 0. -1.
    10030    2    1    2    0    0  0.00000000000E+00  0.00000000000E+00 -0.27120814906E+03  0.17151803335E+04  0.16936025851E+04 0.  0.
        5    1    3    3  502    0 -0.51752715001E+03 -0.62304637320E+03 -0.38579245532E+03  0.89715051287E+03  0.46999998093E+01 0. -1.
       -5    1    3    3    0  502  0.51752715001E+03  0.62304637320E+03  0.11458430626E+03  0.81802982060E+03  0.46999998093E+01 0.  1.
</event>
<event>
 5   0  0.8486612E-05  0.2134476E+04  0.7818609E-02  0.8546206E-01
        1   -1    0    0  501    0  0.00000000000E+00  0.00000000000E+00  0.17828034425E+04  0.17828034425E+04  0.50400001928E-02 0. -1.
       -1   -1    0    0    0  501  0.00000000000E+00  0.00000000000E+00 -0.63887993559E+03  0.63887993561E+03  0.50400001928E-02 0.  1.
    10030    2    1    2    0    0  0.00000000000E+00  0.00000000000E+00  0.11439235069E+04  0.24216833781E+04  0.21344763747E+04 0.  0.
        5    1    3    3  502    0 -0.54001976874E+03 -0.54238545754E+03  0.14157939136E+04  0.16094402228E+04  0.46999998093E+01 0. -1.
       -5    1    3    3    0  502  0.54001976874E+03  0.54238545754E+03 -0.27187040670E+03  0.81224315523E+03  0.46999998093E+01 0.  1.
</event>
<event>
 5   0  0.1921687E-04  0.2094288E+04  0.7818609E-02  0.8563764E-01
        2   -1    0    0  501    0  0.00000000000E+00  0.00000000000E+00  0.16890116523E+04  0.16890116523E+04  0.25500000920E-02 0. -1.
       -2   -1    0    0    0  501  0.00000000000E+00  0.00000000000E+00 -0.64920249834E+03  0.64920249835E+03  0.25500000920E-02 0.  1.
    10030    2    1    2    0    0  0.00000000000E+00  0.00000000000E+00  0.10398091540E+04  0.23382141506E+04  0.20942880264E+04 0.  0.
        5    1    3    3  502    0 -0.71071286749E+03  0.12558795419E+02  0.13783678018E+04  0.15508676250E+04  0.46999998093E+01 0. -1.
       -5    1    3    3    0  502  0.71071286749E+03 -0.12558795419E+02 -0.33855864784E+03  0.78734652561E+03  0.46999998093E+01 0.  1.
</event>
<event>
 5   0  0.1810875E-04  0.2112889E+04  0.7818609E-02  0.8555587E-01
       -2   -1    0    0    0  501  0.00000000000E+00  0.00000000000E+00  0.13743680394E+04  0.13743680394E+04  0.25500000920E-02 0. -1.
        2   -1    0    0  501    0  0.00000000000E+00  0.00000000000E+00 -0.81206394072E+03  0.81206394072E+03  0.25500000920E-02 0.  1.
    10030    2    1    2    0    0  0.00000000000E+00  0.00000000000E+00  0.56230409865E+03  0.21864319801E+04  0.21128887581E+04 0.  0.
        1    1    3    3  502    0  0.41848111208E+03 -0.74792567444E+03 -0.35805003255E+03  0.92882672307E+03  0.50400001928E-02 0.  1.
       -1    1    3    3    0  502 -0.41848111208E+03  0.74792567444E+03  0.92035413119E+03  0.12576052570E+04  0.50400001928E-02 0. -1.
</event>
<event>
 5   0  0.8271069E-05  0.2029759E+04  0.7818609E-02  0.8592832E-01
        1   -1    0    0  501    0  0.00000000000E+00  0.00000000000E+00  0.17592403304E+04  0.17592403304E+04  0.50400001928E-02 0. -1.
       -1   -1    0    0    0  501  0.00000000000E+00  0.00000000000E+00 -0.58546891291E+03  0.58546891294E+03  0.50400001928E-02 0.  1.
    10030    2    1    2    0    0  0.00000000000E+00  0.00000000000E+00  0.11737714174E+04  0.23447092433E+04  0.20297591225E+04 0.  0.
        2    1    3    3  502    0  0.63699857993E+03  0.78150994172E+03  0.45288869394E+03  0.11052751463E+04  0.25500000920E-02 0.  1.
       -2    1    3    3    0  502 -0.63699857993E+03 -0.78150994172E+03  0.72088272350E+03  0.12394340970E+04  0.25500000920E-02 0. -1.
</event>
<event>
 5   0  0.6441125E-05  0.1361811E+04  0.7818609E-02  0.8981935E-01
        4   -1    0    0  501    0  0.00000000000E+00  0.00000000000E+00  0.12640089229E+04  0.12640095609E+04  0.12699999809E+01 0.  1.
       -4   -1    0    0    0  501  0.00000000000E+00  0.00000000000E+00 -0.36679309455E+03  0.36679529320E+03  0.12699999809E+01 0. -1.
    10030    2    1    2    0    0  0.00000000000E+00  0.00000000000E+00  0.89721582838E+03  0.16308048541E+04  0.13618106438E+04 0.  0.
        5    1    3    3  502    0 -0.62795299765E+03 -0.14483880835E+03  0.18540599899E+03  0.67059728759E+03  0.46999998093E+01 0.  1.
       -5    1    3    3    0  502  0.62795299765E+03  0.14483880835E+03  0.71180982938E+03  0.96020756655E+03  0.46999998093E+01 0. -1.
</event>
<event>
 5   0  0.1810875E-04  0.2096989E+04  0.7818609E-02  0.8562571E-01
        2   -1    0    0  501    0  0.00000000000E+00  0.00000000000E+00  0.11082996950E+04  0.11082996950E+04  0.25500000920E-02 0. -1.
       -2   -1    0    0    0  501  0.00000000000E+00  0.00000000000E+00 -0.99191691526E+03  0.99191691526E+03  0.25500000920E-02 0.  1.
    10030    2    1    2    0    0  0.00000000000E+00  0.00000000000E+00  0.11638277974E+03  0.21002166103E+04  0.20969894751E+04 0.  0.
        1    1    3    3  502    0  0.42497128339E+03  0.94844018117E+03  0.19697536591E+03  0.10577989713E+04  0.50400001928E-02 0. -1.
       -1    1    3    3    0  502 -0.42497128339E+03 -0.94844018117E+03 -0.80592586163E+02  0.10424176389E+04  0.50400001928E-02 0.  1.
</event>
<event>
 5   0  0.1810875E-04  0.2181421E+04  0.7818609E-02  0.8526201E-01
       -2   -1    0    0    0  501  0.00000000000E+00  0.00000000000E+00  0.93366646722E+03  0.93366646723E+03  0.25500000920E-02 0. -1.
        2   -1    0    0  501    0  0.00000000000E+00  0.00000000000E+00 -0.12741695054E+04  0.12741695054E+04  0.25500000920E-02 0.  1.
    10030    2    1    2    0    0  0.00000000000E+00  0.00000000000E+00 -0.34050303814E+03  0.22078359726E+04  0.21814209504E+04 0.  0.
        1    1    3    3  502    0  0.41898077206E+03 -0.21098724936E+03  0.82634904351E+03  0.95021747431E+03  0.50400001928E-02 0. -1.
       -1    1    3    3    0  502 -0.41898077206E+03  0.21098724936E+03 -0.11668520817E+04  0.12576184983E+04  0.50400001928E-02 0.  1.
</event>
<event>
 5   0  0.1815400E-04  0.2121169E+04  0.7818609E-02  0.8551975E-01
       -2   -1    0    0    0  501  0.00000000000E+00  0.00000000000E+00  0.88372600192E+03  0.88372600192E+03  0.25500000920E-02 0. -1.
        2   -1    0    0  501    0  0.00000000000E+00  0.00000000000E+00 -0.12728374325E+04  0.12728374325E+04  0.25500000920E-02 0.  1.
    10030    2    1    2    0    0  0.00000000000E+00  0.00000000000E+00 -0.38911143055E+03  0.21565634344E+04  0.21211690506E+04 0.  0.
        3    1    3    3  502    0 -0.93605334980E+03  0.18387214278E+03  0.27668103969E+03  0.99325588168E+03  0.10100000352E+00 0. -1.
       -3    1    3    3    0  502  0.93605334980E+03 -0.18387214278E+03 -0.66579247024E+03  0.11633075527E+04  0.10100000352E+00 0.  1.
</event>
<event>
 5   0  0.8525278E-05  0.2114893E+04  0.7818609E-02  0.8554711E-01
       -1   -1    0    0    0  501  0.00000000000E+00  0.00000000000E+00  0.12531838350E+04  0.12531838350E+04  0.50400001928E-02 0. -1.
        1   -1    0    0  501    0  0.00000000000E+00  0.00000000000E+00 -0.89228206793E+03  0.89228206795E+03  0.50400001928E-02 0.  1.
    10030    2    1    2    0    0  0.00000000000E+00  0.00000000000E+00  0.36090176708E+03  0.21454659030E+04  0.21148933437E+04 0.  0.
        4    1    3    3  502    0 -0.53461442465E+03 -0.43501373624E+03  0.99400545454E+03  0.12095858755E+04  0.12699999809E+01 0. -1.
       -4    1    3    3    0  502  0.53461442465E+03  0.43501373624E+03 -0.63310368746E+03  0.93588002743E+03  0.12699999809E+01 0.  1.
</event>
<event>
 5   0  0.8525278E-05  0.2084675E+04  0.7818609E-02  0.8568024E-01
       -1   -1    0    0    0  501  0.00000000000E+00  0.00000000000E+00  0.61227936809E+03  0.61227936811E+03  0.50400001928E-02 0.  1.
        1   -1    0    0  501    0  0.00000000000E+00  0.00000000000E+00 -0.17744644500E+04  0.17744644500E+04  0.50400001928E-02 0. -1.
    10030    2    1    2    0    0  0.00000000000E+00  0.00000000000E+00 -0.11621850819E+04  0.23867438181E+04  0.20846754876E+04 0.  0.
        4    1    3    3  502    0 -0.38100623010E+03  0.44476212696E+03  0.40610510882E+03  0.71267248387E+03  0.12699999809E+01 0.  1.
       -4    1    3    3    0  502  0.38100623010E+03 -0.44476212696E+03 -0.15682901907E+04  0.16740713342E+04  0.12699999809E+01 0. -1.
</event>
<event>
 5   0  0.8237966E-05  0.2143162E+04  0.7818609E-02  0.8542465E-01
        1   -1    0    0  501    0  0.00000000000E+00  0.00000000000E+00  0.10686917213E+04  0.10686917213E+04  0.50400001928E-02 0.  1.
       -1   -1    0    0    0  501  0.00000000000E+00  0.00000000000E+00 -0.10744778836E+04  0.10744778836E+04  0.50400001928E-02 0. -1.
    10030    2    1    2    0    0  0.00000000000E+00  0.00000000000E+00 -0.57861622651E+01  0.21431696049E+04  0.21431617941E+04 0.  0.
        1    1    3    3  502    0 -0.73618174937E+03 -0.34021737102E+03 -0.70330565031E+03  0.10734757871E+04  0.50400001928E-02 0. -1.
       -1    1    3    3    0  502  0.73618174937E+03  0.34021737102E+03  0.69751948804E+03  0.10696938178E+04  0.50400001928E-02 0.  1.
</event>
<event>
 5   0  0.1921687E-04  0.2061660E+04  0.7818609E-02  0.8578323E-01
        2   -1    0    0  501    0  0.00000000000E+00  0.00000000000E+00  0.84189206877E+03  0.84189206878E+03  0.25500000920E-02 0.  1.
       -2   -1    0    0    0  501  0.00000000000E+00  0.00000000000E+00 -0.12621695511E+04  0.12621695511E+04  0.25500000920E-02 0. -1.
    10030    2    1    2    0    0  0.00000000000E+00  0.00000000000E+00 -0.42027748232E+03  0.21040616199E+04  0.20616600443E+04 0.  0.
        5    1    3    3  502    0  0.61899894836E+03  0.78128259027E+03  0.57993213142E+02  0.99847257684E+03  0.46999998093E+01 0.  1.
       -5    1    3    3    0  502 -0.61899894836E+03 -0.78128259027E+03 -0.47827069546E+03  0.11055890430E+04  0.46999998093E+01 0. -1.
</event>
<event>
 5   0  0.8237966E-05  0.2084994E+04  0.7818609E-02  0.8567883E-01
       -1   -1    0    0    0  501  0.00000000000E+00  0.00000000000E+00  0.33015168641E+04  0.33015168641E+04  0.50400001928E-02 0.  1.
        1   -1    0    0  501    0  0.00000000000E+00  0.00000000000E+00 -0.32918189911E+03  0.32918189915E+03  0.50400001928E-02 0. -1.
    10030    2    1    2    0    0  0.00000000000E+00  0.00000000000E+00  0.29723349650E+04  0.36306987632E+04  0.20849936128E+04 0.  0.
        1    1    3    3  502    0  0.53511752650E+03 -0.75765286785E+03  0.23147470272E+04  0.24936804999E+04  0.50400001928E-02 0.  1.
       -1    1    3    3    0  502 -0.53511752650E+03  0.75765286785E+03  0.65758793773E+03  0.11370182634E+04  0.50400001928E-02 0. -1.
</event>
<event>
 5   0  0.1921687E-04  0.2072394E+04  0.7818609E-02  0.8573502E-01
       -2   -1    0    0    0  501  0.00000000000E+00  0.00000000000E+00  0.96659734975E+03  0.96659734975E+03  0.25500000920E-02 0. -1.
        2   -1    0    0  501    0  0.00000000000E+00  0.00000000000E+00 -0.11108082642E+04  0.11108082642E+04  0.25500000920E-02 0.  1.
    10030    2    1    2    0    0  0.00000000000E+00  0.00000000000E+00 -0.14421091450E+03  0.20774056140E+04  0.20723940979E+04 0.  0.
        5    1    3    3  502    0 -0.59654084369E+02 -0.78218874534E+03 -0.75072437675E+03  0.10858116885E+04  0.46999998093E+01 0.  1.
       -5    1    3    3    0  502  0.59654084369E+02  0.78218874534E+03  0.60651346225E+03  0.99159392546E+03  0.46999998093E+01 0. -1.
</event>
<event>
 5   0  0.1810875E-04  0.2077297E+04  0.7818609E-02  0.8571311E-01
        2   -1    0    0  501    0  0.00000000000E+00  0.00000000000E+00  0.46540301065E+03  0.46540301066E+03  0.25500000920E-02 0. -1.
       -2   -1    0    0    0  501  0.00000000000E+00  0.00000000000E+00 -0.23179702436E+04  0.23179702436E+04  0.25500000920E-02 0.  1.
    10030    2    1    2    0    0  0.00000000000E+00  0.00000000000E+00 -0.18525672329E+04  0.27833732542E+04  0.20772966374E+04 0.  0.
        1    1    3    3  502    0 -0.28350703413E+03 -0.94469889773E+03 -0.49012949551E+03  0.11013896532E+04  0.50400001928E-02 0. -1.
       -1    1    3    3    0  502  0.28350703413E+03  0.94469889773E+03 -0.13624377374E+04  0.16819836010E+04  0.50400001928E-02 0.  1.
</event>
<event>
 5   0  0.1777590E-04  0.2101461E+04  0.7818609E-02  0.8560600E-01
       -2   -1    0    0    0  501  0.00000000000E+00  0.00000000000E+00  0.14745297398E+04  0.14745297398E+04  0.25500000920E-02 0.  1.
        2   -1    0    0  501    0  0.00000000000E+00  0.00000000000E+00 -0.74873707424E+03  0.74873707425E+03  0.25500000920E-02 0. -1.
    10030    2    1    2    0    0  0.00000000000E+00  0.00000000000E+00  0.72579266554E+03  0.22232668140E+04  0.21014614755E+04 0.  0.
        4    1    3    3  502    0  0.29531167190E+03 -0.62962234917E+03  0.11962054082E+04  0.13836698586E+04  0.12699999809E+01 0.  1.
       -4    1    3    3    0  502 -0.29531167190E+03  0.62962234917E+03 -0.47041274269E+03  0.83959695540E+03  0.12699999809E+01 0. -1.
</event>
<event>
 5   0  0.1921687E-04  0.2115510E+04  0.7818609E-02  0.8554442E-01
       -2   -1    0    0    0  501  0.00000000000E+00  0.00000000000E+00  0.64450061399E+03  0.64450061399E+03  0.25500000920E-02 0. -1.
        2   -1    0    0  501    0  0.00000000000E+00  0.00000000000E+00 -0.17359882414E+04  0.17359882414E+04  0.25500000920E-02 0.  1.
    10030    2    1    2    0    0  0.00000000000E+00  0.00000000000E+00 -0.10914876274E+04  0.23804888554E+04  0.21155098558E+04 0.  0.
        5    1    3    3  502    0  0.10113240771E+04  0.30607288569E+03 -0.60048257013E+03  0.12153429175E+04  0.46999998093E+01 0. -1.
       -5    1    3    3    0  502 -0.10113240771E+04 -0.30607288569E+03 -0.49100505728E+03  0.11651459378E+04  0.46999998093E+01 0.  1.
</event>
<event>
 5   0  0.8525278E-05  0.2210835E+04  0.7818609E-02  0.8513932E-01
        1   -1    0    0  501    0  0.00000000000E+00  0.00000000000E+00  0.13091648205E+04  0.13091648206E+04  0.50400001928E-02 0.  1.
       -1   -1    0    0    0  501  0.00000000000E+00  0.00000000000E+00 -0.93337973270E+03  0.93337973271E+03  0.50400001928E-02 0. -1.
    10030    2    1    2    0    0  0.00000000000E+00  0.00000000000E+00  0.37578508784E+03  0.22425445533E+04  0.22108350552E+04 0.  0.
        4    1    3    3  502    0 -0.39348559267E+03  0.10292106028E+04  0.98073532559E+02  0.11062212289E+04  0.12699999809E+01 0. -1.
       -4    1    3    3    0  502  0.39348559267E+03 -0.10292106028E+04  0.27771155529E+03  0.11363233243E+04  0.12699999809E+01 0.  1.
</event>
<event>
 5   0  0.1810875E-04  0.2128570E+04  0.7818609E-02  0.8548762E-01
        2   -1    0    0  501    0  0.00000000000E+00  0.00000000000E+00  0.18279406582E+04  0.18279406582E+04  0.25500000920E-02 0. -1.
       -2   -1    0    0    0  501  0.00000000000E+00  0.00000000000E+00 -0.61966031708E+03  0.61966031708E+03  0.25500000920E-02 0.  1.
    10030    2    1    2    0    0  0.00000000000E+00  0.00000000000E+00  0.12082803411E+04  0.24476009753E+04  0.21285697431E+04 0.  0.
        1    1    3    3  502    0 -0.38263611314E+03  0.17425318675E+03  0.17283962914E+04  0.17787996819E+04  0.50400001928E-02 0. -1.
       -1    1    3    3    0  502  0.38263611314E+03 -0.17425318675E+03 -0.52011595032E+03  0.66880129335E+03  0.50400001928E-02 0.  1.
</event>
<event>
 5   0  0.8525278E-05  0.2113325E+04  0.7818609E-02  0.8555396E-01
       -1   -1    0    0    0  501  0.00000000000E+00  0.00000000000E+00  0.71775219795E+03  0.71775219797E+03  0.50400001928E-02 0.  1.
        1   -1    0    0  501    0  0.00000000000E+00  0.00000000000E+00 -0.15556008472E+04  0.15556008472E+04  0.50400001928E-02 0. -1.
    10030    2    1    2    0    0  0.00000000000E+00  0.00000000000E+00 -0.83784864924E+03  0.22733530452E+04  0.21133252729E+04 0.  0.
        4    1    3    3  502    0  0.43625469956E+03  0.79632336021E+03  0.16244934340E+03  0.92241013599E+03  0.12699999809E+01 0.  1.
       -4    1    3    3    0  502 -0.43625469956E+03 -0.79632336021E+03 -0.10002979926E+04  0.13509429092E+04  0.12699999809E+01 0. -1.
</event>
<event>
 5   0  0.8271069E-05  0.1992132E+04  0.7818609E-02  0.8610308E-01
       -1   -1    0    0    0  501  0.00000000000E+00  0.00000000000E+00  0.10426689194E+04  0.10426689194E+04  0.50400001928E-02 0.  1.
        1   -1    0    0  501    0  0.00000000000E+00  0.00000000000E+00 -0.95154642199E+03  0.95154642201E+03  0.50400001928E-02 0. -1.
    10030    2    1    2    0    0  0.00000000000E+00  0.00000000000E+00  0.91122497367E+02  0.19942153414E+04  0.19921324048E+04 0.  0.
        2    1    3    3  502    0 -0.22939545830E+03 -0.11429514883E+03 -0.91797422985E+03  0.95308044992E+03  0.25500000920E-02 0. -1.
       -2    1    3    3    0  502  0.22939545830E+03  0.11429514883E+03  0.10090967272E+04  0.10411348915E+04  0.25500000920E-02 0.  1.
</event>
<event>
 5   0  0.8271069E-05  0.2105247E+04  0.7818609E-02  0.8558936E-01
       -1   -1    0    0    0  501  0.00000000000E+00  0.00000000000E+00  0.17177370179E+04  0.17177370179E+04  0.50400001928E-02 0. -1.
        1   -1    0    0  501    0  0.00000000000E+00  0.00000000000E+00 -0.64504396993E+03  0.64504396995E+03  0.50400001928E-02 0.  1.
    10030    2    1    2    0    0  0.00000000000E+00  0.00000000000E+00  0.10726930480E+04  0.23627809879E+04  0.21052466890E+04 0.  0.
        2    1    3    3  502    0 -0.63293423629E+03 -0.81939441610E+03  0.32339070539E+03  0.10847094104E+04  0.25500000920E-02 0.  1.
       -2    1    3    3    0  502  0.63293423629E+03  0.81939441610E+03  0.74930234258E+03  0.12780715775E+04  0.25500000920E-02 0. -1.
</event>
<event>
 5   0  0.8237966E-05  0.2016928E+04  0.7818609E-02  0.8598747E-01
       -1   -1    0    0    0  501  0.00000000000E+00  0.00000000000E+00  0.53240971643E+03  0.53240971645E+03  0.50400001928E-02 0.  1.
        1   -1    0    0  501    0  0.00000000000E+00  0.00000000000E+00 -0.19101829362E+04  0.19101829362E+04  0.50400001928E-02 0. -1.
    10030    2    1    2    0    0  0.00000000000E+00  0.00000000000E+00 -0.13777732197E+04  0.24425926526E+04  0.20169283135E+04 0.  0.
        1    1    3    3  502    0  0.78883313592E+03  0.54958248192E+03 -0.32016076691E+03  0.10133121619E+04  0.50400001928E-02 0. -1.
       -1    1    3    3    0  502 -0.78883313592E+03 -0.54958248192E+03 -0.10576124528E+04  0.14292804907E+04  0.50400001928E-02 0.  1.
</event>
<event>
 5   0  0.8525278E-05  0.2102678E+04  0.7818609E-02  0.8560065E-01
        1   -1    0    0  501    0  0.00000000000E+00  0.00000000000E+00  0.96154457189E+03  0.96154457191E+03  0.50400001928E-02 0.  1.
       -1   -1    0    0    0  501  0.00000000000E+00  0.00000000000E+00 -0.11495190390E+04  0.11495190390E+04  0.50400001928E-02 0. -1.
    10030    2    1    2    0    0  0.00000000000E+00  0.00000000000E+00 -0.18797446713E+03  0.21110636109E+04  0.21026780945E+04 0.  0.
        4    1    3    3  502    0 -0.60731401798E+03  0.61964354105E+03  0.50211770112E+03  0.10024531077E+04  0.12699999809E+01 0. -1.
       -4    1    3    3    0  502  0.60731401798E+03 -0.61964354105E+03 -0.69009216825E+03  0.11086105033E+04  0.12699999809E+01 0.  1.
</event>
<event>
 5   0  0.1777590E-04  0.2102929E+04  0.7818609E-02  0.8559954E-01
       -2   -1    0    0    0  501  0.00000000000E+00  0.00000000000E+00  0.63104034747E+03  0.63104034748E+03  0.25500000920E-02 0.  1.
        2   -1    0    0  501    0  0.00000000000E+00  0.00000000000E+00 -0.17519921051E+04  0.17519921051E+04  0.25500000920E-02 0. -1.
    10030    2    1    2    0    0  0.00000000000E+00  0.00000000000E+00 -0.11209517576E+04  0.23830324526E+04  0.21029291066E+04 0.  0.
        4    1    3    3  502    0 -0.35427729520E+03  0.99233220585E+02 -0.16766697761E+04  0.17165613257E+04  0.12699999809E+01 0. -1.
       -4    1    3    3    0  502  0.35427729520E+03 -0.99233220585E+02  0.55571801848E+03  0.66647112685E+03  0.12699999809E+01 0.  1.
</event>
<event>
 5   0  0.1777590E-04  0.1907275E+04  0.7818609E-02  0.8651244E-01
        2   -1    0    0  501    0  0.00000000000E+00  0.00000000000E+00  0.21185564710E+04  0.21185564710E+04  0.25500000920E-02 0.  1.
       -2   -1    0    0    0  501  0.00000000000E+00  0.00000000000E+00 -0.42926603077E+03  0.42926603078E+03  0.25500000920E-02 0. -1.
    10030    2    1    2    0    0  0.00000000000E+00  0.00000000000E+00  0.16892904402E+04  0.25478225018E+04  0.19072748384E+04 0.  0.
        4    1    3    3  502    0 -0.30910243778E+03  0.83033470584E+03  0.37344481613E+03  0.96148982541E+03  0.12699999809E+01 0.  1.
       -4    1    3    3    0  502  0.30910243778E+03 -0.83033470584E+03  0.13158456241E+04  0.15863326764E+04  0.12699999809E+01 0. -1.
</event>
<event>
 5   0  0.8486612E-05  0.1991458E+04  0.7818609E-02  0.8610625E-01
        1   -1    0    0  501    0  0.00000000000E+00  0.00000000000E+00  0.10982434616E+04  0.10982434616E+04  0.50400001928E-02 0. -1.
       -1   -1    0    0    0  501  0.00000000000E+00  0.00000000000E+00 -0.90278332981E+03  0.90278332983E+03  0.50400001928E-02 0.  1.
    10030    2    1    2    0    0  0.00000000000E+00  0.00000000000E+00  0.19546013175E+03  0.20010267914E+04  0.19914576462E+04 0.  0.
        5    1    3    3  502    0  0.98814733566E+03 -0.12153153428E+03  0.81883158276E+02  0.99896547107E+03  0.46999998093E+01 0. -1.
       -5    1    3    3    0  502 -0.98814733566E+03  0.12153153428E+03  0.11357697347E+03  0.10020613203E+04  0.46999998093E+01 0.  1.
</event>
<event>
 5   0  0.1886323E-04  0.2096923E+04  0.7818609E-02  0.8562600E-01
        2   -1    0    0  501    0  0.00000000000E+00  0.00000000000E+00  0.72947005162E+03  0.72947005163E+03  0.25500000920E-02 0. -1.
       -2   -1    0    0    0  501  0.00000000000E+00  0.00000000000E+00 -0.15069454556E+04  0.15069454556E+04  0.25500000920E-02 0.  1.
    10030    2    1    2    0    0  0.00000000000E+00  0.00000000000E+00 -0.77747540396E+03  0.22364155072E+04  0.20969230594E+04 0.  0.
        2    1    3    3  502    0  0.19012002736E+03  0.80896045725E+03 -0.10705692069E+04  0.13552420717E+04  0.25500000920E-02 0.  1.
       -2    1    3    3    0  502 -0.19012002736E+03 -0.80896045725E+03  0.29309380289E+03  0.88117343553E+03  0.25500000920E-02 0. -1.
</event>
<event>
 5   0  0.8486612E-05  0.2108945E+04  0.7818609E-02  0.8557313E-01
        1   -1    0    0  501    0  0.00000000000E+00  0.00000000000E+00  0.16842688419E+04  0.16842688419E+04  0.50400001928E-02 0. -1.
       -1   -1    0    0    0  501  0.00000000000E+00  0.00000000000E+00 -0.66017514249E+03  0.66017514251E+03  0.50400001928E-02 0.  1.
    10030    2    1    2    0    0  0.00000000000E+00  0.00000000000E+00  0.10240936994E+04  0.23444439844E+04  0.21089451607E+04 0.  0.
        5    1    3    3  502    0 -0.19068057484E+01  0.25522112993E+03  0.16494012823E+04  0.16690380885E+04  0.46999998093E+01 0. -1.
       -5    1    3    3    0  502  0.19068057484E+01 -0.25522112993E+03 -0.62530758283E+03  0.67540589589E+03  0.46999998093E+01 0.  1.
</event>
<event>
 5   0  0.1810875E-04  0.2075374E+04  0.7818609E-02  0.8572170E-01
        2   -1    0    0  501    0  0.00000000000E+00  0.00000000000E+00  0.13801327517E+04  0.13801327517E+04  0.25500000920E-02 0.  1.
       -2   -1    0    0    0  501  0.00000000000E+00  0.00000000000E+00 -0.78021059328E+03  0.78021059329E+03  0.25500000920E-02 0. -1.
    10030    2    1    2    0    0  0.00000000000E+00  0.00000000000E+00  0.59992215838E+03  0.21603433450E+04  0.20753738873E+04 0.  0.
        1    1    3    3  502    0  0.17280544500E+03 -0.86811354599E+03  0.86371666774E+03  0.12367252454E+04  0.50400001928E-02 0.  1.
       -1    1    3    3    0  502 -0.17280544500E+03  0.86811354599E+03 -0.26379450936E+03  0.92361809951E+03  0.50400001928E-02 0. -1.
</event>
<event>
 5   0  0.1777590E-04  0.2155774E+04  0.7818609E-02  0.8537065E-01
        2   -1    0    0  501    0  0.00000000000E+00  0.00000000000E+00  0.23845243645E+04  0.23845243645E+04  0.25500000920E-02 0.  1.
       -2   -1    0    0    0  501  0.00000000000E+00  0.00000000000E+00 -0.48724213270E+03  0.48724213270E+03  0.25500000920E-02 0. -1.
    10030    2    1    2    0    0  0.00000000000E+00  0.00000000000E+00  0.18972822318E+04  0.28717664972E+04  0.21557743266E+04 0.  0.
        4    1    3    3  502    0  0.42950020110E+03  0.77762241890E+03  0.17618633699E+04  0.19731526034E+04  0.12699999809E+01 0.  1.
       -4    1    3    3    0  502 -0.42950020110E+03 -0.77762241890E+03  0.13541886191E+03  0.89861389383E+03  0.12699999809E+01 0. -1.
</event>
<event>
 5   0  0.8486612E-05  0.2156403E+04  0.7818609E-02  0.8536796E-01
       -1   -1    0    0    0  501  0.00000000000E+00  0.00000000000E+00  0.88696074316E+03  0.88696074318E+03  0.50400001928E-02 0. -1.
        1   -1    0    0  501    0  0.00000000000E+00  0.00000000000E+00 -0.13106765254E+04  0.13106765254E+04  0.50400001928E-02 0.  1.
    10030    2    1    2    0    0  0.00000000000E+00  0.00000000000E+00 -0.42371578221E+03  0.21976372686E+04  0.21564031395E+04 0.  0.
        5    1    3    3  502    0 -0.91661290150E+03  0.27596999424E+03 -0.71748800671E+03  0.11963067243E+04  0.46999998093E+01 0. -1.
       -5    1    3    3    0  502  0.91661290150E+03 -0.27596999424E+03  0.29377222449E+03  0.10013305442E+04  0.46999998093E+01 0.  1.
</event>
<event>
 5   0  0.1777590E-04  0.2083865E+04  0.7818609E-02  0.8568384E-01
       -2   -1    0    0    0  501  0.00000000000E+00  0.00000000000E+00  0.64961579586E+03  0.64961579586E+03  0.25500000920E-02 0. -1.
        2   -1    0    0  501    0  0.00000000000E+00  0.00000000000E+00 -0.16711775207E+04  0.16711775207E+04  0.25500000920E-02 0.  1.
    10030    2    1    2    0    0  0.00000000000E+00  0.00000000000E+00 -0.10215617248E+04  0.23207933165E+04  0.20838649813E+04 0.  0.
        4    1    3    3  502    0 -0.45570504312E+03 -0.22167721519E+03  0.50311974384E+03  0.71410010755E+03  0.12699999809E+01 0. -1.
       -4    1    3    3    0  502  0.45570504312E+03  0.22167721519E+03 -0.15246814687E+04  0.16066932090E+04  0.12699999809E+01 0.  1.
</event>
<event>
 5   0  0.1921687E-04  0.2095611E+04  0.7818609E-02  0.8563179E-01
       -2   -1    0    0    0  501  0.00000000000E+00  0.00000000000E+00  0.10302261209E+04  0.10302261209E+04  0.25500000920E-02 0. -1.
        2   -1    0    0  501    0  0.00000000000E+00  0.00000000000E+00 -0.10656851690E+04  0.10656851690E+04  0.25500000920E-02 0.  1.
    10030    2    1    2    0    0  0.00000000000E+00  0.00000000000E+00 -0.35459048144E+02  0.20959112899E+04  0.20956113168E+04 0.  0.
        5    1    3    3  502    0  0.51235788981E+03 -0.87671967803E+03 -0.27608143723E+03  0.10523264945E+04  0.46999998093E+01 0.  1.
       -5    1    3    3    0  502 -0.51235788981E+03  0.87671967803E+03  0.24062238909E+03  0.10435847954E+04  0.46999998093E+01 0. -1.
</event>
<event>
 5   0  0.1810875E-04  0.2055521E+04  0.7818609E-02  0.8581094E-01
        2   -1    0    0  501    0  0.00000000000E+00  0.00000000000E+00  0.13812908119E+04  0.13812908119E+04  0.25500000920E-02 0. -1.
       -2   -1    0    0    0  501  0.00000000000E+00  0.00000000000E+00 -0.76471324583E+03  0.76471324583E+03  0.25500000920E-02 0.  1.
    10030    2    1    2    0    0  0.00000000000E+00  0.00000000000E+00  0.61657756608E+03  0.21460040577E+04  0.20555207420E+04 0.  0.
        1    1    3    3  502    0  0.61096182127E+02  0.70244920156E+03 -0.47237251198E+03  0.84870690721E+03  0.50400001928E-02 0.  1.
       -1    1    3    3    0  502 -0.61096182127E+02 -0.70244920156E+03  0.10889500781E+04  0.12972971505E+04  0.50400001928E-02 0. -1.
</event>
<event>
 5   0  0.8525278E-05  0.2106376E+04  0.7818609E-02  0.8558440E-01
        1   -1    0    0  501    0  0.00000000000E+00  0.00000000000E+00  0.19251983592E+04  0.19251983592E+04  0.50400001928E-02 0. -1.
       -1   -1    0    0    0  501  0.00000000000E+00  0.00000000000E+00 -0.57615075865E+03  0.57615075867E+03  0.50400001928E-02 0.  1.
    10030    2    1    2    0    0  0.00000000000E+00  0.00000000000E+00  0.13490476005E+04  0.25013491179E+04  0.21063755555E+04 0.  0.
        4    1    3    3  502    0 -0.45280338510E+03  0.14019859727E+03 -0.44231741560E+03  0.64833082703E+03  0.12699999809E+01 0.  1.
       -4    1    3    3    0  502  0.45280338510E+03 -0.14019859727E+03  0.17913650161E+04  0.18530182908E+04  0.12699999809E+01 0. -1.
</event>
<event>
 5   0  0.1810875E-04  0.2089155E+04  0.7818609E-02  0.8566036E-01
       -2   -1    0    0    0  501  0.00000000000E+00  0.00000000000E+00  0.65399802548E+03  0.65399802549E+03  0.25500000920E-02 0. -1.
        2   -1    0    0  501    0  0.00000000000E+00  0.00000000000E+00 -0.16684182909E+04  0.16684182909E+04  0.25500000920E-02 0.  1.
    10030    2    1    2    0    0  0.00000000000E+00  0.00000000000E+00 -0.10144202654E+04  0.23224163164E+04  0.20891551096E+04 0.  0.
        1    1    3    3  502    0 -0.18497761747E+03 -0.44170582018E+03  0.52478596507E+03  0.71043723137E+03  0.50400001928E-02 0. -1.
       -1    1    3    3    0  502  0.18497761747E+03  0.44170582018E+03 -0.15392062305E+04  0.16119790850E+04  0.50400001928E-02 0.  1.
</event>
<event>
 5   0  0.8271069E-05  0.2106827E+04  0.7818609E-02  0.8558242E-01
        1   -1    0    0  501    0  0.00000000000E+00  0.00000000000E+00  0.24520318627E+04  0.24520318627E+04  0.50400001928E-02 0.  1.
       -1   -1    0    0    0  501  0.00000000000E+00  0.00000000000E+00 -0.45255515842E+03  0.45255515844E+03  0.50400001928E-02 0. -1.
    10030    2    1    2    0    0  0.00000000000E+00  0.00000000000E+00  0.19994767043E+04  0.29045870211E+04  0.21068266831E+04 0.  0.
        2    1    3    3  502    0 -0.84698377673E+03 -0.36276350593E+03  0.17036639445E+04  0.19368659518E+04  0.25500000920E-02 0.  1.
       -2    1    3    3    0  502  0.84698377673E+03  0.36276350593E+03  0.29581275977E+03  0.96772106938E+03  0.25500000920E-02 0. -1.
</event>
<event>
 5   0  0.1815400E-04  0.2070211E+04  0.7818609E-02  0.8574481E-01
        2   -1    0    0  501    0  0.00000000000E+00  0.00000000000E+00  0.10820250727E+04  0.10820250727E+04  0.25500000920E-02 0.  1.
       -2   -1    0    0    0  501  0.00000000000E+00  0.00000000000E+00 -0.99022006938E+03  0.99022006939E+03  0.25500000920E-02 0. -1.
    10030    2    1    2    0    0  0.00000000000E+00  0.00000000000E+00  0.91805003277E+02  0.20722451421E+04  0.20702105618E+04 0.  0.
        3    1    3    3  502    0  0.91385829321E+03  0.40516570578E+03 -0.22296286018E+03  0.10242112460E+04  0.10100000352E+00 0.  1.
       -3    1    3    3    0  502 -0.91385829321E+03 -0.40516570578E+03  0.31476786346E+03  0.10480338961E+04  0.10100000352E+00 0. -1.
</event>
<event>
 5   0  0.8525278E-05  0.2134015E+04  0.7818609E-02  0.8546406E-01
        1   -1    0    0  501    0  0.00000000000E+00  0.00000000000E+00  0.10243266414E+04  0.10243266414E+04  0.50400001928E-02 0. -1.
       -1   -1    0    0    0  501  0.00000000000E+00  0.00000000000E+00 -0.11114669260E+04  0.11114669260E+04  0.50400001928E-02 0.  1.
    10030    2    1    2    0    0  0.00000000000E+00  0.00000000000E+00 -0.87140284554E+02  0.21357935674E+04  0.21340151671E+04 0.  0.
        4    1    3    3  502    0  0.82548836093E+03  0.22787990567E+03 -0.68060925080E+03  0.10938879516E+04  0.12699999809E+01 0.  1.
       -4    1    3    3    0  502 -0.82548836093E+03 -0.22787990567E+03  0.59346896624E+03  0.10419056158E+04  0.12699999809E+01 0. -1.
</event>
<event>
 5   0  0.8237966E-05  0.2079610E+04  0.7818609E-02  0.8570279E-01
        1   -1    0    0  501    0  0.00000000000E+00  0.00000000000E+00  0.11669764094E+04  0.11669764094E+04  0.50400001928E-02 0. -1.
       -1   -1    0    0    0  501  0.00000000000E+00  0.00000000000E+00 -0.92649217214E+03  0.92649217216E+03  0.50400001928E-02 0.  1.
    10030    2    1    2    0    0  0.00000000000E+00  0.00000000000E+00  0.24048423721E+03  0.20934685815E+04  0.20796100676E+04 0.  0.
        1    1    3    3  502    0  0.10198034067E+04 -0.20131312625E+03  0.14627066734E+03  0.10497242834E+04  0.50400001928E-02 0.  1.
       -1    1    3    3    0  502 -0.10198034067E+04  0.20131312625E+03  0.94213569868E+02  0.10437442981E+04  0.50400001928E-02 0. -1.
</event>
<event>
 5   0  0.1810875E-04  0.2087553E+04  0.7818609E-02  0.8566746E-01
       -2   -1    0    0    0  501  0.00000000000E+00  0.00000000000E+00  0.93030520896E+03  0.93030520896E+03  0.25500000920E-02 0. -1.
        2   -1    0    0  501    0  0.00000000000E+00  0.00000000000E+00 -0.11710879578E+04  0.11710879578E+04  0.25500000920E-02 0.  1.
    10030    2    1    2    0    0  0.00000000000E+00  0.00000000000E+00 -0.24078274882E+03  0.21013931667E+04  0.20875528518E+04 0.  0.
        1    1    3    3  502    0 -0.28460412626E+02  0.62439947357E+03 -0.96186687654E+03  0.11471148966E+04  0.50400001928E-02 0.  1.
       -1    1    3    3    0  502  0.28460412626E+02 -0.62439947357E+03  0.72108412772E+03  0.95427827019E+03  0.50400001928E-02 0. -1.
</event>
<event>
 5   0  0.1777590E-04  0.1706631E+04  0.7818609E-02  0.8757591E-01
        2   -1    0    0  501    0  0.00000000000E+00  0.00000000000E+00  0.16767468641E+04  0.16767468641E+04  0.25500000920E-02 0. -1.
       -2   -1    0    0    0  501  0.00000000000E+00  0.00000000000E+00 -0.43426205451E+03  0.43426205451E+03  0.25500000920E-02 0.  1.
    10030    2    1    2    0    0  0.00000000000E+00  0.00000000000E+00  0.12424848095E+04  0.21110089186E+04  0.17066312292E+04 0.  0.
        4    1    3    3  502    0 -0.10742544121E+02 -0.94477544289E+02 -0.42768730852E+03  0.43813177858E+03  0.12699999809E+01 0.  1.
       -4    1    3    3    0  502  0.10742544121E+02  0.94477544289E+02  0.16701721181E+04  0.16728771400E+04  0.12699999809E+01 0. -1.
</event>
<event>
 5   0  0.8486612E-05  0.2228539E+04  0.7818609E-02  0.8506643E-01
       -1   -1    0    0    0  501  0.00000000000E+00  0.00000000000E+00  0.31839067145E+04  0.31839067145E+04  0.50400001928E-02 0. -1.
        1   -1    0    0  501    0  0.00000000000E+00  0.00000000000E+00 -0.38995998878E+03  0.38995998882E+03  0.50400001928E-02 0.  1.
    10030    2    1    2    0    0  0.00000000000E+00  0.00000000000E+00  0.27939467257E+04  0.35738667033E+04  0.22285387380E+04 0.  0.
        5    1    3    3  502    0  0.20743030930E+03 -0.38664401594E+03  0.30395170174E+04  0.30710269809E+04  0.46999998093E+01 0. -1.
       -5    1    3    3    0  502 -0.20743030930E+03  0.38664401594E+03 -0.24557029170E+03  0.50283972242E+03  0.46999998093E+01 0.  1.
</event>
<event>
 5   0  0.1810875E-04  0.2130124E+04  0.7818609E-02  0.8548088E-01
       -2   -1    0    0    0  501  0.00000000000E+00  0.00000000000E+00  0.39351119955E+03  0.39351119956E+03  0.25500000920E-02 0.  1.
        2   -1    0    0  501    0  0.00000000000E+00  0.00000000000E+00 -0.28826561893E+04  0.28826561893E+04  0.25500000920E-02 0. -1.
    10030    2    1    2    0    0  0.00000000000E+00  0.00000000000E+00 -0.24891449898E+04  0.32761673889E+04  0.21301244048E+04 0.  0.
        1    1    3    3  502    0  0.73063793367E+03 -0.48069817730E+03 -0.21794223602E+04  0.23483577990E+04  0.50400001928E-02 0. -1.
       -1    1    3    3    0  502 -0.73063793367E+03  0.48069817730E+03 -0.30972262951E+03  0.92780958986E+03  0.50400001928E-02 0.  1.
</event>
<event>
 5   0  0.1815400E-04  0.1858593E+04  0.7818609E-02  0.8675746E-01
       -2   -1    0    0    0  501  0.00000000000E+00  0.00000000000E+00  0.11570495685E+04  0.11570495685E+04  0.25500000920E-02 0. -1.
        2   -1    0    0  501    0  0.00000000000E+00  0.00000000000E+00 -0.74637461043E+03  0.74637461043E+03  0.25500000920E-02 0.  1.
    10030    2    1    2    0    0  0.00000000000E+00  0.00000000000E+00  0.41067495807E+03  0.19034241789E+04  0.18585934692E+04 0.  0.
        3    1    3    3  502    0  0.49741462143E+02 -0.92467327375E+03  0.12536725589E+03  0.93445804363E+03  0.10100000352E+00 0.  1.
       -3    1    3    3    0  502 -0.49741462143E+02  0.92467327375E+03  0.28530770218E+03  0.96896613531E+03  0.10100000352E+00 0. -1.
</event>
<event>
 5   0  0.8237966E-05  0.2200232E+04  0.7818609E-02  0.8518332E-01
        1   -1    0    0  501    0  0.00000000000E+00  0.00000000000E+00  0.10192684207E+04  0.10192684207E+04  0.50400001928E-02 0.  1.
       -1   -1    0    0    0  501  0.00000000000E+00  0.00000000000E+00 -0.11873758412E+04  0.11873758412E+04  0.50400001928E-02 0. -1.
    10030    2    1    2    0    0  0.00000000000E+00  0.00000000000E+00 -0.16810742044E+03  0.22066442619E+04  0.22002315319E+04 0.  0.
        1    1    3    3  502    0 -0.10597623682E+04 -0.25396653280E+02 -0.37904263441E+03  0.11257950905E+04  0.50400001928E-02 0. -1.
       -1    1    3    3    0  502  0.10597623682E+04  0.25396653280E+02  0.21093521396E+03  0.10808491715E+04  0.50400001928E-02 0.  1.
</event>
<event>
 5   0  0.8237966E-05  0.2099537E+04  0.7818609E-02  0.8561447E-01
       -1   -1    0    0    0  501  0.00000000000E+00  0.00000000000E+00  0.67925021920E+03  0.67925021922E+03  0.50400001928E-02 0. -1.
        1   -1    0    0  501    0  0.00000000000E+00  0.00000000000E+00 -0.16223975767E+04  0.16223975767E+04  0.50400001928E-02 0.  1.
    10030    2    1    2    0    0  0.00000000000E+00  0.00000000000E+00 -0.94314735749E+03  0.23016477959E+04  0.20995370057E+04 0.  0.
        1    1    3    3  502    0  0.68419076135E+03 -0.34188532508E+03 -0.12598261965E+04  0.14738265226E+04  0.50400001928E-02 0.  1.
       -1    1    3    3    0  502 -0.68419076135E+03  0.34188532508E+03  0.31667883899E+03  0.82782127329E+03  0.50400001928E-02 0. -1.
</event>
<event>
 5   0  0.8755004E-05  0.2820245E+04  0.7818609E-02  0.8297011E-01
        1   -1    0    0  501    0  0.00000000000E+00  0.00000000000E+00  0.16041296842E+04  0.16041296842E+04  0.50400001928E-02 0.  1.
       -1   -1    0    0    0  501  0.00000000000E+00  0.00000000000E+00 -0.12395788469E+04  0.12395788469E+04  0.50400001928E-02 0. -1.
    10030    2    1    2    0    0  0.00000000000E+00  0.00000000000E+00  0.36455083737E+03  0.28437085311E+04  0.28202448292E+04 0.  0.
        3    1    3    3  502    0 -0.12691677544E+04 -0.58685606415E+03 -0.16106590109E+01  0.13982808849E+04  0.10100000352E+00 0.  1.
       -3    1    3    3    0  502  0.12691677544E+04  0.58685606415E+03  0.36616149638E+03  0.14454276462E+04  0.10100000352E+00 0. -1.
</event>
<event>
 5   0  0.8486612E-05  0.2096361E+04  0.7818609E-02  0.8562848E-01
       -1   -1    0    0    0  501  0.00000000000E+00  0.00000000000E+00  0.15479416675E+04  0.15479416675E+04  0.50400001928E-02 0. -1.
        1   -1    0    0  501    0  0.00000000000E+00  0.00000000000E+00 -0.70977018620E+03  0.70977018622E+03  0.50400001928E-02 0.  1.
    10030    2    1    2    0    0  0.00000000000E+00  0.00000000000E+00  0.83817148125E+03  0.22577118537E+04  0.20963614627E+04 0.  0.
        5    1    3    3  502    0  0.25932068998E+02 -0.89235592279E+03  0.10106231574E+04  0.13484631332E+04  0.46999998093E+01 0. -1.
       -5    1    3    3    0  502 -0.25932068998E+02  0.89235592279E+03 -0.17245167618E+03  0.90924872052E+03  0.46999998093E+01 0.  1.
</event>
<event>
 5   0  0.8486612E-05  0.1447789E+04  0.7818609E-02  0.8919935E-01
       -1   -1    0    0    0  501  0.00000000000E+00  0.00000000000E+00  0.65423966986E+03  0.65423966988E+03  0.50400001928E-02 0.  1.
        1   -1    0    0  501    0  0.00000000000E+00  0.00000000000E+00 -0.80096544424E+03  0.80096544425E+03  0.50400001928E-02 0. -1.
    10030    2    1    2    0    0  0.00000000000E+00  0.00000000000E+00 -0.14672577438E+03  0.14552051141E+04  0.14477891667E+04 0.  0.
        5    1    3    3  502    0 -0.54792635765E+03  0.10125823975E+03 -0.53781720438E+03  0.77443266967E+03  0.46999998093E+01 0. -1.
       -5    1    3    3    0  502  0.54792635765E+03 -0.10125823975E+03  0.39109143000E+03  0.68077244446E+03  0.46999998093E+01 0.  1.
</event>
<event>
 5   0  0.1777590E-04  0.1906465E+04  0.7818609E-02  0.8651645E-01
        2   -1    0    0  501    0  0.00000000000E+00  0.00000000000E+00  0.15818909908E+04  0.15818909908E+04  0.25500000920E-02 0.  1.
       -2   -1    0    0    0  501  0.00000000000E+00  0.00000000000E+00 -0.57440906107E+03  0.57440906108E+03  0.25500000920E-02 0. -1.
    10030    2    1    2    0    0  0.00000000000E+00  0.00000000000E+00  0.10074819298E+04  0.21563000519E+04  0.19064653354E+04 0.  0.
        4    1    3    3  502    0  0.71616961752E+02 -0.79205892886E+03 -0.90639134997E+02  0.80043950533E+03  0.12699999809E+01 0. -1.
       -4    1    3    3    0  502 -0.71616961752E+02  0.79205892886E+03  0.10981210648E+04  0.13558605466E+04  0.12699999809E+01 0.  1.
</event>
<event>
 5   0  0.1810875E-04  0.1682077E+04  0.7818609E-02  0.8771653E-01
       -2   -1    0    0    0  501  0.00000000000E+00  0.00000000000E+00  0.58490625446E+03  0.58490625446E+03  0.25500000920E-02 0.  1.
        2   -1    0    0  501    0  0.00000000000E+00  0.00000000000E+00 -0.12093318369E+04  0.12093318369E+04  0.25500000920E-02 0. -1.
    10030    2    1    2    0    0  0.00000000000E+00  0.00000000000E+00 -0.62442558241E+03  0.17942380913E+04  0.16820769960E+04 0.  0.
        1    1    3    3  502    0  0.10706625532E+02 -0.70431843666E+03  0.17795738033E+03  0.72653143173E+03  0.50400001928E-02 0.  1.
       -1    1    3    3    0  502 -0.10706625532E+02  0.70431843666E+03 -0.80238296275E+03  0.10677066596E+04  0.50400001928E-02 0. -1.
</event>
<event>
 5   0  0.8271069E-05  0.2085399E+04  0.7818609E-02  0.8567703E-01
       -1   -1    0    0    0  501  0.00000000000E+00  0.00000000000E+00  0.49424320577E+03  0.49424320579E+03  0.50400001928E-02 0.  1.
        1   -1    0    0  501    0  0.00000000000E+00  0.00000000000E+00 -0.21997707345E+04  0.21997707345E+04  0.50400001928E-02 0. -1.
    10030    2    1    2    0    0  0.00000000000E+00  0.00000000000E+00 -0.17055275287E+04  0.26940139403E+04  0.20853985133E+04 0.  0.
        2    1    3    3  502    0  0.25708301141E+03  0.55704751397E+03 -0.19419272742E+04  0.20365350834E+04  0.25500000920E-02 0. -1.
       -2    1    3    3    0  502 -0.25708301141E+03 -0.55704751397E+03  0.23639974550E+03  0.65747885689E+03  0.25500000920E-02 0.  1.
</event>
<event>
 5   0  0.1921687E-04  0.2508098E+04  0.7818609E-02  0.8400106E-01
        2   -1    0    0  501    0  0.00000000000E+00  0.00000000000E+00  0.15142411785E+04  0.15142411785E+04  0.25500000920E-02 0.  1.
       -2   -1    0    0    0  501  0.00000000000E+00  0.00000000000E+00 -0.10385655741E+04  0.10385655741E+04  0.25500000920E-02 0. -1.
    10030    2    1    2    0    0  0.00000000000E+00  0.00000000000E+00  0.47567560443E+03  0.25528067526E+04  0.25080978919E+04 0.  0.
        5    1    3    3  502    0  0.57135251363E+03 -0.28089957369E+03  0.13374987994E+04  0.14813080010E+04  0.46999998093E+01 0.  1.
       -5    1    3    3    0  502 -0.57135251363E+03  0.28089957369E+03 -0.86182319495E+03  0.10714987516E+04  0.46999998093E+01 0. -1.
</event>
<event>
 5   0  0.8271069E-05  0.2104967E+04  0.7818609E-02  0.8559058E-01
        1   -1    0    0  501    0  0.00000000000E+00  0.00000000000E+00  0.96611028883E+03  0.96611028884E+03  0.50400001928E-02 0. -1.
       -1   -1    0    0    0  501  0.00000000000E+00  0.00000000000E+00 -0.11465788745E+04  0.11465788745E+04  0.50400001928E-02 0.  1.
    10030    2    1    2    0    0  0.00000000000E+00  0.00000000000E+00 -0.18046858564E+03  0.21126891633E+04  0.21049671234E+04 0.  0.
        2    1    3    3  502    0  0.47616327316E+03  0.59229851205E+03  0.64056640037E+03  0.99391866034E+03  0.25500000920E-02 0. -1.
       -2    1    3    3    0  502 -0.47616327316E+03 -0.59229851205E+03 -0.82103498601E+03  0.11187705030E+04  0.25500000920E-02 0.  1.
</event>
<event>
 5   0  0.1886323E-04  0.2049784E+04  0.7818609E-02  0.8583692E-01
       -2   -1    0    0    0  501  0.00000000000E+00  0.00000000000E+00  0.66032773424E+03  0.66032773424E+03  0.25500000920E-02 0.  1.
        2   -1    0    0  501    0  0.00000000000E+00  0.00000000000E+00 -0.15907313741E+04  0.15907313741E+04  0.25500000920E-02 0. -1.
    10030    2    1    2    0    0  0.00000000000E+00  0.00000000000E+00 -0.93040363986E+03  0.22510591083E+04  0.20497844219E+04 0.  0.
        2    1    3    3  502    0 -0.34248749629E+03 -0.50128005687E+03 -0.13720092377E+04  0.15003295401E+04  0.25500000920E-02 0. -1.
       -2    1    3    3    0  502  0.34248749629E+03  0.50128005687E+03  0.44160559787E+03  0.75072956822E+03  0.25500000920E-02 0.  1.
</event>
<event>
 5   0  0.1815400E-04  0.1954323E+04  0.7818609E-02  0.8628279E-01
        2   -1    0    0  501    0  0.00000000000E+00  0.00000000000E+00  0.17849482259E+04  0.17849482259E+04  0.25500000920E-02 0.  1.
       -2   -1    0    0    0  501  0.00000000000E+00  0.00000000000E+00 -0.53494226915E+03  0.53494226916E+03  0.25500000920E-02 0. -1.
    10030    2    1    2    0    0  0.00000000000E+00  0.00000000000E+00  0.12500059567E+04  0.23198904950E+04  0.19543226492E+04 0.  0.
        3    1    3    3  502    0  0.89296407224E+03  0.31329961928E+03  0.91407673564E+03  0.13157042884E+04  0.10100000352E+00 0.  1.
       -3    1    3    3    0  502 -0.89296407224E+03 -0.31329961928E+03  0.33592922108E+03  0.10041862066E+04  0.10100000352E+00 0. -1.
</event>
<event>
 5   0  0.1810875E-04  0.2094456E+04  0.7818609E-02  0.8563689E-01
        2   -1    0    0  501    0  0.00000000000E+00  0.00000000000E+00  0.11114622806E+04  0.11114622806E+04  0.25500000920E-02 0.  1.
       -2   -1    0    0    0  501  0.00000000000E+00  0.00000000000E+00 -0.98670621412E+03  0.98670621412E+03  0.25500000920E-02 0. -1.
    10030    2    1    2    0    0  0.00000000000E+00  0.00000000000E+00  0.12475606650E+03  0.20981684947E+04  0.20944562436E+04 0.  0.
        1    1    3    3  502    0 -0.55103739094E+03  0.19545947910E+03  0.93273329407E+03  0.11008351430E+04  0.50400001928E-02 0.  1.
       -1    1    3    3    0  502  0.55103739094E+03 -0.19545947910E+03 -0.80797722757E+03  0.99733335173E+03  0.50400001928E-02 0. -1.
</event>
<event>
 5   0  0.1777590E-04  0.2115626E+04  0.7818609E-02  0.8554391E-01
        2   -1    0    0  501    0  0.00000000000E+00  0.00000000000E+00  0.92518180691E+03  0.92518180692E+03  0.25500000920E-02 0. -1.
       -2   -1    0    0    0  501  0.00000000000E+00  0.00000000000E+00 -0.12094579066E+04  0.12094579066E+04  0.25500000920E-02 0.  1.
    10030    2    1    2    0    0  0.00000000000E+00  0.00000000000E+00 -0.28427609968E+03  0.21346397135E+04  0.21156261025E+04 0.  0.
        4    1    3    3  502    0 -0.87564135434E+03  0.54836273440E+03 -0.37115229875E+03  0.10978183418E+04  0.12699999809E+01 0.  1.
       -4    1    3    3    0  502  0.87564135434E+03 -0.54836273440E+03  0.86876199064E+02  0.10368213717E+04  0.12699999809E+01 0. -1.
</event>
<event>
 5   0  0.8486612E-05  0.2098685E+04  0.7818609E-02  0.8561823E-01
       -1   -1    0    0    0  501  0.00000000000E+00  0.00000000000E+00  0.72616551920E+03  0.72616551922E+03  0.50400001928E-02 0. -1.
        1   -1    0    0  501    0  0.00000000000E+00  0.00000000000E+00 -0.15163474975E+04  0.15163474975E+04  0.50400001928E-02 0.  1.
    10030    2    1    2    0    0  0.00000000000E+00  0.00000000000E+00 -0.79018197834E+03  0.22425130168E+04  0.20986846051E+04 0.  0.
        5    1    3    3  502    0  0.85926603219E+03 -0.38673323816E+02  0.24715263429E+03  0.89495265500E+03  0.46999998093E+01 0. -1.
       -5    1    3    3    0  502 -0.85926603219E+03  0.38673323816E+02 -0.10373346126E+04  0.13475603618E+04  0.46999998093E+01 0.  1.
</event>
<event>
 5   0  0.8525278E-05  0.2113404E+04  0.7818609E-02  0.8555362E-01
        1   -1    0    0  501    0  0.00000000000E+00  0.00000000000E+00  0.78664227901E+03  0.78664227903E+03  0.50400001928E-02 0. -1.
       -1   -1    0    0    0  501  0.00000000000E+00  0.00000000000E+00 -0.14194753512E+04  0.14194753512E+04  0.50400001928E-02 0.  1.
    10030    2    1    2    0    0  0.00000000000E+00  0.00000000000E+00 -0.63283307222E+03  0.22061176303E+04  0.21134041973E+04 0.  0.
        4    1    3    3  502    0  0.76931156460E+02 -0.28317903975E+03 -0.13760898117E+04  0.14070300474E+04  0.12699999809E+01 0.  1.
       -4    1    3    3    0  502 -0.76931156460E+02  0.28317903975E+03  0.74325673951E+03  0.79908758288E+03  0.12699999809E+01 0. -1.
</event>
<event>
 5   0  0.6441125E-05  0.2047429E+04  0.7818609E-02  0.8584762E-01
        3   -1    0    0  501    0  0.00000000000E+00  0.00000000000E+00  0.20698262360E+04  0.20698262384E+04  0.10100000352E+00 0.  1.
       -3   -1    0    0    0  501  0.00000000000E+00  0.00000000000E+00 -0.50631842199E+03  0.50631843207E+03  0.10100000352E+00 0. -1.
    10030    2    1    2    0    0  0.00000000000E+00  0.00000000000E+00  0.15635078140E+04  0.25761446705E+04  0.20474287970E+04 0.  0.
        2    1    3    3  502    0  0.18504342924E+03  0.29149980355E+03  0.19943534281E+04  0.20240204550E+04  0.25500000920E-02 0.  1.
       -2    1    3    3    0  502 -0.18504342924E+03 -0.29149980355E+03 -0.43084561408E+03  0.55212421551E+03  0.25500000920E-02 0. -1.
</event>
<event>
 5   0  0.1815400E-04  0.2145243E+04  0.7818609E-02  0.8541571E-01
        2   -1    0    0  501    0  0.00000000000E+00  0.00000000000E+00  0.17109309472E+04  0.17109309472E+04  0.25500000920E-02 0. -1.
       -2   -1    0    0    0  501  0.00000000000E+00  0.00000000000E+00 -0.67245097048E+03  0.67245097049E+03  0.25500000920E-02 0.  1.
    10030    2    1    2    0    0  0.00000000000E+00  0.00000000000E+00  0.10384799767E+04  0.23833819177E+04  0.21452432737E+04 0.  0.
        3    1    3    3  502    0  0.98240256231E+03 -0.86305074424E+02  0.50566129225E+02  0.98748179929E+03  0.10100000352E+00 0.  1.
       -3    1    3    3    0  502 -0.98240256231E+03  0.86305074424E+02  0.98791384750E+03  0.13959001184E+04  0.10100000352E+00 0. -1.
</event>
<event>
 5   0  0.1886323E-04  0.2288046E+04  0.7818609E-02  0.8482649E-01
       -2   -1    0    0    0  501  0.00000000000E+00  0.00000000000E+00  0.11170220632E+04  0.11170220632E+04  0.25500000920E-02 0.  1.
        2   -1    0    0  501    0  0.00000000000E+00  0.00000000000E+00 -0.11716765953E+04  0.11716765953E+04  0.25500000920E-02 0. -1.
    10030    2    1    2    0    0  0.00000000000E+00  0.00000000000E+00 -0.54654532116E+02  0.22886986584E+04  0.22880459854E+04 0.  0.
        2    1    3    3  502    0  0.49566714117E+03 -0.65386594081E+03 -0.82477611625E+03  0.11633925500E+04  0.25500000920E-02 0. -1.
       -2    1    3    3    0  502 -0.49566714117E+03  0.65386594081E+03  0.77012158413E+03  0.11253061085E+04  0.25500000920E-02 0.  1.
</event>
<event>
 5   0  0.1921687E-04  0.2107121E+04  0.7818609E-02  0.8558113E-01
        2   -1    0    0  501    0  0.00000000000E+00  0.00000000000E+00  0.12266322476E+04  0.12266322476E+04  0.25500000920E-02 0.  1.
       -2   -1    0    0    0  501  0.00000000000E+00  0.00000000000E+00 -0.90490826063E+03  0.90490826064E+03  0.25500000920E-02 0. -1.
    10030    2    1    2    0    0  0.00000000000E+00  0.00000000000E+00  0.32172398692E+03  0.21315405082E+04  0.21071209302E+04 0.  0.
        5    1    3    3  502    0 -0.73240362321E+03  0.75622639174E+03  0.20225243984E+03  0.10720175196E+04  0.46999998093E+01 0.  1.
       -5    1    3    3    0  502  0.73240362321E+03 -0.75622639174E+03  0.11947154709E+03  0.10595229886E+04  0.46999998093E+01 0. -1.
</event>
<event>
 5   0  0.8525278E-05  0.2109030E+04  0.7818609E-02  0.8557276E-01
        1   -1    0    0  501    0  0.00000000000E+00  0.00000000000E+00  0.85374375135E+03  0.85374375137E+03  0.50400001928E-02 0.  1.
       -1   -1    0    0    0  501  0.00000000000E+00  0.00000000000E+00 -0.13025007102E+04  0.13025007102E+04  0.50400001928E-02 0. -1.
    10030    2    1    2    0    0  0.00000000000E+00  0.00000000000E+00 -0.44875695886E+03  0.21562444616E+04  0.21090299595E+04 0.  0.
        4    1    3    3  502    0 -0.23648640927E+03  0.17774912929E+03 -0.12592034908E+04  0.12934897057E+04  0.12699999809E+01 0. -1.
       -4    1    3    3    0  502  0.23648640927E+03 -0.17774912929E+03  0.81044653193E+03  0.86275475585E+03  0.12699999809E+01 0.  1.
</event>
<event>
 5   0  0.8237966E-05  0.2052770E+04  0.7818609E-02  0.8582339E-01
       -1   -1    0    0    0  501  0.00000000000E+00  0.00000000000E+00  0.51331898175E+03  0.51331898178E+03  0.50400001928E-02 0.  1.
        1   -1    0    0  501    0  0.00000000000E+00  0.00000000000E+00 -0.20522645149E+04  0.20522645149E+04  0.50400001928E-02 0. -1.
    10030    2    1    2    0    0  0.00000000000E+00  0.00000000000E+00 -0.15389455331E+04  0.25655834967E+04  0.20527701587E+04 0.  0.
        1    1    3    3  502    0 -0.88927119524E+01 -0.73419147460E+03 -0.16658178782E+04  0.18204574713E+04  0.50400001928E-02 0.  1.
       -1    1    3    3    0  502  0.88927119524E+01  0.73419147460E+03  0.12687234502E+03  0.74512602535E+03  0.50400001928E-02 0. -1.
</event>
<event>
 5   0  0.1886323E-04  0.1321313E+04  0.7818609E-02  0.9012832E-01
       -2   -1    0    0    0  501  0.00000000000E+00  0.00000000000E+00  0.64240433542E+03  0.64240433543E+03  0.25500000920E-02 0. -1.
        2   -1    0    0  501    0  0.00000000000E+00  0.00000000000E+00 -0.67942764778E+03  0.67942764778E+03  0.25500000920E-02 0.  1.
    10030    2    1    2    0    0  0.00000000000E+00  0.00000000000E+00 -0.37023312352E+02  0.13218319832E+04  0.13213133868E+04 0.  0.
        2    1    3    3  502    0  0.57695783148E+01  0.25094530035E+02 -0.67892546882E+03  0.67941358221E+03  0.25500000920E-02 0.  1.
       -2    1    3    3    0  502 -0.57695783148E+01 -0.25094530035E+02  0.64190215646E+03  0.64241840101E+03  0.25500000920E-02 0. -1.
</event>
<event>
 5   0  0.6441125E-05  0.2157504E+04  0.7818609E-02  0.8536327E-01
       -3   -1    0    0    0  501  0.00000000000E+00  0.00000000000E+00  0.69956323577E+03  0.69956324306E+03  0.10100000352E+00 0. -1.
        3   -1    0    0  501    0  0.00000000000E+00  0.00000000000E+00 -0.16634748448E+04  0.16634748479E+04  0.10100000352E+00 0.  1.
    10030    2    1    2    0    0  0.00000000000E+00  0.00000000000E+00 -0.96391160905E+03  0.23630380910E+04  0.21575039813E+04 0.  0.
        5    1    3    3  502    0 -0.39721988403E+03  0.85648649374E+03 -0.10535234943E+04  0.14146683686E+04  0.46999998093E+01 0.  1.
       -5    1    3    3    0  502  0.39721988403E+03 -0.85648649374E+03  0.89611885230E+02  0.94836972231E+03  0.46999998093E+01 0. -1.
</event>
<event>
 5   0  0.8525278E-05  0.2105533E+04  0.7818609E-02  0.8558810E-01
        1   -1    0    0  501    0  0.00000000000E+00  0.00000000000E+00  0.28604912423E+04  0.28604912423E+04  0.50400001928E-02 0.  1.
       -1   -1    0    0    0  501  0.00000000000E+00  0.00000000000E+00 -0.38745705310E+03  0.38745705313E+03  0.50400001928E-02 0. -1.
    10030    2    1    2    0    0  0.00000000000E+00  0.00000000000E+00  0.24730341892E+04  0.32479482954E+04  0.21055331935E+04 0.  0.
        4    1    3    3  502    0 -0.63968522848E+02  0.10461857477E+04  0.13885944636E+04  0.17397680270E+04  0.12699999809E+01 0. -1.
       -4    1    3    3    0  502  0.63968522848E+02 -0.10461857477E+04  0.10844397256E+04  0.15081802684E+04  0.12699999809E+01 0.  1.
</event>
<event>
 5   0  0.1777590E-04  0.1483228E+04  0.7818609E-02  0.8895683E-01
       -2   -1    0    0    0  501  0.00000000000E+00  0.00000000000E+00  0.41537720635E+03  0.41537720636E+03  0.25500000920E-02 0. -1.
        2   -1    0    0  501    0  0.00000000000E+00  0.00000000000E+00 -0.13240768091E+04  0.13240768091E+04  0.25500000920E-02 0.  1.
    10030    2    1    2    0    0  0.00000000000E+00  0.00000000000E+00 -0.90869960272E+03  0.17394540154E+04  0.14832280013E+04 0.  0.
        4    1    3    3  502    0  0.39169187547E+03  0.42342814807E+03 -0.10010015056E+04  0.11553006314E+04  0.12699999809E+01 0.  1.
       -4    1    3    3    0  502 -0.39169187547E+03 -0.42342814807E+03  0.92301902848E+02  0.58415338402E+03  0.12699999809E+01 0. -1.
</event>
<event>
 5   0  0.8486612E-05  0.1767822E+04  0.7818609E-02  0.8723601E-01
        1   -1    0    0  501    0  0.00000000000E+00  0.00000000000E+00  0.97993719222E+03  0.97993719223E+03  0.50400001928E-02 0. -1.
       -1   -1    0    0    0  501  0.00000000000E+00  0.00000000000E+00 -0.79729492525E+03  0.79729492527E+03  0.50400001928E-02 0.  1.
    10030    2    1    2    0    0  0.00000000000E+00  0.00000000000E+00  0.18264226697E+03  0.17772321175E+04  0.17678223332E+04 0.  0.
        5    1    3    3  502    0 -0.39378855716E+03 -0.42325667416E+03  0.76350647370E+03  0.95769507952E+03  0.46999998093E+01 0. -1.
       -5    1    3    3    0  502  0.39378855716E+03  0.42325667416E+03 -0.58086420672E+03  0.81953703798E+03  0.46999998093E+01 0.  1.
</event>
<event>
 5   0  0.1921687E-04  0.2075546E+04  0.7818609E-02  0.8572093E-01
       -2   -1    0    0    0  501  0.00000000000E+00  0.00000000000E+00  0.66724738329E+03  0.66724738329E+03  0.25500000920E-02 0. -1.
        2   -1    0    0  501    0  0.00000000000E+00  0.00000000000E+00 -0.16140534901E+04  0.16140534901E+04  0.25500000920E-02 0.  1.
    10030    2    1    2    0    0  0.00000000000E+00  0.00000000000E+00 -0.94680610679E+03  0.22813008734E+04  0.20755461621E+04 0.  0.
        5    1    3    3  502    0 -0.68351215827E+03  0.33096829083E+03 -0.12507798311E+04  0.14632843729E+04  0.46999998093E+01 0.  1.
       -5    1    3    3    0  502  0.68351215827E+03 -0.33096829083E+03  0.30397372429E+03  0.81801650050E+03  0.46999998093E+01 0. -1.
</event>
<event>
 5   0  0.1810875E-04  0.2085127E+04  0.7818609E-02  0.8567823E-01
       -2   -1    0    0    0  501  0.00000000000E+00  0.00000000000E+00  0.10038399750E+04  0.10038399750E+04  0.25500000920E-02 0. -1.
        2   -1    0    0  501    0  0.00000000000E+00  0.00000000000E+00 -0.10827810103E+04  0.10827810103E+04  0.25500000920E-02 0.  1.
    10030    2    1    2    0    0  0.00000000000E+00  0.00000000000E+00 -0.78941035334E+02  0.20866209853E+04  0.20851272022E+04 0.  0.
        1    1    3    3  502    0  0.42561913679E+02 -0.78841634780E+03  0.64184540524E+03  0.10175349518E+04  0.50400001928E-02 0. -1.
       -1    1    3    3    0  502 -0.42561913679E+02  0.78841634780E+03 -0.72078644058E+03  0.10690860335E+04  0.50400001928E-02 0.  1.
</event>
<event>
 5   0  0.8755004E-05  0.1771739E+04  0.7818609E-02  0.8721474E-01
        1   -1    0    0  501    0  0.00000000000E+00  0.00000000000E+00  0.14932267810E+04  0.14932267810E+04  0.50400001928E-02 0.  1.
       -1   -1    0    0    0  501  0.00000000000E+00  0.00000000000E+00 -0.52554961625E+03  0.52554961627E+03  0.50400001928E-02 0. -1.
    10030    2    1    2    0    0  0.00000000000E+00  0.00000000000E+00  0.96767716479E+03  0.20187763973E+04  0.17717389896E+04 0.  0.
        3    1    3    3  502    0  0.68108840253E+03 -0.34675374726E+03 -0.26552220360E+02  0.76473825843E+03  0.10100000352E+00 0. -1.
       -3    1    3    3    0  502 -0.68108840253E+03  0.34675374726E+03  0.99422938515E+03  0.12540381389E+04  0.10100000352E+00 0.  1.
</event>
<event>
 5   0  0.8525278E-05  0.2133489E+04  0.7818609E-02  0.8546633E-01
       -1   -1    0    0    0  501  0.00000000000E+00  0.00000000000E+00  0.10051759137E+04  0.10051759137E+04  0.50400001928E-02 0.  1.
        1   -1    0    0  501    0  0.00000000000E+00  0.00000000000E+00 -0.11320847435E+04  0.11320847435E+04  0.50400001928E-02 0. -1.
    10030    2    1    2    0    0  0.00000000000E+00  0.00000000000E+00 -0.12690882984E+03  0.21372606572E+04  0.21334894577E+04 0.  0.
        4    1    3    3  502    0 -0.81420099144E+03  0.29849002759E+02 -0.75324142986E+03  0.11095893303E+04  0.12699999809E+01 0. -1.
       -4    1    3    3    0  502  0.81420099144E+03 -0.29849002759E+02  0.62633260001E+03  0.10276713269E+04  0.12699999809E+01 0.  1.
</event>
<event>
 5   0  0.8525278E-05  0.2105957E+04  0.7818609E-02  0.8558624E-01
       -1   -1    0    0    0  501  0.00000000000E+00  0.00000000000E+00  0.16074827631E+04  0.16074827631E+04  0.50400001928E-02 0. -1.
        1   -1    0    0  501    0  0.00000000000E+00  0.00000000000E+00 -0.68975146875E+03  0.68975146877E+03  0.50400001928E-02 0.  1.
    10030    2    1    2    0    0  0.00000000000E+00  0.00000000000E+00  0.91773129437E+03  0.22972342319E+04  0.21059568817E+04 0.  0.
        4    1    3    3  502    0 -0.10480171320E+04  0.91562823293E+02  0.50811408449E+03  0.11682915712E+04  0.12699999809E+01 0. -1.
       -4    1    3    3    0  502  0.10480171320E+04 -0.91562823293E+02  0.40961720987E+03  0.11289426607E+04  0.12699999809E+01 0.  1.
</event>
<event>
 5   0  0.8525278E-05  0.2053721E+04  0.7818609E-02  0.8581908E-01
        1   -1    0    0  501    0  0.00000000000E+00  0.00000000000E+00  0.18215865494E+04  0.18215865494E+04  0.50400001928E-02 0. -1.
       -1   -1    0    0    0  501  0.00000000000E+00  0.00000000000E+00 -0.57885922787E+03  0.57885922789E+03  0.50400001928E-02 0.  1.
    10030    2    1    2    0    0  0.00000000000E+00  0.00000000000E+00  0.12427273216E+04  0.24004457773E+04  0.20537207050E+04 0.  0.
        4    1    3    3  502    0  0.38159229682E+03  0.94136007701E+03  0.44538191951E+03  0.11091159284E+04  0.12699999809E+01 0. -1.
       -4    1    3    3    0  502 -0.38159229682E+03 -0.94136007701E+03  0.79734540205E+03  0.12913298489E+04  0.12699999809E+01 0.  1.
</event>
<event>
 5   0  0.8755004E-05  0.2095059E+04  0.7818609E-02  0.8563423E-01
       -1   -1    0    0    0  501  0.00000000000E+00  0.00000000000E+00  0.99242573099E+03  0.99242573100E+03  0.50400001928E-02 0. -1.
        1   -1    0    0  501    0  0.00000000000E+00  0.00000000000E+00 -0.11056931149E+04  0.11056931149E+04  0.50400001928E-02 0.  1.
    10030    2    1    2    0    0  0.00000000000E+00  0.00000000000E+00 -0.11326738387E+03  0.20981188459E+04  0.20950592333E+04 0.  0.
        3    1    3    3  502    0 -0.77055106331E+02 -0.10094273616E+04 -0.32616834270E+03  0.10636103073E+04  0.10100000352E+00 0.  1.
       -3    1    3    3    0  502  0.77055106331E+02  0.10094273616E+04  0.21290095883E+03  0.10345085385E+04  0.10100000352E+00 0. -1.
</event>
<event>
 5   0  0.1921687E-04  0.2075073E+04  0.7818609E-02  0.8572304E-01
        2   -1    0    0  501    0  0.00000000000E+00  0.00000000000E+00  0.14209581071E+04  0.14209581071E+04  0.25500000920E-02 0. -1.
       -2   -1    0    0    0  501  0.00000000000E+00  0.00000000000E+00 -0.75757443369E+03  0.75757443370E+03  0.25500000920E-02 0.  1.
    10030    2    1    2    0    0  0.00000000000E+00  0.00000000000E+00  0.66338367336E+03  0.21785325408E+04  0.20750725609E+04 0.  0.
        5    1    3    3  502    0 -0.52640873759E+03  0.34826581260E+02 -0.60623812437E+03  0.80365776498E+03  0.46999998093E+01 0.  1.
       -5    1    3    3    0  502  0.52640873759E+03 -0.34826581260E+02  0.12696217977E+04  0.13748747758E+04  0.46999998093E+01 0. -1.
</event>
<event>
 5   0  0.1886323E-04  0.2214115E+04  0.7818609E-02  0.8512576E-01
       -2   -1    0    0    0  501  0.00000000000E+00  0.00000000000E+00  0.12327024744E+04  0.12327024744E+04  0.25500000920E-02 0. -1.
        2   -1    0    0  501    0  0.00000000000E+00  0.00000000000E+00 -0.99421920091E+03  0.99421920091E+03  0.25500000920E-02 0.  1.
    10030    2    1    2    0    0  0.00000000000E+00  0.00000000000E+00  0.23848327353E+03  0.22269216754E+04  0.22141151453E+04 0.  0.
        2    1    3    3  502    0 -0.28160753188E+03 -0.98405048334E+02  0.11915178620E+04  0.12282919730E+04  0.25500000920E-02 0. -1.
       -2    1    3    3    0  502  0.28160753188E+03  0.98405048334E+02 -0.95303458847E+03  0.99862970233E+03  0.25500000920E-02 0.  1.
</event>
<event>
 5   0  0.8271069E-05  0.2030554E+04  0.7818609E-02  0.8592467E-01
       -1   -1    0    0    0  501  0.00000000000E+00  0.00000000000E+00  0.10299012868E+04  0.10299012868E+04  0.50400001928E-02 0.  1.
        1   -1    0    0  501    0  0.00000000000E+00  0.00000000000E+00 -0.10008606057E+04  0.10008606057E+04  0.50400001928E-02 0. -1.
    10030    2    1    2    0    0  0.00000000000E+00  0.00000000000E+00  0.29040681042E+02  0.20307618925E+04  0.20305542354E+04 0.  0.
        2    1    3    3  502    0  0.35290254398E+03  0.71791135856E+03  0.63976481044E+03  0.10243221842E+04  0.25500000920E-02 0.  1.
       -2    1    3    3    0  502 -0.35290254398E+03 -0.71791135856E+03 -0.61072412940E+03  0.10064397083E+04  0.25500000920E-02 0. -1.
</event>
<event>
 5   0  0.8237966E-05  0.2091141E+04  0.7818609E-02  0.8565156E-01
       -1   -1    0    0    0  501  0.00000000000E+00  0.00000000000E+00  0.96424281035E+03  0.96424281037E+03  0.50400001928E-02 0. -1.
        1   -1    0    0  501    0  0.00000000000E+00  0.00000000000E+00 -0.11337573720E+04  0.11337573720E+04  0.50400001928E-02 0.  1.
    10030    2    1    2    0    0  0.00000000000E+00  0.00000000000E+00 -0.16951456164E+03  0.20980001824E+04  0.20911407362E+04 0.  0.
        1    1    3    3  502    0 -0.76097804109E+03  0.42866296626E+03  0.49191322314E+03  0.10024061736E+04  0.50400001928E-02 0. -1.
       -1    1    3    3    0  502  0.76097804109E+03 -0.42866296626E+03 -0.66142778478E+03  0.10955940088E+04  0.50400001928E-02 0.  1.
</event>
<event>
 5   0  0.8755004E-05  0.1687153E+04  0.7818609E-02  0.8768725E-01
        1   -1    0    0  501    0  0.00000000000E+00  0.00000000000E+00  0.15661453651E+04  0.15661453651E+04  0.50400001928E-02 0. -1.
       -1   -1    0    0    0  501  0.00000000000E+00  0.00000000000E+00 -0.45437777122E+03  0.45437777125E+03  0.50400001928E-02 0.  1.
    10030    2    1    2    0    0  0.00000000000E+00  0.00000000000E+00  0.11117675938E+04  0.20205231363E+04  0.16871533901E+04 0.  0.
        3    1    3    3  502    0  0.63970490416E+03  0.54918199883E+03  0.58972290979E+03  0.10288811169E+04  0.10100000352E+00 0.  1.
       -3    1    3    3    0  502 -0.63970490416E+03 -0.54918199883E+03  0.52204468405E+03  0.99164201938E+03  0.10100000352E+00 0. -1.
</event>
<event>
 5   0  0.8237966E-05  0.2208512E+04  0.7818609E-02  0.8514894E-01
        1   -1    0    0  501    0  0.00000000000E+00  0.00000000000E+00  0.10090549082E+04  0.10090549082E+04  0.50400001928E-02 0. -1.
       -1   -1    0    0    0  501  0.00000000000E+00  0.00000000000E+00 -0.12084387014E+04  0.12084387015E+04  0.50400001928E-02 0.  1.
    10030    2    1    2    0    0  0.00000000000E+00  0.00000000000E+00 -0.19938379321E+03  0.22174936097E+04  0.22085117188E+04 0.  0.
        1    1    3    3  502    0 -0.15966956001E+03 -0.73154810791E+02  0.99494140936E+03  0.10103239098E+04  0.50400001928E-02 0. -1.
       -1    1    3    3    0  502  0.15966956001E+03  0.73154810791E+02 -0.11943252026E+04  0.12071696999E+04  0.50400001928E-02 0.  1.
</event>
<event>
 5   0  0.8525278E-05  0.2120225E+04  0.7818609E-02  0.8552386E-01
       -1   -1    0    0    0  501  0.00000000000E+00  0.00000000000E+00  0.10976122238E+04  0.10976122238E+04  0.50400001928E-02 0.  1.
        1   -1    0    0  501    0  0.00000000000E+00  0.00000000000E+00 -0.10238940909E+04  0.10238940909E+04  0.50400001928E-02 0. -1.
    10030    2    1    2    0    0  0.00000000000E+00  0.00000000000E+00  0.73718132946E+02  0.21215063147E+04  0.21202251485E+04 0.  0.
        4    1    3    3  502    0 -0.15912982154E+03 -0.44775830713E+03  0.98507468879E+03  0.10937017679E+04  0.12699999809E+01 0.  1.
       -4    1    3    3    0  502  0.15912982154E+03  0.44775830713E+03 -0.91135655585E+03  0.10278045468E+04  0.12699999809E+01 0. -1.
</event>
<event>
 5   0  0.8525278E-05  0.2137782E+04  0.7818609E-02  0.8544780E-01
       -1   -1    0    0    0  501  0.00000000000E+00  0.00000000000E+00  0.11396983581E+04  0.11396983581E+04  0.50400001928E-02 0. -1.
        1   -1    0    0  501    0  0.00000000000E+00  0.00000000000E+00 -0.10024825714E+04  0.10024825714E+04  0.50400001928E-02 0.  1.
    10030    2    1    2    0    0  0.00000000000E+00  0.00000000000E+00  0.13721578670E+03  0.21421809294E+04  0.21377817855E+04 0.  0.
        4    1    3    3  502    0 -0.10942424751E+03 -0.91873414661E+03  0.60494760320E+03  0.11054453010E+04  0.12699999809E+01 0. -1.
       -4    1    3    3    0  502  0.10942424751E+03  0.91873414661E+03 -0.46773181650E+03  0.10367356284E+04  0.12699999809E+01 0.  1.
</event>
<event>
 5   0  0.8755004E-05  0.2092713E+04  0.7818609E-02  0.8564460E-01
       -1   -1    0    0    0  501  0.00000000000E+00  0.00000000000E+00  0.58294703545E+03  0.58294703547E+03  0.50400001928E-02 0. -1.
        1   -1    0    0  501    0  0.00000000000E+00  0.00000000000E+00 -0.18781494165E+04  0.18781494165E+04  0.50400001928E-02 0.  1.
    10030    2    1    2    0    0  0.00000000000E+00  0.00000000000E+00 -0.12952023811E+04  0.24610964520E+04  0.20927127223E+04 0.  0.
        3    1    3    3  502    0  0.83506636098E+03 -0.15123156063E+03 -0.13674390383E+04  0.16093776269E+04  0.10100000352E+00 0.  1.
       -3    1    3    3    0  502 -0.83506636098E+03  0.15123156063E+03  0.72236657266E+02  0.85171882510E+03  0.10100000352E+00 0. -1.
</event>
<event>
 5   0  0.1886323E-04  0.2095055E+04  0.7818609E-02  0.8563425E-01
        2   -1    0    0  501    0  0.00000000000E+00  0.00000000000E+00  0.22866198477E+04  0.22866198477E+04  0.25500000920E-02 0.  1.
       -2   -1    0    0    0  501  0.00000000000E+00  0.00000000000E+00 -0.47988461096E+03  0.47988461096E+03  0.25500000920E-02 0. -1.
    10030    2    1    2    0    0  0.00000000000E+00  0.00000000000E+00  0.18067352367E+04  0.27665044586E+04  0.20950548213E+04 0.  0.
        2    1    3    3  502    0 -0.38175965451E+03 -0.94533442869E+03  0.12211541507E+04  0.15907907077E+04  0.25500000920E-02 0.  1.
       -2    1    3    3    0  502  0.38175965451E+03  0.94533442869E+03  0.58558108604E+03  0.11757137510E+04  0.25500000920E-02 0. -1.
</event>
<event>
 5   0  0.8486612E-05  0.2102152E+04  0.7818609E-02  0.8560296E-01
        1   -1    0    0  501    0  0.00000000000E+00  0.00000000000E+00  0.13920170609E+04  0.13920170609E+04  0.50400001928E-02 0.  1.
       -1   -1    0    0    0  501  0.00000000000E+00  0.00000000000E+00 -0.79364019003E+03  0.79364019004E+03  0.50400001928E-02 0. -1.
    10030    2    1    2    0    0  0.00000000000E+00  0.00000000000E+00  0.59837687089E+03  0.21856572510E+04  0.21021519305E+04 0.  0.
        5    1    3    3  502    0  0.57256005111E+03  0.12313811082E+03  0.12066418857E+04  0.13412660947E+04  0.46999998093E+01 0.  1.
       -5    1    3    3    0  502 -0.57256005111E+03 -0.12313811082E+03 -0.60826501484E+03  0.84439115624E+03  0.46999998093E+01 0. -1.
</event>
<event>
 5   0  0.1810875E-04  0.2143326E+04  0.7818609E-02  0.8542395E-01
       -2   -1    0    0    0  501  0.00000000000E+00  0.00000000000E+00  0.96716229237E+03  0.96716229238E+03  0.25500000920E-02 0. -1.
        2   -1    0    0  501    0  0.00000000000E+00  0.00000000000E+00 -0.11874546141E+04  0.11874546141E+04  0.25500000920E-02 0.  1.
    10030    2    1    2    0    0  0.00000000000E+00  0.00000000000E+00 -0.22029232176E+03  0.21546169065E+04  0.21433257584E+04 0.  0.
        1    1    3    3  502    0 -0.32179404751E+03 -0.69745281884E+03 -0.86139117600E+03  0.11541172391E+04  0.50400001928E-02 0.  1.
       -1    1    3    3    0  502  0.32179404751E+03  0.69745281884E+03  0.64109885424E+03  0.10004996674E+04  0.50400001928E-02 0. -1.
</event>
<event>
 5   0  0.8755004E-05  0.2262102E+04  0.7818609E-02  0.8493015E-01
       -1   -1    0    0    0  501  0.00000000000E+00  0.00000000000E+00  0.11780831129E+04  0.11780831129E+04  0.50400001928E-02 0.  1.
        1   -1    0    0  501    0  0.00000000000E+00  0.00000000000E+00 -0.10858965265E+04  0.10858965265E+04  0.50400001928E-02 0. -1.
    10030    2    1    2    0    0  0.00000000000E+00  0.00000000000E+00  0.92186586366E+02  0.22639796395E+04  0.22621019962E+04 0.  0.
        3    1    3    3  502    0  0.62387776039E+02 -0.10752929944E+04 -0.29934402171E+03  0.11179240188E+04  0.10100000352E+00 0. -1.
       -3    1    3    3    0  502 -0.62387776039E+02  0.10752929944E+04  0.39153060807E+03  0.11460556206E+04  0.10100000352E+00 0.  1.
</event>
<event>
 5   0  0.1810875E-04  0.2054478E+04  0.7818609E-02  0.8581566E-01
       -2   -1    0    0    0  501  0.00000000000E+00  0.00000000000E+00  0.64035406434E+03  0.64035406435E+03  0.25500000920E-02 0.  1.
        2   -1    0    0  501    0  0.00000000000E+00  0.00000000000E+00 -0.16478693912E+04  0.16478693912E+04  0.25500000920E-02 0. -1.
    10030    2    1    2    0    0  0.00000000000E+00  0.00000000000E+00 -0.10075153268E+04  0.22882234555E+04  0.20544779017E+04 0.  0.
        1    1    3    3  502    0 -0.50836710264E+03  0.16540888449E+03  0.47320832057E+03  0.71394910519E+03  0.50400001928E-02 0.  1.
       -1    1    3    3    0  502  0.50836710264E+03 -0.16540888449E+03 -0.14807236474E+04  0.15742743503E+04  0.50400001928E-02 0. -1.
</event>
<event>
 5   0  0.8237966E-05  0.2168543E+04  0.7818609E-02  0.8531637E-01
        1   -1    0    0  501    0  0.00000000000E+00  0.00000000000E+00  0.75347416704E+03  0.75347416706E+03  0.50400001928E-02 0. -1.
       -1   -1    0    0    0  501  0.00000000000E+00  0.00000000000E+00 -0.15602979098E+04  0.15602979098E+04  0.50400001928E-02 0.  1.
    10030    2    1    2    0    0  0.00000000000E+00  0.00000000000E+00 -0.80682374271E+03  0.23137720768E+04  0.21685425224E+04 0.  0.
        1    1    3    3  502    0 -0.20658285532E+03  0.56352818683E+03 -0.13668835768E+04  0.14928533773E+04  0.50400001928E-02 0.  1.
       -1    1    3    3    0  502  0.20658285532E+03 -0.56352818683E+03  0.56005983410E+03  0.82091869954E+03  0.50400001928E-02 0. -1.
</event>
<event>
 5   0  0.1921687E-04  0.2091921E+04  0.7818609E-02  0.8564811E-01
       -2   -1    0    0    0  501  0.00000000000E+00  0.00000000000E+00  0.10332151699E+04  0.10332151699E+04  0.25500000920E-02 0. -1.
        2   -1    0    0  501    0  0.00000000000E+00  0.00000000000E+00 -0.10588630357E+04  0.10588630357E+04  0.25500000920E-02 0.  1.
    10030    2    1    2    0    0  0.00000000000E+00  0.00000000000E+00 -0.25647865856E+02  0.20920782056E+04  0.20919209845E+04 0.  0.
        5    1    3    3  502    0 -0.86144172989E+03  0.36982543949E+03 -0.47671065823E+03  0.10517261294E+04  0.46999998093E+01 0.  1.
       -5    1    3    3    0  502  0.86144172989E+03 -0.36982543949E+03  0.45106279238E+03  0.10403520761E+04  0.46999998093E+01 0. -1.
</event>
<event>
 5   0  0.8271069E-05  0.2101463E+04  0.7818609E-02  0.8560599E-01
        1   -1    0    0  501    0  0.00000000000E+00  0.00000000000E+00  0.78579386145E+03  0.78579386147E+03  0.50400001928E-02 0.  1.
       -1   -1    0    0    0  501  0.00000000000E+00  0.00000000000E+00 -0.14049948159E+04  0.14049948160E+04  0.50400001928E-02 0. -1.
    10030    2    1    2    0    0  0.00000000000E+00  0.00000000000E+00 -0.61920095449E+03  0.21907886774E+04  0.21014626352E+04 0.  0.
        2    1    3    3  502    0 -0.96676892919E+03 -0.37893611223E+03 -0.14214405205E+03  0.10480647266E+04  0.25500000920E-02 0.  1.
       -2    1    3    3    0  502  0.96676892919E+03  0.37893611223E+03 -0.47705690244E+03  0.11427239508E+04  0.25500000920E-02 0. -1.
</event>
<event>
 5   0  0.1815400E-04  0.1994388E+04  0.7818609E-02  0.8609249E-01
        2   -1    0    0  501    0  0.00000000000E+00  0.00000000000E+00  0.16369794299E+04  0.16369794299E+04  0.25500000920E-02 0. -1.
       -2   -1    0    0    0  501  0.00000000000E+00  0.00000000000E+00 -0.60745755018E+03  0.60745755018E+03  0.25500000920E-02 0.  1.
    10030    2    1    2    0    0  0.00000000000E+00  0.00000000000E+00  0.10295218798E+04  0.22444369801E+04  0.19943876396E+04 0.  0.
        3    1    3    3  502    0  0.40157568627E+03 -0.63412584289E+02  0.15394786996E+04  0.15922559041E+04  0.10100000352E+00 0. -1.
       -3    1    3    3    0  502 -0.40157568627E+03  0.63412584289E+02 -0.50995681979E+03  0.65218107600E+03  0.10100000352E+00 0.  1.
</event>
<event>
 5   0  0.1886323E-04  0.2060649E+04  0.7818609E-02  0.8578779E-01
       -2   -1    0    0    0  501  0.00000000000E+00  0.00000000000E+00  0.96419455750E+03  0.96419455750E+03  0.25500000920E-02 0.  1.
        2   -1    0    0  501    0  0.00000000000E+00  0.00000000000E+00 -0.11009896156E+04  0.11009896156E+04  0.25500000920E-02 0. -1.
    10030    2    1    2    0    0  0.00000000000E+00  0.00000000000E+00 -0.13679505814E+03  0.20651841731E+04  0.20606486312E+04 0.  0.
        2    1    3    3  502    0  0.74752084654E+03  0.33636779635E+03 -0.69398091855E+03  0.10740298998E+04  0.25500000920E-02 0. -1.
       -2    1    3    3    0  502 -0.74752084654E+03 -0.33636779635E+03  0.55718586041E+03  0.99115427330E+03  0.25500000920E-02 0.  1.
</event>
<event>
 5   0  0.8271069E-05  0.2062796E+04  0.7818609E-02  0.8577811E-01
        1   -1    0    0  501    0  0.00000000000E+00  0.00000000000E+00  0.70059920084E+03  0.70059920085E+03  0.50400001928E-02 0. -1.
       -1   -1    0    0    0  501  0.00000000000E+00  0.00000000000E+00 -0.15183886469E+04  0.15183886469E+04  0.50400001928E-02 0.  1.
    10030    2    1    2    0    0  0.00000000000E+00  0.00000000000E+00 -0.81778944606E+03  0.22189878478E+04  0.20627960370E+04 0.  0.
        2    1    3    3  502    0  0.97202996851E+03  0.34476252119E+03 -0.39936887867E+03  0.11059832535E+04  0.25500000920E-02 0.  1.
       -2    1    3    3    0  502 -0.97202996851E+03 -0.34476252119E+03 -0.41842056739E+03  0.11130045943E+04  0.25500000920E-02 0. -1.
</event>
<event>
 5   0  0.6441125E-05  0.1386936E+04  0.7818609E-02  0.8963329E-01
       -4   -1    0    0    0  501  0.00000000000E+00  0.00000000000E+00  0.59331247516E+03  0.59331383439E+03  0.12699999809E+01 0. -1.
        4   -1    0    0  501    0  0.00000000000E+00  0.00000000000E+00 -0.81052819320E+03  0.81052918817E+03  0.12699999809E+01 0.  1.
    10030    2    1    2    0    0  0.00000000000E+00  0.00000000000E+00 -0.21721571804E+03  0.14038430226E+04  0.13869363950E+04 0.  0.
        2    1    3    3  502    0  0.14506473282E+01  0.16045626152E+03 -0.79147968190E+03  0.80758182440E+03  0.25500000920E-02 0.  1.
       -2    1    3    3    0  502 -0.14506473282E+01 -0.16045626152E+03  0.57426396386E+03  0.59626119816E+03  0.25500000920E-02 0. -1.
</event>
<event>
 5   0  0.1921687E-04  0.2164471E+04  0.7818609E-02  0.8533363E-01
        2   -1    0    0  501    0  0.00000000000E+00  0.00000000000E+00  0.17324587165E+04  0.17324587165E+04  0.25500000920E-02 0.  1.
       -2   -1    0    0    0  501  0.00000000000E+00  0.00000000000E+00 -0.67605315167E+03  0.67605315167E+03  0.25500000920E-02 0. -1.
    10030    2    1    2    0    0  0.00000000000E+00  0.00000000000E+00  0.10564055649E+04  0.24085118682E+04  0.21644714602E+04 0.  0.
        5    1    3    3  502    0  0.72468175164E+03 -0.15453535029E+03  0.14059116927E+04  0.15892308181E+04  0.46999998093E+01 0.  1.
       -5    1    3    3    0  502 -0.72468175164E+03  0.15453535029E+03 -0.34950612781E+03  0.81928105009E+03  0.46999998093E+01 0. -1.
</event>
<event>
 5   0  0.1815400E-04  0.2110381E+04  0.7818609E-02  0.8556684E-01
        2   -1    0    0  501    0  0.00000000000E+00  0.00000000000E+00  0.19331699664E+04  0.19331699664E+04  0.25500000920E-02 0.  1.
       -2   -1    0    0    0  501  0.00000000000E+00  0.00000000000E+00 -0.57595915744E+03  0.57595915745E+03  0.25500000920E-02 0. -1.
    10030    2    1    2    0    0  0.00000000000E+00  0.00000000000E+00  0.13572108090E+04  0.25091291239E+04  0.21103809562E+04 0.  0.
        3    1    3    3  502    0  0.65691899469E+03  0.14693925578E+03 -0.28751348297E+03  0.73198205139E+03  0.10100000352E+00 0. -1.
       -3    1    3    3    0  502 -0.65691899469E+03 -0.14693925578E+03  0.16447242920E+04  0.17771470725E+04  0.10100000352E+00 0.  1.
</event>
<event>
 5   0  0.1810875E-04  0.2188449E+04  0.7818609E-02  0.8523251E-01
       -2   -1    0    0    0  501  0.00000000000E+00  0.00000000000E+00  0.68225210800E+03  0.68225210801E+03  0.25500000920E-02 0.  1.
        2   -1    0    0  501    0  0.00000000000E+00  0.00000000000E+00 -0.17549627902E+04  0.17549627903E+04  0.25500000920E-02 0. -1.
    10030    2    1    2    0    0  0.00000000000E+00  0.00000000000E+00 -0.10727106822E+04  0.24372148983E+04  0.21884488234E+04 0.  0.
        1    1    3    3  502    0  0.25238186101E+03 -0.20479104221E+03 -0.16999649841E+04  0.17307561706E+04  0.50400001928E-02 0. -1.
       -1    1    3    3    0  502 -0.25238186101E+03  0.20479104221E+03  0.62725430185E+03  0.70645872770E+03  0.50400001928E-02 0.  1.
</event>
<event>
 5   0  0.8486612E-05  0.2036083E+04  0.7818609E-02  0.8589934E-01
       -1   -1    0    0    0  501  0.00000000000E+00  0.00000000000E+00  0.49245223435E+03  0.49245223438E+03  0.50400001928E-02 0.  1.
        1   -1    0    0  501    0  0.00000000000E+00  0.00000000000E+00 -0.21045877131E+04  0.21045877131E+04  0.50400001928E-02 0. -1.
    10030    2    1    2    0    0  0.00000000000E+00  0.00000000000E+00 -0.16121354787E+04  0.25970399475E+04  0.20360834185E+04 0.  0.
        5    1    3    3  502    0  0.95710871133E+03 -0.32963009464E+03 -0.94388011016E+03  0.13840682198E+04  0.46999998093E+01 0. -1.
       -5    1    3    3    0  502 -0.95710871133E+03  0.32963009464E+03 -0.66825536858E+03  0.12129717277E+04  0.46999998093E+01 0.  1.
</event>
<event>
 5   0  0.8237966E-05  0.2025862E+04  0.7818609E-02  0.8594624E-01
       -1   -1    0    0    0  501  0.00000000000E+00  0.00000000000E+00  0.11694394575E+04  0.11694394575E+04  0.50400001928E-02 0. -1.
        1   -1    0    0  501    0  0.00000000000E+00  0.00000000000E+00 -0.87736866035E+03  0.87736866037E+03  0.50400001928E-02 0.  1.
    10030    2    1    2    0    0  0.00000000000E+00  0.00000000000E+00  0.29207079716E+03  0.20468081179E+04  0.20258623154E+04 0.  0.
        1    1    3    3  502    0 -0.63712622002E+03 -0.71114665082E+02  0.93839028062E+03  0.11364697245E+04  0.50400001928E-02 0. -1.
       -1    1    3    3    0  502  0.63712622002E+03  0.71114665082E+02 -0.64631948346E+03  0.91033839343E+03  0.50400001928E-02 0.  1.
</event>
<event>
 5   0  0.1886323E-04  0.1988122E+04  0.7818609E-02  0.8612194E-01
       -2   -1    0    0    0  501  0.00000000000E+00  0.00000000000E+00  0.17240368561E+04  0.17240368561E+04  0.25500000920E-02 0. -1.
        2   -1    0    0  501    0  0.00000000000E+00  0.00000000000E+00 -0.57316463781E+03  0.57316463782E+03  0.25500000920E-02 0.  1.
    10030    2    1    2    0    0  0.00000000000E+00  0.00000000000E+00  0.11508722183E+04  0.22972014939E+04  0.19881216866E+04 0.  0.
        2    1    3    3  502    0 -0.36063852346E+03 -0.68871501187E+03 -0.14036235185E+03  0.78999373542E+03  0.25500000920E-02 0.  1.
       -2    1    3    3    0  502  0.36063852346E+03  0.68871501187E+03  0.12912345702E+04  0.15072077585E+04  0.25500000920E-02 0. -1.
</event>
<event>
 5   0  0.8271069E-05  0.2113228E+04  0.7818609E-02  0.8555438E-01
       -1   -1    0    0    0  501  0.00000000000E+00  0.00000000000E+00  0.15618453216E+04  0.15618453216E+04  0.50400001928E-02 0. -1.
        1   -1    0    0  501    0  0.00000000000E+00  0.00000000000E+00 -0.71481697674E+03  0.71481697675E+03  0.50400001928E-02 0.  1.
    10030    2    1    2    0    0  0.00000000000E+00  0.00000000000E+00  0.84702834483E+03  0.22766622983E+04  0.21132283842E+04 0.  0.
        2    1    3    3  502    0 -0.38312606337E+03 -0.13105200012E+03  0.14749398897E+04  0.15295123031E+04  0.25500000920E-02 0. -1.
       -2    1    3    3    0  502  0.38312606337E+03  0.13105200012E+03 -0.62791154486E+03  0.74714999521E+03  0.25500000920E-02 0.  1.
</event>
<event>
 5   0  0.1810875E-04  0.2085389E+04  0.7818609E-02  0.8567707E-01
        2   -1    0    0  501    0  0.00000000000E+00  0.00000000000E+00  0.24900940053E+04  0.24900940053E+04  0.25500000920E-02 0. -1.
       -2   -1    0    0    0  501  0.00000000000E+00  0.00000000000E+00 -0.43661485955E+03  0.43661485956E+03  0.25500000920E-02 0.  1.
    10030    2    1    2    0    0  0.00000000000E+00  0.00000000000E+00  0.20534791458E+04  0.29267088649E+04  0.20853892149E+04 0.  0.
        1    1    3    3  502    0 -0.26278052550E+03 -0.87037999364E+03  0.17431752331E+04  0.19660302213E+04  0.50400001928E-02 0. -1.
       -1    1    3    3    0  502  0.26278052550E+03  0.87037999364E+03  0.31030391267E+03  0.96067864354E+03  0.50400001928E-02 0.  1.
</event>
<event>
 5   0  0.1921687E-04  0.1969420E+04  0.7818609E-02  0.8621053E-01
        2   -1    0    0  501    0  0.00000000000E+00  0.00000000000E+00  0.10012953095E+04  0.10012953095E+04  0.25500000920E-02 0. -1.
       -2   -1    0    0    0  501  0.00000000000E+00  0.00000000000E+00 -0.96839969534E+03  0.96839969534E+03  0.25500000920E-02 0.  1.
    10030    2    1    2    0    0  0.00000000000E+00  0.00000000000E+00  0.32895614149E+02  0.19696950048E+04  0.19694202930E+04 0.  0.
        5    1    3    3  502    0 -0.84380935838E+03 -0.97919958717E+02  0.51454280852E+03  0.99316612075E+03  0.46999998093E+01 0. -1.
       -5    1    3    3    0  502  0.84380935838E+03  0.97919958717E+02 -0.48164719437E+03  0.97652888409E+03  0.46999998093E+01 0.  1.
</event>
<event>
 5   0  0.8486612E-05  0.1706941E+04  0.7818609E-02  0.8757415E-01
        1   -1    0    0  501    0  0.00000000000E+00  0.00000000000E+00  0.21148058474E+04  0.21148058474E+04  0.50400001928E-02 0.  1.
       -1   -1    0    0    0  501  0.00000000000E+00  0.00000000000E+00 -0.34443446026E+03  0.34443446029E+03  0.50400001928E-02 0. -1.
    10030    2    1    2    0    0  0.00000000000E+00  0.00000000000E+00  0.17703713872E+04  0.24592403077E+04  0.17069411362E+04 0.  0.
        5    1    3    3  502    0  0.81387086332E+03  0.17291555892E+03  0.61143062000E+03  0.10325478516E+04  0.46999998093E+01 0. -1.
       -5    1    3    3    0  502 -0.81387086332E+03 -0.17291555892E+03  0.11589407672E+04  0.14266924562E+04  0.46999998093E+01 0.  1.
</event>
<event>
 5   0  0.8486612E-05  0.2109818E+04  0.7818609E-02  0.8556931E-01
       -1   -1    0    0    0  501  0.00000000000E+00  0.00000000000E+00  0.10673239755E+04  0.10673239755E+04  0.50400001928E-02 0. -1.
        1   -1    0    0  501    0  0.00000000000E+00  0.00000000000E+00 -0.10426388395E+04  0.10426388395E+04  0.50400001928E-02 0.  1.
    10030    2    1    2    0    0  0.00000000000E+00  0.00000000000E+00  0.24685135920E+02  0.21099628150E+04  0.21098184104E+04 0.  0.
        5    1    3    3  502    0 -0.15443774179E+03  0.55510086404E+03  0.89604514520E+03  0.10653201292E+04  0.46999998093E+01 0. -1.
       -5    1    3    3    0  502  0.15443774179E+03 -0.55510086404E+03 -0.87136000928E+03  0.10446426859E+04  0.46999998093E+01 0.  1.
</event>
<event>
 5   0  0.1810875E-04  0.2098377E+04  0.7818609E-02  0.8561959E-01
        2   -1    0    0  501    0  0.00000000000E+00  0.00000000000E+00  0.86338148114E+03  0.86338148114E+03  0.25500000920E-02 0. -1.
       -2   -1    0    0    0  501  0.00000000000E+00  0.00000000000E+00 -0.12749831678E+04  0.12749831678E+04  0.25500000920E-02 0.  1.
    10030    2    1    2    0    0  0.00000000000E+00  0.00000000000E+00 -0.41160168669E+03  0.21383646490E+04  0.20983773311E+04 0.  0.
        1    1    3    3  502    0  0.87349456129E+03 -0.20886560688E+03 -0.75851960912E+03  0.11755720258E+04  0.50400001928E-02 0. -1.
       -1    1    3    3    0  502 -0.87349456129E+03  0.20886560688E+03  0.34691792243E+03  0.96279262319E+03  0.50400001928E-02 0.  1.
</event>
<event>
 5   0  0.1777590E-04  0.2090457E+04  0.7818609E-02  0.8565459E-01
       -2   -1    0    0    0  501  0.00000000000E+00  0.00000000000E+00  0.62193867893E+03  0.62193867894E+03  0.25500000920E-02 0. -1.
        2   -1    0    0  501    0  0.00000000000E+00  0.00000000000E+00 -0.17566078817E+04  0.17566078817E+04  0.25500000920E-02 0.  1.
    10030    2    1    2    0    0  0.00000000000E+00  0.00000000000E+00 -0.11346692028E+04  0.23785465607E+04  0.20904567782E+04 0.  0.
        4    1    3    3  502    0 -0.26417455809E+03  0.65213689700E+03 -0.14467903534E+04  0.16088115705E+04  0.12699999809E+01 0.  1.
       -4    1    3    3    0  502  0.26417455809E+03 -0.65213689700E+03  0.31212115064E+03  0.76973499020E+03  0.12699999809E+01 0. -1.
</event>
<event>
 5   0  0.8271069E-05  0.1567712E+04  0.7818609E-02  0.8840633E-01
       -1   -1    0    0    0  501  0.00000000000E+00  0.00000000000E+00  0.11479205063E+04  0.11479205063E+04  0.50400001928E-02 0. -1.
        1   -1    0    0  501    0  0.00000000000E+00  0.00000000000E+00 -0.53525473150E+03  0.53525473153E+03  0.50400001928E-02 0.  1.
    10030    2    1    2    0    0  0.00000000000E+00  0.00000000000E+00  0.61266577482E+03  0.16831752379E+04  0.15677115582E+04 0.  0.
        2    1    3    3  502    0 -0.32336423833E+03 -0.55432605931E+03  0.78958093550E+03  0.10174870340E+04  0.25500000920E-02 0. -1.
       -2    1    3    3    0  502  0.32336423833E+03  0.55432605931E+03 -0.17691516068E+03  0.66568820385E+03  0.25500000920E-02 0.  1.
</event>
<event>
 5   0  0.8525278E-05  0.2085906E+04  0.7818609E-02  0.8567478E-01
       -1   -1    0    0    0  501  0.00000000000E+00  0.00000000000E+00  0.73723825554E+03  0.73723825556E+03  0.50400001928E-02 0.  1.
        1   -1    0    0  501    0  0.00000000000E+00  0.00000000000E+00 -0.14754396492E+04  0.14754396492E+04  0.50400001928E-02 0. -1.
    10030    2    1    2    0    0  0.00000000000E+00  0.00000000000E+00 -0.73820139367E+03  0.22126779048E+04  0.20859056097E+04 0.  0.
        4    1    3    3  502    0  0.48281152145E+03  0.50887294569E+03  0.44961630879E+03  0.83319570218E+03  0.12699999809E+01 0.  1.
       -4    1    3    3    0  502 -0.48281152145E+03 -0.50887294569E+03 -0.11878177025E+04  0.13794822026E+04  0.12699999809E+01 0. -1.
</event>
<event>
 5   0  0.1815400E-04  0.2229577E+04  0.7818609E-02  0.8506217E-01
        2   -1    0    0  501    0  0.00000000000E+00  0.00000000000E+00  0.16363952388E+04  0.16363952388E+04  0.25500000920E-02 0.  1.
       -2   -1    0    0    0  501  0.00000000000E+00  0.00000000000E+00 -0.75944582762E+03  0.75944582762E+03  0.25500000920E-02 0. -1.
    10030    2    1    2    0    0  0.00000000000E+00  0.00000000000E+00  0.87694941118E+03  0.23958410664E+04  0.22295771226E+04 0.  0.
        3    1    3    3  502    0  0.26651088810E+03 -0.13219370159E+03  0.15929522846E+04  0.16204938196E+04  0.10100000352E+00 0.  1.
       -3    1    3    3    0  502 -0.26651088810E+03  0.13219370159E+03 -0.71600287341E+03  0.77534724681E+03  0.10100000352E+00 0. -1.
</event>
<event>
 5   0  0.8237966E-05  0.2102776E+04  0.7818609E-02  0.8560022E-01
        1   -1    0    0  501    0  0.00000000000E+00  0.00000000000E+00  0.21240540766E+04  0.21240540766E+04  0.50400001928E-02 0. -1.
       -1   -1    0    0    0  501  0.00000000000E+00  0.00000000000E+00 -0.52042754372E+03  0.52042754374E+03  0.50400001928E-02 0.  1.
    10030    2    1    2    0    0  0.00000000000E+00  0.00000000000E+00  0.16036265329E+04  0.26444816204E+04  0.21027755428E+04 0.  0.
        1    1    3    3  502    0  0.32835552093E+03  0.97356733802E+03  0.52126216439E+03  0.11521132556E+04  0.50400001928E-02 0. -1.
       -1    1    3    3    0  502 -0.32835552093E+03 -0.97356733802E+03  0.10823643685E+04  0.14923683647E+04  0.50400001928E-02 0.  1.
</event>
<event>
 5   0  0.1921687E-04  0.2186516E+04  0.7818609E-02  0.8524061E-01
        2   -1    0    0  501    0  0.00000000000E+00  0.00000000000E+00  0.23683274532E+04  0.23683274532E+04  0.25500000920E-02 0.  1.
       -2   -1    0    0    0  501  0.00000000000E+00  0.00000000000E+00 -0.50466557182E+03  0.50466557182E+03  0.25500000920E-02 0. -1.
    10030    2    1    2    0    0  0.00000000000E+00  0.00000000000E+00  0.18636618813E+04  0.28729930250E+04  0.21865162505E+04 0.  0.
        5    1    3    3  502    0  0.42198017290E+03  0.52145237921E+03 -0.20245253101E+03  0.70070604923E+03  0.46999998093E+01 0. -1.
       -5    1    3    3    0  502 -0.42198017290E+03 -0.52145237921E+03  0.20661144123E+04  0.21722869757E+04  0.46999998093E+01 0.  1.
</event>
<event>
 5   0  0.8271069E-05  0.2213817E+04  0.7818609E-02  0.8512699E-01
       -1   -1    0    0    0  501  0.00000000000E+00  0.00000000000E+00  0.14616466098E+04  0.14616466098E+04  0.50400001928E-02 0. -1.
        1   -1    0    0  501    0  0.00000000000E+00  0.00000000000E+00 -0.83826425985E+03  0.83826425987E+03  0.50400001928E-02 0.  1.
    10030    2    1    2    0    0  0.00000000000E+00  0.00000000000E+00  0.62338234991E+03  0.22999108696E+04  0.22138167165E+04 0.  0.
        2    1    3    3  502    0  0.74540971559E+03  0.19749981911E+01 -0.53842679409E+03  0.91953409796E+03  0.25500000920E-02 0.  1.
       -2    1    3    3    0  502 -0.74540971559E+03 -0.19749981911E+01  0.11618091440E+04  0.13803767717E+04  0.25500000920E-02 0. -1.
</event>
<event>
 5   0  0.1810875E-04  0.2091704E+04  0.7818609E-02  0.8564906E-01
       -2   -1    0    0    0  501  0.00000000000E+00  0.00000000000E+00  0.11237820298E+04  0.11237820298E+04  0.25500000920E-02 0.  1.
        2   -1    0    0  501    0  0.00000000000E+00  0.00000000000E+00 -0.97332657817E+03  0.97332657817E+03  0.25500000920E-02 0. -1.
    10030    2    1    2    0    0  0.00000000000E+00  0.00000000000E+00  0.15045545160E+03  0.20971086079E+04  0.20917044893E+04 0.  0.
        1    1    3    3  502    0 -0.10259544938E+01 -0.86535962379E+03 -0.51362145367E+03  0.10063077704E+04  0.50400001928E-02 0. -1.
       -1    1    3    3    0  502  0.10259544938E+01  0.86535962379E+03  0.66407690527E+03  0.10908008376E+04  0.50400001928E-02 0.  1.
</event>
<event>
 5   0  0.1886323E-04  0.1922237E+04  0.7818609E-02  0.8643866E-01
       -2   -1    0    0    0  501  0.00000000000E+00  0.00000000000E+00  0.11280947485E+04  0.11280947485E+04  0.25500000920E-02 0.  1.
        2   -1    0    0  501    0  0.00000000000E+00  0.00000000000E+00 -0.81885753843E+03  0.81885753844E+03  0.25500000920E-02 0. -1.
    10030    2    1    2    0    0  0.00000000000E+00  0.00000000000E+00  0.30923721003E+03  0.19469522869E+04  0.19222371226E+04 0.  0.
        2    1    3    3  502    0 -0.16717878847E+03  0.83019275251E+03  0.61497335340E+03  0.10465949451E+04  0.25500000920E-02 0.  1.
       -2    1    3    3    0  502  0.16717878847E+03 -0.83019275251E+03 -0.30573614337E+03  0.90035734184E+03  0.25500000920E-02 0. -1.
</event>
<event>
 5   0  0.6441125E-05  0.2105270E+04  0.7818609E-02  0.8558925E-01
       -3   -1    0    0    0  501  0.00000000000E+00  0.00000000000E+00  0.18251592277E+04  0.18251592305E+04  0.10100000352E+00 0.  1.
        3   -1    0    0  501    0  0.00000000000E+00  0.00000000000E+00 -0.60709271475E+03  0.60709272315E+03  0.10100000352E+00 0. -1.
    10030    2    1    2    0    0  0.00000000000E+00  0.00000000000E+00  0.12180665129E+04  0.24322519536E+04  0.21052704187E+04 0.  0.
        3    1    3    3  502    0 -0.37633562712E+03 -0.62625798324E+03  0.14844952553E+04  0.16545554506E+04  0.10100000352E+00 0.  1.
       -3    1    3    3    0  502  0.37633562712E+03  0.62625798324E+03 -0.26642874242E+03  0.77769650301E+03  0.10100000352E+00 0. -1.
</event>
<event>
 5   0  0.8525278E-05  0.2182238E+04  0.7818609E-02  0.8525857E-01
       -1   -1    0    0    0  501  0.00000000000E+00  0.00000000000E+00  0.87960010927E+03  0.87960010929E+03  0.50400001928E-02 0.  1.
        1   -1    0    0  501    0  0.00000000000E+00  0.00000000000E+00 -0.13535025669E+04  0.13535025669E+04  0.50400001928E-02 0. -1.
    10030    2    1    2    0    0  0.00000000000E+00  0.00000000000E+00 -0.47390245765E+03  0.22331026762E+04  0.21822383058E+04 0.  0.
        4    1    3    3  502    0  0.43332596439E+03 -0.89356975086E+03  0.22558086391E+03  0.10183941428E+04  0.12699999809E+01 0. -1.
       -4    1    3    3    0  502 -0.43332596439E+03  0.89356975086E+03 -0.69948332156E+03  0.12147085334E+04  0.12699999809E+01 0.  1.
</event>
<event>
 5   0  0.1777590E-04  0.2095046E+04  0.7818609E-02  0.8563429E-01
       -2   -1    0    0    0  501  0.00000000000E+00  0.00000000000E+00  0.67640895870E+03  0.67640895871E+03  0.25500000920E-02 0. -1.
        2   -1    0    0  501    0  0.00000000000E+00  0.00000000000E+00 -0.16222505807E+04  0.16222505807E+04  0.25500000920E-02 0.  1.
    10030    2    1    2    0    0  0.00000000000E+00  0.00000000000E+00 -0.94584162195E+03  0.22986595394E+04  0.20950463728E+04 0.  0.
        4    1    3    3  502    0 -0.83189699580E+03  0.57479326450E+03 -0.77312414286E+03  0.12728560255E+04  0.12699999809E+01 0. -1.
       -4    1    3    3    0  502  0.83189699580E+03 -0.57479326450E+03 -0.17271747909E+03  0.10258035138E+04  0.12699999809E+01 0.  1.
</event>
<event>
 5   0  0.1921687E-04  0.2113594E+04  0.7818609E-02  0.8555279E-01
        2   -1    0    0  501    0  0.00000000000E+00  0.00000000000E+00  0.73662355182E+03  0.73662355183E+03  0.25500000920E-02 0. -1.
       -2   -1    0    0    0  501  0.00000000000E+00  0.00000000000E+00 -0.15161340853E+04  0.15161340853E+04  0.25500000920E-02 0.  1.
    10030    2    1    2    0    0  0.00000000000E+00  0.00000000000E+00 -0.77951053344E+03  0.22527576371E+04  0.21135941663E+04 0.  0.
        5    1    3    3  502    0 -0.29175079768E+03  0.72288131259E+03 -0.11502633401E+04  0.13895336490E+04  0.46999998093E+01 0.  1.
       -5    1    3    3    0  502  0.29175079768E+03 -0.72288131259E+03  0.37075280666E+03  0.86322398813E+03  0.46999998093E+01 0. -1.
</event>
<event>
 5   0  0.8237966E-05  0.1965022E+04  0.7818609E-02  0.8623151E-01
        1   -1    0    0  501    0  0.00000000000E+00  0.00000000000E+00  0.12959262725E+04  0.12959262725E+04  0.50400001928E-02 0.  1.
       -1   -1    0    0    0  501  0.00000000000E+00  0.00000000000E+00 -0.74489430999E+03  0.74489431001E+03  0.50400001928E-02 0. -1.
    10030    2    1    2    0    0  0.00000000000E+00  0.00000000000E+00  0.55103196247E+03  0.20408205825E+04  0.19650222457E+04 0.  0.
        1    1    3    3  502    0 -0.65648018701E+03 -0.30361356029E+03  0.96613293302E+03  0.12068803894E+04  0.50400001928E-02 0.  1.
       -1    1    3    3    0  502  0.65648018701E+03  0.30361356029E+03 -0.41510097055E+03  0.83394019312E+03  0.50400001928E-02 0. -1.
</event>
<event>
 5   0  0.1777590E-04  0.2110154E+04  0.7818609E-02  0.8556784E-01
        2   -1    0    0  501    0  0.00000000000E+00  0.00000000000E+00  0.17294121777E+04  0.17294121777E+04  0.25500000920E-02 0.  1.
       -2   -1    0    0    0  501  0.00000000000E+00  0.00000000000E+00 -0.64367952972E+03  0.64367952973E+03  0.25500000920E-02 0. -1.
    10030    2    1    2    0    0  0.00000000000E+00  0.00000000000E+00  0.10857326480E+04  0.23730917074E+04  0.21101537548E+04 0.  0.
        4    1    3    3  502    0  0.85756123810E+03 -0.20206026806E+03  0.11956669427E+04  0.14852140182E+04  0.12699999809E+01 0.  1.
       -4    1    3    3    0  502 -0.85756123810E+03  0.20206026806E+03 -0.10993429472E+03  0.88787768925E+03  0.12699999809E+01 0. -1.
</event>
<event>
 5   0  0.8755004E-05  0.1804017E+04  0.7818609E-02  0.8704166E-01
       -1   -1    0    0    0  501  0.00000000000E+00  0.00000000000E+00  0.89136245723E+03  0.89136245724E+03  0.50400001928E-02 0.  1.
        1   -1    0    0  501    0  0.00000000000E+00  0.00000000000E+00 -0.91278138824E+03  0.91278138825E+03  0.50400001928E-02 0. -1.
    10030    2    1    2    0    0  0.00000000000E+00  0.00000000000E+00 -0.21418931007E+02  0.18041438455E+04  0.18040166974E+04 0.  0.
        3    1    3    3  502    0  0.56250983636E+03 -0.56232739223E+03  0.41474928959E+03  0.89702084450E+03  0.10100000352E+00 0.  1.
       -3    1    3    3    0  502 -0.56250983636E+03  0.56232739223E+03 -0.43616822060E+03  0.90712300099E+03  0.10100000352E+00 0. -1.
</event>
<event>
 5   0  0.8271069E-05  0.2078701E+04  0.7818609E-02  0.8570684E-01
       -1   -1    0    0    0  501  0.00000000000E+00  0.00000000000E+00  0.73581083329E+03  0.73581083330E+03  0.50400001928E-02 0. -1.
        1   -1    0    0  501    0  0.00000000000E+00  0.00000000000E+00 -0.14681075326E+04  0.14681075326E+04  0.50400001928E-02 0.  1.
    10030    2    1    2    0    0  0.00000000000E+00  0.00000000000E+00 -0.73229669932E+03  0.22039183659E+04  0.20787009664E+04 0.  0.
        2    1    3    3  502    0  0.10150173351E+04  0.15641143242E+02 -0.12967814969E+03  0.10233871498E+04  0.25500000920E-02 0.  1.
       -2    1    3    3    0  502 -0.10150173351E+04 -0.15641143242E+02 -0.60261854963E+03  0.11805312161E+04  0.25500000920E-02 0. -1.
</event>
<event>
 5   0  0.8271069E-05  0.2067036E+04  0.7818609E-02  0.8575905E-01
        1   -1    0    0  501    0  0.00000000000E+00  0.00000000000E+00  0.15973356113E+04  0.15973356113E+04  0.50400001928E-02 0.  1.
       -1   -1    0    0    0  501  0.00000000000E+00  0.00000000000E+00 -0.66871345247E+03  0.66871345248E+03  0.50400001928E-02 0. -1.
    10030    2    1    2    0    0  0.00000000000E+00  0.00000000000E+00  0.92862215885E+03  0.22660490638E+04  0.20670363436E+04 0.  0.
        2    1    3    3  502    0 -0.20299434939E+02 -0.99861384868E+03  0.75543076675E+03  0.12523247699E+04  0.25500000920E-02 0.  1.
       -2    1    3    3    0  502  0.20299434939E+02  0.99861384868E+03  0.17319139210E+03  0.10137242939E+04  0.25500000920E-02 0. -1.
</event>
<event>
 5   0  0.8237966E-05  0.1899692E+04  0.7818609E-02  0.8655010E-01
        1   -1    0    0  501    0  0.00000000000E+00  0.00000000000E+00  0.18161695058E+04  0.18161695058E+04  0.50400001928E-02 0.  1.
       -1   -1    0    0    0  501  0.00000000000E+00  0.00000000000E+00 -0.49676401615E+03  0.49676401617E+03  0.50400001928E-02 0. -1.
    10030    2    1    2    0    0  0.00000000000E+00  0.00000000000E+00  0.13194054897E+04  0.23129335220E+04  0.18996922464E+04 0.  0.
        1    1    3    3  502    0  0.31723788757E+02 -0.92938393553E+03  0.89530911051E+03  0.12908676546E+04  0.50400001928E-02 0.  1.
       -1    1    3    3    0  502 -0.31723788757E+02  0.92938393553E+03  0.42409637918E+03  0.10220658674E+04  0.50400001928E-02 0. -1.
</event>
<event>
 5   0  0.8486612E-05  0.2023087E+04  0.7818609E-02  0.8595902E-01
       -1   -1    0    0    0  501  0.00000000000E+00  0.00000000000E+00  0.88619003412E+03  0.88619003414E+03  0.50400001928E-02 0. -1.
        1   -1    0    0  501    0  0.00000000000E+00  0.00000000000E+00 -0.11546288647E+04  0.11546288647E+04  0.50400001928E-02 0.  1.
    10030    2    1    2    0    0  0.00000000000E+00  0.00000000000E+00 -0.26843883060E+03  0.20408188989E+04  0.20230873368E+04 0.  0.
        5    1    3    3  502    0  0.60581679103E+03 -0.23285110004E+03  0.64844468582E+03  0.91746183553E+03  0.46999998093E+01 0. -1.
       -5    1    3    3    0  502 -0.60581679103E+03  0.23285110004E+03 -0.91688351642E+03  0.11233570633E+04  0.46999998093E+01 0.  1.
</event>
<event>
 5   0  0.8271069E-05  0.2132893E+04  0.7818609E-02  0.8546891E-01
       -1   -1    0    0    0  501  0.00000000000E+00  0.00000000000E+00  0.78717617346E+03  0.78717617348E+03  0.50400001928E-02 0. -1.
        1   -1    0    0  501    0  0.00000000000E+00  0.00000000000E+00 -0.14447942978E+04  0.14447942978E+04  0.50400001928E-02 0.  1.
    10030    2    1    2    0    0  0.00000000000E+00  0.00000000000E+00 -0.65761812436E+03  0.22319704713E+04  0.21328925400E+04 0.  0.
        2    1    3    3  502    0 -0.60570780157E+03  0.86744483986E+03 -0.46906942654E+03  0.11573109427E+04  0.25500000920E-02 0. -1.
       -2    1    3    3    0  502  0.60570780157E+03 -0.86744483986E+03 -0.18854869782E+03  0.10746595287E+04  0.25500000920E-02 0.  1.
</event>
<event>
 5   0  0.1777590E-04  0.2012872E+04  0.7818609E-02  0.8600626E-01
        2   -1    0    0  501    0  0.00000000000E+00  0.00000000000E+00  0.12013714884E+04  0.12013714884E+04  0.25500000920E-02 0.  1.
       -2   -1    0    0    0  501  0.00000000000E+00  0.00000000000E+00 -0.84313117821E+03  0.84313117821E+03  0.25500000920E-02 0. -1.
    10030    2    1    2    0    0  0.00000000000E+00  0.00000000000E+00  0.35824031023E+03  0.20445026667E+04  0.20128723343E+04 0.  0.
        4    1    3    3  502    0  0.44576418626E+03 -0.42639718038E+03  0.98684714174E+03  0.11637822645E+04  0.12699999809E+01 0.  1.
       -4    1    3    3    0  502 -0.44576418626E+03  0.42639718038E+03 -0.62860683151E+03  0.88072040212E+03  0.12699999809E+01 0. -1.
</event>
<event>
 5   0  0.1777590E-04  0.2047622E+04  0.7818609E-02  0.8584674E-01
       -2   -1    0    0    0  501  0.00000000000E+00  0.00000000000E+00  0.55495124075E+03  0.55495124075E+03  0.25500000920E-02 0.  1.
        2   -1    0    0  501    0  0.00000000000E+00  0.00000000000E+00 -0.18887955748E+04  0.18887955748E+04  0.25500000920E-02 0. -1.
    10030    2    1    2    0    0  0.00000000000E+00  0.00000000000E+00 -0.13338443340E+04  0.24437468155E+04  0.20476224728E+04 0.  0.
        4    1    3    3  502    0 -0.77653567676E+03 -0.80396942272E+02  0.12357134586E+03  0.79040674087E+03  0.12699999809E+01 0.  1.
       -4    1    3    3    0  502  0.77653567676E+03  0.80396942272E+02 -0.14574156799E+04  0.16533400747E+04  0.12699999809E+01 0. -1.
</event>
<event>
 5   0  0.1810875E-04  0.2097959E+04  0.7818609E-02  0.8562143E-01
       -2   -1    0    0    0  501  0.00000000000E+00  0.00000000000E+00  0.74072661720E+03  0.74072661720E+03  0.25500000920E-02 0.  1.
        2   -1    0    0  501    0  0.00000000000E+00  0.00000000000E+00 -0.14855122316E+04  0.14855122316E+04  0.25500000920E-02 0. -1.
    10030    2    1    2    0    0  0.00000000000E+00  0.00000000000E+00 -0.74478561440E+03  0.22262388488E+04  0.20979594373E+04 0.  0.
        1    1    3    3  502    0  0.59337240345E+03  0.76611932815E+03  0.53824070390E+02  0.97052906434E+03  0.50400001928E-02 0. -1.
       -1    1    3    3    0  502 -0.59337240345E+03 -0.76611932815E+03 -0.79860968479E+03  0.12557097845E+04  0.50400001928E-02 0.  1.
</event>
<event>
 5   0  0.8525278E-05  0.2074330E+04  0.7818609E-02  0.8572636E-01
       -1   -1    0    0    0  501  0.00000000000E+00  0.00000000000E+00  0.55780121592E+03  0.55780121595E+03  0.50400001928E-02 0.  1.
        1   -1    0    0  501    0  0.00000000000E+00  0.00000000000E+00 -0.19284843098E+04  0.19284843098E+04  0.50400001928E-02 0. -1.
    10030    2    1    2    0    0  0.00000000000E+00  0.00000000000E+00 -0.13706830938E+04  0.24862855257E+04  0.20743296680E+04 0.  0.
        4    1    3    3  502    0 -0.86889517626E+03  0.31669295795E+03 -0.12259283916E+03  0.93290078468E+03  0.12699999809E+01 0.  1.
       -4    1    3    3    0  502  0.86889517626E+03 -0.31669295795E+03 -0.12480902547E+04  0.15533847410E+04  0.12699999809E+01 0. -1.
</event>
<event>
 5   0  0.8525278E-05  0.2066293E+04  0.7818609E-02  0.8576238E-01
       -1   -1    0    0    0  501  0.00000000000E+00  0.00000000000E+00  0.12342057261E+04  0.12342057261E+04  0.50400001928E-02 0.  1.
        1   -1    0    0  501    0  0.00000000000E+00  0.00000000000E+00 -0.86484138727E+03  0.86484138729E+03  0.50400001928E-02 0. -1.
    10030    2    1    2    0    0  0.00000000000E+00  0.00000000000E+00  0.36936433879E+03  0.20990471134E+04  0.20662934858E+04 0.  0.
        4    1    3    3  502    0 -0.94979926700E+03  0.22634470603E+03  0.52773325302E+03  0.11098894417E+04  0.12699999809E+01 0.  1.
       -4    1    3    3    0  502  0.94979926700E+03 -0.22634470603E+03 -0.15836891422E+03  0.98915767167E+03  0.12699999809E+01 0. -1.
</event>
<event>
 5   0  0.1921687E-04  0.2104491E+04  0.7818609E-02  0.8559268E-01
       -2   -1    0    0    0  501  0.00000000000E+00  0.00000000000E+00  0.62268600491E+03  0.62268600492E+03  0.25500000920E-02 0.  1.
        2   -1    0    0  501    0  0.00000000000E+00  0.00000000000E+00 -0.17781357883E+04  0.17781357883E+04  0.25500000920E-02 0. -1.
    10030    2    1    2    0    0  0.00000000000E+00  0.00000000000E+00 -0.11554497834E+04  0.24008217932E+04  0.21044906939E+04 0.  0.
        5    1    3    3  502    0  0.87910307955E+03  0.73146710170E+02 -0.12321014052E+04  0.15153443927E+04  0.46999998093E+01 0. -1.
       -5    1    3    3    0  502 -0.87910307955E+03 -0.73146710170E+02  0.76651621853E+02  0.88547740051E+03  0.46999998093E+01 0.  1.
</event>
<event>
 5   0  0.8486612E-05  0.2109852E+04  0.7818609E-02  0.8556916E-01
        1   -1    0    0  501    0  0.00000000000E+00  0.00000000000E+00  0.15624917067E+04  0.15624917067E+04  0.50400001928E-02 0.  1.
       -1   -1    0    0    0  501  0.00000000000E+00  0.00000000000E+00 -0.71223986316E+03  0.71223986318E+03  0.50400001928E-02 0. -1.
    10030    2    1    2    0    0  0.00000000000E+00  0.00000000000E+00  0.85025184351E+03  0.22747315699E+04  0.21098520132E+04 0.  0.
        5    1    3    3  502    0 -0.69252533384E+03 -0.42914933213E+03  0.11476345947E+04  0.14074259271E+04  0.46999998093E+01 0.  1.
       -5    1    3    3    0  502  0.69252533384E+03  0.42914933213E+03 -0.29738275120E+03  0.86730564277E+03  0.46999998093E+01 0. -1.
</event>
<event>
 5   0  0.6441125E-05  0.2112414E+04  0.7818609E-02  0.8555795E-01
       -3   -1    0    0    0  501  0.00000000000E+00  0.00000000000E+00  0.82372656649E+03  0.82372657268E+03  0.10100000352E+00 0.  1.
        3   -1    0    0  501    0  0.00000000000E+00  0.00000000000E+00 -0.13542999106E+04  0.13542999143E+04  0.10100000352E+00 0. -1.
    10030    2    1    2    0    0  0.00000000000E+00  0.00000000000E+00 -0.53057334406E+03  0.21780264870E+04  0.21124136206E+04 0.  0.
        2    1    3    3  502    0  0.26522504986E+03  0.21630135832E+03  0.76497054801E+03  0.83803970312E+03  0.25500000920E-02 0.  1.
       -2    1    3    3    0  502 -0.26522504986E+03 -0.21630135832E+03 -0.12955438921E+04  0.13399867839E+04  0.25500000920E-02 0. -1.
</event>
<event>
 5   0  0.1886323E-04  0.2279126E+04  0.7818609E-02  0.8486197E-01
        2   -1    0    0  501    0  0.00000000000E+00  0.00000000000E+00  0.79048924676E+03  0.79048924676E+03  0.25500000920E-02 0. -1.
       -2   -1    0    0    0  501  0.00000000000E+00  0.00000000000E+00 -0.16427846573E+04  0.16427846573E+04  0.25500000920E-02 0.  1.
    10030    2    1    2    0    0  0.00000000000E+00  0.00000000000E+00 -0.85229541058E+03  0.24332739041E+04  0.22791258029E+04 0.  0.
        2    1    3    3  502    0 -0.19662161470E+03  0.39998704723E+03  0.69357360649E+03  0.82443559175E+03  0.25500000920E-02 0. -1.
       -2    1    3    3    0  502  0.19662161470E+03 -0.39998704723E+03 -0.15458690171E+04  0.16088383123E+04  0.25500000920E-02 0.  1.
</event>
<event>
 5   0  0.8755004E-05  0.2089372E+04  0.7818609E-02  0.8565940E-01
        1   -1    0    0  501    0  0.00000000000E+00  0.00000000000E+00  0.13169953788E+04  0.13169953788E+04  0.50400001928E-02 0.  1.
       -1   -1    0    0    0  501  0.00000000000E+00  0.00000000000E+00 -0.82868086798E+03  0.82868086800E+03  0.50400001928E-02 0. -1.
    10030    2    1    2    0    0  0.00000000000E+00  0.00000000000E+00  0.48831451085E+03  0.21456762468E+04  0.20893720336E+04 0.  0.
        3    1    3    3  502    0  0.65655031130E+03 -0.64364115158E+03  0.75354476588E+03  0.11887648917E+04  0.10100000352E+00 0.  1.
       -3    1    3    3    0  502 -0.65655031130E+03  0.64364115158E+03 -0.26523025503E+03  0.95691135517E+03  0.10100000352E+00 0. -1.
</event>
<event>
 5   0  0.1815400E-04  0.2105883E+04  0.7818609E-02  0.8558656E-01
       -2   -1    0    0    0  501  0.00000000000E+00  0.00000000000E+00  0.75758293354E+03  0.75758293355E+03  0.25500000920E-02 0.  1.
        2   -1    0    0  501    0  0.00000000000E+00  0.00000000000E+00 -0.14634510376E+04  0.14634510376E+04  0.25500000920E-02 0. -1.
    10030    2    1    2    0    0  0.00000000000E+00  0.00000000000E+00 -0.70586810410E+03  0.22210339712E+04  0.21058827415E+04 0.  0.
        3    1    3    3  502    0 -0.34443995673E+02 -0.18644671255E+03  0.73943049423E+03  0.76335197089E+03  0.10100000352E+00 0.  1.
       -3    1    3    3    0  502  0.34443995673E+02  0.18644671255E+03 -0.14452985983E+04  0.14576820003E+04  0.10100000352E+00 0. -1.
</event>
<event>
 5   0  0.1777590E-04  0.2103890E+04  0.7818609E-02  0.8559532E-01
        2   -1    0    0  501    0  0.00000000000E+00  0.00000000000E+00  0.72274393178E+03  0.72274393178E+03  0.25500000920E-02 0. -1.
       -2   -1    0    0    0  501  0.00000000000E+00  0.00000000000E+00 -0.15310937780E+04  0.15310937780E+04  0.25500000920E-02 0.  1.
    10030    2    1    2    0    0  0.00000000000E+00  0.00000000000E+00 -0.80834984625E+03  0.22538377098E+04  0.21038904316E+04 0.  0.
        4    1    3    3  502    0 -0.15772160617E+03  0.23060891122E+03  0.68227101421E+03  0.73725974033E+03  0.12699999809E+01 0. -1.
       -4    1    3    3    0  502  0.15772160617E+03 -0.23060891122E+03 -0.14906208605E+04  0.15165779695E+04  0.12699999809E+01 0.  1.
</event>
<event>
 5   0  0.1777590E-04  0.2110701E+04  0.7818609E-02  0.8556544E-01
       -2   -1    0    0    0  501  0.00000000000E+00  0.00000000000E+00  0.71697126839E+03  0.71697126839E+03  0.25500000920E-02 0.  1.
        2   -1    0    0  501    0  0.00000000000E+00  0.00000000000E+00 -0.15534303289E+04  0.15534303289E+04  0.25500000920E-02 0. -1.
    10030    2    1    2    0    0  0.00000000000E+00  0.00000000000E+00 -0.83645906054E+03  0.22704015973E+04  0.21107012231E+04 0.  0.
        4    1    3    3  502    0  0.40483355946E+03 -0.84629512118E+03 -0.93818473635E+03  0.13267621699E+04  0.12699999809E+01 0. -1.
       -4    1    3    3    0  502 -0.40483355946E+03  0.84629512118E+03  0.10172567581E+03  0.94363942744E+03  0.12699999809E+01 0.  1.
</event>
<event>
 5   0  0.8271069E-05  0.2075748E+04  0.7818609E-02  0.8572003E-01
       -1   -1    0    0    0  501  0.00000000000E+00  0.00000000000E+00  0.12148228660E+04  0.12148228660E+04  0.50400001928E-02 0.  1.
        1   -1    0    0  501    0  0.00000000000E+00  0.00000000000E+00 -0.88669907005E+03  0.88669907007E+03  0.50400001928E-02 0. -1.
    10030    2    1    2    0    0  0.00000000000E+00  0.00000000000E+00  0.32812379596E+03  0.21015219361E+04  0.20757478706E+04 0.  0.
        2    1    3    3  502    0  0.16750370285E+03 -0.79153924744E+03  0.82220321801E+03  0.11535206987E+04  0.25500000920E-02 0.  1.
       -2    1    3    3    0  502 -0.16750370285E+03  0.79153924744E+03 -0.49407942205E+03  0.94800123735E+03  0.25500000920E-02 0. -1.
</event>
<event>
 5   0  0.1810875E-04  0.1955067E+04  0.7818609E-02  0.8627921E-01
       -2   -1    0    0    0  501  0.00000000000E+00  0.00000000000E+00  0.10364345843E+04  0.10364345843E+04  0.25500000920E-02 0.  1.
        2   -1    0    0  501    0  0.00000000000E+00  0.00000000000E+00 -0.92197968806E+03  0.92197968806E+03  0.25500000920E-02 0. -1.
    10030    2    1    2    0    0  0.00000000000E+00  0.00000000000E+00  0.11445489619E+03  0.19584142723E+04  0.19550668886E+04 0.  0.
        1    1    3    3  502    0  0.32269674014E+03 -0.28093277929E+03 -0.82320586750E+03  0.92775229069E+03  0.50400001928E-02 0. -1.
       -1    1    3    3    0  502 -0.32269674014E+03  0.28093277929E+03  0.93766076369E+03  0.10306619816E+04  0.50400001928E-02 0.  1.
</event>
<event>
 5   0  0.8237966E-05  0.2088028E+04  0.7818609E-02  0.8566535E-01
        1   -1    0    0  501    0  0.00000000000E+00  0.00000000000E+00  0.58903195196E+03  0.58903195198E+03  0.50400001928E-02 0.  1.
       -1   -1    0    0    0  501  0.00000000000E+00  0.00000000000E+00 -0.18504352454E+04  0.18504352454E+04  0.50400001928E-02 0. -1.
    10030    2    1    2    0    0  0.00000000000E+00  0.00000000000E+00 -0.12614032934E+04  0.24394671973E+04  0.20880282417E+04 0.  0.
        1    1    3    3  502    0  0.39891089931E+03 -0.90445610173E+03 -0.23832510412E+03  0.10168429578E+04  0.50400001928E-02 0.  1.
       -1    1    3    3    0  502 -0.39891089931E+03  0.90445610173E+03 -0.10230781893E+04  0.14226242395E+04  0.50400001928E-02 0. -1.
</event>
<event>
 5   0  0.8486612E-05  0.2059262E+04  0.7818609E-02  0.8579404E-01
        1   -1    0    0  501    0  0.00000000000E+00  0.00000000000E+00  0.73246066196E+03  0.73246066198E+03  0.50400001928E-02 0.  1.
       -1   -1    0    0    0  501  0.00000000000E+00  0.00000000000E+00 -0.14473677986E+04  0.14473677986E+04  0.50400001928E-02 0. -1.
    10030    2    1    2    0    0  0.00000000000E+00  0.00000000000E+00 -0.71490713664E+03  0.21798284606E+04  0.20592619803E+04 0.  0.
        5    1    3    3  502    0  0.69778646010E+01  0.36824601468E+03 -0.13752378398E+04  0.14237117067E+04  0.46999998093E+01 0. -1.
       -5    1    3    3    0  502 -0.69778646010E+01 -0.36824601468E+03  0.66033070315E+03  0.75611675385E+03  0.46999998093E+01 0.  1.
</event>
<event>
 5   0  0.1810875E-04  0.1904844E+04  0.7818609E-02  0.8652449E-01
       -2   -1    0    0    0  501  0.00000000000E+00  0.00000000000E+00  0.11136785141E+04  0.11136785141E+04  0.25500000920E-02 0.  1.
        2   -1    0    0  501    0  0.00000000000E+00  0.00000000000E+00 -0.81451509312E+03  0.81451509312E+03  0.25500000920E-02 0. -1.
    10030    2    1    2    0    0  0.00000000000E+00  0.00000000000E+00  0.29916342095E+03  0.19281936072E+04  0.19048443071E+04 0.  0.
        1    1    3    3  502    0  0.60206778653E+03 -0.65447387819E+03  0.49476947744E+03  0.10176534344E+04  0.50400001928E-02 0.  1.
       -1    1    3    3    0  502 -0.60206778653E+03  0.65447387819E+03 -0.19560605650E+03  0.91054017274E+03  0.50400001928E-02 0. -1.
</event>
<event>
 5   0  0.8486612E-05  0.2044089E+04  0.7818609E-02  0.8586281E-01
       -1   -1    0    0    0  501  0.00000000000E+00  0.00000000000E+00  0.19230812212E+04  0.19230812212E+04  0.50400001928E-02 0. -1.
        1   -1    0    0  501    0  0.00000000000E+00  0.00000000000E+00 -0.54317777374E+03  0.54317777376E+03  0.50400001928E-02 0.  1.
    10030    2    1    2    0    0  0.00000000000E+00  0.00000000000E+00  0.13799034475E+04  0.24662589950E+04  0.20440890162E+04 0.  0.
        5    1    3    3  502    0  0.40229932669E+03 -0.68460643195E+02 -0.44060250345E+03  0.60056994927E+03  0.46999998093E+01 0.  1.
       -5    1    3    3    0  502 -0.40229932669E+03  0.68460643195E+02  0.18205059509E+04  0.18656890457E+04  0.46999998093E+01 0. -1.
</event>
<event>
 5   0  0.8755004E-05  0.2106713E+04  0.7818609E-02  0.8558292E-01
        1   -1    0    0  501    0  0.00000000000E+00  0.00000000000E+00  0.10050759251E+04  0.10050759252E+04  0.50400001928E-02 0. -1.
       -1   -1    0    0    0  501  0.00000000000E+00  0.00000000000E+00 -0.11039565216E+04  0.11039565216E+04  0.50400001928E-02 0.  1.
    10030    2    1    2    0    0  0.00000000000E+00  0.00000000000E+00 -0.98880596446E+02  0.21090324468E+04  0.21067131958E+04 0.  0.
        3    1    3    3  502    0 -0.59345011406E+03 -0.86383715692E+03  0.56328464701E+02  0.10495573246E+04  0.10100000352E+00 0. -1.
       -3    1    3    3    0  502  0.59345011406E+03  0.86383715692E+03 -0.15520906115E+03  0.10594751221E+04  0.10100000352E+00 0.  1.
</event>
<event>
 5   0  0.8525278E-05  0.2025373E+04  0.7818609E-02  0.8594849E-01
       -1   -1    0    0    0  501  0.00000000000E+00  0.00000000000E+00  0.43993573594E+03  0.43993573597E+03  0.50400001928E-02 0. -1.
        1   -1    0    0  501    0  0.00000000000E+00  0.00000000000E+00 -0.23311000544E+04  0.23311000544E+04  0.50400001928E-02 0.  1.
    10030    2    1    2    0    0  0.00000000000E+00  0.00000000000E+00 -0.18911643185E+04  0.27710357904E+04  0.20253732674E+04 0.  0.
        4    1    3    3  502    0 -0.61714724771E+03  0.23235403464E+03 -0.19970858435E+04  0.21031435048E+04  0.12699999809E+01 0.  1.
       -4    1    3    3    0  502  0.61714724771E+03 -0.23235403464E+03  0.10592152500E+03  0.66789228557E+03  0.12699999809E+01 0. -1.
</event>
<event>
 5   0  0.1921687E-04  0.2071969E+04  0.7818609E-02  0.8573693E-01
       -2   -1    0    0    0  501  0.00000000000E+00  0.00000000000E+00  0.45816426140E+03  0.45816426140E+03  0.25500000920E-02 0.  1.
        2   -1    0    0  501    0  0.00000000000E+00  0.00000000000E+00 -0.23425313254E+04  0.23425313254E+04  0.25500000920E-02 0. -1.
    10030    2    1    2    0    0  0.00000000000E+00  0.00000000000E+00 -0.18843670640E+04  0.28006955868E+04  0.20719692416E+04 0.  0.
        5    1    3    3  502    0  0.51581905279E+03 -0.89165813691E+03 -0.10909850380E+04  0.15004645852E+04  0.46999998093E+01 0. -1.
       -5    1    3    3    0  502 -0.51581905279E+03  0.89165813691E+03 -0.79338202603E+03  0.13002310016E+04  0.46999998093E+01 0.  1.
</event>
<event>
 5   0  0.1810875E-04  0.2102389E+04  0.7818609E-02  0.8560192E-01
        2   -1    0    0  501    0  0.00000000000E+00  0.00000000000E+00  0.10834111687E+04  0.10834111687E+04  0.25500000920E-02 0. -1.
       -2   -1    0    0    0  501  0.00000000000E+00  0.00000000000E+00 -0.10199362148E+04  0.10199362148E+04  0.25500000920E-02 0.  1.
    10030    2    1    2    0    0  0.00000000000E+00  0.00000000000E+00  0.63474953816E+02  0.21033473835E+04  0.21023893897E+04 0.  0.
        1    1    3    3  502    0 -0.69053777884E+02 -0.15229495631E+03  0.10700196578E+04  0.10830070388E+04  0.50400001928E-02 0. -1.
       -1    1    3    3    0  502  0.69053777884E+02  0.15229495631E+03 -0.10065447040E+04  0.10203403447E+04  0.50400001928E-02 0.  1.
</event>
<event>
 5   0  0.8271069E-05  0.2066544E+04  0.7818609E-02  0.8576126E-01
       -1   -1    0    0    0  501  0.00000000000E+00  0.00000000000E+00  0.67700522887E+03  0.67700522889E+03  0.50400001928E-02 0. -1.
        1   -1    0    0  501    0  0.00000000000E+00  0.00000000000E+00 -0.15770202439E+04  0.15770202439E+04  0.50400001928E-02 0.  1.
    10030    2    1    2    0    0  0.00000000000E+00  0.00000000000E+00 -0.90001501504E+03  0.22540254728E+04  0.20665439276E+04 0.  0.
        2    1    3    3  502    0  0.63484499919E+03 -0.60033638063E+03 -0.10516068481E+04  0.13672267207E+04  0.25500000920E-02 0.  1.
       -2    1    3    3    0  502 -0.63484499919E+03  0.60033638063E+03  0.15159183302E+03  0.88679875211E+03  0.25500000920E-02 0. -1.
</event>
<event>
 5   0  0.8486612E-05  0.2092181E+04  0.7818609E-02  0.8564696E-01
        1   -1    0    0  501    0  0.00000000000E+00  0.00000000000E+00  0.88172366611E+03  0.88172366613E+03  0.50400001928E-02 0. -1.
       -1   -1    0    0    0  501  0.00000000000E+00  0.00000000000E+00 -0.12410973271E+04  0.12410973272E+04  0.50400001928E-02 0.  1.
    10030    2    1    2    0    0  0.00000000000E+00  0.00000000000E+00 -0.35937366103E+03  0.21228209933E+04  0.20921805709E+04 0.  0.
        5    1    3    3  502    0 -0.57679647783E+03  0.86847683165E+03 -0.26659527299E+03  0.10761232799E+04  0.46999998093E+01 0.  1.
       -5    1    3    3    0  502  0.57679647783E+03 -0.86847683165E+03 -0.92778388044E+02  0.10466977134E+04  0.46999998093E+01 0. -1.
</event>
<event>
 5   0  0.1815400E-04  0.2094725E+04  0.7818609E-02  0.8563571E-01
        2   -1    0    0  501    0  0.00000000000E+00  0.00000000000E+00  0.14309815388E+04  0.14309815388E+04  0.25500000920E-02 0. -1.
       -2   -1    0    0    0  501  0.00000000000E+00  0.00000000000E+00 -0.76658415395E+03  0.76658415395E+03  0.25500000920E-02 0.  1.
    10030    2    1    2    0    0  0.00000000000E+00  0.00000000000E+00  0.66439738489E+03  0.21975656928E+04  0.20947245855E+04 0.  0.
        3    1    3    3  502    0 -0.44954041319E+03  0.84055600730E+03 -0.12309751596E+03  0.96113162113E+03  0.10100000352E+00 0.  1.
       -3    1    3    3    0  502  0.44954041319E+03 -0.84055600730E+03  0.78749490086E+03  0.12364340717E+04  0.10100000352E+00 0. -1.
</event>
<event>
 5   0  0.1810875E-04  0.2086104E+04  0.7818609E-02  0.8567390E-01
        2   -1    0    0  501    0  0.00000000000E+00  0.00000000000E+00  0.26209541160E+04  0.26209541160E+04  0.25500000920E-02 0.  1.
       -2   -1    0    0    0  501  0.00000000000E+00  0.00000000000E+00 -0.41509973815E+03  0.41509973816E+03  0.25500000920E-02 0. -1.
    10030    2    1    2    0    0  0.00000000000E+00  0.00000000000E+00  0.22058543778E+04  0.30360538541E+04  0.20861038970E+04 0.  0.
        1    1    3    3  502    0 -0.51480474409E+03  0.13848959226E+02  0.24230224680E+04  0.24771462610E+04  0.50400001928E-02 0.  1.
       -1    1    3    3    0  502  0.51480474409E+03 -0.13848959226E+02 -0.21716809016E+03  0.55890759309E+03  0.50400001928E-02 0. -1.
</event>
<event>
 5   0  0.6441125E-05  0.2111965E+04  0.7818609E-02  0.8555991E-01
       -3   -1    0    0    0  501  0.00000000000E+00  0.00000000000E+00  0.93041499957E+03  0.93041500505E+03  0.10100000352E+00 0. -1.
        3   -1    0    0  501    0  0.00000000000E+00  0.00000000000E+00 -0.11984961662E+04  0.11984961705E+04  0.10100000352E+00 0.  1.
    10030    2    1    2    0    0  0.00000000000E+00  0.00000000000E+00 -0.26808116665E+03  0.21289111755E+04  0.21119647917E+04 0.  0.
        4    1    3    3  502    0 -0.68808038891E+03 -0.74606198546E+03 -0.42798649681E+03  0.11014704545E+04  0.12699999809E+01 0.  1.
       -4    1    3    3    0  502  0.68808038891E+03  0.74606198546E+03  0.15990533016E+03  0.10274407210E+04  0.12699999809E+01 0. -1.
</event>
<event>
 5   0  0.8271069E-05  0.2120747E+04  0.7818609E-02  0.8552159E-01
       -1   -1    0    0    0  501  0.00000000000E+00  0.00000000000E+00  0.11376750142E+04  0.11376750142E+04  0.50400001928E-02 0.  1.
        1   -1    0    0  501    0  0.00000000000E+00  0.00000000000E+00 -0.98832430962E+03  0.98832430963E+03  0.50400001928E-02 0. -1.
    10030    2    1    2    0    0  0.00000000000E+00  0.00000000000E+00  0.14935070460E+03  0.21259993239E+04  0.21207469184E+04 0.  0.
        2    1    3    3  502    0  0.56989257962E+03  0.84504051697E+03  0.36783910350E+03  0.10835943123E+04  0.25500000920E-02 0.  1.
       -2    1    3    3    0  502 -0.56989257962E+03 -0.84504051697E+03 -0.21848839890E+03  0.10424050115E+04  0.25500000920E-02 0. -1.
</event>
<event>
 5   0  0.8486612E-05  0.2109351E+04  0.7818609E-02  0.8557136E-01
       -1   -1    0    0    0  501  0.00000000000E+00  0.00000000000E+00  0.79211623365E+03  0.79211623366E+03  0.50400001928E-02 0. -1.
        1   -1    0    0  501    0  0.00000000000E+00  0.00000000000E+00 -0.14042634656E+04  0.14042634656E+04  0.50400001928E-02 0.  1.
    10030    2    1    2    0    0  0.00000000000E+00  0.00000000000E+00 -0.61214723194E+03  0.21963796993E+04  0.21093505042E+04 0.  0.
        5    1    3    3  502    0  0.51755442206E+02  0.46099296389E+03 -0.12923191892E+04  0.13730637696E+04  0.46999998093E+01 0.  1.
       -5    1    3    3    0  502 -0.51755442206E+02 -0.46099296389E+03  0.68017195728E+03  0.82331592966E+03  0.46999998093E+01 0. -1.
</event>
<event>
 5   0  0.8271069E-05  0.2092213E+04  0.7818609E-02  0.8564681E-01
       -1   -1    0    0    0  501  0.00000000000E+00  0.00000000000E+00  0.10226446742E+04  0.10226446742E+04  0.50400001928E-02 0.  1.
        1   -1    0    0  501    0  0.00000000000E+00  0.00000000000E+00 -0.10701063720E+04  0.10701063720E+04  0.50400001928E-02 0. -1.
    10030    2    1    2    0    0  0.00000000000E+00  0.00000000000E+00 -0.47461697760E+02  0.20927510462E+04  0.20922127828E+04 0.  0.
        2    1    3    3  502    0 -0.23376125155E+03  0.28197616418E+03 -0.10038725828E+04  0.10686042496E+04  0.25500000920E-02 0. -1.
       -2    1    3    3    0  502  0.23376125155E+03 -0.28197616418E+03  0.95641088502E+03  0.10241467966E+04  0.25500000920E-02 0.  1.
</event>
<event>
 5   0  0.8486612E-05  0.2094325E+04  0.7818609E-02  0.8563747E-01
       -1   -1    0    0    0  501  0.00000000000E+00  0.00000000000E+00  0.18654044769E+04  0.18654044769E+04  0.50400001928E-02 0. -1.
        1   -1    0    0  501    0  0.00000000000E+00  0.00000000000E+00 -0.58783457591E+03  0.58783457593E+03  0.50400001928E-02 0.  1.
    10030    2    1    2    0    0  0.00000000000E+00  0.00000000000E+00  0.12775699009E+04  0.24532390528E+04  0.20943249505E+04 0.  0.
        5    1    3    3  502    0 -0.16115083721E+03 -0.50129925093E+03  0.16990288560E+04  0.17787612754E+04  0.46999998093E+01 0. -1.
       -5    1    3    3    0  502  0.16115083721E+03  0.50129925093E+03 -0.42145895510E+03  0.67447777735E+03  0.46999998093E+01 0.  1.
</event>
<event>
 5   0  0.8271069E-05  0.2091639E+04  0.7818609E-02  0.8564936E-01
       -1   -1    0    0    0  501  0.00000000000E+00  0.00000000000E+00  0.45094407323E+03  0.45094407326E+03  0.50400001928E-02 0. -1.
        1   -1    0    0  501    0  0.00000000000E+00  0.00000000000E+00 -0.24254405278E+04  0.24254405278E+04  0.50400001928E-02 0.  1.
    10030    2    1    2    0    0  0.00000000000E+00  0.00000000000E+00 -0.19744964546E+04  0.28763846011E+04  0.20916386218E+04 0.  0.
        2    1    3    3  502    0 -0.70283764807E+03  0.77250554193E+03 -0.91202110998E+03  0.13865525871E+04  0.25500000920E-02 0. -1.
       -2    1    3    3    0  502  0.70283764807E+03 -0.77250554193E+03 -0.10624753446E+04  0.14898320139E+04  0.25500000920E-02 0.  1.
</event>
<event>
 5   0  0.1815400E-04  0.2108196E+04  0.7818609E-02  0.8557642E-01
       -2   -1    0    0    0  501  0.00000000000E+00  0.00000000000E+00  0.55569279223E+03  0.55569279223E+03  0.25500000920E-02 0. -1.
        2   -1    0    0  501    0  0.00000000000E+00  0.00000000000E+00 -0.19995261478E+04  0.19995261478E+04  0.25500000920E-02 0.  1.
    10030    2    1    2    0    0  0.00000000000E+00  0.00000000000E+00 -0.14438333556E+04  0.25552189401E+04  0.21081956913E+04 0.  0.
        3    1    3    3  502    0 -0.83627892566E+03 -0.51304872663E+03 -0.11890492018E+04  0.15415639629E+04  0.10100000352E+00 0.  1.
       -3    1    3    3    0  502  0.83627892566E+03  0.51304872663E+03 -0.25478415383E+03  0.10136549771E+04  0.10100000352E+00 0. -1.
</event>
<event>
 5   0  0.1886323E-04  0.2169955E+04  0.7818609E-02  0.8531039E-01
        2   -1    0    0  501    0  0.00000000000E+00  0.00000000000E+00  0.96560646968E+03  0.96560646969E+03  0.25500000920E-02 0.  1.
       -2   -1    0    0    0  501  0.00000000000E+00  0.00000000000E+00 -0.12191052949E+04  0.12191052949E+04  0.25500000920E-02 0. -1.
    10030    2    1    2    0    0  0.00000000000E+00  0.00000000000E+00 -0.25349882522E+03  0.21847117646E+04  0.21699548014E+04 0.  0.
        2    1    3    3  502    0  0.91490196577E+03  0.54743843241E+03 -0.32921777568E+03  0.11158489092E+04  0.25500000920E-02 0.  1.
       -2    1    3    3    0  502 -0.91490196577E+03 -0.54743843241E+03  0.75718950465E+02  0.10688628554E+04  0.25500000920E-02 0. -1.
</event>
<event>
 5   0  0.1810875E-04  0.2148730E+04  0.7818609E-02  0.8540076E-01
        2   -1    0    0  501    0  0.00000000000E+00  0.00000000000E+00  0.15310108096E+04  0.15310108096E+04  0.25500000920E-02 0.  1.
       -2   -1    0    0    0  501  0.00000000000E+00  0.00000000000E+00 -0.75392054618E+03  0.75392054619E+03  0.25500000920E-02 0. -1.
    10030    2    1    2    0    0  0.00000000000E+00  0.00000000000E+00  0.77709026341E+03  0.22849313558E+04  0.21487303282E+04 0.  0.
        1    1    3    3  502    0  0.97666673121E+03  0.72678050396E+02  0.85824499978E+03  0.13022075420E+04  0.50400001928E-02 0.  1.
       -1    1    3    3    0  502 -0.97666673121E+03 -0.72678050396E+02 -0.81154736368E+02  0.98272381375E+03  0.50400001928E-02 0. -1.
</event>
<event>
 5   0  0.8271069E-05  0.2134091E+04  0.7818609E-02  0.8546373E-01
        1   -1    0    0  501    0  0.00000000000E+00  0.00000000000E+00  0.17418863339E+04  0.17418863339E+04  0.50400001928E-02 0. -1.
       -1   -1    0    0    0  501  0.00000000000E+00  0.00000000000E+00 -0.65365136402E+03  0.65365136404E+03  0.50400001928E-02 0.  1.
    10030    2    1    2    0    0  0.00000000000E+00  0.00000000000E+00  0.10882349699E+04  0.23955376980E+04  0.21340912616E+04 0.  0.
        2    1    3    3  502    0 -0.53439343416E+03 -0.58743316855E+02 -0.49051678821E+03  0.72775946526E+03  0.25500000920E-02 0.  1.
       -2    1    3    3    0  502  0.53439343416E+03  0.58743316855E+02  0.15787517581E+04  0.16677782327E+04  0.25500000920E-02 0. -1.
</event>
<event>
 5   0  0.1777590E-04  0.2096546E+04  0.7818609E-02  0.8562767E-01
       -2   -1    0    0    0  501  0.00000000000E+00  0.00000000000E+00  0.84529091280E+03  0.84529091280E+03  0.25500000920E-02 0.  1.
        2   -1    0    0  501    0  0.00000000000E+00  0.00000000000E+00 -0.12999971292E+04  0.12999971292E+04  0.25500000920E-02 0. -1.
    10030    2    1    2    0    0  0.00000000000E+00  0.00000000000E+00 -0.45470621638E+03  0.21452880420E+04  0.20965455015E+04 0.  0.
        4    1    3    3  502    0 -0.10539360553E+03  0.44130435901E+03 -0.11943189518E+04  0.12775980279E+04  0.12699999809E+01 0. -1.
       -4    1    3    3    0  502  0.10539360553E+03 -0.44130435901E+03  0.73961273538E+03  0.86769001412E+03  0.12699999809E+01 0.  1.
</event>
<event>
 5   0  0.8237966E-05  0.2006605E+04  0.7818609E-02  0.8603539E-01
       -1   -1    0    0    0  501  0.00000000000E+00  0.00000000000E+00  0.66948853207E+03  0.66948853209E+03  0.50400001928E-02 0.  1.
        1   -1    0    0  501    0  0.00000000000E+00  0.00000000000E+00 -0.15035589296E+04  0.15035589296E+04  0.50400001928E-02 0. -1.
    10030    2    1    2    0    0  0.00000000000E+00  0.00000000000E+00 -0.83407039752E+03  0.21730474617E+04  0.20066045556E+04 0.  0.
        1    1    3    3  502    0 -0.31993434670E+03 -0.91142598647E+03 -0.12331845271E+03  0.97378783922E+03  0.50400001928E-02 0. -1.
       -1    1    3    3    0  502  0.31993434670E+03  0.91142598647E+03 -0.71075194481E+03  0.11992596225E+04  0.50400001928E-02 0.  1.
</event>
<event>
 5   0  0.8525278E-05  0.2092493E+04  0.7818609E-02  0.8564558E-01
       -1   -1    0    0    0  501  0.00000000000E+00  0.00000000000E+00  0.48577133758E+03  0.48577133761E+03  0.50400001928E-02 0.  1.
        1   -1    0    0  501    0  0.00000000000E+00  0.00000000000E+00 -0.22533881354E+04  0.22533881355E+04  0.50400001928E-02 0. -1.
    10030    2    1    2    0    0  0.00000000000E+00  0.00000000000E+00 -0.17676167979E+04  0.27391594731E+04  0.20924926463E+04 0.  0.
        4    1    3    3  502    0  0.90574432634E+03 -0.55954104336E+02 -0.15654232559E+04  0.18094350581E+04  0.12699999809E+01 0. -1.
       -4    1    3    3    0  502 -0.90574432634E+03  0.55954104336E+02 -0.20219354201E+03  0.92972441499E+03  0.12699999809E+01 0.  1.
</event>
<event>
 5   0  0.1815400E-04  0.2137349E+04  0.7818609E-02  0.8544967E-01
        2   -1    0    0  501    0  0.00000000000E+00  0.00000000000E+00  0.12750444117E+04  0.12750444117E+04  0.25500000920E-02 0. -1.
       -2   -1    0    0    0  501  0.00000000000E+00  0.00000000000E+00 -0.89570615243E+03  0.89570615243E+03  0.25500000920E-02 0.  1.
    10030    2    1    2    0    0  0.00000000000E+00  0.00000000000E+00  0.37933825925E+03  0.21707505641E+04  0.21373489412E+04 0.  0.
        3    1    3    3  502    0 -0.32869123187E+03 -0.43445310804E+03  0.11234268253E+04  0.12485492665E+04  0.10100000352E+00 0. -1.
       -3    1    3    3    0  502  0.32869123187E+03  0.43445310804E+03 -0.74408856602E+03  0.92220129759E+03  0.10100000352E+00 0.  1.
</event>
<event>
 5   0  0.8486612E-05  0.2131342E+04  0.7818609E-02  0.8547561E-01
       -1   -1    0    0    0  501  0.00000000000E+00  0.00000000000E+00  0.13983301340E+04  0.13983301340E+04  0.50400001928E-02 0. -1.
        1   -1    0    0  501    0  0.00000000000E+00  0.00000000000E+00 -0.81215085097E+03  0.81215085099E+03  0.50400001928E-02 0.  1.
    10030    2    1    2    0    0  0.00000000000E+00  0.00000000000E+00  0.58617928303E+03  0.22104809850E+04  0.21313423078E+04 0.  0.
        5    1    3    3  502    0 -0.31086321519E+03  0.18904983604E+03  0.13319082172E+04  0.13807162519E+04  0.46999998093E+01 0. -1.
       -5    1    3    3    0  502  0.31086321519E+03 -0.18904983604E+03 -0.74572893419E+03  0.82976473314E+03  0.46999998093E+01 0.  1.
</event>
<event>
 5   0  0.1815400E-04  0.2090352E+04  0.7818609E-02  0.8565505E-01
        2   -1    0    0  501    0  0.00000000000E+00  0.00000000000E+00  0.15104451779E+04  0.15104451779E+04  0.25500000920E-02 0. -1.
       -2   -1    0    0    0  501  0.00000000000E+00  0.00000000000E+00 -0.72322584132E+03  0.72322584133E+03  0.25500000920E-02 0.  1.
    10030    2    1    2    0    0  0.00000000000E+00  0.00000000000E+00  0.78721933661E+03  0.22336710193E+04  0.20903521087E+04 0.  0.
        3    1    3    3  502    0  0.63587554119E+03 -0.40974314456E+03  0.11642836031E+04  0.13884464221E+04  0.10100000352E+00 0. -1.
       -3    1    3    3    0  502 -0.63587554119E+03  0.40974314456E+03 -0.37706426648E+03  0.84522459717E+03  0.10100000352E+00 0.  1.
</event>
<event>
 5   0  0.8525278E-05  0.2157788E+04  0.7818609E-02  0.8536206E-01
        1   -1    0    0  501    0  0.00000000000E+00  0.00000000000E+00  0.10419912114E+04  0.10419912114E+04  0.50400001928E-02 0. -1.
       -1   -1    0    0    0  501  0.00000000000E+00  0.00000000000E+00 -0.11171041606E+04  0.11171041606E+04  0.50400001928E-02 0.  1.
    10030    2    1    2    0    0  0.00000000000E+00  0.00000000000E+00 -0.75112949210E+02  0.21590953720E+04  0.21577884211E+04 0.  0.
        4    1    3    3  502    0  0.10203340423E+04 -0.34969250738E+03 -0.62962739107E+02  0.10804315466E+04  0.12699999809E+01 0.  1.
       -4    1    3    3    0  502 -0.10203340423E+04  0.34969250738E+03 -0.12150210103E+02  0.10786638253E+04  0.12699999809E+01 0. -1.
</event>
<event>
 5   0  0.8486612E-05  0.2010975E+04  0.7818609E-02  0.8601507E-01
       -1   -1    0    0    0  501  0.00000000000E+00  0.00000000000E+00  0.80754470287E+03  0.80754470288E+03  0.50400001928E-02 0. -1.
        1   -1    0    0  501    0  0.00000000000E+00  0.00000000000E+00 -0.12519493877E+04  0.12519493878E+04  0.50400001928E-02 0.  1.
    10030    2    1    2    0    0  0.00000000000E+00  0.00000000000E+00 -0.44440468488E+03  0.20594940906E+04  0.20109749838E+04 0.  0.
        5    1    3    3  502    0 -0.72169208315E+03  0.50778194447E+03 -0.71580723926E+03  0.11362587996E+04  0.46999998093E+01 0.  1.
       -5    1    3    3    0  502  0.72169208315E+03 -0.50778194447E+03  0.27140255438E+03  0.92323529099E+03  0.46999998093E+01 0. -1.
</event>
<event>
 5   0  0.1921687E-04  0.2029326E+04  0.7818609E-02  0.8593031E-01
        2   -1    0    0  501    0  0.00000000000E+00  0.00000000000E+00  0.12101389696E+04  0.12101389696E+04  0.25500000920E-02 0.  1.
       -2   -1    0    0    0  501  0.00000000000E+00  0.00000000000E+00 -0.85076229260E+03  0.85076229261E+03  0.25500000920E-02 0. -1.
    10030    2    1    2    0    0  0.00000000000E+00  0.00000000000E+00  0.35937667698E+03  0.20609012622E+04  0.20293256063E+04 0.  0.
        5    1    3    3  502    0 -0.43101975037E+02 -0.34338495291E+03 -0.78895944079E+03  0.86153937539E+03  0.46999998093E+01 0. -1.
       -5    1    3    3    0  502  0.43101975037E+02  0.34338495291E+03  0.11483361178E+04  0.11993618868E+04  0.46999998093E+01 0.  1.
</event>
<event>
 5   0  0.8237966E-05  0.2074394E+04  0.7818609E-02  0.8572608E-01
       -1   -1    0    0    0  501  0.00000000000E+00  0.00000000000E+00  0.10199385863E+04  0.10199385863E+04  0.50400001928E-02 0. -1.
        1   -1    0    0  501    0  0.00000000000E+00  0.00000000000E+00 -0.10547475378E+04  0.10547475378E+04  0.50400001928E-02 0.  1.
    10030    2    1    2    0    0  0.00000000000E+00  0.00000000000E+00 -0.34808951556E+02  0.20746861241E+04  0.20743940924E+04 0.  0.
        1    1    3    3  502    0 -0.61549178826E+03  0.31540461465E+03  0.75566456008E+03  0.10243725591E+04  0.50400001928E-02 0. -1.
       -1    1    3    3    0  502  0.61549178826E+03 -0.31540461465E+03 -0.79047351164E+03  0.10503135651E+04  0.50400001928E-02 0.  1.
</event>
<event>
 5   0  0.1921687E-04  0.2157303E+04  0.7818609E-02  0.8536412E-01
       -2   -1    0    0    0  501  0.00000000000E+00  0.00000000000E+00  0.77265988295E+03  0.77265988295E+03  0.25500000920E-02 0.  1.
        2   -1    0    0  501    0  0.00000000000E+00  0.00000000000E+00 -0.15058236786E+04  0.15058236786E+04  0.25500000920E-02 0. -1.
    10030    2    1    2    0    0  0.00000000000E+00  0.00000000000E+00 -0.73316379564E+03  0.22784835615E+04  0.21573034531E+04 0.  0.
        5    1    3    3  502    0 -0.62210170552E+03 -0.52936962471E+03  0.37741968788E+03  0.89983912027E+03  0.46999998093E+01 0.  1.
       -5    1    3    3    0  502  0.62210170552E+03  0.52936962471E+03 -0.11105834835E+04  0.13786444413E+04  0.46999998093E+01 0. -1.
</event>
<event>
 5   0  0.8271069E-05  0.1876670E+04  0.7818609E-02  0.8666557E-01
       -1   -1    0    0    0  501  0.00000000000E+00  0.00000000000E+00  0.10339437808E+04  0.10339437808E+04  0.50400001928E-02 0.  1.
        1   -1    0    0  501    0  0.00000000000E+00  0.00000000000E+00 -0.85156740328E+03  0.85156740329E+03  0.50400001928E-02 0. -1.
    10030    2    1    2    0    0  0.00000000000E+00  0.00000000000E+00  0.18237637755E+03  0.18855111841E+04  0.18766702647E+04 0.  0.
        2    1    3    3  502    0 -0.89649337212E+03  0.87909585392E+02 -0.17281261036E+03  0.91722007161E+03  0.25500000920E-02 0. -1.
       -2    1    3    3    0  502  0.89649337212E+03 -0.87909585392E+02  0.35518898791E+03  0.96829111253E+03  0.25500000920E-02 0.  1.
</event>
<event>
 5   0  0.8755004E-05  0.2238781E+04  0.7818609E-02  0.8502458E-01
        1   -1    0    0  501    0  0.00000000000E+00  0.00000000000E+00  0.20605742305E+04  0.20605742306E+04  0.50400001928E-02 0. -1.
       -1   -1    0    0    0  501  0.00000000000E+00  0.00000000000E+00 -0.60809980879E+03  0.60809980881E+03  0.50400001928E-02 0.  1.
    10030    2    1    2    0    0  0.00000000000E+00  0.00000000000E+00  0.14524744218E+04  0.26686740394E+04  0.22387807357E+04 0.  0.
        3    1    3    3  502    0 -0.62175178987E+03 -0.36312728326E+02 -0.38249684462E+03  0.73088832854E+03  0.10100000352E+00 0.  1.
       -3    1    3    3    0  502  0.62175178987E+03  0.36312728326E+02  0.18349712664E+04  0.19377857108E+04  0.10100000352E+00 0. -1.
</event>
<event>
 5   0  0.8486612E-05  0.2070701E+04  0.7818609E-02  0.8574261E-01
        1   -1    0    0  501    0  0.00000000000E+00  0.00000000000E+00  0.17475732908E+04  0.17475732908E+04  0.50400001928E-02 0.  1.
       -1   -1    0    0    0  501  0.00000000000E+00  0.00000000000E+00 -0.61339362706E+03  0.61339362708E+03  0.50400001928E-02 0. -1.
    10030    2    1    2    0    0  0.00000000000E+00  0.00000000000E+00  0.11341796638E+04  0.23609669179E+04  0.20707006732E+04 0.  0.
        5    1    3    3  502    0  0.47364070108E+03  0.91861083100E+03  0.49729775375E+03  0.11469561973E+04  0.46999998093E+01 0. -1.
       -5    1    3    3    0  502 -0.47364070108E+03 -0.91861083100E+03  0.63688191001E+03  0.12140107207E+04  0.46999998093E+01 0.  1.
</event>
<event>
 5   0  0.1886323E-04  0.2105802E+04  0.7818609E-02  0.8558692E-01
       -2   -1    0    0    0  501  0.00000000000E+00  0.00000000000E+00  0.88627838588E+03  0.88627838588E+03  0.25500000920E-02 0. -1.
        2   -1    0    0  501    0  0.00000000000E+00  0.00000000000E+00 -0.12508491148E+04  0.12508491148E+04  0.25500000920E-02 0.  1.
    10030    2    1    2    0    0  0.00000000000E+00  0.00000000000E+00 -0.36457072891E+03  0.21371275007E+04  0.21058020177E+04 0.  0.
        2    1    3    3  502    0  0.70054240278E+03 -0.41843653098E+03 -0.85757959081E+03  0.11837616074E+04  0.25500000920E-02 0.  1.
       -2    1    3    3    0  502 -0.70054240278E+03  0.41843653098E+03  0.49300886190E+03  0.95336589328E+03  0.25500000920E-02 0. -1.
</event>
<event>
 5   0  0.1810875E-04  0.1980697E+04  0.7818609E-02  0.8615699E-01
        2   -1    0    0  501    0  0.00000000000E+00  0.00000000000E+00  0.16752226169E+04  0.16752226169E+04  0.25500000920E-02 0. -1.
       -2   -1    0    0    0  501  0.00000000000E+00  0.00000000000E+00 -0.58546879983E+03  0.58546879984E+03  0.25500000920E-02 0.  1.
    10030    2    1    2    0    0  0.00000000000E+00  0.00000000000E+00  0.10897538171E+04  0.22606914167E+04  0.19806974277E+04 0.  0.
        1    1    3    3  502    0 -0.75829291385E+03  0.56352810152E+03  0.20587432468E+03  0.96693138432E+03  0.50400001928E-02 0.  1.
       -1    1    3    3    0  502  0.75829291385E+03 -0.56352810152E+03  0.88387949239E+03  0.12937600324E+04  0.50400001928E-02 0. -1.
</event>
<event>
 5   0  0.8237966E-05  0.2115955E+04  0.7818609E-02  0.8554247E-01
        1   -1    0    0  501    0  0.00000000000E+00  0.00000000000E+00  0.11696100564E+04  0.11696100565E+04  0.50400001928E-02 0. -1.
       -1   -1    0    0    0  501  0.00000000000E+00  0.00000000000E+00 -0.95699964177E+03  0.95699964179E+03  0.50400001928E-02 0.  1.
    10030    2    1    2    0    0  0.00000000000E+00  0.00000000000E+00  0.21261041467E+03  0.21266096982E+04  0.21159550138E+04 0.  0.
        1    1    3    3  502    0  0.66332428605E+03 -0.23012867456E+02  0.93433953846E+03  0.11460885977E+04  0.50400001928E-02 0. -1.
       -1    1    3    3    0  502 -0.66332428605E+03  0.23012867456E+02 -0.72172912379E+03  0.98052110058E+03  0.50400001928E-02 0.  1.
</event>
<event>
 5   0  0.8755004E-05  0.2086219E+04  0.7818609E-02  0.8567338E-01
        1   -1    0    0  501    0  0.00000000000E+00  0.00000000000E+00  0.13424367428E+04  0.13424367428E+04  0.50400001928E-02 0. -1.
       -1   -1    0    0    0  501  0.00000000000E+00  0.00000000000E+00 -0.81052438454E+03  0.81052438455E+03  0.50400001928E-02 0.  1.
    10030    2    1    2    0    0  0.00000000000E+00  0.00000000000E+00  0.53191235830E+03  0.21529611274E+04  0.20862192740E+04 0.  0.
        3    1    3    3  502    0  0.68500836360E+03 -0.20626573972E+03 -0.51747151773E+03  0.88292626841E+03  0.10100000352E+00 0.  1.
       -3    1    3    3    0  502 -0.68500836360E+03  0.20626573972E+03  0.10493838760E+04  0.12700348590E+04  0.10100000352E+00 0. -1.
</event>
<event>
 5   0  0.8755004E-05  0.2069399E+04  0.7818609E-02  0.8574844E-01
        1   -1    0    0  501    0  0.00000000000E+00  0.00000000000E+00  0.91087461322E+03  0.91087461324E+03  0.50400001928E-02 0. -1.
       -1   -1    0    0    0  501  0.00000000000E+00  0.00000000000E+00 -0.11753573291E+04  0.11753573291E+04  0.50400001928E-02 0.  1.
    10030    2    1    2    0    0  0.00000000000E+00  0.00000000000E+00 -0.26448271584E+03  0.20862319423E+04  0.20693990940E+04 0.  0.
        3    1    3    3  502    0  0.98870077360E+03  0.18417300283E+03  0.11295342773E+03  0.10120313245E+04  0.10100000352E+00 0. -1.
       -3    1    3    3    0  502 -0.98870077360E+03 -0.18417300283E+03 -0.37743614357E+03  0.10742006178E+04  0.10100000352E+00 0.  1.
</event>
<event>
 5   0  0.8525278E-05  0.2026889E+04  0.7818609E-02  0.8594151E-01
        1   -1    0    0  501    0  0.00000000000E+00  0.00000000000E+00  0.92017422032E+03  0.92017422034E+03  0.50400001928E-02 0. -1.
       -1   -1    0    0    0  501  0.00000000000E+00  0.00000000000E+00 -0.11161692547E+04  0.11161692547E+04  0.50400001928E-02 0.  1.
    10030    2    1    2    0    0  0.00000000000E+00  0.00000000000E+00 -0.19599503438E+03  0.20363434751E+04  0.20268894136E+04 0.  0.
        4    1    3    3  502    0 -0.48667939416E+03 -0.51670052837E+03  0.62872438389E+03  0.94822583413E+03  0.12699999809E+01 0. -1.
       -4    1    3    3    0  502  0.48667939416E+03  0.51670052837E+03 -0.82471941827E+03  0.10881176409E+04  0.12699999809E+01 0.  1.
</event>
<event>
 5   0  0.1810875E-04  0.2048832E+04  0.7818609E-02  0.8584124E-01
       -2   -1    0    0    0  501  0.00000000000E+00  0.00000000000E+00  0.11955202041E+04  0.11955202041E+04  0.25500000920E-02 0.  1.
        2   -1    0    0  501    0  0.00000000000E+00  0.00000000000E+00 -0.87780080803E+03  0.87780080803E+03  0.25500000920E-02 0. -1.
    10030    2    1    2    0    0  0.00000000000E+00  0.00000000000E+00  0.31771939607E+03  0.20733210121E+04  0.20488324492E+04 0.  0.
        1    1    3    3  502    0 -0.78094714970E+03 -0.60581329889E+03  0.43141213563E+03  0.10784269259E+04  0.50400001928E-02 0. -1.
       -1    1    3    3    0  502  0.78094714970E+03  0.60581329889E+03 -0.11369273956E+03  0.99489408622E+03  0.50400001928E-02 0.  1.
</event>
<event>
 5   0  0.1815400E-04  0.2094942E+04  0.7818609E-02  0.8563475E-01
        2   -1    0    0  501    0  0.00000000000E+00  0.00000000000E+00  0.12509352068E+04  0.12509352068E+04  0.25500000920E-02 0.  1.
       -2   -1    0    0    0  501  0.00000000000E+00  0.00000000000E+00 -0.87709995588E+03  0.87709995589E+03  0.25500000920E-02 0. -1.
    10030    2    1    2    0    0  0.00000000000E+00  0.00000000000E+00  0.37383525092E+03  0.21280351627E+04  0.20949417316E+04 0.  0.
        3    1    3    3  502    0  0.21737748004E+02 -0.28831322991E+03  0.12095976134E+04  0.12436733674E+04  0.10100000352E+00 0.  1.
       -3    1    3    3    0  502 -0.21737748004E+02  0.28831322991E+03 -0.83576236248E+03  0.88436179529E+03  0.10100000352E+00 0. -1.
</event>
<event>
 5   0  0.8755004E-05  0.2108736E+04  0.7818609E-02  0.8557405E-01
       -1   -1    0    0    0  501  0.00000000000E+00  0.00000000000E+00  0.17108814352E+04  0.17108814353E+04  0.50400001928E-02 0. -1.
        1   -1    0    0  501    0  0.00000000000E+00  0.00000000000E+00 -0.64977712231E+03  0.64977712233E+03  0.50400001928E-02 0.  1.
    10030    2    1    2    0    0  0.00000000000E+00  0.00000000000E+00  0.10611043129E+04  0.23606585576E+04  0.21087357498E+04 0.  0.
        3    1    3    3  502    0 -0.17362336434E+03  0.99706357599E+03  0.19957847645E+03  0.10315582512E+04  0.10100000352E+00 0.  1.
       -3    1    3    3    0  502  0.17362336434E+03 -0.99706357599E+03  0.86152583649E+03  0.13291003064E+04  0.10100000352E+00 0. -1.
</event>
<event>
 5   0  0.1777590E-04  0.1898087E+04  0.7818609E-02  0.8655809E-01
       -2   -1    0    0    0  501  0.00000000000E+00  0.00000000000E+00  0.56300433150E+03  0.56300433151E+03  0.25500000920E-02 0.  1.
        2   -1    0    0  501    0  0.00000000000E+00  0.00000000000E+00 -0.15997812120E+04  0.15997812120E+04  0.25500000920E-02 0. -1.
    10030    2    1    2    0    0  0.00000000000E+00  0.00000000000E+00 -0.10367768805E+04  0.21627855435E+04  0.18980871970E+04 0.  0.
        4    1    3    3  502    0 -0.66075895182E+03 -0.45875584492E+03  0.55452412043E+02  0.80631005238E+03  0.12699999809E+01 0.  1.
       -4    1    3    3    0  502  0.66075895182E+03  0.45875584492E+03 -0.10922292926E+04  0.13564754911E+04  0.12699999809E+01 0. -1.
</event>
<event>
 5   0  0.8755004E-05  0.1817356E+04  0.7818609E-02  0.8697124E-01
        1   -1    0    0  501    0  0.00000000000E+00  0.00000000000E+00  0.83913427735E+03  0.83913427737E+03  0.50400001928E-02 0.  1.
       -1   -1    0    0    0  501  0.00000000000E+00  0.00000000000E+00 -0.98398554389E+03  0.98398554390E+03  0.50400001928E-02 0. -1.
    10030    2    1    2    0    0  0.00000000000E+00  0.00000000000E+00 -0.14485126654E+03  0.18231198213E+04  0.18173563198E+04 0.  0.
        3    1    3    3  502    0  0.77260490510E+03  0.45824485133E+03 -0.20993443099E+03  0.92248531624E+03  0.10100000352E+00 0. -1.
       -3    1    3    3    0  502 -0.77260490510E+03 -0.45824485133E+03  0.65083164457E+02  0.90063450503E+03  0.10100000352E+00 0.  1.
</event>
<event>
 5   0  0.8755004E-05  0.1955849E+04  0.7818609E-02  0.8627546E-01
        1   -1    0    0  501    0  0.00000000000E+00  0.00000000000E+00  0.10563006392E+04  0.10563006393E+04  0.50400001928E-02 0.  1.
       -1   -1    0    0    0  501  0.00000000000E+00  0.00000000000E+00 -0.90536345010E+03  0.90536345011E+03  0.50400001928E-02 0. -1.
    10030    2    1    2    0    0  0.00000000000E+00  0.00000000000E+00  0.15093718915E+03  0.19616640894E+04  0.19558486558E+04 0.  0.
        3    1    3    3  502    0 -0.61472387825E+03  0.59659100724E+03  0.54860175949E+03  0.10172365394E+04  0.10100000352E+00 0.  1.
       -3    1    3    3    0  502  0.61472387825E+03 -0.59659100724E+03 -0.39766457034E+03  0.94442754996E+03  0.10100000352E+00 0. -1.
</event>
<event>
 5   0  0.1921687E-04  0.2135739E+04  0.7818609E-02  0.8545661E-01
       -2   -1    0    0    0  501  0.00000000000E+00  0.00000000000E+00  0.53135274302E+03  0.53135274302E+03  0.25500000920E-02 0.  1.
        2   -1    0    0  501    0  0.00000000000E+00  0.00000000000E+00 -0.21461180076E+04  0.21461180076E+04  0.25500000920E-02 0. -1.
    10030    2    1    2    0    0  0.00000000000E+00  0.00000000000E+00 -0.16147652646E+04  0.26774707506E+04  0.21357393944E+04 0.  0.
        5    1    3    3  502    0  0.83328018937E+02 -0.78551715338E+03 -0.17082182675E+04  0.18820235111E+04  0.46999998093E+01 0. -1.
       -5    1    3    3    0  502 -0.83328018937E+02  0.78551715338E+03  0.93453002965E+02  0.79544723946E+03  0.46999998093E+01 0.  1.
</event>
<event>
 5   0  0.8525278E-05  0.2086885E+04  0.7818609E-02  0.8567043E-01
        1   -1    0    0  501    0  0.00000000000E+00  0.00000000000E+00  0.21906080750E+04  0.21906080750E+04  0.50400001928E-02 0. -1.
       -1   -1    0    0    0  501  0.00000000000E+00  0.00000000000E+00 -0.49701843181E+03  0.49701843183E+03  0.50400001928E-02 0.  1.
    10030    2    1    2    0    0  0.00000000000E+00  0.00000000000E+00  0.16935896432E+04  0.26876265068E+04  0.20868853252E+04 0.  0.
        4    1    3    3  502    0 -0.43419166954E+03 -0.94306883815E+03  0.98106509286E+03  0.14284227556E+04  0.12699999809E+01 0. -1.
       -4    1    3    3    0  502  0.43419166954E+03  0.94306883815E+03  0.71252455032E+03  0.12592037512E+04  0.12699999809E+01 0.  1.
</event>
<event>
 5   0  0.8755004E-05  0.2091504E+04  0.7818609E-02  0.8564995E-01
        1   -1    0    0  501    0  0.00000000000E+00  0.00000000000E+00  0.13997078752E+04  0.13997078752E+04  0.50400001928E-02 0. -1.
       -1   -1    0    0    0  501  0.00000000000E+00  0.00000000000E+00 -0.78130376203E+03  0.78130376204E+03  0.50400001928E-02 0.  1.
    10030    2    1    2    0    0  0.00000000000E+00  0.00000000000E+00  0.61840411320E+03  0.21810116373E+04  0.20915037927E+04 0.  0.
        3    1    3    3  502    0  0.35533893290E+03 -0.91763542730E+03 -0.59889494714E+02  0.98585358773E+03  0.10100000352E+00 0.  1.
       -3    1    3    3    0  502 -0.35533893290E+03  0.91763542730E+03  0.67829360791E+03  0.11951580495E+04  0.10100000352E+00 0. -1.
</event>
<event>
 5   0  0.1886323E-04  0.2043692E+04  0.7818609E-02  0.8586461E-01
        2   -1    0    0  501    0  0.00000000000E+00  0.00000000000E+00  0.14992603978E+04  0.14992603978E+04  0.25500000920E-02 0. -1.
       -2   -1    0    0    0  501  0.00000000000E+00  0.00000000000E+00 -0.69645634987E+03  0.69645634988E+03  0.25500000920E-02 0.  1.
    10030    2    1    2    0    0  0.00000000000E+00  0.00000000000E+00  0.80280404795E+03  0.21957167477E+04  0.20436921727E+04 0.  0.
        2    1    3    3  502    0 -0.42946444531E+03  0.31625293464E+03  0.13378547092E+04  0.14402468022E+04  0.25500000920E-02 0. -1.
       -2    1    3    3    0  502  0.42946444531E+03 -0.31625293464E+03 -0.53505066122E+03  0.75546994549E+03  0.25500000920E-02 0.  1.
</event>
<event>
 5   0  0.8525278E-05  0.1962876E+04  0.7818609E-02  0.8624177E-01
        1   -1    0    0  501    0  0.00000000000E+00  0.00000000000E+00  0.83543233940E+03  0.83543233942E+03  0.50400001928E-02 0. -1.
       -1   -1    0    0    0  501  0.00000000000E+00  0.00000000000E+00 -0.11529600934E+04  0.11529600934E+04  0.50400001928E-02 0.  1.
    10030    2    1    2    0    0  0.00000000000E+00  0.00000000000E+00 -0.31752775397E+03  0.19883924328E+04  0.19628755927E+04 0.  0.
        4    1    3    3  502    0  0.86103890579E+03  0.14011065233E+03  0.29674769212E+03  0.92145526091E+03  0.12699999809E+01 0.  1.
       -4    1    3    3    0  502 -0.86103890579E+03 -0.14011065233E+03 -0.61427544609E+03  0.10669371719E+04  0.12699999809E+01 0. -1.
</event>
<event>
 5   0  0.1810875E-04  0.2111670E+04  0.7818609E-02  0.8556120E-01
       -2   -1    0    0    0  501  0.00000000000E+00  0.00000000000E+00  0.57428151892E+03  0.57428151893E+03  0.25500000920E-02 0.  1.
        2   -1    0    0  501    0  0.00000000000E+00  0.00000000000E+00 -0.19411870029E+04  0.19411870029E+04  0.25500000920E-02 0. -1.
    10030    2    1    2    0    0  0.00000000000E+00  0.00000000000E+00 -0.13669054840E+04  0.25154685218E+04  0.21116702589E+04 0.  0.
        1    1    3    3  502    0  0.84131974267E+03 -0.31715849023E+02  0.75537196789E+02  0.84529916161E+03  0.50400001928E-02 0.  1.
       -1    1    3    3    0  502 -0.84131974267E+03  0.31715849023E+02 -0.14424426808E+04  0.16701693602E+04  0.50400001928E-02 0. -1.
</event>
<event>
 5   0  0.8271069E-05  0.2097926E+04  0.7818609E-02  0.8562157E-01
        1   -1    0    0  501    0  0.00000000000E+00  0.00000000000E+00  0.13722781440E+04  0.13722781440E+04  0.50400001928E-02 0.  1.
       -1   -1    0    0    0  501  0.00000000000E+00  0.00000000000E+00 -0.80182278175E+03  0.80182278177E+03  0.50400001928E-02 0. -1.
    10030    2    1    2    0    0  0.00000000000E+00  0.00000000000E+00  0.57045536228E+03  0.21741009258E+04  0.20979264799E+04 0.  0.
        2    1    3    3  502    0  0.58038162988E+03  0.61578550927E+03  0.92764694250E+03  0.12556127905E+04  0.25500000920E-02 0.  1.
       -2    1    3    3    0  502 -0.58038162988E+03 -0.61578550927E+03 -0.35719158022E+03  0.91848813531E+03  0.25500000920E-02 0. -1.
</event>
<event>
 5   0  0.8525278E-05  0.2082768E+04  0.7818609E-02  0.8568872E-01
       -1   -1    0    0    0  501  0.00000000000E+00  0.00000000000E+00  0.67232995466E+03  0.67232995468E+03  0.50400001928E-02 0.  1.
        1   -1    0    0  501    0  0.00000000000E+00  0.00000000000E+00 -0.16130186176E+04  0.16130186176E+04  0.50400001928E-02 0. -1.
    10030    2    1    2    0    0  0.00000000000E+00  0.00000000000E+00 -0.94068866293E+03  0.22853485723E+04  0.20827680947E+04 0.  0.
        4    1    3    3  502    0 -0.10359675694E+04 -0.55970266689E+02 -0.56920569025E+03  0.11833673168E+04  0.12699999809E+01 0.  1.
       -4    1    3    3    0  502  0.10359675694E+04  0.55970266689E+02 -0.37148297268E+03  0.11019812555E+04  0.12699999809E+01 0. -1.
</event>
<event>
 5   0  0.1815400E-04  0.1960408E+04  0.7818609E-02  0.8625358E-01
        2   -1    0    0  501    0  0.00000000000E+00  0.00000000000E+00  0.13132423620E+04  0.13132423620E+04  0.25500000920E-02 0. -1.
       -2   -1    0    0    0  501  0.00000000000E+00  0.00000000000E+00 -0.73162386196E+03  0.73162386197E+03  0.25500000920E-02 0.  1.
    10030    2    1    2    0    0  0.00000000000E+00  0.00000000000E+00  0.58161850006E+03  0.20448662240E+04  0.19604075582E+04 0.  0.
        3    1    3    3  502    0 -0.74604181940E+03  0.47350014508E+03 -0.15175597848E+03  0.89655489006E+03  0.10100000352E+00 0.  1.
       -3    1    3    3    0  502  0.74604181940E+03 -0.47350014508E+03  0.73337447855E+03  0.11483113339E+04  0.10100000352E+00 0. -1.
</event>
<event>
 5   0  0.8755004E-05  0.2073029E+04  0.7818609E-02  0.8573218E-01
       -1   -1    0    0    0  501  0.00000000000E+00  0.00000000000E+00  0.84586680432E+03  0.84586680434E+03  0.50400001928E-02 0. -1.
        1   -1    0    0  501    0  0.00000000000E+00  0.00000000000E+00 -0.12701318357E+04  0.12701318357E+04  0.50400001928E-02 0.  1.
    10030    2    1    2    0    0  0.00000000000E+00  0.00000000000E+00 -0.42426503140E+03  0.21159986401E+04  0.20730290466E+04 0.  0.
        3    1    3    3  502    0  0.30774008870E+02  0.90130496167E+03 -0.73366822639E+03  0.11625690303E+04  0.10100000352E+00 0. -1.
       -3    1    3    3    0  502 -0.30774008870E+02 -0.90130496167E+03  0.30940319499E+03  0.95342960979E+03  0.10100000352E+00 0.  1.
</event>
<event>
 5   0  0.1886323E-04  0.2078317E+04  0.7818609E-02  0.8570856E-01
        2   -1    0    0  501    0  0.00000000000E+00  0.00000000000E+00  0.19599131531E+04  0.19599131531E+04  0.25500000920E-02 0. -1.
       -2   -1    0    0    0  501  0.00000000000E+00  0.00000000000E+00 -0.55096844135E+03  0.55096844136E+03  0.25500000920E-02 0.  1.
    10030    2    1    2    0    0  0.00000000000E+00  0.00000000000E+00  0.14089447118E+04  0.25108815945E+04  0.20783169106E+04 0.  0.
        2    1    3    3  502    0 -0.28425260258E+03 -0.94892128546E+03  0.10838319229E+04  0.14683129044E+04  0.25500000920E-02 0.  1.
       -2    1    3    3    0  502  0.28425260258E+03  0.94892128546E+03  0.32511278885E+03  0.10425686901E+04  0.25500000920E-02 0. -1.
</event>
<event>
 5   0  0.1815400E-04  0.2101444E+04  0.7818609E-02  0.8560607E-01
        2   -1    0    0  501    0  0.00000000000E+00  0.00000000000E+00  0.66741754702E+03  0.66741754703E+03  0.25500000920E-02 0.  1.
       -2   -1    0    0    0  501  0.00000000000E+00  0.00000000000E+00 -0.16541621834E+04  0.16541621834E+04  0.25500000920E-02 0. -1.
    10030    2    1    2    0    0  0.00000000000E+00  0.00000000000E+00 -0.98674463636E+03  0.23215797304E+04  0.21014441385E+04 0.  0.
        3    1    3    3  502    0  0.25157177802E+03 -0.78812783134E+03 -0.12089795238E+04  0.14649455066E+04  0.10100000352E+00 0. -1.
       -3    1    3    3    0  502 -0.25157177802E+03  0.78812783134E+03  0.22223488747E+03  0.85663422383E+03  0.10100000352E+00 0.  1.
</event>
<event>
 5   0  0.1886323E-04  0.2078051E+04  0.7818609E-02  0.8570974E-01
       -2   -1    0    0    0  501  0.00000000000E+00  0.00000000000E+00  0.52052842368E+03  0.52052842368E+03  0.25500000920E-02 0.  1.
        2   -1    0    0  501    0  0.00000000000E+00  0.00000000000E+00 -0.20739960781E+04  0.20739960781E+04  0.25500000920E-02 0. -1.
    10030    2    1    2    0    0  0.00000000000E+00  0.00000000000E+00 -0.15534676544E+04  0.25945245017E+04  0.20780509226E+04 0.  0.
        2    1    3    3  502    0 -0.20769855109E+03  0.89845243011E+03 -0.17897447687E+03  0.93935473633E+03  0.25500000920E-02 0.  1.
       -2    1    3    3    0  502  0.20769855109E+03 -0.89845243011E+03 -0.13744931775E+04  0.16551697654E+04  0.25500000920E-02 0. -1.
</event>
<event>
 5   0  0.1777590E-04  0.1459020E+04  0.7818609E-02  0.8912171E-01
       -2   -1    0    0    0  501  0.00000000000E+00  0.00000000000E+00  0.48807851273E+03  0.48807851274E+03  0.25500000920E-02 0. -1.
        2   -1    0    0  501    0  0.00000000000E+00  0.00000000000E+00 -0.10903668398E+04  0.10903668398E+04  0.25500000920E-02 0.  1.
    10030    2    1    2    0    0  0.00000000000E+00  0.00000000000E+00 -0.60228832706E+03  0.15784453525E+04  0.14590197058E+04 0.  0.
        4    1    3    3  502    0  0.58027316060E+03  0.43893229951E+03 -0.35843652797E+03  0.81108375766E+03  0.12699999809E+01 0.  1.
       -4    1    3    3    0  502 -0.58027316060E+03 -0.43893229951E+03 -0.24385179910E+03  0.76736159487E+03  0.12699999809E+01 0. -1.
</event>
<event>
 5   0  0.8486612E-05  0.2117511E+04  0.7818609E-02  0.8553569E-01
        1   -1    0    0  501    0  0.00000000000E+00  0.00000000000E+00  0.13481481157E+04  0.13481481157E+04  0.50400001928E-02 0. -1.
       -1   -1    0    0    0  501  0.00000000000E+00  0.00000000000E+00 -0.83148377617E+03  0.83148377618E+03  0.50400001928E-02 0.  1.
    10030    2    1    2    0    0  0.00000000000E+00  0.00000000000E+00  0.51666433955E+03  0.21796318919E+04  0.21175110730E+04 0.  0.
        5    1    3    3  502    0 -0.17404735701E+03 -0.90428611583E+03  0.79607104297E+03  0.12172826530E+04  0.46999998093E+01 0. -1.
       -5    1    3    3    0  502  0.17404735701E+03  0.90428611583E+03 -0.27940670342E+03  0.96234923894E+03  0.46999998093E+01 0.  1.
</event>
<event>
 5   0  0.8237966E-05  0.2070169E+04  0.7818609E-02  0.8574499E-01
       -1   -1    0    0    0  501  0.00000000000E+00  0.00000000000E+00  0.48383247083E+03  0.48383247085E+03  0.50400001928E-02 0.  1.
        1   -1    0    0  501    0  0.00000000000E+00  0.00000000000E+00 -0.22144030504E+04  0.22144030504E+04  0.50400001928E-02 0. -1.
    10030    2    1    2    0    0  0.00000000000E+00  0.00000000000E+00 -0.17305705795E+04  0.26982355212E+04  0.20701691712E+04 0.  0.
        1    1    3    3  502    0 -0.90814075273E+03  0.49596882954E+03 -0.89965604385E+03  0.13711621727E+04  0.50400001928E-02 0.  1.
       -1    1    3    3    0  502  0.90814075273E+03 -0.49596882954E+03 -0.83091453568E+03  0.13270733485E+04  0.50400001928E-02 0. -1.
</event>
<event>
 5   0  0.1886323E-04  0.2153128E+04  0.7818609E-02  0.8538195E-01
        2   -1    0    0  501    0  0.00000000000E+00  0.00000000000E+00  0.20559943390E+04  0.20559943390E+04  0.25500000920E-02 0.  1.
       -2   -1    0    0    0  501  0.00000000000E+00  0.00000000000E+00 -0.56371249319E+03  0.56371249320E+03  0.25500000920E-02 0. -1.
    10030    2    1    2    0    0  0.00000000000E+00  0.00000000000E+00  0.14922818458E+04  0.26197068322E+04  0.21531276737E+04 0.  0.
        2    1    3    3  502    0  0.38080365975E+03 -0.99829064126E+03  0.58567477379E+03  0.12184459661E+04  0.25500000920E-02 0.  1.
       -2    1    3    3    0  502 -0.38080365975E+03  0.99829064126E+03  0.90660707198E+03  0.14012608660E+04  0.25500000920E-02 0. -1.
</event>
<event>
 5   0  0.1886323E-04  0.2078565E+04  0.7818609E-02  0.8570745E-01
        2   -1    0    0  501    0  0.00000000000E+00  0.00000000000E+00  0.11704307125E+04  0.11704307125E+04  0.25500000920E-02 0. -1.
       -2   -1    0    0    0  501  0.00000000000E+00  0.00000000000E+00 -0.92282991543E+03  0.92282991543E+03  0.25500000920E-02 0.  1.
    10030    2    1    2    0    0  0.00000000000E+00  0.00000000000E+00  0.24760079708E+03  0.20932606279E+04  0.20785653470E+04 0.  0.
        2    1    3    3  502    0  0.10283620807E+04  0.96110212621E+02  0.74729973223E+01  0.10328705571E+04  0.25500000920E-02 0.  1.
       -2    1    3    3    0  502 -0.10283620807E+04 -0.96110212621E+02  0.24012779976E+03  0.10603900708E+04  0.25500000920E-02 0. -1.
</event>
<event>
 5   0  0.1815400E-04  0.2149354E+04  0.7818609E-02  0.8539809E-01
       -2   -1    0    0    0  501  0.00000000000E+00  0.00000000000E+00  0.88410972699E+03  0.88410972699E+03  0.25500000920E-02 0. -1.
        2   -1    0    0  501    0  0.00000000000E+00  0.00000000000E+00 -0.13063209424E+04  0.13063209424E+04  0.25500000920E-02 0.  1.
    10030    2    1    2    0    0  0.00000000000E+00  0.00000000000E+00 -0.42221121543E+03  0.21904306694E+04  0.21493543698E+04 0.  0.
        3    1    3    3  502    0 -0.46981386212E+03  0.50999102082E+03 -0.10478417451E+04  0.12564984041E+04  0.10100000352E+00 0.  1.
       -3    1    3    3    0  502  0.46981386212E+03 -0.50999102082E+03  0.62563052970E+03  0.93393226535E+03  0.10100000352E+00 0. -1.
</event>
<event>
 5   0  0.8271069E-05  0.2087091E+04  0.7818609E-02  0.8566951E-01
       -1   -1    0    0    0  501  0.00000000000E+00  0.00000000000E+00  0.10541946898E+04  0.10541946898E+04  0.50400001928E-02 0. -1.
        1   -1    0    0  501    0  0.00000000000E+00  0.00000000000E+00 -0.10330038239E+04  0.10330038239E+04  0.50400001928E-02 0.  1.
    10030    2    1    2    0    0  0.00000000000E+00  0.00000000000E+00  0.21190865893E+02  0.20871985138E+04  0.20870909379E+04 0.  0.
        2    1    3    3  502    0 -0.99846883866E+03 -0.25216435411E+03  0.17930582526E+03  0.10453121363E+04  0.25500000920E-02 0. -1.
       -2    1    3    3    0  502  0.99846883866E+03  0.25216435411E+03 -0.15811495937E+03  0.10418863775E+04  0.25500000920E-02 0.  1.
</event>
<event>
 5   0  0.8237966E-05  0.2077920E+04  0.7818609E-02  0.8571033E-01
        1   -1    0    0  501    0  0.00000000000E+00  0.00000000000E+00  0.86431078235E+03  0.86431078236E+03  0.50400001928E-02 0. -1.
       -1   -1    0    0    0  501  0.00000000000E+00  0.00000000000E+00 -0.12488998802E+04  0.12488998802E+04  0.50400001928E-02 0.  1.
    10030    2    1    2    0    0  0.00000000000E+00  0.00000000000E+00 -0.38458909787E+03  0.21132106626E+04  0.20779197603E+04 0.  0.
        1    1    3    3  502    0  0.16019517779E+02  0.93420876929E+03  0.26977321184E+03  0.97251233176E+03  0.50400001928E-02 0. -1.
       -1    1    3    3    0  502 -0.16019517779E+02 -0.93420876929E+03 -0.65436230971E+03  0.11406983308E+04  0.50400001928E-02 0.  1.
</event>
<event>
 5   0  0.1886323E-04  0.2092299E+04  0.7818609E-02  0.8564644E-01
       -2   -1    0    0    0  501  0.00000000000E+00  0.00000000000E+00  0.69066968259E+03  0.69066968259E+03  0.25500000920E-02 0.  1.
        2   -1    0    0  501    0  0.00000000000E+00  0.00000000000E+00 -0.15845901333E+04  0.15845901333E+04  0.25500000920E-02 0. -1.
    10030    2    1    2    0    0  0.00000000000E+00  0.00000000000E+00 -0.89392045073E+03  0.22752598159E+04  0.20922986062E+04 0.  0.
        2    1    3    3  502    0  0.96873174337E+03  0.39106834377E+03 -0.38687729263E+03  0.11140240929E+04  0.25500000920E-02 0.  1.
       -2    1    3    3    0  502 -0.96873174337E+03 -0.39106834377E+03 -0.50704315809E+03  0.11612357230E+04  0.25500000920E-02 0. -1.
</event>
<event>
 5   0  0.1921687E-04  0.2066515E+04  0.7818609E-02  0.8576139E-01
       -2   -1    0    0    0  501  0.00000000000E+00  0.00000000000E+00  0.52863657227E+03  0.52863657227E+03  0.25500000920E-02 0.  1.
        2   -1    0    0  501    0  0.00000000000E+00  0.00000000000E+00 -0.20195741538E+04  0.20195741538E+04  0.25500000920E-02 0. -1.
    10030    2    1    2    0    0  0.00000000000E+00  0.00000000000E+00 -0.14909375816E+04  0.25482107261E+04  0.20665147066E+04 0.  0.
        5    1    3    3  502    0 -0.78465572106E+03  0.14765422077E+03 -0.15541693987E+04  0.17472695783E+04  0.46999998093E+01 0. -1.
       -5    1    3    3    0  502  0.78465572106E+03 -0.14765422077E+03  0.63231817135E+02  0.80094114778E+03  0.46999998093E+01 0.  1.
</event>
<event>
 5   0  0.8271069E-05  0.2113706E+04  0.7818609E-02  0.8555230E-01
       -1   -1    0    0    0  501  0.00000000000E+00  0.00000000000E+00  0.97226411126E+03  0.97226411127E+03  0.50400001928E-02 0.  1.
        1   -1    0    0  501    0  0.00000000000E+00  0.00000000000E+00 -0.11488010983E+04  0.11488010983E+04  0.50400001928E-02 0. -1.
    10030    2    1    2    0    0  0.00000000000E+00  0.00000000000E+00 -0.17653698702E+03  0.21210652096E+04  0.21137058252E+04 0.  0.
        2    1    3    3  502    0  0.53266585872E+03  0.48804870188E+03 -0.86232547509E+03  0.11249576336E+04  0.25500000920E-02 0. -1.
       -2    1    3    3    0  502 -0.53266585872E+03 -0.48804870188E+03  0.68578848808E+03  0.99610757594E+03  0.25500000920E-02 0.  1.
</event>
<event>
 5   0  0.8486612E-05  0.1614721E+04  0.7818609E-02  0.8811555E-01
       -1   -1    0    0    0  501  0.00000000000E+00  0.00000000000E+00  0.59298165970E+03  0.59298165972E+03  0.50400001928E-02 0.  1.
        1   -1    0    0  501    0  0.00000000000E+00  0.00000000000E+00 -0.10992435732E+04  0.10992435732E+04  0.50400001928E-02 0. -1.
    10030    2    1    2    0    0  0.00000000000E+00  0.00000000000E+00 -0.50626191348E+03  0.16922252329E+04  0.16147213734E+04 0.  0.
        5    1    3    3  502    0  0.72900748338E+03  0.30899582991E+03 -0.87829848673E+02  0.79665959233E+03  0.46999998093E+01 0. -1.
       -5    1    3    3    0  502 -0.72900748338E+03 -0.30899582991E+03 -0.41843206480E+03  0.89556564058E+03  0.46999998093E+01 0.  1.
</event>
<event>
 5   0  0.1777590E-04  0.1480439E+04  0.7818609E-02  0.8897566E-01
       -2   -1    0    0    0  501  0.00000000000E+00  0.00000000000E+00  0.23764886123E+03  0.23764886124E+03  0.25500000920E-02 0.  1.
        2   -1    0    0  501    0  0.00000000000E+00  0.00000000000E+00 -0.23056067934E+04  0.23056067934E+04  0.25500000920E-02 0. -1.
    10030    2    1    2    0    0  0.00000000000E+00  0.00000000000E+00 -0.20679579321E+04  0.25432556546E+04  0.14804388929E+04 0.  0.
        4    1    3    3  502    0 -0.37614140520E+03  0.78950364936E+02 -0.21207605048E+04  0.21553056045E+04  0.12699999809E+01 0. -1.
       -4    1    3    3    0  502  0.37614140520E+03 -0.78950364936E+02  0.52802572693E+02  0.38795005015E+03  0.12699999809E+01 0.  1.
</event>
<event>
 5   0  0.8755004E-05  0.2085411E+04  0.7818609E-02  0.8567697E-01
       -1   -1    0    0    0  501  0.00000000000E+00  0.00000000000E+00  0.76278985603E+03  0.76278985605E+03  0.50400001928E-02 0. -1.
        1   -1    0    0  501    0  0.00000000000E+00  0.00000000000E+00 -0.14253398277E+04  0.14253398277E+04  0.50400001928E-02 0.  1.
    10030    2    1    2    0    0  0.00000000000E+00  0.00000000000E+00 -0.66254997163E+03  0.21881296837E+04  0.20854110022E+04 0.  0.
        3    1    3    3  502    0 -0.44560225321E+03  0.14959099885E+03  0.64532009182E+03  0.79835885798E+03  0.10100000352E+00 0. -1.
       -3    1    3    3    0  502  0.44560225321E+03 -0.14959099885E+03 -0.13078700635E+04  0.13897708257E+04  0.10100000352E+00 0.  1.
</event>
<event>
 5   0  0.8271069E-05  0.1344195E+04  0.7818609E-02  0.8995234E-01
        1   -1    0    0  501    0  0.00000000000E+00  0.00000000000E+00  0.91741569819E+03  0.91741569820E+03  0.50400001928E-02 0.  1.
       -1   -1    0    0    0  501  0.00000000000E+00  0.00000000000E+00 -0.49237738891E+03  0.49237738894E+03  0.50400001928E-02 0. -1.
    10030    2    1    2    0    0  0.00000000000E+00  0.00000000000E+00  0.42503830928E+03  0.14097930871E+04  0.13441945485E+04 0.  0.
        2    1    3    3  502    0 -0.93830630634E+02  0.14531419559E+03  0.89367050593E+03  0.91025676370E+03  0.25500000920E-02 0.  1.
       -2    1    3    3    0  502  0.93830630634E+02 -0.14531419559E+03 -0.46863219665E+03  0.49953632344E+03  0.25500000920E-02 0. -1.
</event>
<event>
 5   0  0.1886323E-04  0.2103707E+04  0.7818609E-02  0.8559612E-01
       -2   -1    0    0    0  501  0.00000000000E+00  0.00000000000E+00  0.85113572207E+03  0.85113572207E+03  0.25500000920E-02 0. -1.
        2   -1    0    0  501    0  0.00000000000E+00  0.00000000000E+00 -0.12999049784E+04  0.12999049784E+04  0.25500000920E-02 0.  1.
    10030    2    1    2    0    0  0.00000000000E+00  0.00000000000E+00 -0.44876925631E+03  0.21510407005E+04  0.21037067879E+04 0.  0.
        2    1    3    3  502    0 -0.79257028241E+03  0.63444701962E+03  0.56951420476E+02  0.10168255197E+04  0.25500000920E-02 0. -1.
       -2    1    3    3    0  502  0.79257028241E+03 -0.63444701962E+03 -0.50572067678E+03  0.11342151807E+04  0.25500000920E-02 0.  1.
</event>
<event>
 5   0  0.1921687E-04  0.2036948E+04  0.7818609E-02  0.8589538E-01
       -2   -1    0    0    0  501  0.00000000000E+00  0.00000000000E+00  0.18580108098E+04  0.18580108098E+04  0.25500000920E-02 0.  1.
        2   -1    0    0  501    0  0.00000000000E+00  0.00000000000E+00 -0.55827947226E+03  0.55827947227E+03  0.25500000920E-02 0. -1.
    10030    2    1    2    0    0  0.00000000000E+00  0.00000000000E+00  0.12997313375E+04  0.24162902820E+04  0.20369480056E+04 0.  0.
        5    1    3    3  502    0  0.96445584543E+03  0.32709866195E+03  0.66164416343E+03  0.12144808362E+04  0.46999998093E+01 0. -1.
       -5    1    3    3    0  502 -0.96445584543E+03 -0.32709866195E+03  0.63808717408E+03  0.12018094459E+04  0.46999998093E+01 0.  1.
</event>
<event>
 5   0  0.8525278E-05  0.2071177E+04  0.7818609E-02  0.8574047E-01
        1   -1    0    0  501    0  0.00000000000E+00  0.00000000000E+00  0.10669344762E+04  0.10669344762E+04  0.50400001928E-02 0. -1.
       -1   -1    0    0    0  501  0.00000000000E+00  0.00000000000E+00 -0.10051635602E+04  0.10051635602E+04  0.50400001928E-02 0.  1.
    10030    2    1    2    0    0  0.00000000000E+00  0.00000000000E+00  0.61770915990E+02  0.20720980364E+04  0.20711771113E+04 0.  0.
        4    1    3    3  502    0  0.79214569754E+03 -0.51326000062E+03 -0.39534553468E+03  0.10233427281E+04  0.12699999809E+01 0.  1.
       -4    1    3    3    0  502 -0.79214569754E+03  0.51326000062E+03  0.45711645067E+03  0.10487553083E+04  0.12699999809E+01 0. -1.
</event>
<event>
 5   0  0.1921687E-04  0.2128499E+04  0.7818609E-02  0.8548792E-01
       -2   -1    0    0    0  501  0.00000000000E+00  0.00000000000E+00  0.48883729751E+03  0.48883729751E+03  0.25500000920E-02 0.  1.
        2   -1    0    0  501    0  0.00000000000E+00  0.00000000000E+00 -0.23169813590E+04  0.23169813591E+04  0.25500000920E-02 0. -1.
    10030    2    1    2    0    0  0.00000000000E+00  0.00000000000E+00 -0.18281440615E+04  0.28058186566E+04  0.21284989133E+04 0.  0.
        5    1    3    3  502    0 -0.50414996195E+03  0.41103809516E+03 -0.20244168527E+04  0.21263596082E+04  0.46999998093E+01 0. -1.
       -5    1    3    3    0  502  0.50414996195E+03 -0.41103809516E+03  0.19627279121E+03  0.67945904834E+03  0.46999998093E+01 0.  1.
</event>
<event>
 5   0  0.8755004E-05  0.2128275E+04  0.7818609E-02  0.8548889E-01
       -1   -1    0    0    0  501  0.00000000000E+00  0.00000000000E+00  0.75498239337E+03  0.75498239339E+03  0.50400001928E-02 0.  1.
        1   -1    0    0  501    0  0.00000000000E+00  0.00000000000E+00 -0.14998871737E+04  0.14998871737E+04  0.50400001928E-02 0. -1.
    10030    2    1    2    0    0  0.00000000000E+00  0.00000000000E+00 -0.74490478034E+03  0.22548695671E+04  0.21282748020E+04 0.  0.
        3    1    3    3  502    0  0.17548726416E+03  0.10494392989E+04 -0.38985423769E+03  0.11331835504E+04  0.10100000352E+00 0. -1.
       -3    1    3    3    0  502 -0.17548726416E+03 -0.10494392989E+04 -0.35505054265E+03  0.11216860167E+04  0.10100000352E+00 0.  1.
</event>
<event>
 5   0  0.1886323E-04  0.2052054E+04  0.7818609E-02  0.8582663E-01
       -2   -1    0    0    0  501  0.00000000000E+00  0.00000000000E+00  0.12415057274E+04  0.12415057274E+04  0.25500000920E-02 0. -1.
        2   -1    0    0  501    0  0.00000000000E+00  0.00000000000E+00 -0.84794753334E+03  0.84794753335E+03  0.25500000920E-02 0.  1.
    10030    2    1    2    0    0  0.00000000000E+00  0.00000000000E+00  0.39355819401E+03  0.20894532607E+04  0.20520543064E+04 0.  0.
        2    1    3    3  502    0 -0.69037557997E+03 -0.38186360588E+03  0.86470176933E+03  0.11705329576E+04  0.25500000920E-02 0.  1.
       -2    1    3    3    0  502  0.69037557997E+03  0.38186360588E+03 -0.47114357532E+03  0.91892030312E+03  0.25500000920E-02 0. -1.
</event>
<event>
 5   0  0.1815400E-04  0.2072141E+04  0.7818609E-02  0.8573616E-01
        2   -1    0    0  501    0  0.00000000000E+00  0.00000000000E+00  0.16687188365E+04  0.16687188365E+04  0.25500000920E-02 0.  1.
       -2   -1    0    0    0  501  0.00000000000E+00  0.00000000000E+00 -0.64327309204E+03  0.64327309204E+03  0.25500000920E-02 0. -1.
    10030    2    1    2    0    0  0.00000000000E+00  0.00000000000E+00  0.10254457445E+04  0.23119919285E+04  0.20721408501E+04 0.  0.
        3    1    3    3  502    0  0.25315189609E+01 -0.60855419134E+03 -0.42284383154E+03  0.74104084129E+03  0.10100000352E+00 0. -1.
       -3    1    3    3    0  502 -0.25315189609E+01  0.60855419134E+03  0.14482895760E+04  0.15709510872E+04  0.10100000352E+00 0.  1.
</event>
<event>
 5   0  0.1810875E-04  0.2098556E+04  0.7818609E-02  0.8561880E-01
       -2   -1    0    0    0  501  0.00000000000E+00  0.00000000000E+00  0.50723095455E+03  0.50723095455E+03  0.25500000920E-02 0. -1.
        2   -1    0    0  501    0  0.00000000000E+00  0.00000000000E+00 -0.21705780837E+04  0.21705780837E+04  0.25500000920E-02 0.  1.
    10030    2    1    2    0    0  0.00000000000E+00  0.00000000000E+00 -0.16633471292E+04  0.26778090383E+04  0.20985560687E+04 0.  0.
        1    1    3    3  502    0 -0.46641539934E+03 -0.50033079516E+03  0.18363644764E+03  0.70823482988E+03  0.50400001928E-02 0. -1.
       -1    1    3    3    0  502  0.46641539934E+03  0.50033079516E+03 -0.18469835768E+04  0.19695742084E+04  0.50400001928E-02 0.  1.
</event>
<event>
 5   0  0.8237966E-05  0.2089148E+04  0.7818609E-02  0.8566039E-01
       -1   -1    0    0    0  501  0.00000000000E+00  0.00000000000E+00  0.11526313040E+04  0.11526313040E+04  0.50400001928E-02 0. -1.
        1   -1    0    0  501    0  0.00000000000E+00  0.00000000000E+00 -0.94664725364E+03  0.94664725365E+03  0.50400001928E-02 0.  1.
    10030    2    1    2    0    0  0.00000000000E+00  0.00000000000E+00  0.20598405036E+03  0.20992785577E+04  0.20891483991E+04 0.  0.
        1    1    3    3  502    0 -0.55040358367E+03 -0.86533400186E+03 -0.96434971841E+02  0.10300712322E+04  0.50400001928E-02 0. -1.
       -1    1    3    3    0  502  0.55040358367E+03  0.86533400186E+03  0.30241902220E+03  0.10692073254E+04  0.50400001928E-02 0.  1.
</event>
<event>
 5   0  0.1815400E-04  0.2089666E+04  0.7818609E-02  0.8565809E-01
        2   -1    0    0  501    0  0.00000000000E+00  0.00000000000E+00  0.17368980577E+04  0.17368980577E+04  0.25500000920E-02 0.  1.
       -2   -1    0    0    0  501  0.00000000000E+00  0.00000000000E+00 -0.62852039706E+03  0.62852039707E+03  0.25500000920E-02 0. -1.
    10030    2    1    2    0    0  0.00000000000E+00  0.00000000000E+00  0.11083776606E+04  0.23654184547E+04  0.20896658650E+04 0.  0.
        3    1    3    3  502    0 -0.51645675670E+03  0.31965597876E+03  0.15165335920E+04  0.16336406190E+04  0.10100000352E+00 0.  1.
       -3    1    3    3    0  502  0.51645675670E+03 -0.31965597876E+03 -0.40815593139E+03  0.73177783570E+03  0.10100000352E+00 0. -1.
</event>
<event>
 5   0  0.8525278E-05  0.2066386E+04  0.7818609E-02  0.8576197E-01
       -1   -1    0    0    0  501  0.00000000000E+00  0.00000000000E+00  0.57641004068E+03  0.57641004070E+03  0.50400001928E-02 0.  1.
        1   -1    0    0  501    0  0.00000000000E+00  0.00000000000E+00 -0.18519584313E+04  0.18519584313E+04  0.50400001928E-02 0. -1.
    10030    2    1    2    0    0  0.00000000000E+00  0.00000000000E+00 -0.12755483907E+04  0.24283684720E+04  0.20663856705E+04 0.  0.
        4    1    3    3  502    0  0.76152996146E+02 -0.71841103015E+03  0.23024493049E+03  0.75824008597E+03  0.12699999809E+01 0.  1.
       -4    1    3    3    0  502 -0.76152996146E+02  0.71841103015E+03 -0.15057933211E+04  0.16701283861E+04  0.12699999809E+01 0. -1.
</event>
<event>
 5   0  0.1921687E-04  0.2082452E+04  0.7818609E-02  0.8569013E-01
       -2   -1    0    0    0  501  0.00000000000E+00  0.00000000000E+00  0.11654671474E+04  0.11654671474E+04  0.25500000920E-02 0. -1.
        2   -1    0    0  501    0  0.00000000000E+00  0.00000000000E+00 -0.93022928636E+03  0.93022928637E+03  0.25500000920E-02 0.  1.
    10030    2    1    2    0    0  0.00000000000E+00  0.00000000000E+00  0.23523786101E+03  0.20956964337E+04  0.20824520862E+04 0.  0.
        5    1    3    3  502    0  0.38347217144E+03 -0.21980122494E+03  0.10663586799E+04  0.11543424141E+04  0.46999998093E+01 0. -1.
       -5    1    3    3    0  502 -0.38347217144E+03  0.21980122494E+03 -0.83112081888E+03  0.94135401966E+03  0.46999998093E+01 0.  1.
</event>
<event>
 5   0  0.8525278E-05  0.2013026E+04  0.7818609E-02  0.8600555E-01
        1   -1    0    0  501    0  0.00000000000E+00  0.00000000000E+00  0.11981219968E+04  0.11981219968E+04  0.50400001928E-02 0.  1.
       -1   -1    0    0    0  501  0.00000000000E+00  0.00000000000E+00 -0.84554663921E+03  0.84554663923E+03  0.50400001928E-02 0. -1.
    10030    2    1    2    0    0  0.00000000000E+00  0.00000000000E+00  0.35257535762E+03  0.20436686361E+04  0.20130256112E+04 0.  0.
        4    1    3    3  502    0 -0.80184039934E+03 -0.88438847415E+02 -0.43478592485E+03  0.91641140821E+03  0.12699999809E+01 0. -1.
       -4    1    3    3    0  502  0.80184039934E+03  0.88438847415E+02  0.78736128247E+03  0.11272572279E+04  0.12699999809E+01 0.  1.
</event>
<event>
 5   0  0.8755004E-05  0.2038100E+04  0.7818609E-02  0.8589012E-01
        1   -1    0    0  501    0  0.00000000000E+00  0.00000000000E+00  0.23882336734E+04  0.23882336734E+04  0.50400001928E-02 0.  1.
       -1   -1    0    0    0  501  0.00000000000E+00  0.00000000000E+00 -0.43482457548E+03  0.43482457551E+03  0.50400001928E-02 0. -1.
    10030    2    1    2    0    0  0.00000000000E+00  0.00000000000E+00  0.19534090980E+04  0.28230582490E+04  0.20380997947E+04 0.  0.
        3    1    3    3  502    0 -0.47924638777E+03  0.60154175399E+03  0.50694596520E+02  0.77077852481E+03  0.10100000352E+00 0. -1.
       -3    1    3    3    0  502  0.47924638777E+03 -0.60154175399E+03  0.19027145014E+04  0.20522797241E+04  0.10100000352E+00 0.  1.
</event>
<event>
 5   0  0.1810875E-04  0.2091761E+04  0.7818609E-02  0.8564881E-01
       -2   -1    0    0    0  501  0.00000000000E+00  0.00000000000E+00  0.80239232341E+03  0.80239232341E+03  0.25500000920E-02 0. -1.
        2   -1    0    0  501    0  0.00000000000E+00  0.00000000000E+00 -0.13632560890E+04  0.13632560890E+04  0.25500000920E-02 0.  1.
    10030    2    1    2    0    0  0.00000000000E+00  0.00000000000E+00 -0.56086376560E+03  0.21656484124E+04  0.20917611916E+04 0.  0.
        1    1    3    3  502    0  0.40698432575E+03  0.56642282628E+03 -0.10873166449E+04  0.12917927643E+04  0.50400001928E-02 0.  1.
       -1    1    3    3    0  502 -0.40698432575E+03 -0.56642282628E+03  0.52645287934E+03  0.87385564811E+03  0.50400001928E-02 0. -1.
</event>
<event>
 5   0  0.1777590E-04  0.2090305E+04  0.7818609E-02  0.8565526E-01
       -2   -1    0    0    0  501  0.00000000000E+00  0.00000000000E+00  0.65108923879E+03  0.65108923879E+03  0.25500000920E-02 0.  1.
        2   -1    0    0  501    0  0.00000000000E+00  0.00000000000E+00 -0.16777175824E+04  0.16777175824E+04  0.25500000920E-02 0. -1.
    10030    2    1    2    0    0  0.00000000000E+00  0.00000000000E+00 -0.10266283436E+04  0.23288068212E+04  0.20903051104E+04 0.  0.
        4    1    3    3  502    0  0.79608539471E+03 -0.47422170562E+03  0.25274133557E+02  0.92697280245E+03  0.12699999809E+01 0. -1.
       -4    1    3    3    0  502 -0.79608539471E+03  0.47422170562E+03 -0.10519024772E+04  0.14018340188E+04  0.12699999809E+01 0.  1.
</event>
<event>
 5   0  0.1815400E-04  0.2091730E+04  0.7818609E-02  0.8564895E-01
        2   -1    0    0  501    0  0.00000000000E+00  0.00000000000E+00  0.12000776595E+04  0.12000776595E+04  0.25500000920E-02 0. -1.
       -2   -1    0    0    0  501  0.00000000000E+00  0.00000000000E+00 -0.91146944706E+03  0.91146944706E+03  0.25500000920E-02 0.  1.
    10030    2    1    2    0    0  0.00000000000E+00  0.00000000000E+00  0.28860821241E+03  0.21115471065E+04  0.20917304996E+04 0.  0.
        3    1    3    3  502    0 -0.36205253307E+03 -0.72593072263E+03 -0.52208367985E+03  0.96469105404E+03  0.10100000352E+00 0.  1.
       -3    1    3    3    0  502  0.36205253307E+03  0.72593072263E+03  0.81069189226E+03  0.11468560525E+04  0.10100000352E+00 0. -1.
</event>
<event>
 5   0  0.8525278E-05  0.2087240E+04  0.7818609E-02  0.8566885E-01
        1   -1    0    0  501    0  0.00000000000E+00  0.00000000000E+00  0.21692627720E+04  0.21692627720E+04  0.50400001928E-02 0. -1.
       -1   -1    0    0    0  501  0.00000000000E+00  0.00000000000E+00 -0.50207943203E+03  0.50207943206E+03  0.50400001928E-02 0.  1.
    10030    2    1    2    0    0  0.00000000000E+00  0.00000000000E+00  0.16671833400E+04  0.26713422041E+04  0.20872395364E+04 0.  0.
        4    1    3    3  502    0  0.91812348131E+03 -0.35787850353E+03  0.12734429105E+04  0.16101820423E+04  0.12699999809E+01 0. -1.
       -4    1    3    3    0  502 -0.91812348131E+03  0.35787850353E+03  0.39374042951E+03  0.10611601618E+04  0.12699999809E+01 0.  1.
</event>
<event>
 5   0  0.8271069E-05  0.1385920E+04  0.7818609E-02  0.8964074E-01
        1   -1    0    0  501    0  0.00000000000E+00  0.00000000000E+00  0.11458563413E+04  0.11458563413E+04  0.50400001928E-02 0. -1.
       -1   -1    0    0    0  501  0.00000000000E+00  0.00000000000E+00 -0.41906951311E+03  0.41906951314E+03  0.50400001928E-02 0.  1.
    10030    2    1    2    0    0  0.00000000000E+00  0.00000000000E+00  0.72678682821E+03  0.15649258545E+04  0.13859198521E+04 0.  0.
        2    1    3    3  502    0 -0.48781686343E+02  0.56772213974E+03  0.80866845982E+03  0.98925869154E+03  0.25500000920E-02 0. -1.
       -2    1    3    3    0  502  0.48781686343E+02 -0.56772213974E+03 -0.81881631617E+02  0.57566716293E+03  0.25500000920E-02 0.  1.
</event>
<event>
 5   0  0.1921687E-04  0.2080255E+04  0.7818609E-02  0.8569991E-01
        2   -1    0    0  501    0  0.00000000000E+00  0.00000000000E+00  0.65943555391E+03  0.65943555392E+03  0.25500000920E-02 0.  1.
       -2   -1    0    0    0  501  0.00000000000E+00  0.00000000000E+00 -0.16405930735E+04  0.16405930735E+04  0.25500000920E-02 0. -1.
    10030    2    1    2    0    0  0.00000000000E+00  0.00000000000E+00 -0.98115751954E+03  0.23000286274E+04  0.20802551787E+04 0.  0.
        5    1    3    3  502    0  0.35696282932E+03  0.30604493226E+03  0.53520778846E+03  0.71242924485E+03  0.46999998093E+01 0.  1.
       -5    1    3    3    0  502 -0.35696282932E+03 -0.30604493226E+03 -0.15163653080E+04  0.15875993825E+04  0.46999998093E+01 0. -1.
</event>
<event>
 5   0  0.8237966E-05  0.2089228E+04  0.7818609E-02  0.8566004E-01
       -1   -1    0    0    0  501  0.00000000000E+00  0.00000000000E+00  0.10139516311E+04  0.10139516311E+04  0.50400001928E-02 0. -1.
        1   -1    0    0  501    0  0.00000000000E+00  0.00000000000E+00 -0.10762031868E+04  0.10762031868E+04  0.50400001928E-02 0.  1.
    10030    2    1    2    0    0  0.00000000000E+00  0.00000000000E+00 -0.62251555619E+02  0.20901548179E+04  0.20892275861E+04 0.  0.
        1    1    3    3  502    0 -0.17365306788E+03 -0.77301967544E+03 -0.71223860342E+03  0.10653631469E+04  0.50400001928E-02 0.  1.
       -1    1    3    3    0  502  0.17365306788E+03  0.77301967544E+03  0.64998704780E+03  0.10247916710E+04  0.50400001928E-02 0. -1.
</event>
<event>
 5   0  0.1815400E-04  0.1928430E+04  0.7818609E-02  0.8640833E-01
        2   -1    0    0  501    0  0.00000000000E+00  0.00000000000E+00  0.75509488957E+03  0.75509488957E+03  0.25500000920E-02 0.  1.
       -2   -1    0    0    0  501  0.00000000000E+00  0.00000000000E+00 -0.12312505891E+04  0.12312505892E+04  0.25500000920E-02 0. -1.
    10030    2    1    2    0    0  0.00000000000E+00  0.00000000000E+00 -0.47615569958E+03  0.19863454787E+04  0.19284304786E+04 0.  0.
        3    1    3    3  502    0 -0.16216691733E+03  0.28687355937E+03 -0.11714464377E+04  0.12169146703E+04  0.10100000352E+00 0. -1.
       -3    1    3    3    0  502  0.16216691733E+03 -0.28687355937E+03  0.69529073816E+03  0.76943080840E+03  0.10100000352E+00 0.  1.
</event>
<event>
 5   0  0.8271069E-05  0.2162691E+04  0.7818609E-02  0.8534119E-01
        1   -1    0    0  501    0  0.00000000000E+00  0.00000000000E+00  0.11575716110E+04  0.11575716111E+04  0.50400001928E-02 0. -1.
       -1   -1    0    0    0  501  0.00000000000E+00  0.00000000000E+00 -0.10101388218E+04  0.10101388218E+04  0.50400001928E-02 0.  1.
    10030    2    1    2    0    0  0.00000000000E+00  0.00000000000E+00  0.14743278924E+03  0.21677104329E+04  0.21626909380E+04 0.  0.
        2    1    3    3  502    0 -0.22649185172E+03 -0.10630455384E+03 -0.98072753312E+03  0.10121391759E+04  0.25500000920E-02 0.  1.
       -2    1    3    3    0  502  0.22649185172E+03  0.10630455384E+03  0.11281603224E+04  0.11555712570E+04  0.25500000920E-02 0. -1.
</event>
<event>
 5   0  0.8525278E-05  0.2088602E+04  0.7818609E-02  0.8566281E-01
        1   -1    0    0  501    0  0.00000000000E+00  0.00000000000E+00  0.15326281442E+04  0.15326281442E+04  0.50400001928E-02 0.  1.
       -1   -1    0    0    0  501  0.00000000000E+00  0.00000000000E+00 -0.71156526761E+03  0.71156526763E+03  0.50400001928E-02 0. -1.
    10030    2    1    2    0    0  0.00000000000E+00  0.00000000000E+00  0.82106287656E+03  0.22441934118E+04  0.20886023610E+04 0.  0.
        4    1    3    3  502    0 -0.80571649872E+03  0.55535801939E+03  0.80233452935E+03  0.12654421820E+04  0.12699999809E+01 0. -1.
       -4    1    3    3    0  502  0.80571649872E+03 -0.55535801939E+03  0.18728347202E+02  0.97875122983E+03  0.12699999809E+01 0.  1.
</event>
<event>
 5   0  0.6441125E-05  0.2076929E+04  0.7818609E-02  0.8571475E-01
        3   -1    0    0  501    0  0.00000000000E+00  0.00000000000E+00  0.10278395665E+04  0.10278395715E+04  0.10100000352E+00 0. -1.
       -3   -1    0    0    0  501  0.00000000000E+00  0.00000000000E+00 -0.10491989215E+04  0.10491989264E+04  0.10100000352E+00 0.  1.
    10030    2    1    2    0    0  0.00000000000E+00  0.00000000000E+00 -0.21359354987E+02  0.20770384979E+04  0.20769286699E+04 0.  0.
        4    1    3    3  502    0  0.79586007409E+03 -0.45377406171E+03 -0.49968652159E+03  0.10435479813E+04  0.12699999809E+01 0.  1.
       -4    1    3    3    0  502 -0.79586007409E+03  0.45377406171E+03  0.47832716661E+03  0.10334905166E+04  0.12699999809E+01 0. -1.
</event>
<event>
 5   0  0.1777590E-04  0.2137552E+04  0.7818609E-02  0.8544879E-01
       -2   -1    0    0    0  501  0.00000000000E+00  0.00000000000E+00  0.10258994361E+04  0.10258994361E+04  0.25500000920E-02 0. -1.
        2   -1    0    0  501    0  0.00000000000E+00  0.00000000000E+00 -0.11134449495E+04  0.11134449495E+04  0.25500000920E-02 0.  1.
    10030    2    1    2    0    0  0.00000000000E+00  0.00000000000E+00 -0.87545513458E+02  0.21393443856E+04  0.21375523814E+04 0.  0.
        4    1    3    3  502    0  0.65374329797E+03  0.39687014883E+03  0.70344186240E+03  0.10390949338E+04  0.12699999809E+01 0. -1.
       -4    1    3    3    0  502 -0.65374329797E+03 -0.39687014883E+03 -0.79098737586E+03  0.11002494519E+04  0.12699999809E+01 0.  1.
</event>
<event>
 5   0  0.8486612E-05  0.2138907E+04  0.7818609E-02  0.8544296E-01
       -1   -1    0    0    0  501  0.00000000000E+00  0.00000000000E+00  0.53251903889E+03  0.53251903891E+03  0.50400001928E-02 0. -1.
        1   -1    0    0  501    0  0.00000000000E+00  0.00000000000E+00 -0.21477740290E+04  0.21477740290E+04  0.50400001928E-02 0.  1.
    10030    2    1    2    0    0  0.00000000000E+00  0.00000000000E+00 -0.16152549901E+04  0.26802930679E+04  0.21389067878E+04 0.  0.
        5    1    3    3  502    0 -0.95979329712E+03 -0.22748116764E+03 -0.28980553175E+03  0.10280856925E+04  0.46999998093E+01 0.  1.
       -5    1    3    3    0  502  0.95979329712E+03  0.22748116764E+03 -0.13254494584E+04  0.16522073755E+04  0.46999998093E+01 0. -1.
</event>
<event>
 5   0  0.1886323E-04  0.2098662E+04  0.7818609E-02  0.8561833E-01
       -2   -1    0    0    0  501  0.00000000000E+00  0.00000000000E+00  0.77196184791E+03  0.77196184792E+03  0.25500000920E-02 0.  1.
        2   -1    0    0  501    0  0.00000000000E+00  0.00000000000E+00 -0.14263604263E+04  0.14263604263E+04  0.25500000920E-02 0. -1.
    10030    2    1    2    0    0  0.00000000000E+00  0.00000000000E+00 -0.65439857839E+03  0.21983222742E+04  0.20986622696E+04 0.  0.
        2    1    3    3  502    0 -0.47632497187E+03  0.77959253837E+03  0.21349684692E+03  0.93820621846E+03  0.25500000920E-02 0.  1.
       -2    1    3    3    0  502  0.47632497187E+03 -0.77959253837E+03 -0.86789542530E+03  0.12601160558E+04  0.25500000920E-02 0. -1.
</event>
<event>
 5   0  0.8525278E-05  0.2064013E+04  0.7818609E-02  0.8577264E-01
        1   -1    0    0  501    0  0.00000000000E+00  0.00000000000E+00  0.11815853488E+04  0.11815853488E+04  0.50400001928E-02 0. -1.
       -1   -1    0    0    0  501  0.00000000000E+00  0.00000000000E+00 -0.90136300616E+03  0.90136300617E+03  0.50400001928E-02 0.  1.
    10030    2    1    2    0    0  0.00000000000E+00  0.00000000000E+00  0.28022234264E+03  0.20829483550E+04  0.20640129089E+04 0.  0.
        4    1    3    3  502    0 -0.86820338316E+03  0.36003483970E+03 -0.28998351730E+03  0.98361285755E+03  0.12699999809E+01 0.  1.
       -4    1    3    3    0  502  0.86820338316E+03 -0.36003483970E+03  0.57020585994E+03  0.10993354974E+04  0.12699999809E+01 0. -1.
</event>
<event>
 5   0  0.8237966E-05  0.2147769E+04  0.7818609E-02  0.8540488E-01
       -1   -1    0    0    0  501  0.00000000000E+00  0.00000000000E+00  0.94283578044E+03  0.94283578046E+03  0.50400001928E-02 0.  1.
        1   -1    0    0  501    0  0.00000000000E+00  0.00000000000E+00 -0.12231480015E+04  0.12231480015E+04  0.50400001928E-02 0. -1.
    10030    2    1    2    0    0  0.00000000000E+00  0.00000000000E+00 -0.28031222106E+03  0.21659837820E+04  0.21477687963E+04 0.  0.
        1    1    3    3  502    0  0.10733339825E+04  0.34230728887E+02 -0.13694795454E+03  0.10825767054E+04  0.50400001928E-02 0. -1.
       -1    1    3    3    0  502 -0.10733339825E+04 -0.34230728887E+02 -0.14336426651E+03  0.10834070766E+04  0.50400001928E-02 0.  1.
</event>
<event>
 5   0  0.1886323E-04  0.1343051E+04  0.7818609E-02  0.8996105E-01
        2   -1    0    0  501    0  0.00000000000E+00  0.00000000000E+00  0.19686422747E+04  0.19686422747E+04  0.25500000920E-02 0.  1.
       -2   -1    0    0    0  501  0.00000000000E+00  0.00000000000E+00 -0.22906455818E+03  0.22906455820E+03  0.25500000920E-02 0. -1.
    10030    2    1    2    0    0  0.00000000000E+00  0.00000000000E+00  0.17395777165E+04  0.21977068329E+04  0.13430505171E+04 0.  0.
        2    1    3    3  502    0  0.53559868792E+03  0.30055318676E+03  0.13141668424E+04  0.14505973467E+04  0.25500000920E-02 0.  1.
       -2    1    3    3    0  502 -0.53559868792E+03 -0.30055318676E+03  0.42541087415E+03  0.74710948624E+03  0.25500000920E-02 0. -1.
</event>
<event>
 5   0  0.1810875E-04  0.1923579E+04  0.7818609E-02  0.8643208E-01
       -2   -1    0    0    0  501  0.00000000000E+00  0.00000000000E+00  0.63735648828E+03  0.63735648829E+03  0.25500000920E-02 0.  1.
        2   -1    0    0  501    0  0.00000000000E+00  0.00000000000E+00 -0.14513690904E+04  0.14513690904E+04  0.25500000920E-02 0. -1.
    10030    2    1    2    0    0  0.00000000000E+00  0.00000000000E+00 -0.81401260209E+03  0.20887255787E+04  0.19235794828E+04 0.  0.
        1    1    3    3  502    0  0.76504630323E+03  0.84154010379E+01  0.22584497655E+03  0.79772966506E+03  0.50400001928E-02 0.  1.
       -1    1    3    3    0  502 -0.76504630323E+03 -0.84154010379E+01 -0.10398575786E+04  0.12909959136E+04  0.50400001928E-02 0. -1.
</event>
<event>
 5   0  0.8271069E-05  0.2115952E+04  0.7818609E-02  0.8554249E-01
        1   -1    0    0  501    0  0.00000000000E+00  0.00000000000E+00  0.12405883861E+04  0.12405883861E+04  0.50400001928E-02 0.  1.
       -1   -1    0    0    0  501  0.00000000000E+00  0.00000000000E+00 -0.90224349503E+03  0.90224349504E+03  0.50400001928E-02 0. -1.
    10030    2    1    2    0    0  0.00000000000E+00  0.00000000000E+00  0.33834489110E+03  0.21428318812E+04  0.21159516076E+04 0.  0.
        2    1    3    3  502    0  0.37230588306E+02  0.98676972934E+03  0.55374948172E+03  0.11321391716E+04  0.25500000920E-02 0.  1.
       -2    1    3    3    0  502 -0.37230588306E+02 -0.98676972934E+03 -0.21540459062E+03  0.10106927095E+04  0.25500000920E-02 0. -1.
</event>
<event>
 5   0  0.8237966E-05  0.2125775E+04  0.7818609E-02  0.8549973E-01
        1   -1    0    0  501    0  0.00000000000E+00  0.00000000000E+00  0.64734658153E+03  0.64734658155E+03  0.50400001928E-02 0. -1.
       -1   -1    0    0    0  501  0.00000000000E+00  0.00000000000E+00 -0.17451702386E+04  0.17451702386E+04  0.50400001928E-02 0.  1.
    10030    2    1    2    0    0  0.00000000000E+00  0.00000000000E+00 -0.10978236571E+04  0.23925168202E+04  0.21257751416E+04 0.  0.
        1    1    3    3  502    0 -0.36188980626E+02  0.89805628280E+03 -0.11874817481E+04  0.14892708389E+04  0.50400001928E-02 0.  1.
       -1    1    3    3    0  502  0.36188980626E+02 -0.89805628280E+03  0.89658091044E+02  0.90324598129E+03  0.50400001928E-02 0. -1.
</event>
<event>
 5   0  0.8237966E-05  0.2114209E+04  0.7818609E-02  0.8555010E-01
        1   -1    0    0  501    0  0.00000000000E+00  0.00000000000E+00  0.21524715234E+04  0.21524715234E+04  0.50400001928E-02 0.  1.
       -1   -1    0    0    0  501  0.00000000000E+00  0.00000000000E+00 -0.51915687180E+03  0.51915687182E+03  0.50400001928E-02 0. -1.
    10030    2    1    2    0    0  0.00000000000E+00  0.00000000000E+00  0.16333146516E+04  0.26716283952E+04  0.21142094340E+04 0.  0.
        1    1    3    3  502    0  0.10495031001E+03 -0.53825006428E+03  0.19586693342E+04  0.20339894936E+04  0.50400001928E-02 0.  1.
       -1    1    3    3    0  502 -0.10495031001E+03  0.53825006428E+03 -0.32535468265E+03  0.63763890159E+03  0.50400001928E-02 0. -1.
</event>
<event>
 5   0  0.1777590E-04  0.2089751E+04  0.7818609E-02  0.8565772E-01
       -2   -1    0    0    0  501  0.00000000000E+00  0.00000000000E+00  0.10229383621E+04  0.10229383621E+04  0.25500000920E-02 0. -1.
        2   -1    0    0  501    0  0.00000000000E+00  0.00000000000E+00 -0.10672826312E+04  0.10672826312E+04  0.25500000920E-02 0.  1.
    10030    2    1    2    0    0  0.00000000000E+00  0.00000000000E+00 -0.44344269102E+02  0.20902209932E+04  0.20897505560E+04 0.  0.
        4    1    3    3  502    0 -0.51521692075E+02  0.62971010704E+01  0.10216472872E+04  0.10229657524E+04  0.12699999809E+01 0. -1.
       -4    1    3    3    0  502  0.51521692075E+02 -0.62971010704E+01 -0.10659915563E+04  0.10672552409E+04  0.12699999809E+01 0.  1.
</event>
<event>
 5   0  0.8755004E-05  0.2163405E+04  0.7818609E-02  0.8533816E-01
       -1   -1    0    0    0  501  0.00000000000E+00  0.00000000000E+00  0.10063593086E+04  0.10063593086E+04  0.50400001928E-02 0. -1.
        1   -1    0    0  501    0  0.00000000000E+00  0.00000000000E+00 -0.11626865376E+04  0.11626865377E+04  0.50400001928E-02 0.  1.
    10030    2    1    2    0    0  0.00000000000E+00  0.00000000000E+00 -0.15632722904E+03  0.21690458463E+04  0.21634051125E+04 0.  0.
        3    1    3    3  502    0 -0.69984050339E+03 -0.55871684319E+02 -0.90321993176E+03  0.11439862895E+04  0.10100000352E+00 0.  1.
       -3    1    3    3    0  502  0.69984050339E+03  0.55871684319E+02  0.74689270272E+03  0.10250595567E+04  0.10100000352E+00 0. -1.
</event>
<event>
 5   0  0.8237966E-05  0.1449658E+04  0.7818609E-02  0.8918638E-01
        1   -1    0    0  501    0  0.00000000000E+00  0.00000000000E+00  0.93159068467E+03  0.93159068468E+03  0.50400001928E-02 0.  1.
       -1   -1    0    0    0  501  0.00000000000E+00  0.00000000000E+00 -0.56395681578E+03  0.56395681580E+03  0.50400001928E-02 0. -1.
    10030    2    1    2    0    0  0.00000000000E+00  0.00000000000E+00  0.36763386889E+03  0.14955475005E+04  0.14496577750E+04 0.  0.
        1    1    3    3  502    0 -0.18037856379E+03 -0.57555744749E+03  0.59850411922E+03  0.84971170545E+03  0.50400001928E-02 0.  1.
       -1    1    3    3    0  502  0.18037856379E+03  0.57555744749E+03 -0.23087025033E+03  0.64583579503E+03  0.50400001928E-02 0. -1.
</event>
<event>
 5   0  0.8237966E-05  0.2135892E+04  0.7818609E-02  0.8545595E-01
       -1   -1    0    0    0  501  0.00000000000E+00  0.00000000000E+00  0.10638440138E+04  0.10638440138E+04  0.50400001928E-02 0.  1.
        1   -1    0    0  501    0  0.00000000000E+00  0.00000000000E+00 -0.10720637345E+04  0.10720637345E+04  0.50400001928E-02 0. -1.
    10030    2    1    2    0    0  0.00000000000E+00  0.00000000000E+00 -0.82197207241E+01  0.21359077484E+04  0.21358919321E+04 0.  0.
        1    1    3    3  502    0  0.43363508462E+02  0.81755164716E+03  0.68163386800E+03  0.10653148923E+04  0.50400001928E-02 0.  1.
       -1    1    3    3    0  502 -0.43363508462E+02 -0.81755164716E+03 -0.68985358872E+03  0.10705928561E+04  0.50400001928E-02 0. -1.
</event>
<event>
 5   0  0.1777590E-04  0.2106167E+04  0.7818609E-02  0.8558532E-01
       -2   -1    0    0    0  501  0.00000000000E+00  0.00000000000E+00  0.16420641276E+04  0.16420641276E+04  0.25500000920E-02 0. -1.
        2   -1    0    0  501    0  0.00000000000E+00  0.00000000000E+00 -0.67536013126E+03  0.67536013127E+03  0.25500000920E-02 0.  1.
    10030    2    1    2    0    0  0.00000000000E+00  0.00000000000E+00  0.96670399635E+03  0.23174242589E+04  0.21061667975E+04 0.  0.
        4    1    3    3  502    0  0.92898433415E+03  0.15753593071E+03 -0.34087721927E+02  0.94286427880E+03  0.12699999809E+01 0.  1.
       -4    1    3    3    0  502 -0.92898433415E+03 -0.15753593071E+03  0.10007917183E+04  0.13745599801E+04  0.12699999809E+01 0. -1.
</event>
<event>
 5   0  0.1815400E-04  0.2047604E+04  0.7818609E-02  0.8584682E-01
        2   -1    0    0  501    0  0.00000000000E+00  0.00000000000E+00  0.13173922198E+04  0.13173922198E+04  0.25500000920E-02 0. -1.
       -2   -1    0    0    0  501  0.00000000000E+00  0.00000000000E+00 -0.79564020044E+03  0.79564020044E+03  0.25500000920E-02 0.  1.
    10030    2    1    2    0    0  0.00000000000E+00  0.00000000000E+00  0.52175201940E+03  0.21130324203E+04  0.20476036822E+04 0.  0.
        3    1    3    3  502    0 -0.91560635299E+03  0.18440226918E+03 -0.17184501108E+03  0.94966831502E+03  0.10100000352E+00 0.  1.
       -3    1    3    3    0  502  0.91560635299E+03 -0.18440226918E+03  0.69359703047E+03  0.11633641053E+04  0.10100000352E+00 0. -1.
</event>
<event>
 5   0  0.1921687E-04  0.2108200E+04  0.7818609E-02  0.8557640E-01
       -2   -1    0    0    0  501  0.00000000000E+00  0.00000000000E+00  0.10922557108E+04  0.10922557108E+04  0.25500000920E-02 0. -1.
        2   -1    0    0  501    0  0.00000000000E+00  0.00000000000E+00 -0.10172774838E+04  0.10172774838E+04  0.25500000920E-02 0.  1.
    10030    2    1    2    0    0  0.00000000000E+00  0.00000000000E+00  0.74978227038E+02  0.21095331946E+04  0.21082003142E+04 0.  0.
        5    1    3    3  502    0  0.40087807773E+03 -0.20317253817E+03  0.99157121776E+03  0.10886771254E+04  0.46999998093E+01 0. -1.
       -5    1    3    3    0  502 -0.40087807773E+03  0.20317253817E+03 -0.91659299073E+03  0.10208560692E+04  0.46999998093E+01 0.  1.
</event>
<event>
 5   0  0.1815400E-04  0.2137995E+04  0.7818609E-02  0.8544688E-01
       -2   -1    0    0    0  501  0.00000000000E+00  0.00000000000E+00  0.73760819374E+03  0.73760819375E+03  0.25500000920E-02 0. -1.
        2   -1    0    0  501    0  0.00000000000E+00  0.00000000000E+00 -0.15492721724E+04  0.15492721724E+04  0.25500000920E-02 0.  1.
    10030    2    1    2    0    0  0.00000000000E+00  0.00000000000E+00 -0.81166397868E+03  0.22868803662E+04  0.21379951812E+04 0.  0.
        3    1    3    3  502    0 -0.32307090447E+02 -0.27783207160E+03  0.69777369393E+03  0.75174633105E+03  0.10100000352E+00 0. -1.
       -3    1    3    3    0  502  0.32307090447E+02  0.27783207160E+03 -0.15094376726E+04  0.15351340351E+04  0.10100000352E+00 0.  1.
</event>
<event>
 5   0  0.8486612E-05  0.2112405E+04  0.7818609E-02  0.8555799E-01
       -1   -1    0    0    0  501  0.00000000000E+00  0.00000000000E+00  0.16468678421E+04  0.16468678421E+04  0.50400001928E-02 0. -1.
        1   -1    0    0  501    0  0.00000000000E+00  0.00000000000E+00 -0.67738494232E+03  0.67738494234E+03  0.50400001928E-02 0.  1.
    10030    2    1    2    0    0  0.00000000000E+00  0.00000000000E+00  0.96948289980E+03  0.23242527845E+04  0.21124047702E+04 0.  0.
        5    1    3    3  502    0  0.84014445935E+03  0.63771657237E+03  0.54516967206E+03  0.11873319673E+04  0.46999998093E+01 0.  1.
       -5    1    3    3    0  502 -0.84014445935E+03 -0.63771657237E+03  0.42431322774E+03  0.11369208172E+04  0.46999998093E+01 0. -1.
</event>
<event>
 5   0  0.1921687E-04  0.2083719E+04  0.7818609E-02  0.8568449E-01
       -2   -1    0    0    0  501  0.00000000000E+00  0.00000000000E+00  0.76595405130E+03  0.76595405131E+03  0.25500000920E-02 0. -1.
        2   -1    0    0  501    0  0.00000000000E+00  0.00000000000E+00 -0.14171490689E+04  0.14171490689E+04  0.25500000920E-02 0.  1.
    10030    2    1    2    0    0  0.00000000000E+00  0.00000000000E+00 -0.65119501757E+03  0.21831031202E+04  0.20837188588E+04 0.  0.
        5    1    3    3  502    0 -0.76624631001E+03  0.62194954943E+03  0.24236092589E+02  0.98720014577E+03  0.46999998093E+01 0. -1.
       -5    1    3    3    0  502  0.76624631001E+03 -0.62194954943E+03 -0.67543111016E+03  0.11959029744E+04  0.46999998093E+01 0.  1.
</event>
<event>
 5   0  0.1886323E-04  0.2153728E+04  0.7818609E-02  0.8537938E-01
        2   -1    0    0  501    0  0.00000000000E+00  0.00000000000E+00  0.17472529544E+04  0.17472529544E+04  0.25500000920E-02 0.  1.
       -2   -1    0    0    0  501  0.00000000000E+00  0.00000000000E+00 -0.66369078840E+03  0.66369078840E+03  0.25500000920E-02 0. -1.
    10030    2    1    2    0    0  0.00000000000E+00  0.00000000000E+00  0.10835621660E+04  0.24109437428E+04  0.21537276437E+04 0.  0.
        2    1    3    3  502    0  0.10117693042E+04 -0.35655174420E+03  0.43659400923E+03  0.11581971335E+04  0.25500000920E-02 0.  1.
       -2    1    3    3    0  502 -0.10117693042E+04  0.35655174420E+03  0.64696815678E+03  0.12527466093E+04  0.25500000920E-02 0. -1.
</event>
<event>
 5   0  0.1921687E-04  0.2101513E+04  0.7818609E-02  0.8560577E-01
        2   -1    0    0  501    0  0.00000000000E+00  0.00000000000E+00  0.58061969482E+03  0.58061969483E+03  0.25500000920E-02 0. -1.
       -2   -1    0    0    0  501  0.00000000000E+00  0.00000000000E+00 -0.19015710923E+04  0.19015710923E+04  0.25500000920E-02 0.  1.
    10030    2    1    2    0    0  0.00000000000E+00  0.00000000000E+00 -0.13209513975E+04  0.24821907871E+04  0.21015133854E+04 0.  0.
        5    1    3    3  502    0  0.48768637151E+02  0.85460060450E+03  0.59292969395E+02  0.85805496293E+03  0.46999998093E+01 0. -1.
       -5    1    3    3    0  502 -0.48768637151E+02 -0.85460060450E+03 -0.13802443669E+04  0.16241358242E+04  0.46999998093E+01 0.  1.
</event>
<event>
 5   0  0.8237966E-05  0.2052114E+04  0.7818609E-02  0.8582636E-01
       -1   -1    0    0    0  501  0.00000000000E+00  0.00000000000E+00  0.73885714701E+03  0.73885714703E+03  0.50400001928E-02 0.  1.
        1   -1    0    0  501    0  0.00000000000E+00  0.00000000000E+00 -0.14248932294E+04  0.14248932294E+04  0.50400001928E-02 0. -1.
    10030    2    1    2    0    0  0.00000000000E+00  0.00000000000E+00 -0.68603608240E+03  0.21637503765E+04  0.20521135897E+04 0.  0.
        1    1    3    3  502    0 -0.38633000856E+02  0.96921959927E+03 -0.69575162961E+03  0.11937124740E+04  0.50400001928E-02 0. -1.
       -1    1    3    3    0  502  0.38633000856E+02 -0.96921959927E+03  0.97155472089E+01  0.97003790248E+03  0.50400001928E-02 0.  1.
</event>
<event>
 5   0  0.1886323E-04  0.2088029E+04  0.7818609E-02  0.8566535E-01
        2   -1    0    0  501    0  0.00000000000E+00  0.00000000000E+00  0.19813845570E+04  0.19813845570E+04  0.25500000920E-02 0. -1.
       -2   -1    0    0    0  501  0.00000000000E+00  0.00000000000E+00 -0.55010325501E+03  0.55010325501E+03  0.25500000920E-02 0.  1.
    10030    2    1    2    0    0  0.00000000000E+00  0.00000000000E+00  0.14312813020E+04  0.25314878120E+04  0.20880288257E+04 0.  0.
        2    1    3    3  502    0  0.14196468317E+03 -0.37188011816E+01  0.19696197599E+04  0.19747328425E+04  0.25500000920E-02 0. -1.
       -2    1    3    3    0  502 -0.14196468317E+03  0.37188011816E+01 -0.53833845792E+03  0.55675496947E+03  0.25500000920E-02 0.  1.
</event>
<event>
 5   0  0.8486612E-05  0.2066455E+04  0.7818609E-02  0.8576166E-01
        1   -1    0    0  501    0  0.00000000000E+00  0.00000000000E+00  0.13764600818E+04  0.13764600819E+04  0.50400001928E-02 0. -1.
       -1   -1    0    0    0  501  0.00000000000E+00  0.00000000000E+00 -0.77558290859E+03  0.77558290861E+03  0.50400001928E-02 0.  1.
    10030    2    1    2    0    0  0.00000000000E+00  0.00000000000E+00  0.60087717325E+03  0.21520429905E+04  0.20664548520E+04 0.  0.
        5    1    3    3  502    0 -0.87666918057E+03 -0.81253449716E+02  0.86356149614E+03  0.12332524165E+04  0.46999998093E+01 0.  1.
       -5    1    3    3    0  502  0.87666918057E+03  0.81253449716E+02 -0.26268432289E+03  0.91879057393E+03  0.46999998093E+01 0. -1.
</event>
<event>
 5   0  0.8755004E-05  0.1805183E+04  0.7818609E-02  0.8703548E-01
        1   -1    0    0  501    0  0.00000000000E+00  0.00000000000E+00  0.95383086193E+03  0.95383086194E+03  0.50400001928E-02 0. -1.
       -1   -1    0    0    0  501  0.00000000000E+00  0.00000000000E+00 -0.85410434801E+03  0.85410434802E+03  0.50400001928E-02 0.  1.
    10030    2    1    2    0    0  0.00000000000E+00  0.00000000000E+00  0.99726513923E+02  0.18079352100E+04  0.18051826350E+04 0.  0.
        3    1    3    3  502    0  0.84120805489E+03  0.26158896963E+02  0.37648289889E+03  0.92198409036E+03  0.10100000352E+00 0. -1.
       -3    1    3    3    0  502 -0.84120805489E+03 -0.26158896963E+02 -0.27675638497E+03  0.88595111961E+03  0.10100000352E+00 0.  1.
</event>
<event>
 5   0  0.1777590E-04  0.2025944E+04  0.7818609E-02  0.8594586E-01
       -2   -1    0    0    0  501  0.00000000000E+00  0.00000000000E+00  0.58005486767E+03  0.58005486768E+03  0.25500000920E-02 0. -1.
        2   -1    0    0  501    0  0.00000000000E+00  0.00000000000E+00 -0.17689921663E+04  0.17689921663E+04  0.25500000920E-02 0.  1.
    10030    2    1    2    0    0  0.00000000000E+00  0.00000000000E+00 -0.11889372986E+04  0.23490470339E+04  0.20259442410E+04 0.  0.
        4    1    3    3  502    0  0.18744291656E+02 -0.99238819466E+03 -0.35990550705E+03  0.10558026635E+04  0.12699999809E+01 0. -1.
       -4    1    3    3    0  502 -0.18744291656E+02  0.99238819466E+03 -0.82903179155E+03  0.12932443704E+04  0.12699999809E+01 0.  1.
</event>
<event>
 5   0  0.8486612E-05  0.2115507E+04  0.7818609E-02  0.8554443E-01
       -1   -1    0    0    0  501  0.00000000000E+00  0.00000000000E+00  0.64146377026E+03  0.64146377028E+03  0.50400001928E-02 0. -1.
        1   -1    0    0  501    0  0.00000000000E+00  0.00000000000E+00 -0.17442026948E+04  0.17442026948E+04  0.50400001928E-02 0.  1.
    10030    2    1    2    0    0  0.00000000000E+00  0.00000000000E+00 -0.11027389245E+04  0.23856664650E+04  0.21155073497E+04 0.  0.
        5    1    3    3  502    0  0.47372590893E+03  0.68984377139E+03  0.17817764141E+03  0.85561090901E+03  0.46999998093E+01 0. -1.
       -5    1    3    3    0  502 -0.47372590893E+03 -0.68984377139E+03 -0.12809165659E+04  0.15300555560E+04  0.46999998093E+01 0.  1.
</event>
<event>
 5   0  0.8237966E-05  0.2062745E+04  0.7818609E-02  0.8577834E-01
       -1   -1    0    0    0  501  0.00000000000E+00  0.00000000000E+00  0.70007423550E+03  0.70007423551E+03  0.50400001928E-02 0. -1.
        1   -1    0    0  501    0  0.00000000000E+00  0.00000000000E+00 -0.15194524614E+04  0.15194524614E+04  0.50400001928E-02 0.  1.
    10030    2    1    2    0    0  0.00000000000E+00  0.00000000000E+00 -0.81937822590E+03  0.22195266969E+04  0.20627452778E+04 0.  0.
        1    1    3    3  502    0  0.27976640919E+03  0.88207842820E+02 -0.14736191254E+04  0.15025322605E+04  0.50400001928E-02 0.  1.
       -1    1    3    3    0  502 -0.27976640919E+03 -0.88207842820E+02  0.65424089947E+03  0.71699443639E+03  0.50400001928E-02 0. -1.
</event>
<event>
 5   0  0.8486612E-05  0.2138096E+04  0.7818609E-02  0.8544645E-01
       -1   -1    0    0    0  501  0.00000000000E+00  0.00000000000E+00  0.10434722511E+04  0.10434722511E+04  0.50400001928E-02 0.  1.
        1   -1    0    0  501    0  0.00000000000E+00  0.00000000000E+00 -0.10952504468E+04  0.10952504468E+04  0.50400001928E-02 0. -1.
    10030    2    1    2    0    0  0.00000000000E+00  0.00000000000E+00 -0.51778195672E+02  0.21387226979E+04  0.21380958344E+04 0.  0.
        5    1    3    3  502    0  0.82372390509E+03  0.63870380174E+03  0.21162049023E+03  0.10636112730E+04  0.46999998093E+01 0.  1.
       -5    1    3    3    0  502 -0.82372390509E+03 -0.63870380174E+03 -0.26339868590E+03  0.10751114249E+04  0.46999998093E+01 0. -1.
</event>
<event>
 5   0  0.1921687E-04  0.2185255E+04  0.7818609E-02  0.8524591E-01
        2   -1    0    0  501    0  0.00000000000E+00  0.00000000000E+00  0.11012480109E+04  0.11012480109E+04  0.25500000920E-02 0.  1.
       -2   -1    0    0    0  501  0.00000000000E+00  0.00000000000E+00 -0.10840740858E+04  0.10840740858E+04  0.25500000920E-02 0. -1.
    10030    2    1    2    0    0  0.00000000000E+00  0.00000000000E+00  0.17173925131E+02  0.21853220967E+04  0.21852546128E+04 0.  0.
        5    1    3    3  502    0  0.42669635440E+03  0.34875455902E+03 -0.93490007829E+03  0.10852464087E+04  0.46999998093E+01 0. -1.
       -5    1    3    3    0  502 -0.42669635440E+03 -0.34875455902E+03  0.95207400343E+03  0.11000756880E+04  0.46999998093E+01 0.  1.
</event>
<event>
 5   0  0.8525278E-05  0.2121702E+04  0.7818609E-02  0.8551743E-01
        1   -1    0    0  501    0  0.00000000000E+00  0.00000000000E+00  0.13801644461E+04  0.13801644461E+04  0.50400001928E-02 0.  1.
       -1   -1    0    0    0  501  0.00000000000E+00  0.00000000000E+00 -0.81541335785E+03  0.81541335786E+03  0.50400001928E-02 0. -1.
    10030    2    1    2    0    0  0.00000000000E+00  0.00000000000E+00  0.56475108822E+03  0.21955778039E+04  0.21217016995E+04 0.  0.
        4    1    3    3  502    0 -0.66745011388E+03  0.79438126734E+03  0.51114237345E+03  0.11566327815E+04  0.12699999809E+01 0.  1.
       -4    1    3    3    0  502  0.66745011388E+03 -0.79438126734E+03  0.53608714767E+02  0.10389450224E+04  0.12699999809E+01 0. -1.
</event>
<event>
 5   0  0.6441125E-05  0.1709623E+04  0.7818609E-02  0.8755895E-01
        3   -1    0    0  501    0  0.00000000000E+00  0.00000000000E+00  0.21905941316E+04  0.21905941339E+04  0.10100000352E+00 0.  1.
       -3   -1    0    0    0  501  0.00000000000E+00  0.00000000000E+00 -0.33356350543E+03  0.33356352072E+03  0.10100000352E+00 0. -1.
    10030    2    1    2    0    0  0.00000000000E+00  0.00000000000E+00  0.18570306261E+04  0.25241576546E+04  0.17096225077E+04 0.  0.
        2    1    3    3  502    0  0.35743338962E+02 -0.79156982863E+02  0.21840626964E+04  0.21857889368E+04  0.25500000920E-02 0.  1.
       -2    1    3    3    0  502 -0.35743338962E+02  0.79156982863E+02 -0.32703207028E+03  0.33836871784E+03  0.25500000920E-02 0. -1.
</event>
<event>
 5   0  0.1921687E-04  0.2071326E+04  0.7818609E-02  0.8573981E-01
       -2   -1    0    0    0  501  0.00000000000E+00  0.00000000000E+00  0.90571111142E+03  0.90571111142E+03  0.25500000920E-02 0. -1.
        2   -1    0    0  501    0  0.00000000000E+00  0.00000000000E+00 -0.11842606543E+04  0.11842606543E+04  0.25500000920E-02 0.  1.
    10030    2    1    2    0    0  0.00000000000E+00  0.00000000000E+00 -0.27854954288E+03  0.20899717657E+04  0.20713261775E+04 0.  0.
        5    1    3    3  502    0  0.92293254677E+03 -0.28808089414E+02  0.33392613451E+03  0.98191809496E+03  0.46999998093E+01 0. -1.
       -5    1    3    3    0  502 -0.92293254677E+03  0.28808089414E+02 -0.61247567739E+03  0.11080536708E+04  0.46999998093E+01 0.  1.
</event>
<event>
 5   0  0.8486612E-05  0.2062874E+04  0.7818609E-02  0.8577776E-01
       -1   -1    0    0    0  501  0.00000000000E+00  0.00000000000E+00  0.80780119360E+03  0.80780119361E+03  0.50400001928E-02 0.  1.
        1   -1    0    0  501    0  0.00000000000E+00  0.00000000000E+00 -0.13169855551E+04  0.13169855552E+04  0.50400001928E-02 0. -1.
    10030    2    1    2    0    0  0.00000000000E+00  0.00000000000E+00 -0.50918436155E+03  0.21247867488E+04  0.20628742118E+04 0.  0.
        5    1    3    3  502    0 -0.32444757129E+03 -0.66236765614E+03 -0.99723300168E+03  0.12403599833E+04  0.46999998093E+01 0. -1.
       -5    1    3    3    0  502  0.32444757129E+03  0.66236765614E+03  0.48804864013E+03  0.88442676551E+03  0.46999998093E+01 0.  1.
</event>
<event>
 5   0  0.1777590E-04  0.2064937E+04  0.7818609E-02  0.8576848E-01
       -2   -1    0    0    0  501  0.00000000000E+00  0.00000000000E+00  0.49493077568E+03  0.49493077569E+03  0.25500000920E-02 0.  1.
        2   -1    0    0  501    0  0.00000000000E+00  0.00000000000E+00 -0.21538187725E+04  0.21538187725E+04  0.25500000920E-02 0. -1.
    10030    2    1    2    0    0  0.00000000000E+00  0.00000000000E+00 -0.16588879968E+04  0.26487495482E+04  0.20649369925E+04 0.  0.
        4    1    3    3  502    0  0.37556677400E+03  0.33147844769E+03 -0.19874990521E+04  0.20496542289E+04  0.12699999809E+01 0. -1.
       -4    1    3    3    0  502 -0.37556677400E+03 -0.33147844769E+03  0.32861105530E+03  0.59909531928E+03  0.12699999809E+01 0.  1.
</event>
<event>
 5   0  0.8525278E-05  0.2060640E+04  0.7818609E-02  0.8578783E-01
        1   -1    0    0  501    0  0.00000000000E+00  0.00000000000E+00  0.22872321828E+04  0.22872321828E+04  0.50400001928E-02 0.  1.
       -1   -1    0    0    0  501  0.00000000000E+00  0.00000000000E+00 -0.46412411888E+03  0.46412411891E+03  0.50400001928E-02 0. -1.
    10030    2    1    2    0    0  0.00000000000E+00  0.00000000000E+00  0.18231080639E+04  0.27513563017E+04  0.20606403098E+04 0.  0.
        4    1    3    3  502    0 -0.96658447441E+02  0.64470449122E+03  0.19768447964E+04  0.20815628019E+04  0.12699999809E+01 0.  1.
       -4    1    3    3    0  502  0.96658447441E+02 -0.64470449122E+03 -0.15373673252E+03  0.66979349974E+03  0.12699999809E+01 0. -1.
</event>
<event>
 5   0  0.8271069E-05  0.2226967E+04  0.7818609E-02  0.8507287E-01
       -1   -1    0    0    0  501  0.00000000000E+00  0.00000000000E+00  0.12946265074E+04  0.12946265074E+04  0.50400001928E-02 0.  1.
        1   -1    0    0  501    0  0.00000000000E+00  0.00000000000E+00 -0.95768553241E+03  0.95768553242E+03  0.50400001928E-02 0. -1.
    10030    2    1    2    0    0  0.00000000000E+00  0.00000000000E+00  0.33694097498E+03  0.22523120398E+04  0.22269666149E+04 0.  0.
        2    1    3    3  502    0  0.91373804051E+03  0.61927391133E+03  0.20422485581E+02  0.11040083613E+04  0.25500000920E-02 0. -1.
       -2    1    3    3    0  502 -0.91373804051E+03 -0.61927391133E+03  0.31651848940E+03  0.11483036785E+04  0.25500000920E-02 0.  1.
</event>
<event>
 5   0  0.8755004E-05  0.2091778E+04  0.7818609E-02  0.8564874E-01
        1   -1    0    0  501    0  0.00000000000E+00  0.00000000000E+00  0.10234293085E+04  0.10234293085E+04  0.50400001928E-02 0.  1.
       -1   -1    0    0    0  501  0.00000000000E+00  0.00000000000E+00 -0.10688411932E+04  0.10688411932E+04  0.50400001928E-02 0. -1.
    10030    2    1    2    0    0  0.00000000000E+00  0.00000000000E+00 -0.45411884734E+02  0.20922705018E+04  0.20917776204E+04 0.  0.
        3    1    3    3  502    0  0.54680959132E+03  0.87164784364E+03 -0.21013392758E+03  0.10502032995E+04  0.10100000352E+00 0. -1.
       -3    1    3    3    0  502 -0.54680959132E+03 -0.87164784364E+03  0.16472204285E+03  0.10420672023E+04  0.10100000352E+00 0.  1.
</event>
<event>
 5   0  0.1815400E-04  0.2017193E+04  0.7818609E-02  0.8598624E-01
        2   -1    0    0  501    0  0.00000000000E+00  0.00000000000E+00  0.19687139049E+04  0.19687139049E+04  0.25500000920E-02 0.  1.
       -2   -1    0    0    0  501  0.00000000000E+00  0.00000000000E+00 -0.51671655155E+03  0.51671655155E+03  0.25500000920E-02 0. -1.
    10030    2    1    2    0    0  0.00000000000E+00  0.00000000000E+00  0.14519973534E+04  0.24854304565E+04  0.20171931588E+04 0.  0.
        3    1    3    3  502    0 -0.87356389389E+02  0.75862340855E+03  0.15378233477E+04  0.17169861018E+04  0.10100000352E+00 0.  1.
       -3    1    3    3    0  502  0.87356389389E+02 -0.75862340855E+03 -0.85825994320E+02  0.76844435470E+03  0.10100000352E+00 0. -1.
</event>
<event>
 5   0  0.8271069E-05  0.2044308E+04  0.7818609E-02  0.8586181E-01
       -1   -1    0    0    0  501  0.00000000000E+00  0.00000000000E+00  0.54041987291E+03  0.54041987293E+03  0.50400001928E-02 0.  1.
        1   -1    0    0  501    0  0.00000000000E+00  0.00000000000E+00 -0.19333091424E+04  0.19333091424E+04  0.50400001928E-02 0. -1.
    10030    2    1    2    0    0  0.00000000000E+00  0.00000000000E+00 -0.13928892694E+04  0.24737290153E+04  0.20443078839E+04 0.  0.
        2    1    3    3  502    0  0.57897531669E+03 -0.84205062819E+03 -0.72448568555E+03  0.12526536578E+04  0.25500000920E-02 0.  1.
       -2    1    3    3    0  502 -0.57897531669E+03  0.84205062819E+03 -0.66840358390E+03  0.12210753575E+04  0.25500000920E-02 0. -1.
</event>
<event>
 5   0  0.8271069E-05  0.2049275E+04  0.7818609E-02  0.8583923E-01
       -1   -1    0    0    0  501  0.00000000000E+00  0.00000000000E+00  0.94851537857E+03  0.94851537859E+03  0.50400001928E-02 0.  1.
        1   -1    0    0  501    0  0.00000000000E+00  0.00000000000E+00 -0.11068689849E+04  0.11068689849E+04  0.50400001928E-02 0. -1.
    10030    2    1    2    0    0  0.00000000000E+00  0.00000000000E+00 -0.15835360633E+03  0.20553843635E+04  0.20492752419E+04 0.  0.
        2    1    3    3  502    0  0.43551758172E+03  0.72898507516E+03 -0.65428607772E+03  0.10720005015E+04  0.25500000920E-02 0. -1.
       -2    1    3    3    0  502 -0.43551758172E+03 -0.72898507516E+03  0.49593247138E+03  0.98338386197E+03  0.25500000920E-02 0.  1.
</event>
<event>
 5   0  0.1921687E-04  0.2102542E+04  0.7818609E-02  0.8560124E-01
       -2   -1    0    0    0  501  0.00000000000E+00  0.00000000000E+00  0.81783511617E+03  0.81783511617E+03  0.25500000920E-02 0.  1.
        2   -1    0    0  501    0  0.00000000000E+00  0.00000000000E+00 -0.13513367143E+04  0.13513367143E+04  0.25500000920E-02 0. -1.
    10030    2    1    2    0    0  0.00000000000E+00  0.00000000000E+00 -0.53350159817E+03  0.21691718305E+04  0.21025419080E+04 0.  0.
        5    1    3    3  502    0 -0.33677810633E+02  0.38030790887E+03 -0.12772702489E+04  0.13331202793E+04  0.46999998093E+01 0. -1.
       -5    1    3    3    0  502  0.33677810633E+02 -0.38030790887E+03  0.74376865071E+03  0.83605155119E+03  0.46999998093E+01 0.  1.
</event>
<event>
 5   0  0.1777590E-04  0.2071922E+04  0.7818609E-02  0.8573714E-01
       -2   -1    0    0    0  501  0.00000000000E+00  0.00000000000E+00  0.11745952960E+04  0.11745952960E+04  0.25500000920E-02 0.  1.
        2   -1    0    0  501    0  0.00000000000E+00  0.00000000000E+00 -0.91368913820E+03  0.91368913820E+03  0.25500000920E-02 0. -1.
    10030    2    1    2    0    0  0.00000000000E+00  0.00000000000E+00  0.26090615783E+03  0.20882844342E+04  0.20719217782E+04 0.  0.
        4    1    3    3  502    0  0.44465452584E+02 -0.43505461633E+03 -0.81609273750E+03  0.92588264092E+03  0.12699999809E+01 0. -1.
       -4    1    3    3    0  502 -0.44465452584E+02  0.43505461633E+03  0.10769988953E+04  0.11624017933E+04  0.12699999809E+01 0.  1.
</event>
<event>
 5   0  0.8271069E-05  0.2105581E+04  0.7818609E-02  0.8558789E-01
        1   -1    0    0  501    0  0.00000000000E+00  0.00000000000E+00  0.97218365414E+03  0.97218365415E+03  0.50400001928E-02 0. -1.
       -1   -1    0    0    0  501  0.00000000000E+00  0.00000000000E+00 -0.11400803425E+04  0.11400803425E+04  0.50400001928E-02 0.  1.
    10030    2    1    2    0    0  0.00000000000E+00  0.00000000000E+00 -0.16789668834E+03  0.21122639966E+04  0.21055806547E+04 0.  0.
        2    1    3    3  502    0 -0.56944560937E+03 -0.13622632274E+03  0.79378116851E+03  0.98636426158E+03  0.25500000920E-02 0. -1.
       -2    1    3    3    0  502  0.56944560937E+03  0.13622632274E+03 -0.96167785685E+03  0.11258997351E+04  0.25500000920E-02 0.  1.
</event>
<event>
 5   0  0.8755004E-05  0.2121180E+04  0.7818609E-02  0.8551971E-01
        1   -1    0    0  501    0  0.00000000000E+00  0.00000000000E+00  0.14466106420E+04  0.14466106420E+04  0.50400001928E-02 0.  1.
       -1   -1    0    0    0  501  0.00000000000E+00  0.00000000000E+00 -0.77757677083E+03  0.77757677084E+03  0.50400001928E-02 0. -1.
    10030    2    1    2    0    0  0.00000000000E+00  0.00000000000E+00  0.66903387121E+03  0.22241874129E+04  0.21211797017E+04 0.  0.
        3    1    3    3  502    0  0.48130353840E+03 -0.69496238715E+03  0.10061081112E+04  0.13141078180E+04  0.10100000352E+00 0.  1.
       -3    1    3    3    0  502 -0.48130353840E+03  0.69496238715E+03 -0.33707423999E+03  0.91007959492E+03  0.10100000352E+00 0. -1.
</event>
<event>
 5   0  0.8755004E-05  0.2081123E+04  0.7818609E-02  0.8569605E-01
       -1   -1    0    0    0  501  0.00000000000E+00  0.00000000000E+00  0.64207666649E+03  0.64207666651E+03  0.50400001928E-02 0. -1.
        1   -1    0    0  501    0  0.00000000000E+00  0.00000000000E+00 -0.16863539949E+04  0.16863539949E+04  0.50400001928E-02 0.  1.
    10030    2    1    2    0    0  0.00000000000E+00  0.00000000000E+00 -0.10442773284E+04  0.23284306614E+04  0.20811233040E+04 0.  0.
        3    1    3    3  502    0  0.17178082794E+03 -0.55435078642E+03 -0.14884606022E+04  0.15976008330E+04  0.10100000352E+00 0.  1.
       -3    1    3    3    0  502 -0.17178082794E+03  0.55435078642E+03  0.44418327373E+03  0.73082982842E+03  0.10100000352E+00 0. -1.
</event>
<event>
 5   0  0.1886323E-04  0.2180795E+04  0.7818609E-02  0.8526464E-01
       -2   -1    0    0    0  501  0.00000000000E+00  0.00000000000E+00  0.13954604369E+04  0.13954604369E+04  0.25500000920E-02 0.  1.
        2   -1    0    0  501    0  0.00000000000E+00  0.00000000000E+00 -0.85202495286E+03  0.85202495286E+03  0.25500000920E-02 0. -1.
    10030    2    1    2    0    0  0.00000000000E+00  0.00000000000E+00  0.54343548401E+03  0.22474853897E+04  0.21807953714E+04 0.  0.
        2    1    3    3  502    0 -0.19048737061E+03  0.10226488384E+04 -0.65190746686E+02  0.10422791942E+04  0.25500000920E-02 0.  1.
       -2    1    3    3    0  502  0.19048737061E+03 -0.10226488384E+04  0.60862623070E+03  0.12052061956E+04  0.25500000920E-02 0. -1.
</event>
<event>
 5   0  0.8237966E-05  0.2140684E+04  0.7818609E-02  0.8543531E-01
       -1   -1    0    0    0  501  0.00000000000E+00  0.00000000000E+00  0.94977608875E+03  0.94977608876E+03  0.50400001928E-02 0. -1.
        1   -1    0    0  501    0  0.00000000000E+00  0.00000000000E+00 -0.12062123324E+04  0.12062123324E+04  0.50400001928E-02 0.  1.
    10030    2    1    2    0    0  0.00000000000E+00  0.00000000000E+00 -0.25643624367E+03  0.21559884212E+04  0.21406836584E+04 0.  0.
        1    1    3    3  502    0 -0.78585071627E+02  0.34285436098E+03 -0.11463395950E+04  0.11990909863E+04  0.50400001928E-02 0.  1.
       -1    1    3    3    0  502  0.78585071627E+02 -0.34285436098E+03  0.88990335129E+03  0.95689743494E+03  0.50400001928E-02 0. -1.
</event>
<event>
 5   0  0.1921687E-04  0.2092510E+04  0.7818609E-02  0.8564550E-01
        2   -1    0    0  501    0  0.00000000000E+00  0.00000000000E+00  0.17517567562E+04  0.17517567562E+04  0.25500000920E-02 0. -1.
       -2   -1    0    0    0  501  0.00000000000E+00  0.00000000000E+00 -0.62488643096E+03  0.62488643097E+03  0.25500000920E-02 0.  1.
    10030    2    1    2    0    0  0.00000000000E+00  0.00000000000E+00  0.11268703253E+04  0.23766431872E+04  0.20925095243E+04 0.  0.
        5    1    3    3  502    0 -0.19175745184E+03  0.11815712784E+03 -0.59701082502E+03  0.63810347310E+03  0.46999998093E+01 0.  1.
       -5    1    3    3    0  502  0.19175745184E+03 -0.11815712784E+03  0.17238811503E+04  0.17385397141E+04  0.46999998093E+01 0. -1.
</event>
<event>
 5   0  0.8755004E-05  0.2124740E+04  0.7818609E-02  0.8550423E-01
       -1   -1    0    0    0  501  0.00000000000E+00  0.00000000000E+00  0.87780194002E+03  0.87780194003E+03  0.50400001928E-02 0. -1.
        1   -1    0    0  501    0  0.00000000000E+00  0.00000000000E+00 -0.12857455605E+04  0.12857455606E+04  0.50400001928E-02 0.  1.
    10030    2    1    2    0    0  0.00000000000E+00  0.00000000000E+00 -0.40794362053E+03  0.21635475006E+04  0.21247399346E+04 0.  0.
        3    1    3    3  502    0  0.64178189258E+03  0.83260540284E+03 -0.36011591742E+03  0.11112152081E+04  0.10100000352E+00 0.  1.
       -3    1    3    3    0  502 -0.64178189258E+03 -0.83260540284E+03 -0.47827703109E+02  0.10523322925E+04  0.10100000352E+00 0. -1.
</event>
<event>
 5   0  0.1886323E-04  0.2078987E+04  0.7818609E-02  0.8570557E-01
        2   -1    0    0  501    0  0.00000000000E+00  0.00000000000E+00  0.11336376478E+04  0.11336376478E+04  0.25500000920E-02 0. -1.
       -2   -1    0    0    0  501  0.00000000000E+00  0.00000000000E+00 -0.95316729518E+03  0.95316729518E+03  0.25500000920E-02 0.  1.
    10030    2    1    2    0    0  0.00000000000E+00  0.00000000000E+00  0.18047035264E+03  0.20868049430E+04  0.20789866094E+04 0.  0.
        2    1    3    3  502    0  0.51296522630E+03  0.65212073636E+03 -0.53833986692E+03  0.98904225921E+03  0.25500000920E-02 0.  1.
       -2    1    3    3    0  502 -0.51296522630E+03 -0.65212073636E+03  0.71881021955E+03  0.10977626838E+04  0.25500000920E-02 0. -1.
</event>
<event>
 5   0  0.6441125E-05  0.2113795E+04  0.7818609E-02  0.8555191E-01
        3   -1    0    0  501    0  0.00000000000E+00  0.00000000000E+00  0.11174633973E+04  0.11174634019E+04  0.10100000352E+00 0.  1.
       -3   -1    0    0    0  501  0.00000000000E+00  0.00000000000E+00 -0.99961464155E+03  0.99961464665E+03  0.10100000352E+00 0. -1.
    10030    2    1    2    0    0  0.00000000000E+00  0.00000000000E+00  0.11784875579E+03  0.21170780486E+04  0.21137954334E+04 0.  0.
        5    1    3    3  502    0 -0.21701519072E+03  0.10341720563E+04  0.38811894737E+02  0.10574194476E+04  0.46999998093E+01 0. -1.
       -5    1    3    3    0  502  0.21701519072E+03 -0.10341720563E+04  0.79036861054E+02  0.10596586009E+04  0.46999998093E+01 0.  1.
</event>
<event>
 5   0  0.1921687E-04  0.2130778E+04  0.7818609E-02  0.8547805E-01
       -2   -1    0    0    0  501  0.00000000000E+00  0.00000000000E+00  0.46276129532E+03  0.46276129532E+03  0.25500000920E-02 0. -1.
        2   -1    0    0  501    0  0.00000000000E+00  0.00000000000E+00 -0.24527846618E+04  0.24527846618E+04  0.25500000920E-02 0.  1.
    10030    2    1    2    0    0  0.00000000000E+00  0.00000000000E+00 -0.19900233665E+04  0.29155459572E+04  0.21307780807E+04 0.  0.
        5    1    3    3  502    0 -0.34465656980E+03 -0.46077303655E+03 -0.22218611206E+04  0.22951664148E+04  0.46999998093E+01 0.  1.
       -5    1    3    3    0  502  0.34465656980E+03  0.46077303655E+03  0.23183775412E+03  0.62037954234E+03  0.46999998093E+01 0. -1.
</event>
<event>
 5   0  0.8237966E-05  0.1816900E+04  0.7818609E-02  0.8697364E-01
        1   -1    0    0  501    0  0.00000000000E+00  0.00000000000E+00  0.98977622028E+03  0.98977622030E+03  0.50400001928E-02 0.  1.
       -1   -1    0    0    0  501  0.00000000000E+00  0.00000000000E+00 -0.83380561254E+03  0.83380561256E+03  0.50400001928E-02 0. -1.
    10030    2    1    2    0    0  0.00000000000E+00  0.00000000000E+00  0.15597060774E+03  0.18235818329E+04  0.18168995213E+04 0.  0.
        1    1    3    3  502    0  0.45514172914E+03 -0.35027768373E+02  0.86630384633E+03  0.97921565161E+03  0.50400001928E-02 0.  1.
       -1    1    3    3    0  502 -0.45514172914E+03  0.35027768373E+02 -0.71033323859E+03  0.84436618125E+03  0.50400001928E-02 0. -1.
</event>
<event>
 5   0  0.8525278E-05  0.2172965E+04  0.7818609E-02  0.8529765E-01
       -1   -1    0    0    0  501  0.00000000000E+00  0.00000000000E+00  0.46861668895E+03  0.46861668898E+03  0.50400001928E-02 0.  1.
        1   -1    0    0  501    0  0.00000000000E+00  0.00000000000E+00 -0.25189983803E+04  0.25189983803E+04  0.50400001928E-02 0. -1.
    10030    2    1    2    0    0  0.00000000000E+00  0.00000000000E+00 -0.20503816913E+04  0.29876150692E+04  0.21729654212E+04 0.  0.
        4    1    3    3  502    0 -0.97816466889E+03 -0.31731971237E+03 -0.15072801801E+04  0.18246624547E+04  0.12699999809E+01 0.  1.
       -4    1    3    3    0  502  0.97816466889E+03  0.31731971237E+03 -0.54310151123E+03  0.11629526146E+04  0.12699999809E+01 0. -1.
</event>
<event>
 5   0  0.1815400E-04  0.2120611E+04  0.7818609E-02  0.8552218E-01
        2   -1    0    0  501    0  0.00000000000E+00  0.00000000000E+00  0.16346185329E+04  0.16346185329E+04  0.25500000920E-02 0.  1.
       -2   -1    0    0    0  501  0.00000000000E+00  0.00000000000E+00 -0.68777383800E+03  0.68777383801E+03  0.25500000920E-02 0. -1.
    10030    2    1    2    0    0  0.00000000000E+00  0.00000000000E+00  0.94684469486E+03  0.23223923709E+04  0.21206111025E+04 0.  0.
        3    1    3    3  502    0 -0.19115902100E+03  0.27783620134E+03  0.15743164490E+04  0.16100332350E+04  0.10100000352E+00 0.  1.
       -3    1    3    3    0  502  0.19115902100E+03 -0.27783620134E+03 -0.62747175410E+03  0.71235913588E+03  0.10100000352E+00 0. -1.
</event>
<event>
 5   0  0.8486612E-05  0.2064277E+04  0.7818609E-02  0.8577145E-01
        1   -1    0    0  501    0  0.00000000000E+00  0.00000000000E+00  0.15336095659E+04  0.15336095659E+04  0.50400001928E-02 0. -1.
       -1   -1    0    0    0  501  0.00000000000E+00  0.00000000000E+00 -0.69464249704E+03  0.69464249706E+03  0.50400001928E-02 0.  1.
    10030    2    1    2    0    0  0.00000000000E+00  0.00000000000E+00  0.83896706884E+03  0.22282520630E+04  0.20642774798E+04 0.  0.
        5    1    3    3  502    0  0.90264004485E+03 -0.21880474501E+03  0.90541333542E+03  0.12970851803E+04  0.46999998093E+01 0. -1.
       -5    1    3    3    0  502 -0.90264004485E+03  0.21880474501E+03 -0.66446266577E+02  0.93116688265E+03  0.46999998093E+01 0.  1.
</event>
<event>
 5   0  0.1810875E-04  0.2128736E+04  0.7818609E-02  0.8548689E-01
       -2   -1    0    0    0  501  0.00000000000E+00  0.00000000000E+00  0.53745247699E+03  0.53745247699E+03  0.25500000920E-02 0. -1.
        2   -1    0    0  501    0  0.00000000000E+00  0.00000000000E+00 -0.21078689312E+04  0.21078689312E+04  0.25500000920E-02 0.  1.
    10030    2    1    2    0    0  0.00000000000E+00  0.00000000000E+00 -0.15704164542E+04  0.26453214082E+04  0.21287361304E+04 0.  0.
        1    1    3    3  502    0  0.98627152553E+03  0.29876422126E+03 -0.45434968413E+03  0.11262438535E+04  0.50400001928E-02 0. -1.
       -1    1    3    3    0  502 -0.98627152553E+03 -0.29876422126E+03 -0.11160667701E+04  0.15190775547E+04  0.50400001928E-02 0.  1.
</event>
<event>
 5   0  0.8237966E-05  0.2097683E+04  0.7818609E-02  0.8562265E-01
       -1   -1    0    0    0  501  0.00000000000E+00  0.00000000000E+00  0.75169127164E+03  0.75169127165E+03  0.50400001928E-02 0.  1.
        1   -1    0    0  501    0  0.00000000000E+00  0.00000000000E+00 -0.14634577057E+04  0.14634577057E+04  0.50400001928E-02 0. -1.
    10030    2    1    2    0    0  0.00000000000E+00  0.00000000000E+00 -0.71176643409E+03  0.22151489774E+04  0.20976828968E+04 0.  0.
        1    1    3    3  502    0 -0.14106328284E+03  0.83884336557E+02  0.73804762688E+03  0.75607521534E+03  0.50400001928E-02 0.  1.
       -1    1    3    3    0  502  0.14106328284E+03 -0.83884336557E+02 -0.14498140610E+04  0.14590737621E+04  0.50400001928E-02 0. -1.
</event>
<event>
 5   0  0.1886323E-04  0.2084495E+04  0.7818609E-02  0.8568104E-01
       -2   -1    0    0    0  501  0.00000000000E+00  0.00000000000E+00  0.80166951679E+03  0.80166951680E+03  0.25500000920E-02 0.  1.
        2   -1    0    0  501    0  0.00000000000E+00  0.00000000000E+00 -0.13550224480E+04  0.13550224480E+04  0.25500000920E-02 0. -1.
    10030    2    1    2    0    0  0.00000000000E+00  0.00000000000E+00 -0.55335293122E+03  0.21566919648E+04  0.20844953261E+04 0.  0.
        2    1    3    3  502    0 -0.56831514021E+03 -0.58273479970E+03  0.39680520016E+03  0.90554752071E+03  0.25500000920E-02 0.  1.
       -2    1    3    3    0  502  0.56831514021E+03  0.58273479970E+03 -0.95015813138E+03  0.12511444441E+04  0.25500000920E-02 0. -1.
</event>
<event>
 5   0  0.8755004E-05  0.2086113E+04  0.7818609E-02  0.8567385E-01
        1   -1    0    0  501    0  0.00000000000E+00  0.00000000000E+00  0.85527307269E+03  0.85527307270E+03  0.50400001928E-02 0.  1.
       -1   -1    0    0    0  501  0.00000000000E+00  0.00000000000E+00 -0.12720696899E+04  0.12720696899E+04  0.50400001928E-02 0. -1.
    10030    2    1    2    0    0  0.00000000000E+00  0.00000000000E+00 -0.41679661720E+03  0.21273427626E+04  0.20861130865E+04 0.  0.
        3    1    3    3  502    0 -0.70064676359E+03 -0.12981691176E+03  0.56837038299E+03  0.91148407576E+03  0.10100000352E+00 0.  1.
       -3    1    3    3    0  502  0.70064676359E+03  0.12981691176E+03 -0.98516700019E+03  0.12158586868E+04  0.10100000352E+00 0. -1.
</event>
<event>
 5   0  0.1777590E-04  0.1364475E+04  0.7818609E-02  0.8979943E-01
       -2   -1    0    0    0  501  0.00000000000E+00  0.00000000000E+00  0.13941575275E+04  0.13941575275E+04  0.25500000920E-02 0.  1.
        2   -1    0    0  501    0  0.00000000000E+00  0.00000000000E+00 -0.33385595628E+03  0.33385595629E+03  0.25500000920E-02 0. -1.
    10030    2    1    2    0    0  0.00000000000E+00  0.00000000000E+00  0.10603015712E+04  0.17280134838E+04  0.13644746895E+04 0.  0.
        4    1    3    3  502    0  0.12539648727E+03 -0.34183281167E+03  0.12608193560E+04  0.13123418043E+04  0.12699999809E+01 0.  1.
       -4    1    3    3    0  502 -0.12539648727E+03  0.34183281167E+03 -0.20051778478E+03  0.41567167942E+03  0.12699999809E+01 0. -1.
</event>
<event>
 5   0  0.1810875E-04  0.2192452E+04  0.7818609E-02  0.8521576E-01
       -2   -1    0    0    0  501  0.00000000000E+00  0.00000000000E+00  0.63810643217E+03  0.63810643217E+03  0.25500000920E-02 0. -1.
        2   -1    0    0  501    0  0.00000000000E+00  0.00000000000E+00 -0.18832464969E+04  0.18832464969E+04  0.25500000920E-02 0.  1.
    10030    2    1    2    0    0  0.00000000000E+00  0.00000000000E+00 -0.12451400648E+04  0.25213529291E+04  0.21924522372E+04 0.  0.
        1    1    3    3  502    0  0.30172799916E+03 -0.76763852349E+03  0.20783556669E+03  0.85059056604E+03  0.50400001928E-02 0. -1.
       -1    1    3    3    0  502 -0.30172799916E+03  0.76763852349E+03 -0.14529756315E+04  0.16707623631E+04  0.50400001928E-02 0.  1.
</event>
<event>
 5   0  0.8755004E-05  0.2124332E+04  0.7818609E-02  0.8550600E-01
       -1   -1    0    0    0  501  0.00000000000E+00  0.00000000000E+00  0.14971412130E+04  0.14971412130E+04  0.50400001928E-02 0.  1.
        1   -1    0    0  501    0  0.00000000000E+00  0.00000000000E+00 -0.75356760530E+03  0.75356760531E+03  0.50400001928E-02 0. -1.
    10030    2    1    2    0    0  0.00000000000E+00  0.00000000000E+00  0.74357360770E+03  0.22507088183E+04  0.21243324775E+04 0.  0.
        3    1    3    3  502    0 -0.16176988292E+03  0.24950855088E+03  0.14521408724E+04  0.14822743118E+04  0.10100000352E+00 0.  1.
       -3    1    3    3    0  502  0.16176988292E+03 -0.24950855088E+03 -0.70856726469E+03  0.76843450650E+03  0.10100000352E+00 0. -1.
</event>
<event>
 5   0  0.8486612E-05  0.2106206E+04  0.7818609E-02  0.8558514E-01
       -1   -1    0    0    0  501  0.00000000000E+00  0.00000000000E+00  0.12104218796E+04  0.12104218796E+04  0.50400001928E-02 0. -1.
        1   -1    0    0  501    0  0.00000000000E+00  0.00000000000E+00 -0.91623114801E+03  0.91623114803E+03  0.50400001928E-02 0.  1.
    10030    2    1    2    0    0  0.00000000000E+00  0.00000000000E+00  0.29419073154E+03  0.21266530276E+04  0.21062062846E+04 0.  0.
        5    1    3    3  502    0  0.41395557097E+03  0.96803142935E+03  0.17099102259E+03  0.10666321216E+04  0.46999998093E+01 0. -1.
       -5    1    3    3    0  502 -0.41395557097E+03 -0.96803142935E+03  0.12319970895E+03  0.10600209060E+04  0.46999998093E+01 0.  1.
</event>
<event>
 5   0  0.8755004E-05  0.2088828E+04  0.7818609E-02  0.8566181E-01
       -1   -1    0    0    0  501  0.00000000000E+00  0.00000000000E+00  0.11437333789E+04  0.11437333789E+04  0.50400001928E-02 0. -1.
        1   -1    0    0  501    0  0.00000000000E+00  0.00000000000E+00 -0.95371938136E+03  0.95371938137E+03  0.50400001928E-02 0.  1.
    10030    2    1    2    0    0  0.00000000000E+00  0.00000000000E+00  0.19001399756E+03  0.20974527603E+04  0.20888280835E+04 0.  0.
        3    1    3    3  502    0  0.33254059448E+03 -0.92709277785E+03  0.44388425217E+03  0.10803321273E+04  0.10100000352E+00 0. -1.
       -3    1    3    3    0  502 -0.33254059448E+03  0.92709277785E+03 -0.25387025461E+03  0.10171206330E+04  0.10100000352E+00 0.  1.
</event>
<event>
 5   0  0.6441125E-05  0.2078036E+04  0.7818609E-02  0.8570981E-01
        3   -1    0    0  501    0  0.00000000000E+00  0.00000000000E+00  0.79625988678E+03  0.79625989318E+03  0.10100000352E+00 0.  1.
       -3   -1    0    0    0  501  0.00000000000E+00  0.00000000000E+00 -0.13557867297E+04  0.13557867335E+04  0.10100000352E+00 0. -1.
    10030    2    1    2    0    0  0.00000000000E+00  0.00000000000E+00 -0.55952684297E+03  0.21520466267E+04  0.20780361872E+04 0.  0.
        2    1    3    3  502    0 -0.73801068317E+03 -0.32861384781E+03 -0.95641894984E+03  0.12519520906E+04  0.25500000920E-02 0. -1.
       -2    1    3    3    0  502  0.73801068317E+03  0.32861384781E+03  0.39689210687E+03  0.90009453612E+03  0.25500000920E-02 0.  1.
</event>
<event>
 5   0  0.1886323E-04  0.2055035E+04  0.7818609E-02  0.8581313E-01
        2   -1    0    0  501    0  0.00000000000E+00  0.00000000000E+00  0.17803684342E+04  0.17803684342E+04  0.25500000920E-02 0.  1.
       -2   -1    0    0    0  501  0.00000000000E+00  0.00000000000E+00 -0.59301921088E+03  0.59301921089E+03  0.25500000920E-02 0. -1.
    10030    2    1    2    0    0  0.00000000000E+00  0.00000000000E+00  0.11873492233E+04  0.23733876451E+04  0.20550354585E+04 0.  0.
        2    1    3    3  502    0  0.96125088014E+02  0.95597004946E+03  0.10143451830E+04  0.13971452745E+04  0.25500000920E-02 0.  1.
       -2    1    3    3    0  502 -0.96125088014E+02 -0.95597004946E+03  0.17300404035E+03  0.97624237052E+03  0.25500000920E-02 0. -1.
</event>
<event>
 5   0  0.8755004E-05  0.2088021E+04  0.7818609E-02  0.8566539E-01
        1   -1    0    0  501    0  0.00000000000E+00  0.00000000000E+00  0.13538657160E+04  0.13538657161E+04  0.50400001928E-02 0.  1.
       -1   -1    0    0    0  501  0.00000000000E+00  0.00000000000E+00 -0.80507113503E+03  0.80507113505E+03  0.50400001928E-02 0. -1.
    10030    2    1    2    0    0  0.00000000000E+00  0.00000000000E+00  0.54879458102E+03  0.21589368511E+04  0.20880212726E+04 0.  0.
        3    1    3    3  502    0 -0.56540833634E+03  0.83072520423E+03 -0.18357159196E+02  0.10050512162E+04  0.10100000352E+00 0. -1.
       -3    1    3    3    0  502  0.56540833634E+03 -0.83072520423E+03  0.56715174021E+03  0.11538856349E+04  0.10100000352E+00 0.  1.
</event>
<event>
 5   0  0.1810875E-04  0.1949295E+04  0.7818609E-02  0.8630701E-01
       -2   -1    0    0    0  501  0.00000000000E+00  0.00000000000E+00  0.57734439270E+03  0.57734439270E+03  0.25500000920E-02 0.  1.
        2   -1    0    0  501    0  0.00000000000E+00  0.00000000000E+00 -0.16453563684E+04  0.16453563684E+04  0.25500000920E-02 0. -1.
    10030    2    1    2    0    0  0.00000000000E+00  0.00000000000E+00 -0.10680119757E+04  0.22227007611E+04  0.19492945117E+04 0.  0.
        1    1    3    3  502    0  0.44189728603E+03 -0.16931994056E+03 -0.15055674931E+04  0.15781875459E+04  0.50400001928E-02 0. -1.
       -1    1    3    3    0  502 -0.44189728603E+03  0.16931994056E+03  0.43755551744E+03  0.64451321518E+03  0.50400001928E-02 0.  1.
</event>
<event>
 5   0  0.1777590E-04  0.1866768E+04  0.7818609E-02  0.8671577E-01
        2   -1    0    0  501    0  0.00000000000E+00  0.00000000000E+00  0.16821361525E+04  0.16821361525E+04  0.25500000920E-02 0.  1.
       -2   -1    0    0    0  501  0.00000000000E+00  0.00000000000E+00 -0.51791608983E+03  0.51791608984E+03  0.25500000920E-02 0. -1.
    10030    2    1    2    0    0  0.00000000000E+00  0.00000000000E+00  0.11642200627E+04  0.22000522424E+04  0.18667676649E+04 0.  0.
        4    1    3    3  502    0  0.39256060929E+02 -0.89074855281E+03  0.90750059353E+03  0.12722157690E+04  0.12699999809E+01 0.  1.
       -4    1    3    3    0  502 -0.39256060929E+02  0.89074855281E+03  0.25671946917E+03  0.92783647341E+03  0.12699999809E+01 0. -1.
</event>
<event>
 5   0  0.8486612E-05  0.2096373E+04  0.7818609E-02  0.8562843E-01
       -1   -1    0    0    0  501  0.00000000000E+00  0.00000000000E+00  0.51109025792E+03  0.51109025794E+03  0.50400001928E-02 0. -1.
        1   -1    0    0  501    0  0.00000000000E+00  0.00000000000E+00 -0.21497086250E+04  0.21497086250E+04  0.50400001928E-02 0.  1.
    10030    2    1    2    0    0  0.00000000000E+00  0.00000000000E+00 -0.16386183671E+04  0.26607988830E+04  0.20963731878E+04 0.  0.
        5    1    3    3  502    0  0.54206533925E+03  0.11013437599E+03  0.31074754875E+03  0.63446870832E+03  0.46999998093E+01 0. -1.
       -5    1    3    3    0  502 -0.54206533925E+03 -0.11013437599E+03 -0.19493659159E+04  0.20263301747E+04  0.46999998093E+01 0.  1.
</event>
<event>
 5   0  0.1815400E-04  0.2063532E+04  0.7818609E-02  0.8577480E-01
        2   -1    0    0  501    0  0.00000000000E+00  0.00000000000E+00  0.12374023792E+04  0.12374023792E+04  0.25500000920E-02 0. -1.
       -2   -1    0    0    0  501  0.00000000000E+00  0.00000000000E+00 -0.86030338461E+03  0.86030338461E+03  0.25500000920E-02 0.  1.
    10030    2    1    2    0    0  0.00000000000E+00  0.00000000000E+00  0.37709899459E+03  0.20977057638E+04  0.20635323646E+04 0.  0.
        3    1    3    3  502    0  0.89922786413E+03 -0.87663225931E+02  0.69504347620E+03  0.11399039595E+04  0.10100000352E+00 0. -1.
       -3    1    3    3    0  502 -0.89922786413E+03  0.87663225931E+02 -0.31794448161E+03  0.95780180434E+03  0.10100000352E+00 0.  1.
</event>
<event>
 5   0  0.1815400E-04  0.1735209E+04  0.7818609E-02  0.8741534E-01
       -2   -1    0    0    0  501  0.00000000000E+00  0.00000000000E+00  0.34978527845E+03  0.34978527846E+03  0.25500000920E-02 0. -1.
        2   -1    0    0  501    0  0.00000000000E+00  0.00000000000E+00 -0.21519985134E+04  0.21519985134E+04  0.25500000920E-02 0.  1.
    10030    2    1    2    0    0  0.00000000000E+00  0.00000000000E+00 -0.18022132350E+04  0.25017837919E+04  0.17352088050E+04 0.  0.
        3    1    3    3  502    0 -0.85223180804E+03  0.59576474396E+02 -0.68297870965E+03  0.10937588121E+04  0.10100000352E+00 0. -1.
       -3    1    3    3    0  502  0.85223180804E+03 -0.59576474396E+02 -0.11192345253E+04  0.14080249798E+04  0.10100000352E+00 0.  1.
</event>
<event>
 5   0  0.8271069E-05  0.2041942E+04  0.7818609E-02  0.8587259E-01
       -1   -1    0    0    0  501  0.00000000000E+00  0.00000000000E+00  0.13358899250E+04  0.13358899250E+04  0.50400001928E-02 0.  1.
        1   -1    0    0  501    0  0.00000000000E+00  0.00000000000E+00 -0.78028990223E+03  0.78028990225E+03  0.50400001928E-02 0. -1.
    10030    2    1    2    0    0  0.00000000000E+00  0.00000000000E+00  0.55560002275E+03  0.21161798272E+04  0.20419416436E+04 0.  0.
        2    1    3    3  502    0 -0.16347666899E+03 -0.20214009617E+03  0.13010132557E+04  0.13267331048E+04  0.25500000920E-02 0.  1.
       -2    1    3    3    0  502  0.16347666899E+03  0.20214009617E+03 -0.74541323294E+03  0.78944672248E+03  0.25500000920E-02 0. -1.
</event>
<event>
 5   0  0.8486612E-05  0.2024038E+04  0.7818609E-02  0.8595464E-01
       -1   -1    0    0    0  501  0.00000000000E+00  0.00000000000E+00  0.18289466950E+04  0.18289466950E+04  0.50400001928E-02 0. -1.
        1   -1    0    0  501    0  0.00000000000E+00  0.00000000000E+00 -0.55998482587E+03  0.55998482590E+03  0.50400001928E-02 0.  1.
    10030    2    1    2    0    0  0.00000000000E+00  0.00000000000E+00  0.12689618691E+04  0.23889315209E+04  0.20240379409E+04 0.  0.
        5    1    3    3  502    0 -0.51093998712E+03  0.47247088584E+03  0.15017031859E+04  0.16551202243E+04  0.46999998093E+01 0. -1.
       -5    1    3    3    0  502  0.51093998712E+03 -0.47247088584E+03 -0.23274131681E+03  0.73381129656E+03  0.46999998093E+01 0.  1.
</event>
<event>
 5   0  0.8237966E-05  0.1885701E+04  0.7818609E-02  0.8662007E-01
       -1   -1    0    0    0  501  0.00000000000E+00  0.00000000000E+00  0.99882744441E+03  0.99882744442E+03  0.50400001928E-02 0.  1.
        1   -1    0    0  501    0  0.00000000000E+00  0.00000000000E+00 -0.89001056734E+03  0.89001056735E+03  0.50400001928E-02 0. -1.
    10030    2    1    2    0    0  0.00000000000E+00  0.00000000000E+00  0.10881687707E+03  0.18888380118E+04  0.18857009100E+04 0.  0.
        1    1    3    3  502    0 -0.10857298764E+03  0.18679407355E+03 -0.86488025026E+03  0.89145833715E+03  0.50400001928E-02 0. -1.
       -1    1    3    3    0  502  0.10857298764E+03 -0.18679407355E+03  0.97369712733E+03  0.99737967463E+03  0.50400001928E-02 0.  1.
</event>
<event>
 5   0  0.1921687E-04  0.2091350E+04  0.7818609E-02  0.8565063E-01
        2   -1    0    0  501    0  0.00000000000E+00  0.00000000000E+00  0.18784071712E+04  0.18784071712E+04  0.25500000920E-02 0. -1.
       -2   -1    0    0    0  501  0.00000000000E+00  0.00000000000E+00 -0.58210829748E+03  0.58210829749E+03  0.25500000920E-02 0.  1.
    10030    2    1    2    0    0  0.00000000000E+00  0.00000000000E+00  0.12962988737E+04  0.24605154687E+04  0.20913501863E+04 0.  0.
        5    1    3    3  502    0 -0.48008668554E+03 -0.25735228245E+03  0.16982889282E+04  0.17835136099E+04  0.46999998093E+01 0. -1.
       -5    1    3    3    0  502  0.48008668554E+03  0.25735228245E+03 -0.40199005451E+03  0.67700185881E+03  0.46999998093E+01 0.  1.
</event>
<event>
 5   0  0.1815400E-04  0.2165436E+04  0.7818609E-02  0.8532954E-01
       -2   -1    0    0    0  501  0.00000000000E+00  0.00000000000E+00  0.81297186448E+03  0.81297186448E+03  0.25500000920E-02 0.  1.
        2   -1    0    0  501    0  0.00000000000E+00  0.00000000000E+00 -0.14419665122E+04  0.14419665122E+04  0.25500000920E-02 0. -1.
    10030    2    1    2    0    0  0.00000000000E+00  0.00000000000E+00 -0.62899464772E+03  0.22549383767E+04  0.21654359413E+04 0.  0.
        3    1    3    3  502    0  0.41374902455E+03  0.17260339766E+03 -0.13407766624E+04  0.14137405196E+04  0.10100000352E+00 0. -1.
       -3    1    3    3    0  502 -0.41374902455E+03 -0.17260339766E+03  0.71178201465E+03  0.84119785709E+03  0.10100000352E+00 0.  1.
</event>
<event>
 5   0  0.1777590E-04  0.1923142E+04  0.7818609E-02  0.8643422E-01
        2   -1    0    0  501    0  0.00000000000E+00  0.00000000000E+00  0.55895252066E+03  0.55895252066E+03  0.25500000920E-02 0.  1.
       -2   -1    0    0    0  501  0.00000000000E+00  0.00000000000E+00 -0.16541990970E+04  0.16541990970E+04  0.25500000920E-02 0. -1.
    10030    2    1    2    0    0  0.00000000000E+00  0.00000000000E+00 -0.10952465764E+04  0.22131516177E+04  0.19231419656E+04 0.  0.
        4    1    3    3  502    0  0.91156553502E+03 -0.26414304599E+03 -0.72550981628E+03  0.11946084630E+04  0.12699999809E+01 0.  1.
       -4    1    3    3    0  502 -0.91156553502E+03  0.26414304599E+03 -0.36973676011E+03  0.10185431547E+04  0.12699999809E+01 0. -1.
</event>
<event>
 5   0  0.1815400E-04  0.2051911E+04  0.7818609E-02  0.8582728E-01
        2   -1    0    0  501    0  0.00000000000E+00  0.00000000000E+00  0.12295939249E+04  0.12295939249E+04  0.25500000920E-02 0.  1.
       -2   -1    0    0    0  501  0.00000000000E+00  0.00000000000E+00 -0.85604271722E+03  0.85604271723E+03  0.25500000920E-02 0. -1.
    10030    2    1    2    0    0  0.00000000000E+00  0.00000000000E+00  0.37355120768E+03  0.20856366421E+04  0.20519112306E+04 0.  0.
        3    1    3    3  502    0 -0.78283179502E+03  0.28386840767E+03  0.79594062409E+03  0.11519237733E+04  0.10100000352E+00 0.  1.
       -3    1    3    3    0  502  0.78283179502E+03 -0.28386840767E+03 -0.42238941642E+03  0.93371286885E+03  0.10100000352E+00 0. -1.
</event>
<event>
 5   0  0.8486612E-05  0.2075213E+04  0.7818609E-02  0.8572242E-01
       -1   -1    0    0    0  501  0.00000000000E+00  0.00000000000E+00  0.54643949505E+03  0.54643949507E+03  0.50400001928E-02 0. -1.
        1   -1    0    0  501    0  0.00000000000E+00  0.00000000000E+00 -0.19702583118E+04  0.19702583118E+04  0.50400001928E-02 0.  1.
    10030    2    1    2    0    0  0.00000000000E+00  0.00000000000E+00 -0.14238188167E+04  0.25166978069E+04  0.20752127188E+04 0.  0.
        5    1    3    3  502    0 -0.32586487873E+03  0.78488825081E+03 -0.14338397916E+04  0.16667801665E+04  0.46999998093E+01 0.  1.
       -5    1    3    3    0  502  0.32586487873E+03 -0.78488825081E+03  0.10020974887E+02  0.84991764035E+03  0.46999998093E+01 0. -1.
</event>
<event>
 5   0  0.8525278E-05  0.2153946E+04  0.7818609E-02  0.8537845E-01
       -1   -1    0    0    0  501  0.00000000000E+00  0.00000000000E+00  0.12154504791E+04  0.12154504791E+04  0.50400001928E-02 0. -1.
        1   -1    0    0  501    0  0.00000000000E+00  0.00000000000E+00 -0.95427208008E+03  0.95427208010E+03  0.50400001928E-02 0.  1.
    10030    2    1    2    0    0  0.00000000000E+00  0.00000000000E+00  0.26117839900E+03  0.21697225592E+04  0.21539456418E+04 0.  0.
        4    1    3    3  502    0  0.21310610455E+03 -0.10063087174E+04 -0.19080482898E+03  0.10461737629E+04  0.12699999809E+01 0. -1.
       -4    1    3    3    0  502 -0.21310610455E+03  0.10063087174E+04  0.45198322798E+03  0.11235487963E+04  0.12699999809E+01 0.  1.
</event>
<event>
 5   0  0.8486612E-05  0.1984095E+04  0.7818609E-02  0.8614093E-01
        1   -1    0    0  501    0  0.00000000000E+00  0.00000000000E+00  0.19075885936E+04  0.19075885936E+04  0.50400001928E-02 0.  1.
       -1   -1    0    0    0  501  0.00000000000E+00  0.00000000000E+00 -0.51591750731E+03  0.51591750733E+03  0.50400001928E-02 0. -1.
    10030    2    1    2    0    0  0.00000000000E+00  0.00000000000E+00  0.13916710863E+04  0.24235061010E+04  0.19840951109E+04 0.  0.
        5    1    3    3  502    0 -0.53522559456E+03  0.32822430370E+02  0.17152975182E+04  0.17971676091E+04  0.46999998093E+01 0.  1.
       -5    1    3    3    0  502  0.53522559456E+03 -0.32822430370E+02 -0.32362643192E+03  0.62633849190E+03  0.46999998093E+01 0. -1.
</event>
<event>
 5   0  0.8525278E-05  0.2095513E+04  0.7818609E-02  0.8563223E-01
       -1   -1    0    0    0  501  0.00000000000E+00  0.00000000000E+00  0.86224389139E+03  0.86224389141E+03  0.50400001928E-02 0.  1.
        1   -1    0    0  501    0  0.00000000000E+00  0.00000000000E+00 -0.12731820065E+04  0.12731820065E+04  0.50400001928E-02 0. -1.
    10030    2    1    2    0    0  0.00000000000E+00  0.00000000000E+00 -0.41093811512E+03  0.21354258979E+04  0.20955127370E+04 0.  0.
        4    1    3    3  502    0  0.64324488509E+03  0.80080886542E+03 -0.41612599132E+03  0.11082514492E+04  0.12699999809E+01 0. -1.
       -4    1    3    3    0  502 -0.64324488509E+03 -0.80080886542E+03  0.51878762046E+01  0.10271744487E+04  0.12699999809E+01 0.  1.
</event>
<event>
 5   0  0.1815400E-04  0.2074422E+04  0.7818609E-02  0.8572595E-01
        2   -1    0    0  501    0  0.00000000000E+00  0.00000000000E+00  0.10380078385E+04  0.10380078385E+04  0.25500000920E-02 0.  1.
       -2   -1    0    0    0  501  0.00000000000E+00  0.00000000000E+00 -0.10364143124E+04  0.10364143124E+04  0.25500000920E-02 0. -1.
    10030    2    1    2    0    0  0.00000000000E+00  0.00000000000E+00  0.15935260995E+01  0.20744221509E+04  0.20744215389E+04 0.  0.
        3    1    3    3  502    0 -0.33947644675E+03 -0.68118943123E+03  0.70545495247E+03  0.10377523786E+04  0.10100000352E+00 0.  1.
       -3    1    3    3    0  502  0.33947644675E+03  0.68118943123E+03 -0.70386142637E+03  0.10366697723E+04  0.10100000352E+00 0. -1.
</event>
<event>
 5   0  0.8755004E-05  0.2075189E+04  0.7818609E-02  0.8572252E-01
        1   -1    0    0  501    0  0.00000000000E+00  0.00000000000E+00  0.22305650823E+04  0.22305650823E+04  0.50400001928E-02 0. -1.
       -1   -1    0    0    0  501  0.00000000000E+00  0.00000000000E+00 -0.48265899848E+03  0.48265899850E+03  0.50400001928E-02 0.  1.
    10030    2    1    2    0    0  0.00000000000E+00  0.00000000000E+00  0.17479060839E+04  0.27132240808E+04  0.20751889637E+04 0.  0.
        3    1    3    3  502    0 -0.10269629537E+04 -0.11977631801E+03  0.75994875241E+03  0.12831684968E+04  0.10100000352E+00 0.  1.
       -3    1    3    3    0  502  0.10269629537E+04  0.11977631801E+03  0.98795733144E+03  0.14300555841E+04  0.10100000352E+00 0. -1.
</event>
<event>
 5   0  0.6441125E-05  0.2061926E+04  0.7818609E-02  0.8578203E-01
        4   -1    0    0  501    0  0.00000000000E+00  0.00000000000E+00  0.92642219727E+03  0.92642306777E+03  0.12699999809E+01 0. -1.
       -4   -1    0    0    0  501  0.00000000000E+00  0.00000000000E+00 -0.11472987026E+04  0.11472994055E+04  0.12699999809E+01 0.  1.
    10030    2    1    2    0    0  0.00000000000E+00  0.00000000000E+00 -0.22087650533E+03  0.20737224733E+04  0.20619259118E+04 0.  0.
        3    1    3    3  502    0 -0.34010778621E+03 -0.13672709096E+03 -0.10795469880E+04  0.11400830291E+04  0.10100000352E+00 0.  1.
       -3    1    3    3    0  502  0.34010778621E+03  0.13672709096E+03  0.85867048272E+03  0.93363944418E+03  0.10100000352E+00 0. -1.
</event>
<event>
 5   0  0.1815400E-04  0.2102194E+04  0.7818609E-02  0.8560277E-01
        2   -1    0    0  501    0  0.00000000000E+00  0.00000000000E+00  0.83574588743E+03  0.83574588743E+03  0.25500000920E-02 0. -1.
       -2   -1    0    0    0  501  0.00000000000E+00  0.00000000000E+00 -0.13219392150E+04  0.13219392150E+04  0.25500000920E-02 0.  1.
    10030    2    1    2    0    0  0.00000000000E+00  0.00000000000E+00 -0.48619332757E+03  0.21576851024E+04  0.21021943415E+04 0.  0.
        3    1    3    3  502    0  0.78742636247E+03  0.69561277020E+03 -0.21251332114E+03  0.10719511762E+04  0.10100000352E+00 0. -1.
       -3    1    3    3    0  502 -0.78742636247E+03 -0.69561277020E+03 -0.27368000643E+03  0.10857339262E+04  0.10100000352E+00 0.  1.
</event>
<event>
 5   0  0.8755004E-05  0.2125685E+04  0.7818609E-02  0.8550013E-01
        1   -1    0    0  501    0  0.00000000000E+00  0.00000000000E+00  0.85286305274E+03  0.85286305276E+03  0.50400001928E-02 0. -1.
       -1   -1    0    0    0  501  0.00000000000E+00  0.00000000000E+00 -0.13245200566E+04  0.13245200566E+04  0.50400001928E-02 0.  1.
    10030    2    1    2    0    0  0.00000000000E+00  0.00000000000E+00 -0.47165700387E+03  0.21773831094E+04  0.21256850368E+04 0.  0.
        3    1    3    3  502    0  0.32632557964E+03 -0.47610584150E+03  0.67832765153E+03  0.89067029212E+03  0.10100000352E+00 0. -1.
       -3    1    3    3    0  502 -0.32632557964E+03  0.47610584150E+03 -0.11499846554E+04  0.12867128173E+04  0.10100000352E+00 0.  1.
</event>
<event>
 5   0  0.1777590E-04  0.2100562E+04  0.7818609E-02  0.8560996E-01
       -2   -1    0    0    0  501  0.00000000000E+00  0.00000000000E+00  0.56007324540E+03  0.56007324541E+03  0.25500000920E-02 0.  1.
        2   -1    0    0  501    0  0.00000000000E+00  0.00000000000E+00 -0.19695465399E+04  0.19695465399E+04  0.25500000920E-02 0. -1.
    10030    2    1    2    0    0  0.00000000000E+00  0.00000000000E+00 -0.14094732945E+04  0.25296197854E+04  0.21005621368E+04 0.  0.
        4    1    3    3  502    0 -0.65893797217E+02  0.46683867144E+03 -0.18349499988E+04  0.18945509887E+04  0.12699999809E+01 0. -1.
       -4    1    3    3    0  502  0.65893797217E+02 -0.46683867144E+03  0.42547670430E+03  0.63506879664E+03  0.12699999809E+01 0.  1.
</event>
<event>
 5   0  0.6441125E-05  0.2124498E+04  0.7818609E-02  0.8550528E-01
        4   -1    0    0  501    0  0.00000000000E+00  0.00000000000E+00  0.92016346363E+03  0.92016434005E+03  0.12699999809E+01 0.  1.
       -4   -1    0    0    0  501  0.00000000000E+00  0.00000000000E+00 -0.12262727662E+04  0.12262734238E+04  0.12699999809E+01 0. -1.
    10030    2    1    2    0    0  0.00000000000E+00  0.00000000000E+00 -0.30610930256E+03  0.21464377639E+04  0.21244980982E+04 0.  0.
        5    1    3    3  502    0  0.18323457547E+03  0.10225907335E+04  0.70782909373E+02  0.10412968012E+04  0.46999998093E+01 0.  1.
       -5    1    3    3    0  502 -0.18323457547E+03 -0.10225907335E+04 -0.37689221193E+03  0.11051409627E+04  0.46999998093E+01 0. -1.
</event>
<event>
 5   0  0.8271069E-05  0.2081535E+04  0.7818609E-02  0.8569421E-01
        1   -1    0    0  501    0  0.00000000000E+00  0.00000000000E+00  0.15144613020E+04  0.15144613020E+04  0.50400001928E-02 0. -1.
       -1   -1    0    0    0  501  0.00000000000E+00  0.00000000000E+00 -0.71523560603E+03  0.71523560605E+03  0.50400001928E-02 0.  1.
    10030    2    1    2    0    0  0.00000000000E+00  0.00000000000E+00  0.79922569600E+03  0.22296969081E+04  0.20815346715E+04 0.  0.
        2    1    3    3  502    0  0.48379410833E+03 -0.20785782499E+03 -0.56202644282E+03  0.77015280114E+03  0.25500000920E-02 0.  1.
       -2    1    3    3    0  502 -0.48379410833E+03  0.20785782499E+03  0.13612521388E+04  0.14595441069E+04  0.25500000920E-02 0. -1.
</event>
<event>
 5   0  0.8525278E-05  0.2082884E+04  0.7818609E-02  0.8568821E-01
        1   -1    0    0  501    0  0.00000000000E+00  0.00000000000E+00  0.90119818639E+03  0.90119818640E+03  0.50400001928E-02 0.  1.
       -1   -1    0    0    0  501  0.00000000000E+00  0.00000000000E+00 -0.12035099861E+04  0.12035099861E+04  0.50400001928E-02 0. -1.
    10030    2    1    2    0    0  0.00000000000E+00  0.00000000000E+00 -0.30231179972E+03  0.21047081725E+04  0.20828835943E+04 0.  0.
        4    1    3    3  502    0  0.91349128309E+03 -0.46232030983E+03 -0.34392431682E+03  0.10800425648E+04  0.12699999809E+01 0. -1.
       -4    1    3    3    0  502 -0.91349128309E+03  0.46232030983E+03  0.41612517097E+02  0.10246656077E+04  0.12699999809E+01 0.  1.
</event>
<event>
 5   0  0.8755004E-05  0.2091125E+04  0.7818609E-02  0.8565163E-01
        1   -1    0    0  501    0  0.00000000000E+00  0.00000000000E+00  0.29107907188E+04  0.29107907188E+04  0.50400001928E-02 0. -1.
       -1   -1    0    0    0  501  0.00000000000E+00  0.00000000000E+00 -0.37556847374E+03  0.37556847378E+03  0.50400001928E-02 0.  1.
    10030    2    1    2    0    0  0.00000000000E+00  0.00000000000E+00  0.25352222450E+04  0.32863591925E+04  0.20911252738E+04 0.  0.
        3    1    3    3  502    0 -0.33196367267E+03  0.49485247298E+03 -0.82592165397E+02  0.60158152064E+03  0.10100000352E+00 0.  1.
       -3    1    3    3    0  502  0.33196367267E+03 -0.49485247298E+03  0.26178144104E+04  0.26847776719E+04  0.10100000352E+00 0. -1.
</event>
<event>
 5   0  0.8486612E-05  0.2056564E+04  0.7818609E-02  0.8580622E-01
        1   -1    0    0  501    0  0.00000000000E+00  0.00000000000E+00  0.79190335064E+03  0.79190335065E+03  0.50400001928E-02 0.  1.
       -1   -1    0    0    0  501  0.00000000000E+00  0.00000000000E+00 -0.13352181305E+04  0.13352181306E+04  0.50400001928E-02 0. -1.
    10030    2    1    2    0    0  0.00000000000E+00  0.00000000000E+00 -0.54331477990E+03  0.21271214812E+04  0.20565638443E+04 0.  0.
        5    1    3    3  502    0  0.96147277669E+03  0.26736300937E+03 -0.15305862779E+02  0.99808278140E+03  0.46999998093E+01 0.  1.
       -5    1    3    3    0  502 -0.96147277669E+03 -0.26736300937E+03 -0.52800891713E+03  0.11290386998E+04  0.46999998093E+01 0. -1.
</event>
<event>
 5   0  0.1815400E-04  0.1494532E+04  0.7818609E-02  0.8888097E-01
        2   -1    0    0  501    0  0.00000000000E+00  0.00000000000E+00  0.10583403467E+04  0.10583403467E+04  0.25500000920E-02 0.  1.
       -2   -1    0    0    0  501  0.00000000000E+00  0.00000000000E+00 -0.52762443922E+03  0.52762443923E+03  0.25500000920E-02 0. -1.
    10030    2    1    2    0    0  0.00000000000E+00  0.00000000000E+00  0.53071590743E+03  0.15859647859E+04  0.14945316750E+04 0.  0.
        3    1    3    3  502    0 -0.11794636024E+03 -0.71532338980E+03  0.73148903717E+02  0.72866293182E+03  0.10100000352E+00 0. -1.
       -3    1    3    3    0  502  0.11794636024E+03  0.71532338980E+03  0.45756700372E+03  0.85730185406E+03  0.10100000352E+00 0.  1.
</event>
<event>
 5   0  0.8237966E-05  0.2049285E+04  0.7818609E-02  0.8583919E-01
       -1   -1    0    0    0  501  0.00000000000E+00  0.00000000000E+00  0.80302598581E+03  0.80302598582E+03  0.50400001928E-02 0.  1.
        1   -1    0    0  501    0  0.00000000000E+00  0.00000000000E+00 -0.13074196554E+04  0.13074196554E+04  0.50400001928E-02 0. -1.
    10030    2    1    2    0    0  0.00000000000E+00  0.00000000000E+00 -0.50439366961E+03  0.21104456412E+04  0.20492847120E+04 0.  0.
        1    1    3    3  502    0  0.99097275155E+03  0.17278989575E+03 -0.45297334170E+03  0.11032081357E+04  0.50400001928E-02 0.  1.
       -1    1    3    3    0  502 -0.99097275155E+03 -0.17278989575E+03 -0.51420327905E+02  0.10072375055E+04  0.50400001928E-02 0. -1.
</event>
<event>
 5   0  0.1810875E-04  0.2060841E+04  0.7818609E-02  0.8578692E-01
       -2   -1    0    0    0  501  0.00000000000E+00  0.00000000000E+00  0.76463903439E+03  0.76463903439E+03  0.25500000920E-02 0. -1.
        2   -1    0    0  501    0  0.00000000000E+00  0.00000000000E+00 -0.13885849577E+04  0.13885849577E+04  0.25500000920E-02 0.  1.
    10030    2    1    2    0    0  0.00000000000E+00  0.00000000000E+00 -0.62394592328E+03  0.21532239921E+04  0.20608408587E+04 0.  0.
        1    1    3    3  502    0 -0.42265158812E+03  0.93447488586E+03 -0.20807385669E+03  0.10465048529E+04  0.50400001928E-02 0.  1.
       -1    1    3    3    0  502  0.42265158812E+03 -0.93447488586E+03 -0.41587206659E+03  0.11067191392E+04  0.50400001928E-02 0. -1.
</event>
<event>
 5   0  0.8755004E-05  0.2132716E+04  0.7818609E-02  0.8546967E-01
       -1   -1    0    0    0  501  0.00000000000E+00  0.00000000000E+00  0.55146945900E+03  0.55146945902E+03  0.50400001928E-02 0.  1.
        1   -1    0    0  501    0  0.00000000000E+00  0.00000000000E+00 -0.20619802538E+04  0.20619802538E+04  0.50400001928E-02 0. -1.
    10030    2    1    2    0    0  0.00000000000E+00  0.00000000000E+00 -0.15105107948E+04  0.26134497128E+04  0.21327157664E+04 0.  0.
        3    1    3    3  502    0 -0.69638689158E+03  0.79854075849E+03 -0.60771144168E+03  0.12214480146E+04  0.10100000352E+00 0. -1.
       -3    1    3    3    0  502  0.69638689158E+03 -0.79854075849E+03 -0.90279935309E+03  0.13920016982E+04  0.10100000352E+00 0.  1.
</event>
<event>
 5   0  0.8271069E-05  0.2086148E+04  0.7818609E-02  0.8567370E-01
        1   -1    0    0  501    0  0.00000000000E+00  0.00000000000E+00  0.98264839276E+03  0.98264839278E+03  0.50400001928E-02 0. -1.
       -1   -1    0    0    0  501  0.00000000000E+00  0.00000000000E+00 -0.11072154073E+04  0.11072154073E+04  0.50400001928E-02 0.  1.
    10030    2    1    2    0    0  0.00000000000E+00  0.00000000000E+00 -0.12456701450E+03  0.20898638000E+04  0.20861480680E+04 0.  0.
        2    1    3    3  502    0 -0.12614910061E+03 -0.35842034500E+03  0.91085017290E+03  0.98692794913E+03  0.25500000920E-02 0. -1.
       -2    1    3    3    0  502  0.12614910061E+03  0.35842034500E+03 -0.10354171874E+04  0.11029358509E+04  0.25500000920E-02 0.  1.
</event>
<event>
 5   0  0.8486612E-05  0.2112841E+04  0.7818609E-02  0.8555608E-01
       -1   -1    0    0    0  501  0.00000000000E+00  0.00000000000E+00  0.46410511463E+03  0.46410511466E+03  0.50400001928E-02 0. -1.
        1   -1    0    0  501    0  0.00000000000E+00  0.00000000000E+00 -0.24046803745E+04  0.24046803745E+04  0.50400001928E-02 0.  1.
    10030    2    1    2    0    0  0.00000000000E+00  0.00000000000E+00 -0.19405752599E+04  0.28687854892E+04  0.21128411781E+04 0.  0.
        5    1    3    3  502    0  0.70627496960E+03  0.78511367963E+03 -0.93249949351E+03  0.14088311531E+04  0.46999998093E+01 0.  1.
       -5    1    3    3    0  502 -0.70627496960E+03 -0.78511367963E+03 -0.10080757664E+04  0.14599543361E+04  0.46999998093E+01 0. -1.
</event>
<event>
 5   0  0.1921687E-04  0.2087657E+04  0.7818609E-02  0.8566700E-01
       -2   -1    0    0    0  501  0.00000000000E+00  0.00000000000E+00  0.70812807236E+03  0.70812807236E+03  0.25500000920E-02 0. -1.
        2   -1    0    0  501    0  0.00000000000E+00  0.00000000000E+00 -0.15386730689E+04  0.15386730689E+04  0.25500000920E-02 0.  1.
    10030    2    1    2    0    0  0.00000000000E+00  0.00000000000E+00 -0.83054499656E+03  0.22468011413E+04  0.20876566713E+04 0.  0.
        5    1    3    3  502    0 -0.38390703617E+03  0.80959414344E+03  0.16101709026E+03  0.91037128846E+03  0.46999998093E+01 0. -1.
       -5    1    3    3    0  502  0.38390703617E+03 -0.80959414344E+03 -0.99156208682E+03  0.13364298528E+04  0.46999998093E+01 0.  1.
</event>
<event>
 5   0  0.1921687E-04  0.2086756E+04  0.7818609E-02  0.8567100E-01
        2   -1    0    0  501    0  0.00000000000E+00  0.00000000000E+00  0.10732308854E+04  0.10732308854E+04  0.25500000920E-02 0. -1.
       -2   -1    0    0    0  501  0.00000000000E+00  0.00000000000E+00 -0.10143557643E+04  0.10143557643E+04  0.25500000920E-02 0.  1.
    10030    2    1    2    0    0  0.00000000000E+00  0.00000000000E+00  0.58875121097E+02  0.20875866497E+04  0.20867562724E+04 0.  0.
        5    1    3    3  502    0  0.97895476506E+03 -0.18698639584E+02  0.39001652133E+03  0.10539625459E+04  0.46999998093E+01 0.  1.
       -5    1    3    3    0  502 -0.97895476506E+03  0.18698639584E+02 -0.33114140024E+03  0.10336241039E+04  0.46999998093E+01 0. -1.
</event>
<event>
 5   0  0.1921687E-04  0.2036765E+04  0.7818609E-02  0.8589622E-01
        2   -1    0    0  501    0  0.00000000000E+00  0.00000000000E+00  0.18373900642E+04  0.18373900642E+04  0.25500000920E-02 0.  1.
       -2   -1    0    0    0  501  0.00000000000E+00  0.00000000000E+00 -0.56444332411E+03  0.56444332412E+03  0.25500000920E-02 0. -1.
    10030    2    1    2    0    0  0.00000000000E+00  0.00000000000E+00  0.12729467401E+04  0.24018333883E+04  0.20367646457E+04 0.  0.
        5    1    3    3  502    0 -0.35592385732E+03 -0.25113810325E+03 -0.44902179275E+03  0.62561553647E+03  0.46999998093E+01 0. -1.
       -5    1    3    3    0  502  0.35592385732E+03  0.25113810325E+03  0.17219685328E+04  0.17762178518E+04  0.46999998093E+01 0.  1.
</event>
<event>
 5   0  0.8525278E-05  0.2083351E+04  0.7818609E-02  0.8568613E-01
       -1   -1    0    0    0  501  0.00000000000E+00  0.00000000000E+00  0.11633833176E+04  0.11633833176E+04  0.50400001928E-02 0.  1.
        1   -1    0    0  501    0  0.00000000000E+00  0.00000000000E+00 -0.93269989657E+03  0.93269989658E+03  0.50400001928E-02 0. -1.
    10030    2    1    2    0    0  0.00000000000E+00  0.00000000000E+00  0.23068342105E+03  0.20960832142E+04  0.20833506666E+04 0.  0.
        4    1    3    3  502    0 -0.15136243508E+03  0.91480986533E+03 -0.36221506969E+03  0.99548432739E+03  0.12699999809E+01 0. -1.
       -4    1    3    3    0  502  0.15136243508E+03 -0.91480986533E+03  0.59289849074E+03  0.11005988868E+04  0.12699999809E+01 0.  1.
</event>
<event>
 5   0  0.1886323E-04  0.2190768E+04  0.7818609E-02  0.8522280E-01
       -2   -1    0    0    0  501  0.00000000000E+00  0.00000000000E+00  0.66862048166E+03  0.66862048167E+03  0.25500000920E-02 0. -1.
        2   -1    0    0  501    0  0.00000000000E+00  0.00000000000E+00 -0.17945406153E+04  0.17945406153E+04  0.25500000920E-02 0.  1.
    10030    2    1    2    0    0  0.00000000000E+00  0.00000000000E+00 -0.11259201336E+04  0.24631610970E+04  0.21907684593E+04 0.  0.
        2    1    3    3  502    0 -0.56059734144E+03 -0.86602105590E+03 -0.14892816308E+03  0.10423250195E+04  0.25500000920E-02 0. -1.
       -2    1    3    3    0  502  0.56059734144E+03  0.86602105590E+03 -0.97699197054E+03  0.14208360775E+04  0.25500000920E-02 0.  1.
</event>
<event>
 5   0  0.1815400E-04  0.2064905E+04  0.7818609E-02  0.8576863E-01
        2   -1    0    0  501    0  0.00000000000E+00  0.00000000000E+00  0.12917021380E+04  0.12917021380E+04  0.25500000920E-02 0.  1.
       -2   -1    0    0    0  501  0.00000000000E+00  0.00000000000E+00 -0.82523500876E+03  0.82523500876E+03  0.25500000920E-02 0. -1.
    10030    2    1    2    0    0  0.00000000000E+00  0.00000000000E+00  0.46646712923E+03  0.21169371467E+04  0.20649046711E+04 0.  0.
        3    1    3    3  502    0 -0.99964256907E+02  0.66342260253E+03 -0.57129281066E+03  0.88119117558E+03  0.10100000352E+00 0. -1.
       -3    1    3    3    0  502  0.99964256907E+02 -0.66342260253E+03  0.10377599399E+04  0.12357459712E+04  0.10100000352E+00 0.  1.
</event>
<event>
 5   0  0.8237966E-05  0.2109615E+04  0.7818609E-02  0.8557020E-01
       -1   -1    0    0    0  501  0.00000000000E+00  0.00000000000E+00  0.55067615484E+03  0.55067615486E+03  0.50400001928E-02 0. -1.
        1   -1    0    0  501    0  0.00000000000E+00  0.00000000000E+00 -0.20204598525E+04  0.20204598525E+04  0.50400001928E-02 0.  1.
    10030    2    1    2    0    0  0.00000000000E+00  0.00000000000E+00 -0.14697836977E+04  0.25711360074E+04  0.21096151902E+04 0.  0.
        1    1    3    3  502    0  0.10115885092E+04  0.10809063981E+02 -0.37090799753E+03  0.10774975129E+04  0.50400001928E-02 0. -1.
       -1    1    3    3    0  502 -0.10115885092E+04 -0.10809063981E+02 -0.10988757002E+04  0.14936384945E+04  0.50400001928E-02 0.  1.
</event>
<event>
 5   0  0.1815400E-04  0.2090926E+04  0.7818609E-02  0.8565251E-01
       -2   -1    0    0    0  501  0.00000000000E+00  0.00000000000E+00  0.87303228647E+03  0.87303228648E+03  0.25500000920E-02 0.  1.
        2   -1    0    0  501    0  0.00000000000E+00  0.00000000000E+00 -0.12519501365E+04  0.12519501366E+04  0.25500000920E-02 0. -1.
    10030    2    1    2    0    0  0.00000000000E+00  0.00000000000E+00 -0.37891785008E+03  0.21249824230E+04  0.20909260056E+04 0.  0.
        3    1    3    3  502    0 -0.84403097538E+03  0.55840211117E+03  0.77094716325E+02  0.10149604971E+04  0.10100000352E+00 0.  1.
       -3    1    3    3    0  502  0.84403097538E+03 -0.55840211117E+03 -0.45601256640E+03  0.11100219259E+04  0.10100000352E+00 0. -1.
</event>
<event>
 5   0  0.8525278E-05  0.1824146E+04  0.7818609E-02  0.8693563E-01
       -1   -1    0    0    0  501  0.00000000000E+00  0.00000000000E+00  0.79096696079E+03  0.79096696081E+03  0.50400001928E-02 0. -1.
        1   -1    0    0  501    0  0.00000000000E+00  0.00000000000E+00 -0.10517221567E+04  0.10517221567E+04  0.50400001928E-02 0.  1.
    10030    2    1    2    0    0  0.00000000000E+00  0.00000000000E+00 -0.26075519590E+03  0.18426891175E+04  0.18241463515E+04 0.  0.
        4    1    3    3  502    0  0.16901216835E+03  0.35783985727E+03 -0.96047365475E+03  0.10388097664E+04  0.12699999809E+01 0.  1.
       -4    1    3    3    0  502 -0.16901216835E+03 -0.35783985727E+03  0.69971845886E+03  0.80387935106E+03  0.12699999809E+01 0. -1.
</event>
<event>
 5   0  0.1921687E-04  0.2108380E+04  0.7818609E-02  0.8557561E-01
       -2   -1    0    0    0  501  0.00000000000E+00  0.00000000000E+00  0.49390897761E+03  0.49390897762E+03  0.25500000920E-02 0. -1.
        2   -1    0    0  501    0  0.00000000000E+00  0.00000000000E+00 -0.22500435137E+04  0.22500435137E+04  0.25500000920E-02 0.  1.
    10030    2    1    2    0    0  0.00000000000E+00  0.00000000000E+00 -0.17561345361E+04  0.27439524913E+04  0.21083801284E+04 0.  0.
        5    1    3    3  502    0  0.96844259965E+03 -0.26209469443E+03 -0.12992225877E+04  0.16415164087E+04  0.46999998093E+01 0.  1.
       -5    1    3    3    0  502 -0.96844259965E+03  0.26209469443E+03 -0.45691194837E+03  0.11024360826E+04  0.46999998093E+01 0. -1.
</event>
<event>
 5   0  0.8755004E-05  0.2095793E+04  0.7818609E-02  0.8563099E-01
        1   -1    0    0  501    0  0.00000000000E+00  0.00000000000E+00  0.12072600319E+04  0.12072600319E+04  0.50400001928E-02 0.  1.
       -1   -1    0    0    0  501  0.00000000000E+00  0.00000000000E+00 -0.90956941316E+03  0.90956941317E+03  0.50400001928E-02 0. -1.
    10030    2    1    2    0    0  0.00000000000E+00  0.00000000000E+00  0.29769061873E+03  0.21168294451E+04  0.20957927367E+04 0.  0.
        3    1    3    3  502    0 -0.28147197389E+03 -0.62027365580E+03 -0.65546488553E+03  0.94530424020E+03  0.10100000352E+00 0. -1.
       -3    1    3    3    0  502  0.28147197389E+03  0.62027365580E+03  0.95315550427E+03  0.11715252049E+04  0.10100000352E+00 0.  1.
</event>
<event>
 5   0  0.1886323E-04  0.2090822E+04  0.7818609E-02  0.8565297E-01
        2   -1    0    0  501    0  0.00000000000E+00  0.00000000000E+00  0.15306255021E+04  0.15306255021E+04  0.25500000920E-02 0.  1.
       -2   -1    0    0    0  501  0.00000000000E+00  0.00000000000E+00 -0.71401138884E+03  0.71401138885E+03  0.25500000920E-02 0. -1.
    10030    2    1    2    0    0  0.00000000000E+00  0.00000000000E+00  0.81661411324E+03  0.22446368909E+04  0.20908218868E+04 0.  0.
        2    1    3    3  502    0  0.10903807638E+03 -0.97859542791E+03  0.31263856285E+02  0.98514757389E+03  0.25500000920E-02 0. -1.
       -2    1    3    3    0  502 -0.10903807638E+03  0.97859542791E+03  0.78535025696E+03  0.12594893170E+04  0.25500000920E-02 0.  1.
</event>
<event>
 5   0  0.8486612E-05  0.1985488E+04  0.7818609E-02  0.8613436E-01
       -1   -1    0    0    0  501  0.00000000000E+00  0.00000000000E+00  0.16360104526E+04  0.16360104526E+04  0.50400001928E-02 0.  1.
        1   -1    0    0  501    0  0.00000000000E+00  0.00000000000E+00 -0.60240485319E+03  0.60240485321E+03  0.50400001928E-02 0. -1.
    10030    2    1    2    0    0  0.00000000000E+00  0.00000000000E+00  0.10336055994E+04  0.22384153059E+04  0.19854879869E+04 0.  0.
        5    1    3    3  502    0  0.43343003110E+03  0.27228557340E+02 -0.48961789037E+03  0.65448510660E+03  0.46999998093E+01 0. -1.
       -5    1    3    3    0  502 -0.43343003110E+03 -0.27228557340E+02  0.15232234898E+04  0.15839301993E+04  0.46999998093E+01 0.  1.
</event>
<event>
 5   0  0.8271069E-05  0.2080100E+04  0.7818609E-02  0.8570061E-01
       -1   -1    0    0    0  501  0.00000000000E+00  0.00000000000E+00  0.73066077738E+03  0.73066077740E+03  0.50400001928E-02 0. -1.
        1   -1    0    0  501    0  0.00000000000E+00  0.00000000000E+00 -0.14804459700E+04  0.14804459700E+04  0.50400001928E-02 0.  1.
    10030    2    1    2    0    0  0.00000000000E+00  0.00000000000E+00 -0.74978519257E+03  0.22111067474E+04  0.20800998085E+04 0.  0.
        2    1    3    3  502    0 -0.53897920726E+02 -0.91126896845E+03 -0.90466650481E+03  0.12851994412E+04  0.25500000920E-02 0.  1.
       -2    1    3    3    0  502  0.53897920726E+02  0.91126896845E+03  0.15488131224E+03  0.92590730616E+03  0.25500000920E-02 0. -1.
</event>
<event>
 5   0  0.8486612E-05  0.2086015E+04  0.7818609E-02  0.8567429E-01
       -1   -1    0    0    0  501  0.00000000000E+00  0.00000000000E+00  0.15467651529E+04  0.15467651529E+04  0.50400001928E-02 0. -1.
        1   -1    0    0  501    0  0.00000000000E+00  0.00000000000E+00 -0.70331621469E+03  0.70331621470E+03  0.50400001928E-02 0.  1.
    10030    2    1    2    0    0  0.00000000000E+00  0.00000000000E+00  0.84344893822E+03  0.22500813676E+04  0.20860153522E+04 0.  0.
        5    1    3    3  502    0 -0.11621875724E+03 -0.11383259533E+03 -0.68953587755E+03  0.70848181044E+03  0.46999998093E+01 0.  1.
       -5    1    3    3    0  502  0.11621875724E+03  0.11383259533E+03  0.15329848158E+04  0.15415995572E+04  0.46999998093E+01 0. -1.
</event>
<event>
 5   0  0.1921687E-04  0.2087687E+04  0.7818609E-02  0.8566687E-01
       -2   -1    0    0    0  501  0.00000000000E+00  0.00000000000E+00  0.11608755008E+04  0.11608755008E+04  0.25500000920E-02 0. -1.
        2   -1    0    0  501    0  0.00000000000E+00  0.00000000000E+00 -0.93861015631E+03  0.93861015632E+03  0.25500000920E-02 0.  1.
    10030    2    1    2    0    0  0.00000000000E+00  0.00000000000E+00  0.22226534445E+03  0.20994856571E+04  0.20876872709E+04 0.  0.
        5    1    3    3  502    0  0.74311963064E+03  0.44350808806E+03  0.69809310663E+03  0.11118823162E+04  0.46999998093E+01 0. -1.
       -5    1    3    3    0  502 -0.74311963064E+03 -0.44350808806E+03 -0.47582776218E+03  0.98760334086E+03  0.46999998093E+01 0.  1.
</event>
<event>
 5   0  0.8486612E-05  0.2092294E+04  0.7818609E-02  0.8564646E-01
        1   -1    0    0  501    0  0.00000000000E+00  0.00000000000E+00  0.13735681484E+04  0.13735681484E+04  0.50400001928E-02 0.  1.
       -1   -1    0    0    0  501  0.00000000000E+00  0.00000000000E+00 -0.79677381712E+03  0.79677381714E+03  0.50400001928E-02 0. -1.
    10030    2    1    2    0    0  0.00000000000E+00  0.00000000000E+00  0.57679433131E+03  0.21703419656E+04  0.20922936092E+04 0.  0.
        5    1    3    3  502    0 -0.56985920650E+03  0.75327221006E+03  0.75488654630E+03  0.12091461142E+04  0.46999998093E+01 0.  1.
       -5    1    3    3    0  502  0.56985920650E+03 -0.75327221006E+03 -0.17809221499E+03  0.96119585139E+03  0.46999998093E+01 0. -1.
</event>
<event>
 5   0  0.1810875E-04  0.2096292E+04  0.7818609E-02  0.8562879E-01
       -2   -1    0    0    0  501  0.00000000000E+00  0.00000000000E+00  0.65661830263E+03  0.65661830263E+03  0.25500000920E-02 0. -1.
        2   -1    0    0  501    0  0.00000000000E+00  0.00000000000E+00 -0.16731332562E+04  0.16731332562E+04  0.25500000920E-02 0.  1.
    10030    2    1    2    0    0  0.00000000000E+00  0.00000000000E+00 -0.10165149535E+04  0.23297515588E+04  0.20962918869E+04 0.  0.
        1    1    3    3  502    0  0.20616569126E+03  0.10218811444E+04 -0.62931270477E+03  0.12176944797E+04  0.50400001928E-02 0.  1.
       -1    1    3    3    0  502 -0.20616569126E+03 -0.10218811444E+04 -0.38720224877E+03  0.11120570790E+04  0.50400001928E-02 0. -1.
</event>
<event>
 5   0  0.1921687E-04  0.1761657E+04  0.7818609E-02  0.8726960E-01
        2   -1    0    0  501    0  0.00000000000E+00  0.00000000000E+00  0.68598557207E+03  0.68598557208E+03  0.25500000920E-02 0.  1.
       -2   -1    0    0    0  501  0.00000000000E+00  0.00000000000E+00 -0.11310133721E+04  0.11310133721E+04  0.25500000920E-02 0. -1.
    10030    2    1    2    0    0  0.00000000000E+00  0.00000000000E+00 -0.44502780001E+03  0.18169989442E+04  0.17616570098E+04 0.  0.
        5    1    3    3  502    0 -0.84462085133E+03 -0.22132306561E+03 -0.34221349012E+03  0.93781685029E+03  0.46999998093E+01 0. -1.
       -5    1    3    3    0  502  0.84462085133E+03  0.22132306561E+03 -0.10281430989E+03  0.87918209387E+03  0.46999998093E+01 0.  1.
</event>
<event>
 5   0  0.1921687E-04  0.2027510E+04  0.7818609E-02  0.8593866E-01
        2   -1    0    0  501    0  0.00000000000E+00  0.00000000000E+00  0.19432247661E+04  0.19432247661E+04  0.25500000920E-02 0. -1.
       -2   -1    0    0    0  501  0.00000000000E+00  0.00000000000E+00 -0.52886267613E+03  0.52886267613E+03  0.25500000920E-02 0.  1.
    10030    2    1    2    0    0  0.00000000000E+00  0.00000000000E+00  0.14143620900E+04  0.24720874423E+04  0.20275098522E+04 0.  0.
        5    1    3    3  502    0 -0.16770038923E+02 -0.87786194771E+03  0.13249976428E+04  0.15895168061E+04  0.46999998093E+01 0. -1.
       -5    1    3    3    0  502  0.16770038923E+02  0.87786194771E+03  0.89364447242E+02  0.88257063620E+03  0.46999998093E+01 0.  1.
</event>
<event>
 5   0  0.8486612E-05  0.2086210E+04  0.7818609E-02  0.8567343E-01
        1   -1    0    0  501    0  0.00000000000E+00  0.00000000000E+00  0.12335703328E+04  0.12335703328E+04  0.50400001928E-02 0.  1.
       -1   -1    0    0    0  501  0.00000000000E+00  0.00000000000E+00 -0.88204751665E+03  0.88204751666E+03  0.50400001928E-02 0. -1.
    10030    2    1    2    0    0  0.00000000000E+00  0.00000000000E+00  0.35152281617E+03  0.21156178495E+04  0.20862096239E+04 0.  0.
        5    1    3    3  502    0 -0.94314538029E+03  0.28046366885E+03 -0.17533057195E+03  0.99947284974E+03  0.46999998093E+01 0. -1.
       -5    1    3    3    0  502  0.94314538029E+03 -0.28046366885E+03  0.52685338812E+03  0.11161449998E+04  0.46999998093E+01 0.  1.
</event>
<event>
 5   0  0.8486612E-05  0.1756788E+04  0.7818609E-02  0.8729623E-01
        1   -1    0    0  501    0  0.00000000000E+00  0.00000000000E+00  0.58553573870E+03  0.58553573872E+03  0.50400001928E-02 0.  1.
       -1   -1    0    0    0  501  0.00000000000E+00  0.00000000000E+00 -0.13177262501E+04  0.13177262501E+04  0.50400001928E-02 0. -1.
    10030    2    1    2    0    0  0.00000000000E+00  0.00000000000E+00 -0.73219051140E+03  0.19032619888E+04  0.17567877655E+04 0.  0.
        5    1    3    3  502    0 -0.12862707867E+03  0.73713797730E+03 -0.86449115330E+03  0.11433653690E+04  0.46999998093E+01 0. -1.
       -5    1    3    3    0  502  0.12862707867E+03 -0.73713797730E+03  0.13230064190E+03  0.75989661980E+03  0.46999998093E+01 0.  1.
</event>
<event>
 5   0  0.1921687E-04  0.2125445E+04  0.7818609E-02  0.8550117E-01
       -2   -1    0    0    0  501  0.00000000000E+00  0.00000000000E+00  0.45735142595E+03  0.45735142596E+03  0.25500000920E-02 0. -1.
        2   -1    0    0  501    0  0.00000000000E+00  0.00000000000E+00 -0.24693890771E+04  0.24693890771E+04  0.25500000920E-02 0.  1.
    10030    2    1    2    0    0  0.00000000000E+00  0.00000000000E+00 -0.20120376511E+04  0.29267405030E+04  0.21254445329E+04 0.  0.
        5    1    3    3  502    0 -0.26224350126E+03 -0.17168862093E+03 -0.24042741985E+04  0.24246247438E+04  0.46999998093E+01 0.  1.
       -5    1    3    3    0  502  0.26224350126E+03  0.17168862093E+03  0.39223654743E+03  0.50211575921E+03  0.46999998093E+01 0. -1.
</event>
<event>
 5   0  0.8525278E-05  0.2102916E+04  0.7818609E-02  0.8559960E-01
        1   -1    0    0  501    0  0.00000000000E+00  0.00000000000E+00  0.10535019650E+04  0.10535019651E+04  0.50400001928E-02 0.  1.
       -1   -1    0    0    0  501  0.00000000000E+00  0.00000000000E+00 -0.10494175840E+04  0.10494175840E+04  0.50400001928E-02 0. -1.
    10030    2    1    2    0    0  0.00000000000E+00  0.00000000000E+00  0.40843810802E+01  0.21029195490E+04  0.21029155826E+04 0.  0.
        4    1    3    3  502    0  0.36431596543E+02 -0.48425620294E+03  0.93463739939E+03  0.10532711012E+04  0.12699999809E+01 0.  1.
       -4    1    3    3    0  502 -0.36431596543E+02  0.48425620294E+03 -0.93055301831E+03  0.10496484479E+04  0.12699999809E+01 0. -1.
</event>
<event>
 5   0  0.1810875E-04  0.2101411E+04  0.7818609E-02  0.8560622E-01
        2   -1    0    0  501    0  0.00000000000E+00  0.00000000000E+00  0.91395472801E+03  0.91395472801E+03  0.25500000920E-02 0. -1.
       -2   -1    0    0    0  501  0.00000000000E+00  0.00000000000E+00 -0.12079174541E+04  0.12079174542E+04  0.25500000920E-02 0.  1.
    10030    2    1    2    0    0  0.00000000000E+00  0.00000000000E+00 -0.29396272614E+03  0.21218721822E+04  0.21014108292E+04 0.  0.
        1    1    3    3  502    0  0.32299226776E+03  0.94911836182E+03 -0.46441831570E+03  0.11049135902E+04  0.50400001928E-02 0.  1.
       -1    1    3    3    0  502 -0.32299226776E+03 -0.94911836182E+03  0.17045558956E+03  0.10169585920E+04  0.50400001928E-02 0. -1.
</event>
<event>
 5   0  0.8486612E-05  0.2083631E+04  0.7818609E-02  0.8568488E-01
       -1   -1    0    0    0  501  0.00000000000E+00  0.00000000000E+00  0.69580616485E+03  0.69580616487E+03  0.50400001928E-02 0. -1.
        1   -1    0    0  501    0  0.00000000000E+00  0.00000000000E+00 -0.15598879363E+04  0.15598879363E+04  0.50400001928E-02 0.  1.
    10030    2    1    2    0    0  0.00000000000E+00  0.00000000000E+00 -0.86408177142E+03  0.22556941011E+04  0.20836311022E+04 0.  0.
        5    1    3    3  502    0  0.20484859847E+03  0.47731961441E+03  0.54561830656E+03  0.75333816381E+03  0.46999998093E+01 0. -1.
       -5    1    3    3    0  502 -0.20484859847E+03 -0.47731961441E+03 -0.14097000780E+04  0.15023559373E+04  0.46999998093E+01 0.  1.
</event>
<event>
 5   0  0.8237966E-05  0.2132826E+04  0.7818609E-02  0.8546919E-01
       -1   -1    0    0    0  501  0.00000000000E+00  0.00000000000E+00  0.71901727821E+03  0.71901727822E+03  0.50400001928E-02 0.  1.
        1   -1    0    0  501    0  0.00000000000E+00  0.00000000000E+00 -0.15816549087E+04  0.15816549087E+04  0.50400001928E-02 0. -1.
    10030    2    1    2    0    0  0.00000000000E+00  0.00000000000E+00 -0.86263763053E+03  0.23006721870E+04  0.21328264886E+04 0.  0.
        1    1    3    3  502    0 -0.70443473278E+02 -0.11384816082E+03  0.70991620860E+03  0.72242972662E+03  0.50400001928E-02 0.  1.
       -1    1    3    3    0  502  0.70443473278E+02  0.11384816082E+03 -0.15725538391E+04  0.15782424603E+04  0.50400001928E-02 0. -1.
</event>
<event>
 5   0  0.8237966E-05  0.2113736E+04  0.7818609E-02  0.8555216E-01
       -1   -1    0    0    0  501  0.00000000000E+00  0.00000000000E+00  0.80320532736E+03  0.80320532737E+03  0.50400001928E-02 0.  1.
        1   -1    0    0  501    0  0.00000000000E+00  0.00000000000E+00 -0.13906409883E+04  0.13906409883E+04  0.50400001928E-02 0. -1.
    10030    2    1    2    0    0  0.00000000000E+00  0.00000000000E+00 -0.58743566091E+03  0.21938463156E+04  0.21137362657E+04 0.  0.
        1    1    3    3  502    0 -0.30834876614E+03 -0.46426709213E+03 -0.12257190599E+04  0.13464806379E+04  0.50400001928E-02 0. -1.
       -1    1    3    3    0  502  0.30834876614E+03  0.46426709213E+03  0.63828339897E+03  0.84736567776E+03  0.50400001928E-02 0.  1.
</event>
<event>
 5   0  0.8525278E-05  0.2143287E+04  0.7818609E-02  0.8542411E-01
       -1   -1    0    0    0  501  0.00000000000E+00  0.00000000000E+00  0.84584589303E+03  0.84584589304E+03  0.50400001928E-02 0.  1.
        1   -1    0    0  501    0  0.00000000000E+00  0.00000000000E+00 -0.13577169962E+04  0.13577169962E+04  0.50400001928E-02 0. -1.
    10030    2    1    2    0    0  0.00000000000E+00  0.00000000000E+00 -0.51187110316E+03  0.22035628892E+04  0.21432865839E+04 0.  0.
        4    1    3    3  502    0  0.35951245560E+03  0.95743797761E+03 -0.58506517890E+03  0.11782357842E+04  0.12699999809E+01 0. -1.
       -4    1    3    3    0  502 -0.35951245560E+03 -0.95743797761E+03  0.73194075738E+02  0.10253271050E+04  0.12699999809E+01 0.  1.
</event>
<event>
 5   0  0.1777590E-04  0.2044646E+04  0.7818609E-02  0.8586027E-01
       -2   -1    0    0    0  501  0.00000000000E+00  0.00000000000E+00  0.62110700428E+03  0.62110700428E+03  0.25500000920E-02 0. -1.
        2   -1    0    0  501    0  0.00000000000E+00  0.00000000000E+00 -0.16827129843E+04  0.16827129843E+04  0.25500000920E-02 0.  1.
    10030    2    1    2    0    0  0.00000000000E+00  0.00000000000E+00 -0.10616059800E+04  0.23038199885E+04  0.20446464934E+04 0.  0.
        4    1    3    3  502    0 -0.34507285014E+03 -0.41832181466E+03  0.44569623744E+03  0.70193672186E+03  0.12699999809E+01 0. -1.
       -4    1    3    3    0  502  0.34507285014E+03  0.41832181466E+03 -0.15073022174E+04  0.16018832667E+04  0.12699999809E+01 0.  1.
</event>
<event>
 5   0  0.1815400E-04  0.2107244E+04  0.7818609E-02  0.8558059E-01
        2   -1    0    0  501    0  0.00000000000E+00  0.00000000000E+00  0.17660400405E+04  0.17660400405E+04  0.25500000920E-02 0. -1.
       -2   -1    0    0    0  501  0.00000000000E+00  0.00000000000E+00 -0.62859264407E+03  0.62859264408E+03  0.25500000920E-02 0.  1.
    10030    2    1    2    0    0  0.00000000000E+00  0.00000000000E+00  0.11374473965E+04  0.23946326846E+04  0.21072444363E+04 0.  0.
        3    1    3    3  502    0  0.14513967711E+02 -0.10513788916E+04  0.64505213569E+03  0.12335722504E+04  0.10100000352E+00 0.  1.
       -3    1    3    3    0  502 -0.14513967711E+02  0.10513788916E+04  0.49239526078E+03  0.11610604342E+04  0.10100000352E+00 0. -1.
</event>
<event>
 5   0  0.8525278E-05  0.2107198E+04  0.7818609E-02  0.8558079E-01
        1   -1    0    0  501    0  0.00000000000E+00  0.00000000000E+00  0.12735403595E+04  0.12735403595E+04  0.50400001928E-02 0.  1.
       -1   -1    0    0    0  501  0.00000000000E+00  0.00000000000E+00 -0.87164180508E+03  0.87164180510E+03  0.50400001928E-02 0. -1.
    10030    2    1    2    0    0  0.00000000000E+00  0.00000000000E+00  0.40189855440E+03  0.21451821646E+04  0.21071981566E+04 0.  0.
        4    1    3    3  502    0 -0.84332598752E+03 -0.21670940692E+03 -0.40296207698E+03  0.95944866286E+03  0.12699999809E+01 0. -1.
       -4    1    3    3    0  502  0.84332598752E+03  0.21670940692E+03  0.80486063138E+03  0.11857335017E+04  0.12699999809E+01 0.  1.
</event>
<event>
 5   0  0.1921687E-04  0.2117199E+04  0.7818609E-02  0.8553705E-01
        2   -1    0    0  501    0  0.00000000000E+00  0.00000000000E+00  0.17857029082E+04  0.17857029082E+04  0.25500000920E-02 0. -1.
       -2   -1    0    0    0  501  0.00000000000E+00  0.00000000000E+00 -0.62755836964E+03  0.62755836965E+03  0.25500000920E-02 0.  1.
    10030    2    1    2    0    0  0.00000000000E+00  0.00000000000E+00  0.11581445386E+04  0.24132612779E+04  0.21171989096E+04 0.  0.
        5    1    3    3  502    0  0.67658948596E+03  0.79487420606E+03  0.77980131949E+03  0.13029622112E+04  0.46999998093E+01 0. -1.
       -5    1    3    3    0  502 -0.67658948596E+03 -0.79487420606E+03  0.37834321908E+03  0.11102990666E+04  0.46999998093E+01 0.  1.
</event>
<event>
 5   0  0.1815400E-04  0.2069284E+04  0.7818609E-02  0.8574896E-01
       -2   -1    0    0    0  501  0.00000000000E+00  0.00000000000E+00  0.96346282357E+03  0.96346282358E+03  0.25500000920E-02 0.  1.
        2   -1    0    0  501    0  0.00000000000E+00  0.00000000000E+00 -0.11110799944E+04  0.11110799944E+04  0.25500000920E-02 0. -1.
    10030    2    1    2    0    0  0.00000000000E+00  0.00000000000E+00 -0.14761717085E+03  0.20745428180E+04  0.20692841938E+04 0.  0.
        3    1    3    3  502    0 -0.10071380079E+04  0.10707882651E+03 -0.28574926471E+03  0.10523523624E+04  0.10100000352E+00 0. -1.
       -3    1    3    3    0  502  0.10071380079E+04 -0.10707882651E+03  0.13813209386E+03  0.10221904556E+04  0.10100000352E+00 0.  1.
</event>
<event>
 5   0  0.1777590E-04  0.1941001E+04  0.7818609E-02  0.8634713E-01
       -2   -1    0    0    0  501  0.00000000000E+00  0.00000000000E+00  0.77708444592E+03  0.77708444593E+03  0.25500000920E-02 0.  1.
        2   -1    0    0  501    0  0.00000000000E+00  0.00000000000E+00 -0.12120574550E+04  0.12120574550E+04  0.25500000920E-02 0. -1.
    10030    2    1    2    0    0  0.00000000000E+00  0.00000000000E+00 -0.43497300907E+03  0.19891419009E+04  0.19410007685E+04 0.  0.
        4    1    3    3  502    0 -0.73339769729E+03 -0.69189462091E+02 -0.86498799815E+03  0.11361624945E+04  0.12699999809E+01 0. -1.
       -4    1    3    3    0  502  0.73339769729E+03  0.69189462091E+02  0.43001498908E+03  0.85297940643E+03  0.12699999809E+01 0.  1.
</event>
<event>
 5   0  0.1886323E-04  0.2103137E+04  0.7818609E-02  0.8559863E-01
       -2   -1    0    0    0  501  0.00000000000E+00  0.00000000000E+00  0.10856346617E+04  0.10856346617E+04  0.25500000920E-02 0.  1.
        2   -1    0    0  501    0  0.00000000000E+00  0.00000000000E+00 -0.10185712345E+04  0.10185712345E+04  0.25500000920E-02 0. -1.
    10030    2    1    2    0    0  0.00000000000E+00  0.00000000000E+00  0.67063427240E+02  0.21042058962E+04  0.21031369310E+04 0.  0.
        2    1    3    3  502    0 -0.56729169030E+03  0.28433961487E+03 -0.80542138424E+03  0.10253645618E+04  0.25500000920E-02 0. -1.
       -2    1    3    3    0  502  0.56729169030E+03 -0.28433961487E+03  0.87248481148E+03  0.10788413344E+04  0.25500000920E-02 0.  1.
</event>
<event>
 5   0  0.1886323E-04  0.2172390E+04  0.7818609E-02  0.8530009E-01
        2   -1    0    0  501    0  0.00000000000E+00  0.00000000000E+00  0.12699754318E+04  0.12699754318E+04  0.25500000920E-02 0. -1.
       -2   -1    0    0    0  501  0.00000000000E+00  0.00000000000E+00 -0.92900941619E+03  0.92900941619E+03  0.25500000920E-02 0.  1.
    10030    2    1    2    0    0  0.00000000000E+00  0.00000000000E+00  0.34096601561E+03  0.21989848480E+04  0.21723895916E+04 0.  0.
        2    1    3    3  502    0  0.10683991583E+04  0.80172231692E+02 -0.10351160940E+02  0.10714529829E+04  0.25500000920E-02 0.  1.
       -2    1    3    3    0  502 -0.10683991583E+04 -0.80172231692E+02  0.35131717655E+03  0.11275318650E+04  0.25500000920E-02 0. -1.
</event>
<event>
 5   0  0.1886323E-04  0.2114055E+04  0.7818609E-02  0.8555077E-01
        2   -1    0    0  501    0  0.00000000000E+00  0.00000000000E+00  0.90729399435E+03  0.90729399435E+03  0.25500000920E-02 0.  1.
       -2   -1    0    0    0  501  0.00000000000E+00  0.00000000000E+00 -0.12314725531E+04  0.12314725531E+04  0.25500000920E-02 0. -1.
    10030    2    1    2    0    0  0.00000000000E+00  0.00000000000E+00 -0.32417855877E+03  0.21387665475E+04  0.21140554881E+04 0.  0.
        2    1    3    3  502    0  0.82133198638E+03  0.16995944482E+03  0.48873046237E+03  0.97073678698E+03  0.25500000920E-02 0.  1.
       -2    1    3    3    0  502 -0.82133198638E+03 -0.16995944482E+03 -0.81290902113E+03  0.11680297605E+04  0.25500000920E-02 0. -1.
</event>
<event>
 5   0  0.1815400E-04  0.2030492E+04  0.7818609E-02  0.8592496E-01
        2   -1    0    0  501    0  0.00000000000E+00  0.00000000000E+00  0.57169716659E+03  0.57169716659E+03  0.25500000920E-02 0. -1.
       -2   -1    0    0    0  501  0.00000000000E+00  0.00000000000E+00 -0.18029197992E+04  0.18029197992E+04  0.25500000920E-02 0.  1.
    10030    2    1    2    0    0  0.00000000000E+00  0.00000000000E+00 -0.12312226326E+04  0.23746169658E+04  0.20304917048E+04 0.  0.
        3    1    3    3  502    0 -0.90754120546E+03 -0.42177940631E+03 -0.81543559231E+03  0.12909160014E+04  0.10100000352E+00 0. -1.
       -3    1    3    3    0  502  0.90754120546E+03  0.42177940631E+03 -0.41578704028E+03  0.10837009644E+04  0.10100000352E+00 0.  1.
</event>
<event>
 5   0  0.1777590E-04  0.2064622E+04  0.7818609E-02  0.8576990E-01
        2   -1    0    0  501    0  0.00000000000E+00  0.00000000000E+00  0.15073437561E+04  0.15073437561E+04  0.25500000920E-02 0.  1.
       -2   -1    0    0    0  501  0.00000000000E+00  0.00000000000E+00 -0.70698275106E+03  0.70698275106E+03  0.25500000920E-02 0. -1.
    10030    2    1    2    0    0  0.00000000000E+00  0.00000000000E+00  0.80036100506E+03  0.22143265072E+04  0.20646220337E+04 0.  0.
        4    1    3    3  502    0 -0.56669731658E+03 -0.39071068969E+02  0.13246512581E+04  0.14413101559E+04  0.12699999809E+01 0.  1.
       -4    1    3    3    0  502  0.56669731658E+03  0.39071068969E+02 -0.52429025302E+03  0.77301635129E+03  0.12699999809E+01 0. -1.
</event>
<event>
 5   0  0.1810875E-04  0.2100529E+04  0.7818609E-02  0.8561010E-01
       -2   -1    0    0    0  501  0.00000000000E+00  0.00000000000E+00  0.13566711660E+04  0.13566711660E+04  0.25500000920E-02 0.  1.
        2   -1    0    0  501    0  0.00000000000E+00  0.00000000000E+00 -0.81306024318E+03  0.81306024318E+03  0.25500000920E-02 0. -1.
    10030    2    1    2    0    0  0.00000000000E+00  0.00000000000E+00  0.54361092285E+03  0.21697314092E+04  0.21005288745E+04 0.  0.
        1    1    3    3  502    0 -0.15962815238E+03  0.43071279250E+02 -0.79953315953E+03  0.81644935871E+03  0.50400001928E-02 0. -1.
       -1    1    3    3    0  502  0.15962815238E+03 -0.43071279250E+02  0.13431440824E+04  0.13532820505E+04  0.50400001928E-02 0.  1.
</event>
<event>
 5   0  0.8237966E-05  0.2116851E+04  0.7818609E-02  0.8553857E-01
       -1   -1    0    0    0  501  0.00000000000E+00  0.00000000000E+00  0.98328556670E+03  0.98328556671E+03  0.50400001928E-02 0.  1.
        1   -1    0    0  501    0  0.00000000000E+00  0.00000000000E+00 -0.11393072145E+04  0.11393072145E+04  0.50400001928E-02 0. -1.
    10030    2    1    2    0    0  0.00000000000E+00  0.00000000000E+00 -0.15602164778E+03  0.21225927812E+04  0.21168508120E+04 0.  0.
        1    1    3    3  502    0  0.78189202256E+02 -0.10500789719E+04 -0.18546933680E+03  0.10691951522E+04  0.50400001928E-02 0. -1.
       -1    1    3    3    0  502 -0.78189202256E+02  0.10500789719E+04  0.29447689017E+02  0.10533976290E+04  0.50400001928E-02 0.  1.
</event>
<event>
 5   0  0.8755004E-05  0.2169557E+04  0.7818609E-02  0.8531207E-01
       -1   -1    0    0    0  501  0.00000000000E+00  0.00000000000E+00  0.84408272411E+03  0.84408272413E+03  0.50400001928E-02 0. -1.
        1   -1    0    0  501    0  0.00000000000E+00  0.00000000000E+00 -0.13941099053E+04  0.13941099053E+04  0.50400001928E-02 0.  1.
    10030    2    1    2    0    0  0.00000000000E+00  0.00000000000E+00 -0.55002718121E+03  0.22381926295E+04  0.21695567166E+04 0.  0.
        3    1    3    3  502    0 -0.80033662137E+02  0.36571186346E+03 -0.13253555099E+04  0.13772137786E+04  0.10100000352E+00 0.  1.
       -3    1    3    3    0  502  0.80033662137E+02 -0.36571186346E+03  0.77532832869E+03  0.86097885086E+03  0.10100000352E+00 0. -1.
</event>
<event>
 5   0  0.8237966E-05  0.2098286E+04  0.7818609E-02  0.8561999E-01
        1   -1    0    0  501    0  0.00000000000E+00  0.00000000000E+00  0.93507777880E+03  0.93507777881E+03  0.50400001928E-02 0.  1.
       -1   -1    0    0    0  501  0.00000000000E+00  0.00000000000E+00 -0.11771222221E+04  0.11771222221E+04  0.50400001928E-02 0. -1.
    10030    2    1    2    0    0  0.00000000000E+00  0.00000000000E+00 -0.24204444334E+03  0.21122000010E+04  0.20982858079E+04 0.  0.
        1    1    3    3  502    0  0.44051480957E+03 -0.78814948619E+03  0.41681276831E+03  0.99446759318E+03  0.50400001928E-02 0.  1.
       -1    1    3    3    0  502 -0.44051480957E+03  0.78814948619E+03 -0.65885721165E+03  0.11177324078E+04  0.50400001928E-02 0. -1.
</event>
<event>
 5   0  0.1777590E-04  0.2088573E+04  0.7818609E-02  0.8566294E-01
       -2   -1    0    0    0  501  0.00000000000E+00  0.00000000000E+00  0.13396273323E+04  0.13396273323E+04  0.25500000920E-02 0. -1.
        2   -1    0    0  501    0  0.00000000000E+00  0.00000000000E+00 -0.81405773748E+03  0.81405773749E+03  0.25500000920E-02 0.  1.
    10030    2    1    2    0    0  0.00000000000E+00  0.00000000000E+00  0.52556959478E+03  0.21536850698E+04  0.20885727138E+04 0.  0.
        4    1    3    3  502    0 -0.14353056561E+03 -0.18527311102E+03 -0.78658779175E+03  0.82076130267E+03  0.12699999809E+01 0.  1.
       -4    1    3    3    0  502  0.14353056561E+03  0.18527311102E+03  0.13121573865E+04  0.13329237671E+04  0.12699999809E+01 0. -1.
</event>
<event>
 5   0  0.1886323E-04  0.1613757E+04  0.7818609E-02  0.8812141E-01
        2   -1    0    0  501    0  0.00000000000E+00  0.00000000000E+00  0.94985973688E+03  0.94985973688E+03  0.25500000920E-02 0.  1.
       -2   -1    0    0    0  501  0.00000000000E+00  0.00000000000E+00 -0.68542004993E+03  0.68542004994E+03  0.25500000920E-02 0. -1.
    10030    2    1    2    0    0  0.00000000000E+00  0.00000000000E+00  0.26443968695E+03  0.16352797868E+04  0.16137569932E+04 0.  0.
        2    1    3    3  502    0  0.41869999700E+03  0.34025243294E+03 -0.47575833490E+03  0.71932426543E+03  0.25500000920E-02 0. -1.
       -2    1    3    3    0  502 -0.41869999700E+03 -0.34025243294E+03  0.74019802185E+03  0.91595552139E+03  0.25500000920E-02 0.  1.
</event>
<event>
 5   0  0.1886323E-04  0.2058181E+04  0.7818609E-02  0.8579892E-01
        2   -1    0    0  501    0  0.00000000000E+00  0.00000000000E+00  0.15092408869E+04  0.15092408869E+04  0.25500000920E-02 0. -1.
       -2   -1    0    0    0  501  0.00000000000E+00  0.00000000000E+00 -0.70169527389E+03  0.70169527390E+03  0.25500000920E-02 0.  1.
    10030    2    1    2    0    0  0.00000000000E+00  0.00000000000E+00  0.80754561296E+03  0.22109361608E+04  0.20581809420E+04 0.  0.
        2    1    3    3  502    0 -0.67520070164E+03 -0.77607549812E+03  0.37267550220E+03  0.10941097734E+04  0.25500000920E-02 0. -1.
       -2    1    3    3    0  502  0.67520070164E+03  0.77607549812E+03  0.43487011076E+03  0.11168263874E+04  0.25500000920E-02 0.  1.
</event>
<event>
 5   0  0.1810875E-04  0.2088458E+04  0.7818609E-02  0.8566345E-01
       -2   -1    0    0    0  501  0.00000000000E+00  0.00000000000E+00  0.81052567072E+03  0.81052567073E+03  0.25500000920E-02 0.  1.
        2   -1    0    0  501    0  0.00000000000E+00  0.00000000000E+00 -0.13453166924E+04  0.13453166924E+04  0.25500000920E-02 0. -1.
    10030    2    1    2    0    0  0.00000000000E+00  0.00000000000E+00 -0.53479102166E+03  0.21558423631E+04  0.20884575307E+04 0.  0.
        1    1    3    3  502    0  0.31199085063E+03  0.22880663295E+03 -0.12685986964E+04  0.13262855720E+04  0.50400001928E-02 0. -1.
       -1    1    3    3    0  502 -0.31199085063E+03 -0.22880663295E+03  0.73380767470E+03  0.82955679108E+03  0.50400001928E-02 0.  1.
</event>
<event>
 5   0  0.1921687E-04  0.2111296E+04  0.7818609E-02  0.8556284E-01
        2   -1    0    0  501    0  0.00000000000E+00  0.00000000000E+00  0.10256930904E+04  0.10256930904E+04  0.25500000920E-02 0. -1.
       -2   -1    0    0    0  501  0.00000000000E+00  0.00000000000E+00 -0.10864775313E+04  0.10864775313E+04  0.25500000920E-02 0.  1.
    10030    2    1    2    0    0  0.00000000000E+00  0.00000000000E+00 -0.60784440852E+02  0.21121706217E+04  0.21112958075E+04 0.  0.
        5    1    3    3  502    0 -0.66851060857E+03  0.16994341047E+03  0.76905290774E+03  0.10330787295E+04  0.46999998093E+01 0. -1.
       -5    1    3    3    0  502  0.66851060857E+03 -0.16994341047E+03 -0.82983734859E+03  0.10790918921E+04  0.46999998093E+01 0.  1.
</event>
<event>
 5   0  0.8271069E-05  0.2055370E+04  0.7818609E-02  0.8581162E-01
       -1   -1    0    0    0  501  0.00000000000E+00  0.00000000000E+00  0.62321257436E+03  0.62321257438E+03  0.50400001928E-02 0. -1.
        1   -1    0    0  501    0  0.00000000000E+00  0.00000000000E+00 -0.16946653669E+04  0.16946653669E+04  0.50400001928E-02 0.  1.
    10030    2    1    2    0    0  0.00000000000E+00  0.00000000000E+00 -0.10714527925E+04  0.23178779413E+04  0.20553702985E+04 0.  0.
        2    1    3    3  502    0 -0.36008791806E+03 -0.50878486482E+03 -0.14571564305E+04  0.15848754558E+04  0.25500000920E-02 0.  1.
       -2    1    3    3    0  502  0.36008791806E+03  0.50878486482E+03  0.38570363796E+03  0.73300248550E+03  0.25500000920E-02 0. -1.
</event>
<event>
 5   0  0.8755004E-05  0.2081939E+04  0.7818609E-02  0.8569241E-01
        1   -1    0    0  501    0  0.00000000000E+00  0.00000000000E+00  0.15600310382E+04  0.15600310382E+04  0.50400001928E-02 0.  1.
       -1   -1    0    0    0  501  0.00000000000E+00  0.00000000000E+00 -0.69461309656E+03  0.69461309658E+03  0.50400001928E-02 0. -1.
    10030    2    1    2    0    0  0.00000000000E+00  0.00000000000E+00  0.86541794164E+03  0.22546441348E+04  0.20819394710E+04 0.  0.
        3    1    3    3  502    0 -0.59749057500E+03 -0.59815650096E+03 -0.22498533242E+03  0.87487404628E+03  0.10100000352E+00 0. -1.
       -3    1    3    3    0  502  0.59749057500E+03  0.59815650096E+03  0.10904032741E+04  0.13797700885E+04  0.10100000352E+00 0.  1.
</event>
<event>
 5   0  0.8237966E-05  0.2069293E+04  0.7818609E-02  0.8574892E-01
        1   -1    0    0  501    0  0.00000000000E+00  0.00000000000E+00  0.19022282192E+04  0.19022282192E+04  0.50400001928E-02 0. -1.
       -1   -1    0    0    0  501  0.00000000000E+00  0.00000000000E+00 -0.56275782099E+03  0.56275782101E+03  0.50400001928E-02 0.  1.
    10030    2    1    2    0    0  0.00000000000E+00  0.00000000000E+00  0.13394703982E+04  0.24649860402E+04  0.20692934134E+04 0.  0.
        1    1    3    3  502    0 -0.42611645281E+03  0.45336584478E+02  0.17915487938E+04  0.18420851549E+04  0.50400001928E-02 0. -1.
       -1    1    3    3    0  502  0.42611645281E+03 -0.45336584478E+02 -0.45207839555E+03  0.62290088537E+03  0.50400001928E-02 0.  1.
</event>
<event>
 5   0  0.8271069E-05  0.2135601E+04  0.7818609E-02  0.8545721E-01
        1   -1    0    0  501    0  0.00000000000E+00  0.00000000000E+00  0.88021967678E+03  0.88021967679E+03  0.50400001928E-02 0.  1.
       -1   -1    0    0    0  501  0.00000000000E+00  0.00000000000E+00 -0.12953558067E+04  0.12953558067E+04  0.50400001928E-02 0. -1.
    10030    2    1    2    0    0  0.00000000000E+00  0.00000000000E+00 -0.41513612993E+03  0.21755754835E+04  0.21356007768E+04 0.  0.
        2    1    3    3  502    0 -0.18573437822E+03  0.97020563232E+03 -0.62062212587E+03  0.11666053537E+04  0.25500000920E-02 0. -1.
       -2    1    3    3    0  502  0.18573437822E+03 -0.97020563232E+03  0.20548599593E+03  0.10089701298E+04  0.25500000920E-02 0.  1.
</event>
<event>
 5   0  0.1815400E-04  0.2104654E+04  0.7818609E-02  0.8559196E-01
       -2   -1    0    0    0  501  0.00000000000E+00  0.00000000000E+00  0.14687478423E+04  0.14687478423E+04  0.25500000920E-02 0. -1.
        2   -1    0    0  501    0  0.00000000000E+00  0.00000000000E+00 -0.75397043351E+03  0.75397043351E+03  0.25500000920E-02 0.  1.
    10030    2    1    2    0    0  0.00000000000E+00  0.00000000000E+00  0.71477740882E+03  0.22227182758E+04  0.21046543159E+04 0.  0.
        3    1    3    3  502    0  0.55705182585E+03 -0.50261988639E+03 -0.42187817279E+03  0.86076401513E+03  0.10100000352E+00 0.  1.
       -3    1    3    3    0  502 -0.55705182585E+03  0.50261988639E+03  0.11366555816E+04  0.13619542607E+04  0.10100000352E+00 0. -1.
</event>
<event>
 5   0  0.8271069E-05  0.2068522E+04  0.7818609E-02  0.8575238E-01
        1   -1    0    0  501    0  0.00000000000E+00  0.00000000000E+00  0.25695810909E+04  0.25695810909E+04  0.50400001928E-02 0.  1.
       -1   -1    0    0    0  501  0.00000000000E+00  0.00000000000E+00 -0.41629187049E+03  0.41629187052E+03  0.50400001928E-02 0. -1.
    10030    2    1    2    0    0  0.00000000000E+00  0.00000000000E+00  0.21532892204E+04  0.29858729614E+04  0.20685219058E+04 0.  0.
        2    1    3    3  502    0 -0.61296607520E+03 -0.67148288548E+03  0.36496428233E+03  0.97970179250E+03  0.25500000920E-02 0. -1.
       -2    1    3    3    0  502  0.61296607520E+03  0.67148288548E+03  0.17883249380E+04  0.20061711689E+04  0.25500000920E-02 0.  1.
</event>
<event>
 5   0  0.1921687E-04  0.2100988E+04  0.7818609E-02  0.8560808E-01
        2   -1    0    0  501    0  0.00000000000E+00  0.00000000000E+00  0.89951333013E+03  0.89951333014E+03  0.25500000920E-02 0.  1.
       -2   -1    0    0    0  501  0.00000000000E+00  0.00000000000E+00 -0.12268163562E+04  0.12268163562E+04  0.25500000920E-02 0. -1.
    10030    2    1    2    0    0  0.00000000000E+00  0.00000000000E+00 -0.32730302606E+03  0.21263296863E+04  0.21009880209E+04 0.  0.
        5    1    3    3  502    0 -0.11239478462E+03  0.72505305035E+03 -0.92450463526E+03  0.11802819257E+04  0.46999998093E+01 0. -1.
       -5    1    3    3    0  502  0.11239478462E+03 -0.72505305035E+03  0.59720160920E+03  0.94604776067E+03  0.46999998093E+01 0.  1.
</event>
<event>
 5   0  0.1810875E-04  0.2250069E+04  0.7818609E-02  0.8497873E-01
        2   -1    0    0  501    0  0.00000000000E+00  0.00000000000E+00  0.18821051409E+04  0.18821051409E+04  0.25500000920E-02 0. -1.
       -2   -1    0    0    0  501  0.00000000000E+00  0.00000000000E+00 -0.67249287915E+03  0.67249287916E+03  0.25500000920E-02 0.  1.
    10030    2    1    2    0    0  0.00000000000E+00  0.00000000000E+00  0.12096122617E+04  0.25545980201E+04  0.22500687146E+04 0.  0.
        1    1    3    3  502    0 -0.50721258287E+03  0.85585435050E+03  0.12012132255E+04  0.15597001271E+04  0.50400001928E-02 0.  1.
       -1    1    3    3    0  502  0.50721258287E+03 -0.85585435050E+03  0.83990362571E+01  0.99489789292E+03  0.50400001928E-02 0. -1.
</event>
<event>
 5   0  0.8486612E-05  0.1998927E+04  0.7818609E-02  0.8607123E-01
       -1   -1    0    0    0  501  0.00000000000E+00  0.00000000000E+00  0.13011838579E+04  0.13011838579E+04  0.50400001928E-02 0. -1.
        1   -1    0    0  501    0  0.00000000000E+00  0.00000000000E+00 -0.76770632438E+03  0.76770632440E+03  0.50400001928E-02 0.  1.
    10030    2    1    2    0    0  0.00000000000E+00  0.00000000000E+00  0.53347753355E+03  0.20688901823E+04  0.19989267890E+04 0.  0.
        5    1    3    3  502    0  0.98802737978E+03 -0.98041065927E+02  0.14830091133E+03  0.10039050772E+04  0.46999998093E+01 0.  1.
       -5    1    3    3    0  502 -0.98802737978E+03  0.98041065927E+02  0.38517662222E+03  0.10649851051E+04  0.46999998093E+01 0. -1.
</event>
<event>
 5   0  0.8755004E-05  0.2175995E+04  0.7818609E-02  0.8528486E-01
        1   -1    0    0  501    0  0.00000000000E+00  0.00000000000E+00  0.15086673190E+04  0.15086673191E+04  0.50400001928E-02 0.  1.
       -1   -1    0    0    0  501  0.00000000000E+00  0.00000000000E+00 -0.78462527990E+03  0.78462527992E+03  0.50400001928E-02 0. -1.
    10030    2    1    2    0    0  0.00000000000E+00  0.00000000000E+00  0.72404203914E+03  0.22932925990E+04  0.21759949609E+04 0.  0.
        3    1    3    3  502    0  0.51724018129E+03  0.55093627967E+03  0.11869470434E+04  0.14070932746E+04  0.10100000352E+00 0.  1.
       -3    1    3    3    0  502 -0.51724018129E+03 -0.55093627967E+03 -0.46290500423E+03  0.88619932439E+03  0.10100000352E+00 0. -1.
</event>
<event>
 5   0  0.8237966E-05  0.2019961E+04  0.7818609E-02  0.8597345E-01
        1   -1    0    0  501    0  0.00000000000E+00  0.00000000000E+00  0.13829386290E+04  0.13829386290E+04  0.50400001928E-02 0.  1.
       -1   -1    0    0    0  501  0.00000000000E+00  0.00000000000E+00 -0.73760342369E+03  0.73760342370E+03  0.50400001928E-02 0. -1.
    10030    2    1    2    0    0  0.00000000000E+00  0.00000000000E+00  0.64533520534E+03  0.21205420527E+04  0.20199606606E+04 0.  0.
        1    1    3    3  502    0 -0.23251675299E+03  0.38847424535E+03  0.12704424059E+04  0.13487031499E+04  0.50400001928E-02 0.  1.
       -1    1    3    3    0  502  0.23251675299E+03 -0.38847424535E+03 -0.62510720058E+03  0.77183890286E+03  0.50400001928E-02 0. -1.
</event>
<event>
 5   0  0.8486612E-05  0.1442075E+04  0.7818609E-02  0.8923913E-01
        1   -1    0    0  501    0  0.00000000000E+00  0.00000000000E+00  0.69454347159E+03  0.69454347161E+03  0.50400001928E-02 0.  1.
       -1   -1    0    0    0  501  0.00000000000E+00  0.00000000000E+00 -0.74854197116E+03  0.74854197118E+03  0.50400001928E-02 0. -1.
    10030    2    1    2    0    0  0.00000000000E+00  0.00000000000E+00 -0.53998499567E+02  0.14430854428E+04  0.14420748099E+04 0.  0.
        5    1    3    3  502    0  0.12924889342E+03  0.45872254001E+02 -0.73535358506E+03  0.74804847783E+03  0.46999998093E+01 0. -1.
       -5    1    3    3    0  502 -0.12924889342E+03 -0.45872254001E+02  0.68135508549E+03  0.69503696496E+03  0.46999998093E+01 0.  1.
</event>
<event>
 5   0  0.1886323E-04  0.2075491E+04  0.7818609E-02  0.8572117E-01
       -2   -1    0    0    0  501  0.00000000000E+00  0.00000000000E+00  0.88396372708E+03  0.88396372709E+03  0.25500000920E-02 0.  1.
        2   -1    0    0  501    0  0.00000000000E+00  0.00000000000E+00 -0.12182801754E+04  0.12182801754E+04  0.25500000920E-02 0. -1.
    10030    2    1    2    0    0  0.00000000000E+00  0.00000000000E+00 -0.33431644832E+03  0.21022439025E+04  0.20754907704E+04 0.  0.
        2    1    3    3  502    0  0.78922554223E+03  0.32638094424E+02 -0.84886653512E+03  0.11595329216E+04  0.25500000920E-02 0. -1.
       -2    1    3    3    0  502 -0.78922554223E+03 -0.32638094424E+02  0.51455008681E+03  0.94271098093E+03  0.25500000920E-02 0.  1.
</event>
<event>
 5   0  0.8271069E-05  0.2100440E+04  0.7818609E-02  0.8561050E-01
        1   -1    0    0  501    0  0.00000000000E+00  0.00000000000E+00  0.21082195764E+04  0.21082195764E+04  0.50400001928E-02 0. -1.
       -1   -1    0    0    0  501  0.00000000000E+00  0.00000000000E+00 -0.52317209984E+03  0.52317209986E+03  0.50400001928E-02 0.  1.
    10030    2    1    2    0    0  0.00000000000E+00  0.00000000000E+00  0.15850474766E+04  0.26313916763E+04  0.21004396328E+04 0.  0.
        2    1    3    3  502    0  0.21967905355E+03 -0.93891855918E+03  0.27124816936E+03  0.10016998137E+04  0.25500000920E-02 0.  1.
       -2    1    3    3    0  502 -0.21967905355E+03  0.93891855918E+03  0.13137993072E+04  0.16296918626E+04  0.25500000920E-02 0. -1.
</event>
<event>
 5   0  0.1921687E-04  0.2141673E+04  0.7818609E-02  0.8543105E-01
       -2   -1    0    0    0  501  0.00000000000E+00  0.00000000000E+00  0.70234059580E+03  0.70234059581E+03  0.25500000920E-02 0. -1.
        2   -1    0    0  501    0  0.00000000000E+00  0.00000000000E+00 -0.16326700040E+04  0.16326700040E+04  0.25500000920E-02 0.  1.
    10030    2    1    2    0    0  0.00000000000E+00  0.00000000000E+00 -0.93032940823E+03  0.23350105998E+04  0.21416726392E+04 0.  0.
        5    1    3    3  502    0  0.26525745912E+02  0.93355191529E+02  0.69752452774E+03  0.70425944352E+03  0.46999998093E+01 0. -1.
       -5    1    3    3    0  502 -0.26525745912E+02 -0.93355191529E+02 -0.16278539360E+04  0.16307511563E+04  0.46999998093E+01 0.  1.
</event>
<event>
 5   0  0.8237966E-05  0.2099454E+04  0.7818609E-02  0.8561484E-01
       -1   -1    0    0    0  501  0.00000000000E+00  0.00000000000E+00  0.67849966237E+03  0.67849966239E+03  0.50400001928E-02 0.  1.
        1   -1    0    0  501    0  0.00000000000E+00  0.00000000000E+00 -0.16240633577E+04  0.16240633577E+04  0.50400001928E-02 0. -1.
    10030    2    1    2    0    0  0.00000000000E+00  0.00000000000E+00 -0.94556369532E+03  0.23025630201E+04  0.20994536812E+04 0.  0.
        1    1    3    3  502    0  0.22235212856E+03 -0.10750540501E+03  0.64618105866E+03  0.69177152426E+03  0.50400001928E-02 0.  1.
       -1    1    3    3    0  502 -0.22235212856E+03  0.10750540501E+03 -0.15917447540E+04  0.16107914958E+04  0.50400001928E-02 0. -1.
</event>
<event>
 5   0  0.1815400E-04  0.2104308E+04  0.7818609E-02  0.8559348E-01
       -2   -1    0    0    0  501  0.00000000000E+00  0.00000000000E+00  0.70833840895E+03  0.70833840895E+03  0.25500000920E-02 0.  1.
        2   -1    0    0  501    0  0.00000000000E+00  0.00000000000E+00 -0.15628514694E+04  0.15628514695E+04  0.25500000920E-02 0. -1.
    10030    2    1    2    0    0  0.00000000000E+00  0.00000000000E+00 -0.85451306050E+03  0.22711898784E+04  0.21043076993E+04 0.  0.
        3    1    3    3  502    0  0.10067648820E+03  0.51419850158E+02 -0.15562776657E+04  0.15603781399E+04  0.10100000352E+00 0. -1.
       -3    1    3    3    0  502 -0.10067648820E+03 -0.51419850158E+02  0.70176460524E+03  0.71081173854E+03  0.10100000352E+00 0.  1.
</event>
<event>
 5   0  0.1921687E-04  0.1634744E+04  0.7818609E-02  0.8799483E-01
        2   -1    0    0  501    0  0.00000000000E+00  0.00000000000E+00  0.10514525478E+04  0.10514525478E+04  0.25500000920E-02 0.  1.
       -2   -1    0    0    0  501  0.00000000000E+00  0.00000000000E+00 -0.63540364462E+03  0.63540364462E+03  0.25500000920E-02 0. -1.
    10030    2    1    2    0    0  0.00000000000E+00  0.00000000000E+00  0.41604890315E+03  0.16868561924E+04  0.16347437487E+04 0.  0.
        5    1    3    3  502    0  0.69877328839E+03 -0.29299642422E+03 -0.10824857436E+03  0.76542201238E+03  0.46999998093E+01 0. -1.
       -5    1    3    3    0  502 -0.69877328839E+03  0.29299642422E+03  0.52429747751E+03  0.92143418002E+03  0.46999998093E+01 0.  1.
</event>
<event>
 5   0  0.1921687E-04  0.2113012E+04  0.7818609E-02  0.8555533E-01
       -2   -1    0    0    0  501  0.00000000000E+00  0.00000000000E+00  0.13419165648E+04  0.13419165648E+04  0.25500000920E-02 0.  1.
        2   -1    0    0  501    0  0.00000000000E+00  0.00000000000E+00 -0.83179880542E+03  0.83179880542E+03  0.25500000920E-02 0. -1.
    10030    2    1    2    0    0  0.00000000000E+00  0.00000000000E+00  0.51011775935E+03  0.21737153702E+04  0.21130116853E+04 0.  0.
        5    1    3    3  502    0  0.43065493231E+03 -0.83611369422E+03  0.75016778265E+03  0.12030476186E+04  0.46999998093E+01 0.  1.
       -5    1    3    3    0  502 -0.43065493231E+03  0.83611369422E+03 -0.24005002330E+03  0.97066775164E+03  0.46999998093E+01 0. -1.
</event>
<event>
 5   0  0.1815400E-04  0.2078303E+04  0.7818609E-02  0.8570862E-01
       -2   -1    0    0    0  501  0.00000000000E+00  0.00000000000E+00  0.84807553713E+03  0.84807553713E+03  0.25500000920E-02 0.  1.
        2   -1    0    0  501    0  0.00000000000E+00  0.00000000000E+00 -0.12732773558E+04  0.12732773558E+04  0.25500000920E-02 0. -1.
    10030    2    1    2    0    0  0.00000000000E+00  0.00000000000E+00 -0.42520181869E+03  0.21213528929E+04  0.20783025549E+04 0.  0.
        3    1    3    3  502    0 -0.68683642315E+03  0.69431764712E+03  0.14973695489E+03  0.98804981308E+03  0.10100000352E+00 0.  1.
       -3    1    3    3    0  502  0.68683642315E+03 -0.69431764712E+03 -0.57493877357E+03  0.11333030799E+04  0.10100000352E+00 0. -1.
</event>
<event>
 5   0  0.8237966E-05  0.2076868E+04  0.7818609E-02  0.8571502E-01
        1   -1    0    0  501    0  0.00000000000E+00  0.00000000000E+00  0.14517367471E+04  0.14517367471E+04  0.50400001928E-02 0.  1.
       -1   -1    0    0    0  501  0.00000000000E+00  0.00000000000E+00 -0.74279681785E+03  0.74279681786E+03  0.50400001928E-02 0. -1.
    10030    2    1    2    0    0  0.00000000000E+00  0.00000000000E+00  0.70893992925E+03  0.21945335650E+04  0.20768682540E+04 0.  0.
        1    1    3    3  502    0  0.54003676854E+02  0.92245153327E+03 -0.14620198437E+03  0.93552565363E+03  0.50400001928E-02 0. -1.
       -1    1    3    3    0  502 -0.54003676854E+02 -0.92245153327E+03  0.85514191362E+03  0.12590079113E+04  0.50400001928E-02 0.  1.
</event>
<event>
 5   0  0.8525278E-05  0.2091737E+04  0.7818609E-02  0.8564892E-01
        1   -1    0    0  501    0  0.00000000000E+00  0.00000000000E+00  0.12492874946E+04  0.12492874946E+04  0.50400001928E-02 0.  1.
       -1   -1    0    0    0  501  0.00000000000E+00  0.00000000000E+00 -0.87557206552E+03  0.87557206554E+03  0.50400001928E-02 0. -1.
    10030    2    1    2    0    0  0.00000000000E+00  0.00000000000E+00  0.37371542905E+03  0.21248595601E+04  0.20917372991E+04 0.  0.
        4    1    3    3  502    0  0.10178581732E+04  0.51474819609E+02 -0.51711477339E+02  0.10204707774E+04  0.12699999809E+01 0. -1.
       -4    1    3    3    0  502 -0.10178581732E+04 -0.51474819609E+02  0.42542690639E+03  0.11043887827E+04  0.12699999809E+01 0.  1.
</event>
<event>
 5   0  0.8486612E-05  0.2056970E+04  0.7818609E-02  0.8580439E-01
       -1   -1    0    0    0  501  0.00000000000E+00  0.00000000000E+00  0.55934600680E+03  0.55934600682E+03  0.50400001928E-02 0. -1.
        1   -1    0    0  501    0  0.00000000000E+00  0.00000000000E+00 -0.18911030791E+04  0.18911030791E+04  0.50400001928E-02 0.  1.
    10030    2    1    2    0    0  0.00000000000E+00  0.00000000000E+00 -0.13317570723E+04  0.24504490859E+04  0.20569695727E+04 0.  0.
        5    1    3    3  502    0 -0.40930841593E+03 -0.91762233853E+03 -0.92740617502E+03  0.13673581970E+04  0.46999998093E+01 0. -1.
       -5    1    3    3    0  502  0.40930841593E+03  0.91762233853E+03 -0.40435089728E+03  0.10830908889E+04  0.46999998093E+01 0.  1.
</event>
<event>
 5   0  0.1886323E-04  0.2083636E+04  0.7818609E-02  0.8568486E-01
       -2   -1    0    0    0  501  0.00000000000E+00  0.00000000000E+00  0.74516842745E+03  0.74516842746E+03  0.25500000920E-02 0. -1.
        2   -1    0    0  501    0  0.00000000000E+00  0.00000000000E+00 -0.14565635366E+04  0.14565635366E+04  0.25500000920E-02 0.  1.
    10030    2    1    2    0    0  0.00000000000E+00  0.00000000000E+00 -0.71139510919E+03  0.22017319641E+04  0.20836363983E+04 0.  0.
        2    1    3    3  502    0  0.28309269255E+03 -0.82754627429E+03 -0.95382829071E+03  0.12941262368E+04  0.25500000920E-02 0.  1.
       -2    1    3    3    0  502 -0.28309269255E+03  0.82754627429E+03  0.24243318152E+03  0.90760572728E+03  0.25500000920E-02 0. -1.
</event>
<event>
 5   0  0.8755004E-05  0.2124041E+04  0.7818609E-02  0.8550727E-01
        1   -1    0    0  501    0  0.00000000000E+00  0.00000000000E+00  0.16187902125E+04  0.16187902125E+04  0.50400001928E-02 0.  1.
       -1   -1    0    0    0  501  0.00000000000E+00  0.00000000000E+00 -0.69674689564E+03  0.69674689565E+03  0.50400001928E-02 0. -1.
    10030    2    1    2    0    0  0.00000000000E+00  0.00000000000E+00  0.92204331689E+03  0.23155371082E+04  0.21240405413E+04 0.  0.
        3    1    3    3  502    0 -0.37397828458E+03  0.11545040014E+03 -0.61525541889E+03  0.72919667642E+03  0.10100000352E+00 0. -1.
       -3    1    3    3    0  502  0.37397828458E+03 -0.11545040014E+03  0.15372987358E+04  0.15863404318E+04  0.10100000352E+00 0.  1.
</event>
<event>
 5   0  0.8525278E-05  0.2100596E+04  0.7818609E-02  0.8560981E-01
       -1   -1    0    0    0  501  0.00000000000E+00  0.00000000000E+00  0.57544461494E+03  0.57544461496E+03  0.50400001928E-02 0. -1.
        1   -1    0    0  501    0  0.00000000000E+00  0.00000000000E+00 -0.19169982415E+04  0.19169982415E+04  0.50400001928E-02 0.  1.
    10030    2    1    2    0    0  0.00000000000E+00  0.00000000000E+00 -0.13415536266E+04  0.24924428565E+04  0.21005964057E+04 0.  0.
        4    1    3    3  502    0 -0.68560468421E+03  0.16788594583E+02  0.27309295044E+03  0.73818494457E+03  0.12699999809E+01 0. -1.
       -4    1    3    3    0  502  0.68560468421E+03 -0.16788594583E+02 -0.16146465770E+04  0.17542579119E+04  0.12699999809E+01 0.  1.
</event>
<event>
 5   0  0.1777590E-04  0.2034794E+04  0.7818609E-02  0.8590524E-01
       -2   -1    0    0    0  501  0.00000000000E+00  0.00000000000E+00  0.48706696261E+03  0.48706696262E+03  0.25500000920E-02 0. -1.
        2   -1    0    0  501    0  0.00000000000E+00  0.00000000000E+00 -0.21251622761E+04  0.21251622761E+04  0.25500000920E-02 0.  1.
    10030    2    1    2    0    0  0.00000000000E+00  0.00000000000E+00 -0.16380953135E+04  0.26122292387E+04  0.20347936848E+04 0.  0.
        4    1    3    3  502    0 -0.78256671248E+03  0.62166410089E+03 -0.10633637005E+04  0.14593220639E+04  0.12699999809E+01 0. -1.
       -4    1    3    3    0  502  0.78256671248E+03 -0.62166410089E+03 -0.57473161296E+03  0.11529071748E+04  0.12699999809E+01 0.  1.
</event>
<event>
 5   0  0.8525278E-05  0.2250659E+04  0.7818609E-02  0.8497634E-01
       -1   -1    0    0    0  501  0.00000000000E+00  0.00000000000E+00  0.21977054800E+04  0.21977054800E+04  0.50400001928E-02 0.  1.
        1   -1    0    0  501    0  0.00000000000E+00  0.00000000000E+00 -0.57622221003E+03  0.57622221006E+03  0.50400001928E-02 0. -1.
    10030    2    1    2    0    0  0.00000000000E+00  0.00000000000E+00  0.16214832699E+04  0.27739276900E+04  0.22506592001E+04 0.  0.
        4    1    3    3  502    0  0.96305093743E+03 -0.31243488182E+03  0.14161497651E+04  0.17408516403E+04  0.12699999809E+01 0.  1.
       -4    1    3    3    0  502 -0.96305093743E+03  0.31243488182E+03  0.20533350488E+03  0.10330760498E+04  0.12699999809E+01 0. -1.
</event>
<event>
 5   0  0.8525278E-05  0.2103444E+04  0.7818609E-02  0.8559728E-01
        1   -1    0    0  501    0  0.00000000000E+00  0.00000000000E+00  0.19774111165E+04  0.19774111165E+04  0.50400001928E-02 0.  1.
       -1   -1    0    0    0  501  0.00000000000E+00  0.00000000000E+00 -0.55937760971E+03  0.55937760973E+03  0.50400001928E-02 0. -1.
    10030    2    1    2    0    0  0.00000000000E+00  0.00000000000E+00  0.14180335068E+04  0.25367887262E+04  0.21034443218E+04 0.  0.
        4    1    3    3  502    0  0.21637044487E+03  0.82737713345E+03 -0.29267157204E+02  0.85570279289E+03  0.12699999809E+01 0. -1.
       -4    1    3    3    0  502 -0.21637044487E+03 -0.82737713345E+03  0.14473006640E+04  0.16810859333E+04  0.12699999809E+01 0.  1.
</event>
<event>
 5   0  0.8237966E-05  0.2094009E+04  0.7818609E-02  0.8563887E-01
       -1   -1    0    0    0  501  0.00000000000E+00  0.00000000000E+00  0.16878402258E+04  0.16878402259E+04  0.50400001928E-02 0.  1.
        1   -1    0    0  501    0  0.00000000000E+00  0.00000000000E+00 -0.64947999402E+03  0.64947999404E+03  0.50400001928E-02 0. -1.
    10030    2    1    2    0    0  0.00000000000E+00  0.00000000000E+00  0.10383602318E+04  0.23373202199E+04  0.20940090352E+04 0.  0.
        1    1    3    3  502    0 -0.20557240643E+03  0.94569363225E+03  0.73230249507E+02  0.97054578966E+03  0.50400001928E-02 0. -1.
       -1    1    3    3    0  502  0.20557240643E+03 -0.94569363225E+03  0.96512998232E+03  0.13667744302E+04  0.50400001928E-02 0.  1.
</event>
<event>
 5   0  0.1810875E-04  0.2071651E+04  0.7818609E-02  0.8573835E-01
        2   -1    0    0  501    0  0.00000000000E+00  0.00000000000E+00  0.84341984124E+03  0.84341984125E+03  0.25500000920E-02 0.  1.
       -2   -1    0    0    0  501  0.00000000000E+00  0.00000000000E+00 -0.12721240875E+04  0.12721240875E+04  0.25500000920E-02 0. -1.
    10030    2    1    2    0    0  0.00000000000E+00  0.00000000000E+00 -0.42870424621E+03  0.21155439287E+04  0.20716512215E+04 0.  0.
        1    1    3    3  502    0  0.18471145599E+03  0.38548048211E+03 -0.11778579973E+04  0.12530215424E+04  0.50400001928E-02 0. -1.
       -1    1    3    3    0  502 -0.18471145599E+03 -0.38548048211E+03  0.74915375106E+03  0.86252238627E+03  0.50400001928E-02 0.  1.
</event>
<event>
 5   0  0.8755004E-05  0.1846744E+04  0.7818609E-02  0.8681829E-01
       -1   -1    0    0    0  501  0.00000000000E+00  0.00000000000E+00  0.83762768511E+03  0.83762768512E+03  0.50400001928E-02 0. -1.
        1   -1    0    0  501    0  0.00000000000E+00  0.00000000000E+00 -0.10178938666E+04  0.10178938666E+04  0.50400001928E-02 0.  1.
    10030    2    1    2    0    0  0.00000000000E+00  0.00000000000E+00 -0.18026618149E+03  0.18555215517E+04  0.18467442521E+04 0.  0.
        3    1    3    3  502    0 -0.14522115815E+03 -0.86742904428E+03  0.19243967782E+03  0.90030848681E+03  0.10100000352E+00 0. -1.
       -3    1    3    3    0  502  0.14522115815E+03  0.86742904428E+03 -0.37270585931E+03  0.95521306492E+03  0.10100000352E+00 0.  1.
</event>
<event>
 5   0  0.1886323E-04  0.2107456E+04  0.7818609E-02  0.8557966E-01
       -2   -1    0    0    0  501  0.00000000000E+00  0.00000000000E+00  0.80246063960E+03  0.80246063960E+03  0.25500000920E-02 0.  1.
        2   -1    0    0  501    0  0.00000000000E+00  0.00000000000E+00 -0.13836718771E+04  0.13836718771E+04  0.25500000920E-02 0. -1.
    10030    2    1    2    0    0  0.00000000000E+00  0.00000000000E+00 -0.58121123752E+03  0.21861325167E+04  0.21074555459E+04 0.  0.
        2    1    3    3  502    0  0.43520343096E+03  0.89843472980E+03  0.59261998235E+02  0.10000494860E+04  0.25500000920E-02 0.  1.
       -2    1    3    3    0  502 -0.43520343096E+03 -0.89843472980E+03 -0.64047323575E+03  0.11860830307E+04  0.25500000920E-02 0. -1.
</event>
<event>
 5   0  0.1815400E-04  0.2422631E+04  0.7818609E-02  0.8431079E-01
        2   -1    0    0  501    0  0.00000000000E+00  0.00000000000E+00  0.11270609561E+04  0.11270609561E+04  0.25500000920E-02 0. -1.
       -2   -1    0    0    0  501  0.00000000000E+00  0.00000000000E+00 -0.13018684143E+04  0.13018684143E+04  0.25500000920E-02 0.  1.
    10030    2    1    2    0    0  0.00000000000E+00  0.00000000000E+00 -0.17480745822E+03  0.24289293704E+04  0.24226308507E+04 0.  0.
        3    1    3    3  502    0  0.51495061554E+03 -0.46721177302E+03  0.90705408651E+03  0.11428946160E+04  0.10100000352E+00 0. -1.
       -3    1    3    3    0  502 -0.51495061554E+03  0.46721177302E+03 -0.10818615447E+04  0.12860347544E+04  0.10100000352E+00 0.  1.
</event>
<event>
 5   0  0.8486612E-05  0.1984699E+04  0.7818609E-02  0.8613808E-01
        1   -1    0    0  501    0  0.00000000000E+00  0.00000000000E+00  0.86377253752E+03  0.86377253753E+03  0.50400001928E-02 0. -1.
       -1   -1    0    0    0  501  0.00000000000E+00  0.00000000000E+00 -0.11400659187E+04  0.11400659187E+04  0.50400001928E-02 0.  1.
    10030    2    1    2    0    0  0.00000000000E+00  0.00000000000E+00 -0.27629338117E+03  0.20038384562E+04  0.19846991022E+04 0.  0.
        5    1    3    3  502    0  0.75722548595E+03  0.45706126805E+03  0.31612566377E+03  0.93928321853E+03  0.46999998093E+01 0. -1.
       -5    1    3    3    0  502 -0.75722548595E+03 -0.45706126805E+03 -0.59241904493E+03  0.10645552377E+04  0.46999998093E+01 0.  1.
</event>
<event>
 5   0  0.1777590E-04  0.2088552E+04  0.7818609E-02  0.8566303E-01
       -2   -1    0    0    0  501  0.00000000000E+00  0.00000000000E+00  0.12521575791E+04  0.12521575791E+04  0.25500000920E-02 0.  1.
        2   -1    0    0  501    0  0.00000000000E+00  0.00000000000E+00 -0.87090673684E+03  0.87090673684E+03  0.25500000920E-02 0. -1.
    10030    2    1    2    0    0  0.00000000000E+00  0.00000000000E+00  0.38125084228E+03  0.21230643160E+04  0.20885521025E+04 0.  0.
        4    1    3    3  502    0 -0.53523840574E+03  0.20082523972E+03 -0.69771456770E+03  0.90200784850E+03  0.12699999809E+01 0. -1.
       -4    1    3    3    0  502  0.53523840574E+03 -0.20082523972E+03  0.10789654100E+04  0.12210564675E+04  0.12699999809E+01 0.  1.
</event>
<event>
 5   0  0.1777590E-04  0.1978352E+04  0.7818609E-02  0.8616809E-01
        2   -1    0    0  501    0  0.00000000000E+00  0.00000000000E+00  0.55475915967E+03  0.55475915968E+03  0.25500000920E-02 0. -1.
       -2   -1    0    0    0  501  0.00000000000E+00  0.00000000000E+00 -0.17637722246E+04  0.17637722246E+04  0.25500000920E-02 0.  1.
    10030    2    1    2    0    0  0.00000000000E+00  0.00000000000E+00 -0.12090130650E+04  0.23185313843E+04  0.19783516343E+04 0.  0.
        4    1    3    3  502    0  0.58016802933E+03  0.77047509954E+03 -0.86191022737E+03  0.12934905002E+04  0.12699999809E+01 0.  1.
       -4    1    3    3    0  502 -0.58016802933E+03 -0.77047509954E+03 -0.34710283760E+03  0.10250408841E+04  0.12699999809E+01 0. -1.
</event>
<event>
 5   0  0.1886323E-04  0.2126179E+04  0.7818609E-02  0.8549798E-01
       -2   -1    0    0    0  501  0.00000000000E+00  0.00000000000E+00  0.13707872962E+04  0.13707872962E+04  0.25500000920E-02 0. -1.
        2   -1    0    0  501    0  0.00000000000E+00  0.00000000000E+00 -0.82445978244E+03  0.82445978244E+03  0.25500000920E-02 0.  1.
    10030    2    1    2    0    0  0.00000000000E+00  0.00000000000E+00  0.54632751378E+03  0.21952470787E+04  0.21261787282E+04 0.  0.
        2    1    3    3  502    0 -0.75118278771E+02  0.72702720600E+03  0.10702176850E+04  0.12959850336E+04  0.25500000920E-02 0. -1.
       -2    1    3    3    0  502  0.75118278771E+02 -0.72702720600E+03 -0.52389017125E+03  0.89926204502E+03  0.25500000920E-02 0.  1.
</event>
<event>
 5   0  0.8486612E-05  0.2116140E+04  0.7818609E-02  0.8554167E-01
       -1   -1    0    0    0  501  0.00000000000E+00  0.00000000000E+00  0.99457604096E+03  0.99457604097E+03  0.50400001928E-02 0. -1.
        1   -1    0    0  501    0  0.00000000000E+00  0.00000000000E+00 -0.11256175695E+04  0.11256175695E+04  0.50400001928E-02 0.  1.
    10030    2    1    2    0    0  0.00000000000E+00  0.00000000000E+00 -0.13104152855E+03  0.21201936105E+04  0.21161401333E+04 0.  0.
        5    1    3    3  502    0 -0.47218801151E+03 -0.87716079558E+03  0.29169772859E+03  0.10380184172E+04  0.46999998093E+01 0. -1.
       -5    1    3    3    0  502  0.47218801151E+03  0.87716079558E+03 -0.42273925715E+03  0.10821751933E+04  0.46999998093E+01 0.  1.
</event>
<event>
 5   0  0.1815400E-04  0.2150794E+04  0.7818609E-02  0.8539192E-01
       -2   -1    0    0    0  501  0.00000000000E+00  0.00000000000E+00  0.14585958052E+04  0.14585958052E+04  0.25500000920E-02 0.  1.
        2   -1    0    0  501    0  0.00000000000E+00  0.00000000000E+00 -0.79287137119E+03  0.79287137119E+03  0.25500000920E-02 0. -1.
    10030    2    1    2    0    0  0.00000000000E+00  0.00000000000E+00  0.66572443398E+03  0.22514671764E+04  0.21507941380E+04 0.  0.
        3    1    3    3  502    0 -0.24958789348E+03  0.57431011882E+03 -0.58233281525E+03  0.85512440444E+03  0.10100000352E+00 0. -1.
       -3    1    3    3    0  502  0.24958789348E+03 -0.57431011882E+03  0.12480572492E+04  0.13963427719E+04  0.10100000352E+00 0.  1.
</event>
<event>
 5   0  0.6441125E-05  0.2112544E+04  0.7818609E-02  0.8555738E-01
       -3   -1    0    0    0  501  0.00000000000E+00  0.00000000000E+00  0.64655845457E+03  0.64655846246E+03  0.10100000352E+00 0.  1.
        3   -1    0    0  501    0  0.00000000000E+00  0.00000000000E+00 -0.17256140076E+04  0.17256140106E+04  0.10100000352E+00 0. -1.
    10030    2    1    2    0    0  0.00000000000E+00  0.00000000000E+00 -0.10790555530E+04  0.23721724730E+04  0.21125438114E+04 0.  0.
        1    1    3    3  502    0 -0.15428273823E+03 -0.22726389998E+03  0.60575078541E+03  0.66512108492E+03  0.50400001928E-02 0.  1.
       -1    1    3    3    0  502  0.15428273823E+03  0.22726389998E+03 -0.16848063385E+04  0.17070513881E+04  0.50400001928E-02 0. -1.
</event>
<event>
 5   0  0.8755004E-05  0.2023371E+04  0.7818609E-02  0.8595771E-01
        1   -1    0    0  501    0  0.00000000000E+00  0.00000000000E+00  0.13170843183E+04  0.13170843183E+04  0.50400001928E-02 0.  1.
       -1   -1    0    0    0  501  0.00000000000E+00  0.00000000000E+00 -0.77710115827E+03  0.77710115829E+03  0.50400001928E-02 0. -1.
    10030    2    1    2    0    0  0.00000000000E+00  0.00000000000E+00  0.53998316005E+03  0.20941854766E+04  0.20233711961E+04 0.  0.
        3    1    3    3  502    0  0.44372743182E+03 -0.13432425773E+03 -0.66068455976E+03  0.80711903562E+03  0.10100000352E+00 0. -1.
       -3    1    3    3    0  502 -0.44372743182E+03  0.13432425773E+03  0.12006677198E+04  0.12870664410E+04  0.10100000352E+00 0.  1.
</event>
<event>
 5   0  0.6441125E-05  0.2102797E+04  0.7818609E-02  0.8560012E-01
        3   -1    0    0  501    0  0.00000000000E+00  0.00000000000E+00  0.92587965780E+03  0.92587966331E+03  0.10100000352E+00 0. -1.
       -3   -1    0    0    0  501  0.00000000000E+00  0.00000000000E+00 -0.11939336076E+04  0.11939336118E+04  0.10100000352E+00 0.  1.
    10030    2    1    2    0    0  0.00000000000E+00  0.00000000000E+00 -0.26805394976E+03  0.21198132751E+04  0.21027970424E+04 0.  0.
        3    1    3    3  502    0 -0.71753074622E+03  0.76298147751E+03 -0.41371657201E+02  0.10481902170E+04  0.10100000352E+00 0.  1.
       -3    1    3    3    0  502  0.71753074622E+03 -0.76298147751E+03 -0.22668229256E+03  0.10716230581E+04  0.10100000352E+00 0. -1.
</event>
<event>
 5   0  0.1777590E-04  0.2064611E+04  0.7818609E-02  0.8576995E-01
       -2   -1    0    0    0  501  0.00000000000E+00  0.00000000000E+00  0.13553909515E+04  0.13553909515E+04  0.25500000920E-02 0. -1.
        2   -1    0    0  501    0  0.00000000000E+00  0.00000000000E+00 -0.78623435671E+03  0.78623435672E+03  0.25500000920E-02 0.  1.
    10030    2    1    2    0    0  0.00000000000E+00  0.00000000000E+00  0.56915659475E+03  0.21416253082E+04  0.20646112785E+04 0.  0.
        4    1    3    3  502    0 -0.28165290079E+02  0.74522907573E+01 -0.78580699686E+03  0.78634793152E+03  0.12699999809E+01 0.  1.
       -4    1    3    3    0  502  0.28165290079E+02 -0.74522907573E+01  0.13549635916E+04  0.13552773767E+04  0.12699999809E+01 0. -1.
</event>
<event>
 5   0  0.8525278E-05  0.1769507E+04  0.7818609E-02  0.8722685E-01
       -1   -1    0    0    0  501  0.00000000000E+00  0.00000000000E+00  0.51498629695E+03  0.51498629697E+03  0.50400001928E-02 0. -1.
        1   -1    0    0  501    0  0.00000000000E+00  0.00000000000E+00 -0.15200189043E+04  0.15200189043E+04  0.50400001928E-02 0.  1.
    10030    2    1    2    0    0  0.00000000000E+00  0.00000000000E+00 -0.10050326074E+04  0.20350052013E+04  0.17695071708E+04 0.  0.
        4    1    3    3  502    0 -0.42253377083E+03 -0.45123936706E+03 -0.12304434790E+04  0.13770056361E+04  0.12699999809E+01 0.  1.
       -4    1    3    3    0  502  0.42253377083E+03  0.45123936706E+03  0.22541087164E+03  0.65799956522E+03  0.12699999809E+01 0. -1.
</event>
<event>
 5   0  0.8755004E-05  0.2102742E+04  0.7818609E-02  0.8560037E-01
       -1   -1    0    0    0  501  0.00000000000E+00  0.00000000000E+00  0.12557909063E+04  0.12557909063E+04  0.50400001928E-02 0. -1.
        1   -1    0    0  501    0  0.00000000000E+00  0.00000000000E+00 -0.88022653297E+03  0.88022653299E+03  0.50400001928E-02 0.  1.
    10030    2    1    2    0    0  0.00000000000E+00  0.00000000000E+00  0.37556437329E+03  0.21360174393E+04  0.21027415206E+04 0.  0.
        3    1    3    3  502    0  0.56551128616E+03  0.49099905044E+03 -0.56179576262E+03  0.93621449007E+03  0.10100000352E+00 0.  1.
       -3    1    3    3    0  502 -0.56551128616E+03 -0.49099905044E+03  0.93736013592E+03  0.11998029492E+04  0.10100000352E+00 0. -1.
</event>
<event>
 5   0  0.1886323E-04  0.2083216E+04  0.7818609E-02  0.8568673E-01
       -2   -1    0    0    0  501  0.00000000000E+00  0.00000000000E+00  0.10151641272E+04  0.10151641272E+04  0.25500000920E-02 0. -1.
        2   -1    0    0  501    0  0.00000000000E+00  0.00000000000E+00 -0.10687409035E+04  0.10687409035E+04  0.25500000920E-02 0.  1.
    10030    2    1    2    0    0  0.00000000000E+00  0.00000000000E+00 -0.53576776275E+02  0.20839050307E+04  0.20832161928E+04 0.  0.
        2    1    3    3  502    0 -0.81632692845E+03 -0.52893308575E+03 -0.39945360193E+03  0.10515336625E+04  0.25500000920E-02 0.  1.
       -2    1    3    3    0  502  0.81632692845E+03  0.52893308575E+03  0.34587682565E+03  0.10323713682E+04  0.25500000920E-02 0. -1.
</event>
<event>
 5   0  0.8755004E-05  0.2087887E+04  0.7818609E-02  0.8566598E-01
       -1   -1    0    0    0  501  0.00000000000E+00  0.00000000000E+00  0.10787499574E+04  0.10787499574E+04  0.50400001928E-02 0.  1.
        1   -1    0    0  501    0  0.00000000000E+00  0.00000000000E+00 -0.10102597756E+04  0.10102597757E+04  0.50400001928E-02 0. -1.
    10030    2    1    2    0    0  0.00000000000E+00  0.00000000000E+00  0.68490181713E+02  0.20890097330E+04  0.20878866731E+04 0.  0.
        3    1    3    3  502    0  0.18116558596E+03  0.80255557215E+03  0.67716466341E+03  0.10655835995E+04  0.10100000352E+00 0. -1.
       -3    1    3    3    0  502 -0.18116558596E+03 -0.80255557215E+03 -0.60867448170E+03  0.10234261335E+04  0.10100000352E+00 0.  1.
</event>
<event>
 5   0  0.1777590E-04  0.1511328E+04  0.7818609E-02  0.8876955E-01
        2   -1    0    0  501    0  0.00000000000E+00  0.00000000000E+00  0.60479146166E+03  0.60479146167E+03  0.25500000920E-02 0.  1.
       -2   -1    0    0    0  501  0.00000000000E+00  0.00000000000E+00 -0.94417322844E+03  0.94417322844E+03  0.25500000920E-02 0. -1.
    10030    2    1    2    0    0  0.00000000000E+00  0.00000000000E+00 -0.33938176677E+03  0.15489646901E+04  0.15113277697E+04 0.  0.
        4    1    3    3  502    0 -0.52769546909E+03  0.14509707810E+02 -0.72385298505E+03  0.89590055061E+03  0.12699999809E+01 0. -1.
       -4    1    3    3    0  502  0.52769546909E+03 -0.14509707810E+02  0.38447121827E+03  0.65306413950E+03  0.12699999809E+01 0.  1.
</event>
<event>
 5   0  0.1810875E-04  0.2034892E+04  0.7818609E-02  0.8590479E-01
        2   -1    0    0  501    0  0.00000000000E+00  0.00000000000E+00  0.19215739563E+04  0.19215739563E+04  0.25500000920E-02 0.  1.
       -2   -1    0    0    0  501  0.00000000000E+00  0.00000000000E+00 -0.53872321975E+03  0.53872321975E+03  0.25500000920E-02 0. -1.
    10030    2    1    2    0    0  0.00000000000E+00  0.00000000000E+00  0.13828507366E+04  0.24602971761E+04  0.20348921433E+04 0.  0.
        1    1    3    3  502    0  0.43815253924E+03 -0.62051687505E+03 -0.12696994245E+03  0.77015596224E+03  0.50400001928E-02 0. -1.
       -1    1    3    3    0  502 -0.43815253924E+03  0.62051687505E+03  0.15098206790E+04  0.16901412138E+04  0.50400001928E-02 0.  1.
</event>
<event>
 5   0  0.1815400E-04  0.2135011E+04  0.7818609E-02  0.8545976E-01
       -2   -1    0    0    0  501  0.00000000000E+00  0.00000000000E+00  0.46143500577E+03  0.46143500578E+03  0.25500000920E-02 0.  1.
        2   -1    0    0  501    0  0.00000000000E+00  0.00000000000E+00 -0.24696183211E+04  0.24696183211E+04  0.25500000920E-02 0. -1.
    10030    2    1    2    0    0  0.00000000000E+00  0.00000000000E+00 -0.20081833153E+04  0.29310533268E+04  0.21350113295E+04 0.  0.
        3    1    3    3  502    0 -0.62951439298E+03 -0.32114733397E+03  0.94313327659E+02  0.71296493255E+03  0.10100000352E+00 0.  1.
       -3    1    3    3    0  502  0.62951439298E+03  0.32114733397E+03 -0.21024966429E+04  0.22180883943E+04  0.10100000352E+00 0. -1.
</event>
<event>
 5   0  0.1815400E-04  0.1289548E+04  0.7818609E-02  0.9037895E-01
        2   -1    0    0  501    0  0.00000000000E+00  0.00000000000E+00  0.52713453553E+03  0.52713453553E+03  0.25500000920E-02 0.  1.
       -2   -1    0    0    0  501  0.00000000000E+00  0.00000000000E+00 -0.78866716299E+03  0.78866716299E+03  0.25500000920E-02 0. -1.
    10030    2    1    2    0    0  0.00000000000E+00  0.00000000000E+00 -0.26153262746E+03  0.13158016985E+04  0.12895482909E+04 0.  0.
        3    1    3    3  502    0 -0.59138563062E+03 -0.24959701716E+03 -0.68716651770E+02  0.64556767539E+03  0.10100000352E+00 0. -1.
       -3    1    3    3    0  502  0.59138563062E+03  0.24959701716E+03 -0.19281597569E+03  0.67023402313E+03  0.10100000352E+00 0.  1.
</event>
<event>
 5   0  0.1921687E-04  0.2163520E+04  0.7818609E-02  0.8533767E-01
       -2   -1    0    0    0  501  0.00000000000E+00  0.00000000000E+00  0.74807197643E+03  0.74807197644E+03  0.25500000920E-02 0. -1.
        2   -1    0    0  501    0  0.00000000000E+00  0.00000000000E+00 -0.15642946384E+04  0.15642946384E+04  0.25500000920E-02 0.  1.
    10030    2    1    2    0    0  0.00000000000E+00  0.00000000000E+00 -0.81622266199E+03  0.23123666149E+04  0.21635202628E+04 0.  0.
        5    1    3    3  502    0  0.16048805637E+03 -0.61313626194E+03  0.52883550048E+03  0.82545839902E+03  0.46999998093E+01 0. -1.
       -5    1    3    3    0  502 -0.16048805637E+03  0.61313626194E+03 -0.13450581625E+04  0.14869082158E+04  0.46999998093E+01 0.  1.
</event>
<event>
 5   0  0.8755004E-05  0.2073193E+04  0.7818609E-02  0.8573145E-01
       -1   -1    0    0    0  501  0.00000000000E+00  0.00000000000E+00  0.52048857841E+03  0.52048857843E+03  0.50400001928E-02 0.  1.
        1   -1    0    0  501    0  0.00000000000E+00  0.00000000000E+00 -0.20644686319E+04  0.20644686319E+04  0.50400001928E-02 0. -1.
    10030    2    1    2    0    0  0.00000000000E+00  0.00000000000E+00 -0.15439800535E+04  0.25849572104E+04  0.20731930382E+04 0.  0.
        3    1    3    3  502    0  0.88278759661E+02 -0.70612974608E+02  0.51277990909E+03  0.52509292221E+03  0.10100000352E+00 0.  1.
       -3    1    3    3    0  502 -0.88278759661E+02  0.70612974608E+02 -0.20567599626E+04  0.20598642881E+04  0.10100000352E+00 0. -1.
</event>
<event>
 5   0  0.8525278E-05  0.2088667E+04  0.7818609E-02  0.8566252E-01
        1   -1    0    0  501    0  0.00000000000E+00  0.00000000000E+00  0.10767015856E+04  0.10767015856E+04  0.50400001928E-02 0.  1.
       -1   -1    0    0    0  501  0.00000000000E+00  0.00000000000E+00 -0.10129383066E+04  0.10129383066E+04  0.50400001928E-02 0. -1.
    10030    2    1    2    0    0  0.00000000000E+00  0.00000000000E+00  0.63763278990E+02  0.20896398922E+04  0.20886668291E+04 0.  0.
        4    1    3    3  502    0  0.24160174683E+03  0.10077855061E+04 -0.97126631181E+02  0.10408833873E+04  0.12699999809E+01 0.  1.
       -4    1    3    3    0  502 -0.24160174683E+03 -0.10077855061E+04  0.16088991017E+03  0.10487565049E+04  0.12699999809E+01 0. -1.
</event>
<event>
 5   0  0.1777590E-04  0.2084236E+04  0.7818609E-02  0.8568219E-01
        2   -1    0    0  501    0  0.00000000000E+00  0.00000000000E+00  0.20834036956E+04  0.20834036956E+04  0.25500000920E-02 0. -1.
       -2   -1    0    0    0  501  0.00000000000E+00  0.00000000000E+00 -0.52126735407E+03  0.52126735408E+03  0.25500000920E-02 0.  1.
    10030    2    1    2    0    0  0.00000000000E+00  0.00000000000E+00  0.15621363416E+04  0.26046710497E+04  0.20842363896E+04 0.  0.
        4    1    3    3  502    0 -0.10182157047E+04  0.17978598354E+03  0.61849901848E+03  0.12048356195E+04  0.12699999809E+01 0.  1.
       -4    1    3    3    0  502  0.10182157047E+04 -0.17978598354E+03  0.94363732308E+03  0.13998354302E+04  0.12699999809E+01 0. -1.
</event>
<event>
 5   0  0.8755004E-05  0.2078395E+04  0.7818609E-02  0.8570820E-01
       -1   -1    0    0    0  501  0.00000000000E+00  0.00000000000E+00  0.54249972011E+03  0.54249972013E+03  0.50400001928E-02 0. -1.
        1   -1    0    0  501    0  0.00000000000E+00  0.00000000000E+00 -0.19906589595E+04  0.19906589596E+04  0.50400001928E-02 0.  1.
    10030    2    1    2    0    0  0.00000000000E+00  0.00000000000E+00 -0.14481592394E+04  0.25331586797E+04  0.20783954661E+04 0.  0.
        3    1    3    3  502    0 -0.92003302252E+03 -0.45382189075E+03 -0.52190178323E+03  0.11509980680E+04  0.10100000352E+00 0. -1.
       -3    1    3    3    0  502  0.92003302252E+03  0.45382189075E+03 -0.92625745621E+03  0.13821606117E+04  0.10100000352E+00 0.  1.
</event>
<event>
 5   0  0.8271069E-05  0.2154389E+04  0.7818609E-02  0.8537656E-01
       -1   -1    0    0    0  501  0.00000000000E+00  0.00000000000E+00  0.13465191673E+04  0.13465191673E+04  0.50400001928E-02 0. -1.
        1   -1    0    0  501    0  0.00000000000E+00  0.00000000000E+00 -0.86173862292E+03  0.86173862294E+03  0.50400001928E-02 0.  1.
    10030    2    1    2    0    0  0.00000000000E+00  0.00000000000E+00  0.48478054438E+03  0.22082577903E+04  0.21543886121E+04 0.  0.
        2    1    3    3  502    0  0.10742494957E+04 -0.66717105702E+02  0.19789490618E+03  0.10943607929E+04  0.25500000920E-02 0.  1.
       -2    1    3    3    0  502 -0.10742494957E+04  0.66717105702E+02  0.28688563820E+03  0.11138969973E+04  0.25500000920E-02 0. -1.
</event>
<event>
 5   0  0.8486612E-05  0.2084645E+04  0.7818609E-02  0.8568038E-01
        1   -1    0    0  501    0  0.00000000000E+00  0.00000000000E+00  0.12530620070E+04  0.12530620070E+04  0.50400001928E-02 0.  1.
       -1   -1    0    0    0  501  0.00000000000E+00  0.00000000000E+00 -0.86702536200E+03  0.86702536202E+03  0.50400001928E-02 0. -1.
    10030    2    1    2    0    0  0.00000000000E+00  0.00000000000E+00  0.38603664496E+03  0.21200873690E+04  0.20846453322E+04 0.  0.
        5    1    3    3  502    0  0.16421882601E+03 -0.10292065591E+04  0.17935540223E+03  0.10575558682E+04  0.46999998093E+01 0.  1.
       -5    1    3    3    0  502 -0.16421882601E+03  0.10292065591E+04  0.20668124273E+03  0.10625315008E+04  0.46999998093E+01 0. -1.
</event>
<event>
 5   0  0.8755004E-05  0.2112702E+04  0.7818609E-02  0.8555668E-01
       -1   -1    0    0    0  501  0.00000000000E+00  0.00000000000E+00  0.10987650604E+04  0.10987650604E+04  0.50400001928E-02 0. -1.
        1   -1    0    0  501    0  0.00000000000E+00  0.00000000000E+00 -0.10155744847E+04  0.10155744847E+04  0.50400001928E-02 0.  1.
    10030    2    1    2    0    0  0.00000000000E+00  0.00000000000E+00  0.83190575734E+02  0.21143395451E+04  0.21127023075E+04 0.  0.
        3    1    3    3  502    0 -0.58607205799E+03 -0.28770891022E+03  0.87267298127E+03  0.10898692658E+04  0.10100000352E+00 0.  1.
       -3    1    3    3    0  502  0.58607205799E+03  0.28770891022E+03 -0.78948240554E+03  0.10244702792E+04  0.10100000352E+00 0. -1.
</event>
<event>
 5   0  0.8486612E-05  0.2093051E+04  0.7818609E-02  0.8564311E-01
       -1   -1    0    0    0  501  0.00000000000E+00  0.00000000000E+00  0.75826038636E+03  0.75826038638E+03  0.50400001928E-02 0. -1.
        1   -1    0    0  501    0  0.00000000000E+00  0.00000000000E+00 -0.14443789976E+04  0.14443789976E+04  0.50400001928E-02 0.  1.
    10030    2    1    2    0    0  0.00000000000E+00  0.00000000000E+00 -0.68611861121E+03  0.22026393840E+04  0.20930507655E+04 0.  0.
        5    1    3    3  502    0  0.83971484983E+03 -0.37733687365E+02 -0.99911709345E+03  0.13056806335E+04  0.46999998093E+01 0.  1.
       -5    1    3    3    0  502 -0.83971484983E+03  0.37733687365E+02  0.31299848225E+03  0.89695875049E+03  0.46999998093E+01 0. -1.
</event>
<event>
 5   0  0.8271069E-05  0.2103665E+04  0.7818609E-02  0.8559631E-01
        1   -1    0    0  501    0  0.00000000000E+00  0.00000000000E+00  0.80120227418E+03  0.80120227419E+03  0.50400001928E-02 0.  1.
       -1   -1    0    0    0  501  0.00000000000E+00  0.00000000000E+00 -0.13808640620E+04  0.13808640620E+04  0.50400001928E-02 0. -1.
    10030    2    1    2    0    0  0.00000000000E+00  0.00000000000E+00 -0.57966178783E+03  0.21820663362E+04  0.21036648277E+04 0.  0.
        2    1    3    3  502    0  0.64749343172E+03  0.69376936917E+03  0.18071410038E+03  0.96603378192E+03  0.25500000920E-02 0.  1.
       -2    1    3    3    0  502 -0.64749343172E+03 -0.69376936917E+03 -0.76037588821E+03  0.12160325543E+04  0.25500000920E-02 0. -1.
</event>
<event>
 5   0  0.8271069E-05  0.2129865E+04  0.7818609E-02  0.8548200E-01
        1   -1    0    0  501    0  0.00000000000E+00  0.00000000000E+00  0.11350265820E+04  0.11350265820E+04  0.50400001928E-02 0. -1.
       -1   -1    0    0    0  501  0.00000000000E+00  0.00000000000E+00 -0.99916730052E+03  0.99916730053E+03  0.50400001928E-02 0.  1.
    10030    2    1    2    0    0  0.00000000000E+00  0.00000000000E+00  0.13585928150E+03  0.21341938826E+04  0.21298652032E+04 0.  0.
        2    1    3    3  502    0  0.44978238132E+03  0.64602182710E+03 -0.65076794402E+03  0.10213458320E+04  0.25500000920E-02 0.  1.
       -2    1    3    3    0  502 -0.44978238132E+03 -0.64602182710E+03  0.78662722552E+03  0.11128480505E+04  0.25500000920E-02 0. -1.
</event>
<event>
 5   0  0.1921687E-04  0.1788096E+04  0.7818609E-02  0.8712656E-01
       -2   -1    0    0    0  501  0.00000000000E+00  0.00000000000E+00  0.38041632823E+03  0.38041632824E+03  0.25500000920E-02 0.  1.
        2   -1    0    0  501    0  0.00000000000E+00  0.00000000000E+00 -0.21011762570E+04  0.21011762570E+04  0.25500000920E-02 0. -1.
    10030    2    1    2    0    0  0.00000000000E+00  0.00000000000E+00 -0.17207599287E+04  0.24815925852E+04  0.17880959221E+04 0.  0.
        5    1    3    3  502    0 -0.25308904092E+03 -0.65572853389E+03 -0.16271739015E+04  0.17724985101E+04  0.46999998093E+01 0. -1.
       -5    1    3    3    0  502  0.25308904092E+03  0.65572853389E+03 -0.93586027244E+02  0.70909407506E+03  0.46999998093E+01 0.  1.
</event>
<event>
 5   0  0.8755004E-05  0.2079811E+04  0.7818609E-02  0.8570189E-01
       -1   -1    0    0    0  501  0.00000000000E+00  0.00000000000E+00  0.81672838399E+03  0.81672838400E+03  0.50400001928E-02 0.  1.
        1   -1    0    0  501    0  0.00000000000E+00  0.00000000000E+00 -0.13240677817E+04  0.13240677817E+04  0.50400001928E-02 0. -1.
    10030    2    1    2    0    0  0.00000000000E+00  0.00000000000E+00 -0.50733939770E+03  0.21407961657E+04  0.20798112796E+04 0.  0.
        3    1    3    3  502    0  0.92775114262E+02 -0.20101874586E+03  0.79218862428E+03  0.82254397126E+03  0.10100000352E+00 0.  1.
       -3    1    3    3    0  502 -0.92775114262E+02  0.20101874586E+03 -0.12995280220E+04  0.13182521944E+04  0.10100000352E+00 0. -1.
</event>
<event>
 5   0  0.1921687E-04  0.2052021E+04  0.7818609E-02  0.8582678E-01
       -2   -1    0    0    0  501  0.00000000000E+00  0.00000000000E+00  0.12793303225E+04  0.12793303225E+04  0.25500000920E-02 0.  1.
        2   -1    0    0  501    0  0.00000000000E+00  0.00000000000E+00 -0.82285028528E+03  0.82285028528E+03  0.25500000920E-02 0. -1.
    10030    2    1    2    0    0  0.00000000000E+00  0.00000000000E+00  0.45648003720E+03  0.21021806078E+04  0.20520207804E+04 0.  0.
        5    1    3    3  502    0  0.82607273873E+03 -0.16760070760E+03  0.82750835838E+03  0.11812190060E+04  0.46999998093E+01 0. -1.
       -5    1    3    3    0  502 -0.82607273873E+03  0.16760070760E+03 -0.37102832118E+03  0.92096160180E+03  0.46999998093E+01 0.  1.
</event>
<event>
 5   0  0.8755004E-05  0.1882139E+04  0.7818609E-02  0.8663798E-01
       -1   -1    0    0    0  501  0.00000000000E+00  0.00000000000E+00  0.63099437703E+03  0.63099437705E+03  0.50400001928E-02 0. -1.
        1   -1    0    0  501    0  0.00000000000E+00  0.00000000000E+00 -0.14035179487E+04  0.14035179488E+04  0.50400001928E-02 0.  1.
    10030    2    1    2    0    0  0.00000000000E+00  0.00000000000E+00 -0.77252357172E+03  0.20345123258E+04  0.18821391380E+04 0.  0.
        3    1    3    3  502    0  0.21824359227E+03 -0.62108023346E+02  0.60098101086E+03  0.64239073603E+03  0.10100000352E+00 0. -1.
       -3    1    3    3    0  502 -0.21824359227E+03  0.62108023346E+02 -0.13735045826E+04  0.13921215898E+04  0.10100000352E+00 0.  1.
</event>
<event>
 5   0  0.1777590E-04  0.2095511E+04  0.7818609E-02  0.8563224E-01
        2   -1    0    0  501    0  0.00000000000E+00  0.00000000000E+00  0.13456267084E+04  0.13456267084E+04  0.25500000920E-02 0. -1.
       -2   -1    0    0    0  501  0.00000000000E+00  0.00000000000E+00 -0.81582140042E+03  0.81582140043E+03  0.25500000920E-02 0.  1.
    10030    2    1    2    0    0  0.00000000000E+00  0.00000000000E+00  0.52980530800E+03  0.21614481088E+04  0.20955105017E+04 0.  0.
        4    1    3    3  502    0  0.45363340020E+03 -0.52562128512E+03  0.10742772787E+04  0.12791146475E+04  0.12699999809E+01 0. -1.
       -4    1    3    3    0  502 -0.45363340020E+03  0.52562128512E+03 -0.54447197070E+03  0.88233346130E+03  0.12699999809E+01 0.  1.
</event>
<event>
 5   0  0.8525278E-05  0.2067188E+04  0.7818609E-02  0.8575837E-01
        1   -1    0    0  501    0  0.00000000000E+00  0.00000000000E+00  0.89189536144E+03  0.89189536146E+03  0.50400001928E-02 0. -1.
       -1   -1    0    0    0  501  0.00000000000E+00  0.00000000000E+00 -0.11978050397E+04  0.11978050397E+04  0.50400001928E-02 0.  1.
    10030    2    1    2    0    0  0.00000000000E+00  0.00000000000E+00 -0.30590967821E+03  0.20897004011E+04  0.20671881954E+04 0.  0.
        4    1    3    3  502    0  0.91169943947E+03  0.65005437095E+01  0.33925324282E+03  0.97279622772E+03  0.12699999809E+01 0.  1.
       -4    1    3    3    0  502 -0.91169943947E+03 -0.65005437095E+01 -0.64516292103E+03  0.11169041734E+04  0.12699999809E+01 0. -1.
</event>
<event>
 5   0  0.1777590E-04  0.2050549E+04  0.7818609E-02  0.8583346E-01
        2   -1    0    0  501    0  0.00000000000E+00  0.00000000000E+00  0.14993302362E+04  0.14993302362E+04  0.25500000920E-02 0. -1.
       -2   -1    0    0    0  501  0.00000000000E+00  0.00000000000E+00 -0.70110464812E+03  0.70110464812E+03  0.25500000920E-02 0.  1.
    10030    2    1    2    0    0  0.00000000000E+00  0.00000000000E+00  0.79822558805E+03  0.22004348843E+04  0.20505486072E+04 0.  0.
        4    1    3    3  502    0 -0.51246606903E+03 -0.10188472292E+03  0.13457412386E+04  0.14436145825E+04  0.12699999809E+01 0. -1.
       -4    1    3    3    0  502  0.51246606903E+03  0.10188472292E+03 -0.54751565056E+03  0.75682030177E+03  0.12699999809E+01 0.  1.
</event>
<event>
 5   0  0.1886323E-04  0.2026045E+04  0.7818609E-02  0.8594540E-01
        2   -1    0    0  501    0  0.00000000000E+00  0.00000000000E+00  0.20597337220E+04  0.20597337220E+04  0.25500000920E-02 0. -1.
       -2   -1    0    0    0  501  0.00000000000E+00  0.00000000000E+00 -0.49822667100E+03  0.49822667101E+03  0.25500000920E-02 0.  1.
    10030    2    1    2    0    0  0.00000000000E+00  0.00000000000E+00  0.15615070510E+04  0.25579603930E+04  0.20260446939E+04 0.  0.
        2    1    3    3  502    0 -0.74282568145E+03  0.36740093661E+03  0.45178734286E+02  0.82994852809E+03  0.25500000920E-02 0.  1.
       -2    1    3    3    0  502  0.74282568145E+03 -0.36740093661E+03  0.15163283167E+04  0.17280118649E+04  0.25500000920E-02 0. -1.
</event>
<event>
 5   0  0.8237966E-05  0.2044177E+04  0.7818609E-02  0.8586240E-01
        1   -1    0    0  501    0  0.00000000000E+00  0.00000000000E+00  0.85607332168E+03  0.85607332169E+03  0.50400001928E-02 0.  1.
       -1   -1    0    0    0  501  0.00000000000E+00  0.00000000000E+00 -0.12202986927E+04  0.12202986927E+04  0.50400001928E-02 0. -1.
    10030    2    1    2    0    0  0.00000000000E+00  0.00000000000E+00 -0.36422537102E+03  0.20763720144E+04  0.20441772480E+04 0.  0.
        1    1    3    3  502    0 -0.88675834063E+03 -0.43633777129E+03  0.82634096130E+02  0.99174563231E+03  0.50400001928E-02 0.  1.
       -1    1    3    3    0  502  0.88675834063E+03  0.43633777129E+03 -0.44685946715E+03  0.10846263821E+04  0.50400001928E-02 0. -1.
</event>
<event>
 5   0  0.6441125E-05  0.1994579E+04  0.7818609E-02  0.8609159E-01
        3   -1    0    0  501    0  0.00000000000E+00  0.00000000000E+00  0.68060831868E+03  0.68060832618E+03  0.10100000352E+00 0. -1.
       -3   -1    0    0    0  501  0.00000000000E+00  0.00000000000E+00 -0.14613200484E+04  0.14613200519E+04  0.10100000352E+00 0.  1.
    10030    2    1    2    0    0  0.00000000000E+00  0.00000000000E+00 -0.78071172976E+03  0.21419283781E+04  0.19945792468E+04 0.  0.
        3    1    3    3  502    0 -0.85143820853E+02  0.73810526913E+03 -0.11047350596E+04  0.13313483469E+04  0.10100000352E+00 0.  1.
       -3    1    3    3    0  502  0.85143820853E+02 -0.73810526913E+03  0.32402332986E+03  0.81058003124E+03  0.10100000352E+00 0. -1.
</event>
<event>
 5   0  0.8237966E-05  0.1932774E+04  0.7818609E-02  0.8638713E-01
        1   -1    0    0  501    0  0.00000000000E+00  0.00000000000E+00  0.77497992640E+03  0.77497992642E+03  0.50400001928E-02 0.  1.
       -1   -1    0    0    0  501  0.00000000000E+00  0.00000000000E+00 -0.12050680012E+04  0.12050680012E+04  0.50400001928E-02 0. -1.
    10030    2    1    2    0    0  0.00000000000E+00  0.00000000000E+00 -0.43008807483E+03  0.19800479277E+04  0.19327736659E+04 0.  0.
        1    1    3    3  502    0  0.40588640911E+03 -0.86748543399E+02 -0.11091067553E+04  0.11842241687E+04  0.50400001928E-02 0. -1.
       -1    1    3    3    0  502 -0.40588640911E+03  0.86748543399E+02  0.67901868051E+03  0.79582375900E+03  0.50400001928E-02 0.  1.
</event>
<event>
 5   0  0.1921687E-04  0.1845100E+04  0.7818609E-02  0.8682677E-01
       -2   -1    0    0    0  501  0.00000000000E+00  0.00000000000E+00  0.51718676539E+03  0.51718676540E+03  0.25500000920E-02 0. -1.
        2   -1    0    0  501    0  0.00000000000E+00  0.00000000000E+00 -0.16456305557E+04  0.16456305557E+04  0.25500000920E-02 0.  1.
    10030    2    1    2    0    0  0.00000000000E+00  0.00000000000E+00 -0.11284437903E+04  0.21628173211E+04  0.18450998283E+04 0.  0.
        5    1    3    3  502    0  0.23635280212E+03  0.43009932356E+03  0.35146310444E+03  0.60365261449E+03  0.46999998093E+01 0. -1.
       -5    1    3    3    0  502 -0.23635280212E+03 -0.43009932356E+03 -0.14799068947E+04  0.15591647066E+04  0.46999998093E+01 0.  1.
</event>
<event>
 5   0  0.1815400E-04  0.2213171E+04  0.7818609E-02  0.8512966E-01
        2   -1    0    0  501    0  0.00000000000E+00  0.00000000000E+00  0.14304558789E+04  0.14304558789E+04  0.25500000920E-02 0.  1.
       -2   -1    0    0    0  501  0.00000000000E+00  0.00000000000E+00 -0.85604290779E+03  0.85604290779E+03  0.25500000920E-02 0. -1.
    10030    2    1    2    0    0  0.00000000000E+00  0.00000000000E+00  0.57441297110E+03  0.22864987867E+04  0.22131711276E+04 0.  0.
        3    1    3    3  502    0  0.44915489521E+03 -0.55965558638E+03 -0.58306704847E+03  0.92461975345E+03  0.10100000352E+00 0.  1.
       -3    1    3    3    0  502 -0.44915489521E+03  0.55965558638E+03  0.11574800196E+04  0.13618790332E+04  0.10100000352E+00 0. -1.
</event>
<event>
 5   0  0.1921687E-04  0.2093779E+04  0.7818609E-02  0.8563989E-01
       -2   -1    0    0    0  501  0.00000000000E+00  0.00000000000E+00  0.11247835003E+04  0.11247835003E+04  0.25500000920E-02 0.  1.
        2   -1    0    0  501    0  0.00000000000E+00  0.00000000000E+00 -0.97438963648E+03  0.97438963648E+03  0.25500000920E-02 0. -1.
    10030    2    1    2    0    0  0.00000000000E+00  0.00000000000E+00  0.15039386382E+03  0.20991731368E+04  0.20937787715E+04 0.  0.
        5    1    3    3  502    0 -0.55781935064E+03  0.66317191218E+02 -0.81047866475E+03  0.98613292908E+03  0.46999998093E+01 0. -1.
       -5    1    3    3    0  502  0.55781935064E+03 -0.66317191218E+02  0.96087252858E+03  0.11130402077E+04  0.46999998093E+01 0.  1.
</event>
<event>
 5   0  0.8271069E-05  0.2118840E+04  0.7818609E-02  0.8552989E-01
       -1   -1    0    0    0  501  0.00000000000E+00  0.00000000000E+00  0.61661576531E+03  0.61661576533E+03  0.50400001928E-02 0.  1.
        1   -1    0    0  501    0  0.00000000000E+00  0.00000000000E+00 -0.18202111917E+04  0.18202111917E+04  0.50400001928E-02 0. -1.
    10030    2    1    2    0    0  0.00000000000E+00  0.00000000000E+00 -0.12035954264E+04  0.24368269570E+04  0.21188401705E+04 0.  0.
        2    1    3    3  502    0  0.97722924774E+03 -0.26327312718E+03 -0.96197748789E+03  0.13963131559E+04  0.25500000920E-02 0. -1.
       -2    1    3    3    0  502 -0.97722924774E+03  0.26327312718E+03 -0.24161793851E+03  0.10405138011E+04  0.25500000920E-02 0.  1.
</event>
<event>
 5   0  0.1777590E-04  0.2061844E+04  0.7818609E-02  0.8578240E-01
       -2   -1    0    0    0  501  0.00000000000E+00  0.00000000000E+00  0.58259565611E+03  0.58259565611E+03  0.25500000920E-02 0. -1.
        2   -1    0    0  501    0  0.00000000000E+00  0.00000000000E+00 -0.18242506124E+04  0.18242506124E+04  0.25500000920E-02 0.  1.
    10030    2    1    2    0    0  0.00000000000E+00  0.00000000000E+00 -0.12416549563E+04  0.24068462685E+04  0.20618443030E+04 0.  0.
        4    1    3    3  502    0  0.89706943200E+03 -0.10815650880E+03 -0.12002350539E+04  0.15023305874E+04  0.12699999809E+01 0.  1.
       -4    1    3    3    0  502 -0.89706943200E+03  0.10815650880E+03 -0.41419902375E+02  0.90451568114E+03  0.12699999809E+01 0. -1.
</event>
<event>
 5   0  0.8237966E-05  0.2032479E+04  0.7818609E-02  0.8591585E-01
        1   -1    0    0  501    0  0.00000000000E+00  0.00000000000E+00  0.94576268370E+03  0.94576268372E+03  0.50400001928E-02 0. -1.
       -1   -1    0    0    0  501  0.00000000000E+00  0.00000000000E+00 -0.10919676718E+04  0.10919676718E+04  0.50400001928E-02 0.  1.
    10030    2    1    2    0    0  0.00000000000E+00  0.00000000000E+00 -0.14620498807E+03  0.20377303555E+04  0.20324785616E+04 0.  0.
        1    1    3    3  502    0 -0.79109359525E+03  0.61099242488E+03  0.11067815900E+03  0.10056791111E+04  0.50400001928E-02 0. -1.
       -1    1    3    3    0  502  0.79109359525E+03 -0.61099242488E+03 -0.25688314707E+03  0.10320512444E+04  0.50400001928E-02 0.  1.
</event>
<event>
 5   0  0.1815400E-04  0.2071929E+04  0.7818609E-02  0.8573711E-01
       -2   -1    0    0    0  501  0.00000000000E+00  0.00000000000E+00  0.80287462184E+03  0.80287462184E+03  0.25500000920E-02 0.  1.
        2   -1    0    0  501    0  0.00000000000E+00  0.00000000000E+00 -0.13367250821E+04  0.13367250821E+04  0.25500000920E-02 0. -1.
    10030    2    1    2    0    0  0.00000000000E+00  0.00000000000E+00 -0.53385046026E+03  0.21395997039E+04  0.20719291926E+04 0.  0.
        3    1    3    3  502    0 -0.30763965991E+03 -0.45478968193E+03  0.64025806352E+03  0.84344899860E+03  0.10100000352E+00 0.  1.
       -3    1    3    3    0  502  0.30763965991E+03  0.45478968193E+03 -0.11741085238E+04  0.12961507053E+04  0.10100000352E+00 0. -1.
</event>
<event>
 5   0  0.8237966E-05  0.2093922E+04  0.7818609E-02  0.8563925E-01
       -1   -1    0    0    0  501  0.00000000000E+00  0.00000000000E+00  0.81348825469E+03  0.81348825470E+03  0.50400001928E-02 0. -1.
        1   -1    0    0  501    0  0.00000000000E+00  0.00000000000E+00 -0.13474410927E+04  0.13474410927E+04  0.50400001928E-02 0.  1.
    10030    2    1    2    0    0  0.00000000000E+00  0.00000000000E+00 -0.53395283800E+03  0.21609293474E+04  0.20939221598E+04 0.  0.
        1    1    3    3  502    0 -0.41053791406E+03 -0.38573620588E+03  0.64375695234E+03  0.85542785384E+03  0.50400001928E-02 0. -1.
       -1    1    3    3    0  502  0.41053791406E+03  0.38573620588E+03 -0.11777097903E+04  0.13055014936E+04  0.50400001928E-02 0.  1.
</event>
<event>
 5   0  0.1921687E-04  0.2100834E+04  0.7818609E-02  0.8560876E-01
       -2   -1    0    0    0  501  0.00000000000E+00  0.00000000000E+00  0.13799817292E+04  0.13799817292E+04  0.25500000920E-02 0. -1.
        2   -1    0    0  501    0  0.00000000000E+00  0.00000000000E+00 -0.79955804090E+03  0.79955804090E+03  0.25500000920E-02 0.  1.
    10030    2    1    2    0    0  0.00000000000E+00  0.00000000000E+00  0.58042368834E+03  0.21795397701E+04  0.21008336325E+04 0.  0.
        5    1    3    3  502    0 -0.73670469173E+03 -0.28869412613E+03 -0.42652150870E+03  0.89889976564E+03  0.46999998093E+01 0.  1.
       -5    1    3    3    0  502  0.73670469173E+03  0.28869412613E+03  0.10069451970E+04  0.12806400045E+04  0.46999998093E+01 0. -1.
</event>
<event>
 5   0  0.8525278E-05  0.2116581E+04  0.7818609E-02  0.8553974E-01
       -1   -1    0    0    0  501  0.00000000000E+00  0.00000000000E+00  0.14576661327E+04  0.14576661327E+04  0.50400001928E-02 0. -1.
        1   -1    0    0  501    0  0.00000000000E+00  0.00000000000E+00 -0.76833664630E+03  0.76833664632E+03  0.50400001928E-02 0.  1.
    10030    2    1    2    0    0  0.00000000000E+00  0.00000000000E+00  0.68932948641E+03  0.22260027790E+04  0.21165805516E+04 0.  0.
        4    1    3    3  502    0  0.81581541708E+03 -0.59657135938E+03  0.14551421794E+02  0.10107747219E+04  0.12699999809E+01 0.  1.
       -4    1    3    3    0  502 -0.81581541708E+03  0.59657135938E+03  0.67477806461E+03  0.12152280572E+04  0.12699999809E+01 0. -1.
</event>
<event>
 5   0  0.1886323E-04  0.2150914E+04  0.7818609E-02  0.8539141E-01
        2   -1    0    0  501    0  0.00000000000E+00  0.00000000000E+00  0.19922993907E+04  0.19922993907E+04  0.25500000920E-02 0. -1.
       -2   -1    0    0    0  501  0.00000000000E+00  0.00000000000E+00 -0.58053901949E+03  0.58053901950E+03  0.25500000920E-02 0.  1.
    10030    2    1    2    0    0  0.00000000000E+00  0.00000000000E+00  0.14117603712E+04  0.25728384102E+04  0.21509137917E+04 0.  0.
        2    1    3    3  502    0  0.12651969730E+03  0.89539954459E+03  0.95749962030E+01  0.90434465709E+03  0.25500000920E-02 0.  1.
       -2    1    3    3    0  502 -0.12651969730E+03 -0.89539954459E+03  0.14021853750E+04  0.16684937531E+04  0.25500000920E-02 0. -1.
</event>
<event>
 5   0  0.1815400E-04  0.1446758E+04  0.7818609E-02  0.8920651E-01
       -2   -1    0    0    0  501  0.00000000000E+00  0.00000000000E+00  0.47947103563E+03  0.47947103564E+03  0.25500000920E-02 0.  1.
        2   -1    0    0  501    0  0.00000000000E+00  0.00000000000E+00 -0.10913628236E+04  0.10913628236E+04  0.25500000920E-02 0. -1.
    10030    2    1    2    0    0  0.00000000000E+00  0.00000000000E+00 -0.61189178793E+03  0.15708338592E+04  0.14467575654E+04 0.  0.
        3    1    3    3  502    0 -0.54960966990E+03  0.11003888981E+03 -0.80243407990E+03  0.97881551342E+03  0.10100000352E+00 0. -1.
       -3    1    3    3    0  502  0.54960966990E+03 -0.11003888981E+03  0.19054229197E+03  0.59201834579E+03  0.10100000352E+00 0.  1.
</event>
<event>
 5   0  0.8486612E-05  0.2127911E+04  0.7818609E-02  0.8549047E-01
        1   -1    0    0  501    0  0.00000000000E+00  0.00000000000E+00  0.19259587276E+04  0.19259587276E+04  0.50400001928E-02 0.  1.
       -1   -1    0    0    0  501  0.00000000000E+00  0.00000000000E+00 -0.58775997205E+03  0.58775997207E+03  0.50400001928E-02 0. -1.
    10030    2    1    2    0    0  0.00000000000E+00  0.00000000000E+00  0.13381987555E+04  0.25137186997E+04  0.21279111334E+04 0.  0.
        5    1    3    3  502    0 -0.29518004294E+03 -0.60808298255E+03 -0.30150408163E+03  0.74015064187E+03  0.46999998093E+01 0. -1.
       -5    1    3    3    0  502  0.29518004294E+03  0.60808298255E+03  0.16397028372E+04  0.17735680578E+04  0.46999998093E+01 0.  1.
</event>
<event>
 5   0  0.8271069E-05  0.2123386E+04  0.7818609E-02  0.8551011E-01
        1   -1    0    0  501    0  0.00000000000E+00  0.00000000000E+00  0.10746627455E+04  0.10746627455E+04  0.50400001928E-02 0. -1.
       -1   -1    0    0    0  501  0.00000000000E+00  0.00000000000E+00 -0.10488801063E+04  0.10488801063E+04  0.50400001928E-02 0.  1.
    10030    2    1    2    0    0  0.00000000000E+00  0.00000000000E+00  0.25782639202E+02  0.21235428518E+04  0.21233863282E+04 0.  0.
        2    1    3    3  502    0 -0.85513040015E+03  0.36844711363E+03 -0.49723558506E+03  0.10555778057E+04  0.25500000920E-02 0.  1.
       -2    1    3    3    0  502  0.85513040015E+03 -0.36844711363E+03  0.52301822426E+03  0.10679650461E+04  0.25500000920E-02 0. -1.
</event>
<event>
 5   0  0.1777590E-04  0.2079692E+04  0.7818609E-02  0.8570242E-01
       -2   -1    0    0    0  501  0.00000000000E+00  0.00000000000E+00  0.84154968496E+03  0.84154968496E+03  0.25500000920E-02 0.  1.
        2   -1    0    0  501    0  0.00000000000E+00  0.00000000000E+00 -0.12848671615E+04  0.12848671615E+04  0.25500000920E-02 0. -1.
    10030    2    1    2    0    0  0.00000000000E+00  0.00000000000E+00 -0.44331747655E+03  0.21264168465E+04  0.20796918570E+04 0.  0.
        4    1    3    3  502    0 -0.24648098289E+03  0.79826972102E+03  0.41135546076E+03  0.93123700013E+03  0.12699999809E+01 0.  1.
       -4    1    3    3    0  502  0.24648098289E+03 -0.79826972102E+03 -0.85467293731E+03  0.11951798463E+04  0.12699999809E+01 0. -1.
</event>
<event>
 5   0  0.1886323E-04  0.2123021E+04  0.7818609E-02  0.8551170E-01
       -2   -1    0    0    0  501  0.00000000000E+00  0.00000000000E+00  0.98157144992E+03  0.98157144992E+03  0.25500000920E-02 0.  1.
        2   -1    0    0  501    0  0.00000000000E+00  0.00000000000E+00 -0.11479597107E+04  0.11479597107E+04  0.25500000920E-02 0. -1.
    10030    2    1    2    0    0  0.00000000000E+00  0.00000000000E+00 -0.16638826082E+03  0.21295311607E+04  0.21230209398E+04 0.  0.
        2    1    3    3  502    0  0.42255797503E+03 -0.54429720979E+03 -0.89312903709E+03  0.11280488339E+04  0.25500000920E-02 0. -1.
       -2    1    3    3    0  502 -0.42255797503E+03  0.54429720979E+03  0.72674077627E+03  0.10014823267E+04  0.25500000920E-02 0.  1.
</event>
<event>
 5   0  0.8271069E-05  0.2068492E+04  0.7818609E-02  0.8575251E-01
        1   -1    0    0  501    0  0.00000000000E+00  0.00000000000E+00  0.13220767234E+04  0.13220767234E+04  0.50400001928E-02 0. -1.
       -1   -1    0    0    0  501  0.00000000000E+00  0.00000000000E+00 -0.80907897548E+03  0.80907897549E+03  0.50400001928E-02 0.  1.
    10030    2    1    2    0    0  0.00000000000E+00  0.00000000000E+00  0.51299774796E+03  0.21311556989E+04  0.20684917026E+04 0.  0.
        2    1    3    3  502    0  0.60999876959E+03  0.78022923086E+03  0.56353412966E+03  0.11394853518E+04  0.25500000920E-02 0. -1.
       -2    1    3    3    0  502 -0.60999876959E+03 -0.78022923086E+03 -0.50536381704E+02  0.99167034718E+03  0.25500000920E-02 0.  1.
</event>
<event>
 5   0  0.1777590E-04  0.2076591E+04  0.7818609E-02  0.8571626E-01
       -2   -1    0    0    0  501  0.00000000000E+00  0.00000000000E+00  0.62392893238E+03  0.62392893238E+03  0.25500000920E-02 0. -1.
        2   -1    0    0  501    0  0.00000000000E+00  0.00000000000E+00 -0.17278537849E+04  0.17278537849E+04  0.25500000920E-02 0.  1.
    10030    2    1    2    0    0  0.00000000000E+00  0.00000000000E+00 -0.11039248526E+04  0.23517827173E+04  0.20765914065E+04 0.  0.
        4    1    3    3  502    0  0.30472225608E+02  0.75144878882E+02 -0.17242614097E+04  0.17261675270E+04  0.12699999809E+01 0.  1.
       -4    1    3    3    0  502 -0.30472225608E+02 -0.75144878882E+02  0.62033655714E+03  0.62561519033E+03  0.12699999809E+01 0. -1.
</event>
<event>
 5   0  0.1921687E-04  0.2101417E+04  0.7818609E-02  0.8560619E-01
       -2   -1    0    0    0  501  0.00000000000E+00  0.00000000000E+00  0.11974989098E+04  0.11974989098E+04  0.25500000920E-02 0.  1.
        2   -1    0    0  501    0  0.00000000000E+00  0.00000000000E+00 -0.92191166527E+03  0.92191166528E+03  0.25500000920E-02 0. -1.
    10030    2    1    2    0    0  0.00000000000E+00  0.00000000000E+00  0.27558724456E+03  0.21194105751E+04  0.21014168688E+04 0.  0.
        5    1    3    3  502    0  0.42757101770E+03  0.84214417753E+03  0.60210757910E+03  0.11200800943E+04  0.46999998093E+01 0.  1.
       -5    1    3    3    0  502 -0.42757101770E+03 -0.84214417753E+03 -0.32652033455E+03  0.99933048077E+03  0.46999998093E+01 0. -1.
</event>
<event>
 5   0  0.1777590E-04  0.2130148E+04  0.7818609E-02  0.8548078E-01
       -2   -1    0    0    0  501  0.00000000000E+00  0.00000000000E+00  0.83142806837E+03  0.83142806838E+03  0.25500000920E-02 0.  1.
        2   -1    0    0  501    0  0.00000000000E+00  0.00000000000E+00 -0.13643785836E+04  0.13643785836E+04  0.25500000920E-02 0. -1.
    10030    2    1    2    0    0  0.00000000000E+00  0.00000000000E+00 -0.53295051519E+03  0.21958066519E+04  0.21301480233E+04 0.  0.
        4    1    3    3  502    0 -0.54799762699E+03  0.88115938570E+03 -0.18996505624E+02  0.10378370500E+04  0.12699999809E+01 0. -1.
       -4    1    3    3    0  502  0.54799762699E+03 -0.88115938570E+03 -0.51395400956E+03  0.11579696020E+04  0.12699999809E+01 0.  1.
</event>
<event>
 5   0  0.1886323E-04  0.2049913E+04  0.7818609E-02  0.8583634E-01
       -2   -1    0    0    0  501  0.00000000000E+00  0.00000000000E+00  0.74431735021E+03  0.74431735022E+03  0.25500000920E-02 0. -1.
        2   -1    0    0  501    0  0.00000000000E+00  0.00000000000E+00 -0.14114090662E+04  0.14114090662E+04  0.25500000920E-02 0.  1.
    10030    2    1    2    0    0  0.00000000000E+00  0.00000000000E+00 -0.66709171598E+03  0.21557264164E+04  0.20499134189E+04 0.  0.
        2    1    3    3  502    0  0.68348840978E+03  0.54837803106E+03 -0.89264827089E+03  0.12508780143E+04  0.25500000920E-02 0.  1.
       -2    1    3    3    0  502 -0.68348840978E+03 -0.54837803106E+03  0.22555655491E+03  0.90484840206E+03  0.25500000920E-02 0. -1.
</event>
<event>
 5   0  0.6441125E-05  0.2101118E+04  0.7818609E-02  0.8560751E-01
        4   -1    0    0  501    0  0.00000000000E+00  0.00000000000E+00  0.12320915508E+04  0.12320922054E+04  0.12699999809E+01 0.  1.
       -4   -1    0    0    0  501  0.00000000000E+00  0.00000000000E+00 -0.89577134314E+03  0.89577224343E+03  0.12699999809E+01 0. -1.
    10030    2    1    2    0    0  0.00000000000E+00  0.00000000000E+00  0.33632020768E+03  0.21278644488E+04  0.21011177574E+04 0.  0.
        4    1    3    3  502    0 -0.92341490923E+03  0.44393159957E+02  0.67351782470E+03  0.11438066796E+04  0.12699999809E+01 0.  1.
       -4    1    3    3    0  502  0.92341490923E+03 -0.44393159957E+02 -0.33719761702E+03  0.98405776917E+03  0.12699999809E+01 0. -1.
</event>
<event>
 5   0  0.8237966E-05  0.2094879E+04  0.7818609E-02  0.8563502E-01
       -1   -1    0    0    0  501  0.00000000000E+00  0.00000000000E+00  0.92098538910E+03  0.92098538911E+03  0.50400001928E-02 0.  1.
        1   -1    0    0  501    0  0.00000000000E+00  0.00000000000E+00 -0.11912564492E+04  0.11912564492E+04  0.50400001928E-02 0. -1.
    10030    2    1    2    0    0  0.00000000000E+00  0.00000000000E+00 -0.27027106014E+03  0.21122418384E+04  0.20948792657E+04 0.  0.
        1    1    3    3  502    0 -0.41329673188E+03 -0.18555340625E+03 -0.10873597008E+04  0.11779623823E+04  0.50400001928E-02 0. -1.
       -1    1    3    3    0  502  0.41329673188E+03  0.18555340625E+03  0.81708864070E+03  0.93427945602E+03  0.50400001928E-02 0.  1.
</event>
<event>
 5   0  0.1815400E-04  0.2056458E+04  0.7818609E-02  0.8580670E-01
        2   -1    0    0  501    0  0.00000000000E+00  0.00000000000E+00  0.11636987754E+04  0.11636987754E+04  0.25500000920E-02 0. -1.
       -2   -1    0    0    0  501  0.00000000000E+00  0.00000000000E+00 -0.90853005012E+03  0.90853005012E+03  0.25500000920E-02 0.  1.
    10030    2    1    2    0    0  0.00000000000E+00  0.00000000000E+00  0.25516872531E+03  0.20722288255E+04  0.20564584185E+04 0.  0.
        3    1    3    3  502    0  0.32652160633E+03  0.93555406851E+03  0.40423947902E+03  0.10701809852E+04  0.10100000352E+00 0. -1.
       -3    1    3    3    0  502 -0.32652160633E+03 -0.93555406851E+03 -0.14907075372E+03  0.10020478403E+04  0.10100000352E+00 0.  1.
</event>
<event>
 5   0  0.8237966E-05  0.1555401E+04  0.7818609E-02  0.8848425E-01
        1   -1    0    0  501    0  0.00000000000E+00  0.00000000000E+00  0.15362792038E+04  0.15362792038E+04  0.50400001928E-02 0.  1.
       -1   -1    0    0    0  501  0.00000000000E+00  0.00000000000E+00 -0.39369018360E+03  0.39369018363E+03  0.50400001928E-02 0. -1.
    10030    2    1    2    0    0  0.00000000000E+00  0.00000000000E+00  0.11425890202E+04  0.19299693875E+04  0.15554009668E+04 0.  0.
        1    1    3    3  502    0  0.30993415533E+03  0.58403221112E+03  0.63217469434E+02  0.66419067498E+03  0.50400001928E-02 0. -1.
       -1    1    3    3    0  502 -0.30993415533E+03 -0.58403221112E+03  0.10793715508E+04  0.12657787125E+04  0.50400001928E-02 0.  1.
</event>
<event>
 5   0  0.1886323E-04  0.2003169E+04  0.7818609E-02  0.8605140E-01
       -2   -1    0    0    0  501  0.00000000000E+00  0.00000000000E+00  0.65898566719E+03  0.65898566720E+03  0.25500000920E-02 0. -1.
        2   -1    0    0  501    0  0.00000000000E+00  0.00000000000E+00 -0.15222967442E+04  0.15222967442E+04  0.25500000920E-02 0.  1.
    10030    2    1    2    0    0  0.00000000000E+00  0.00000000000E+00 -0.86331107702E+03  0.21812824114E+04  0.20031692247E+04 0.  0.
        2    1    3    3  502    0  0.53168532143E+03  0.57459284673E+03 -0.11119669077E+04  0.13598958138E+04  0.25500000920E-02 0.  1.
       -2    1    3    3    0  502 -0.53168532143E+03 -0.57459284673E+03  0.24865583073E+03  0.82138659759E+03  0.25500000920E-02 0. -1.
</event>
<event>
 5   0  0.1921687E-04  0.2089593E+04  0.7818609E-02  0.8565842E-01
        2   -1    0    0  501    0  0.00000000000E+00  0.00000000000E+00  0.16030469559E+04  0.16030469559E+04  0.25500000920E-02 0. -1.
       -2   -1    0    0    0  501  0.00000000000E+00  0.00000000000E+00 -0.68095274207E+03  0.68095274208E+03  0.25500000920E-02 0.  1.
    10030    2    1    2    0    0  0.00000000000E+00  0.00000000000E+00  0.92209421386E+03  0.22839996980E+04  0.20895925156E+04 0.  0.
        5    1    3    3  502    0 -0.45078365068E+03 -0.62799299884E+03 -0.30719156454E+03  0.83184725378E+03  0.46999998093E+01 0.  1.
       -5    1    3    3    0  502  0.45078365068E+03  0.62799299884E+03  0.12292857784E+04  0.14521524442E+04  0.46999998093E+01 0. -1.
</event>
<event>
 5   0  0.8755004E-05  0.2123211E+04  0.7818609E-02  0.8551087E-01
        1   -1    0    0  501    0  0.00000000000E+00  0.00000000000E+00  0.72907830535E+03  0.72907830537E+03  0.50400001928E-02 0. -1.
       -1   -1    0    0    0  501  0.00000000000E+00  0.00000000000E+00 -0.15457963584E+04  0.15457963584E+04  0.50400001928E-02 0.  1.
    10030    2    1    2    0    0  0.00000000000E+00  0.00000000000E+00 -0.81671805300E+03  0.22748746637E+04  0.21232113314E+04 0.  0.
        3    1    3    3  502    0 -0.96607394080E+03  0.43710628393E+03 -0.46347076668E+03  0.11572233684E+04  0.10100000352E+00 0. -1.
       -3    1    3    3    0  502  0.96607394080E+03 -0.43710628393E+03 -0.35324728633E+03  0.11176512954E+04  0.10100000352E+00 0.  1.
</event>
<event>
 5   0  0.8237966E-05  0.2159189E+04  0.7818609E-02  0.8535609E-01
        1   -1    0    0  501    0  0.00000000000E+00  0.00000000000E+00  0.14887195667E+04  0.14887195667E+04  0.50400001928E-02 0.  1.
       -1   -1    0    0    0  501  0.00000000000E+00  0.00000000000E+00 -0.78290384349E+03  0.78290384351E+03  0.50400001928E-02 0. -1.
    10030    2    1    2    0    0  0.00000000000E+00  0.00000000000E+00  0.70581572316E+03  0.22716234102E+04  0.21591889872E+04 0.  0.
        1    1    3    3  502    0  0.82725354945E+03  0.20114884752E+02 -0.37657469805E+03  0.90915430313E+03  0.50400001928E-02 0. -1.
       -1    1    3    3    0  502 -0.82725354945E+03 -0.20114884752E+02  0.10823904212E+04  0.13624691070E+04  0.50400001928E-02 0.  1.
</event>
<event>
 5   0  0.8486612E-05  0.2213022E+04  0.7818609E-02  0.8513027E-01
        1   -1    0    0  501    0  0.00000000000E+00  0.00000000000E+00  0.13460671507E+04  0.13460671507E+04  0.50400001928E-02 0.  1.
       -1   -1    0    0    0  501  0.00000000000E+00  0.00000000000E+00 -0.90958823657E+03  0.90958823658E+03  0.50400001928E-02 0. -1.
    10030    2    1    2    0    0  0.00000000000E+00  0.00000000000E+00  0.43647891410E+03  0.22556553873E+04  0.22130222284E+04 0.  0.
        5    1    3    3  502    0 -0.50495039505E+03  0.92375385937E+03  0.56546130345E+03  0.11950165982E+04  0.46999998093E+01 0. -1.
       -5    1    3    3    0  502  0.50495039505E+03 -0.92375385937E+03 -0.12898238936E+03  0.10606387891E+04  0.46999998093E+01 0.  1.
</event>
<event>
 5   0  0.6441125E-05  0.1797375E+04  0.7818609E-02  0.8707696E-01
        3   -1    0    0  501    0  0.00000000000E+00  0.00000000000E+00  0.81076276837E+03  0.81076277466E+03  0.10100000352E+00 0.  1.
       -3   -1    0    0    0  501  0.00000000000E+00  0.00000000000E+00 -0.99614777616E+03  0.99614778128E+03  0.10100000352E+00 0. -1.
    10030    2    1    2    0    0  0.00000000000E+00  0.00000000000E+00 -0.18538500779E+03  0.18069105559E+04  0.17973753520E+04 0.  0.
        1    1    3    3  502    0  0.54674356922E+03 -0.32310852258E+03  0.54653599720E+03  0.83787185423E+03  0.50400001928E-02 0.  1.
       -1    1    3    3    0  502 -0.54674356922E+03  0.32310852258E+03 -0.73192100499E+03  0.96903870172E+03  0.50400001928E-02 0. -1.
</event>
<event>
 5   0  0.8755004E-05  0.1992779E+04  0.7818609E-02  0.8610004E-01
        1   -1    0    0  501    0  0.00000000000E+00  0.00000000000E+00  0.94261165508E+03  0.94261165509E+03  0.50400001928E-02 0. -1.
       -1   -1    0    0    0  501  0.00000000000E+00  0.00000000000E+00 -0.10532355561E+04  0.10532355561E+04  0.50400001928E-02 0.  1.
    10030    2    1    2    0    0  0.00000000000E+00  0.00000000000E+00 -0.11062390098E+03  0.19958472112E+04  0.19927790753E+04 0.  0.
        3    1    3    3  502    0  0.70612828936E+03  0.54011784867E+03  0.39532262045E+03  0.97294626570E+03  0.10100000352E+00 0. -1.
       -3    1    3    3    0  502 -0.70612828936E+03 -0.54011784867E+03 -0.50594652143E+03  0.10229009455E+04  0.10100000352E+00 0.  1.
</event>
<event>
 5   0  0.1921687E-04  0.2100800E+04  0.7818609E-02  0.8560891E-01
       -2   -1    0    0    0  501  0.00000000000E+00  0.00000000000E+00  0.18520044471E+04  0.18520044471E+04  0.25500000920E-02 0.  1.
        2   -1    0    0  501    0  0.00000000000E+00  0.00000000000E+00 -0.59575477942E+03  0.59575477943E+03  0.25500000920E-02 0. -1.
    10030    2    1    2    0    0  0.00000000000E+00  0.00000000000E+00  0.12562496677E+04  0.24477592265E+04  0.21008003245E+04 0.  0.
        5    1    3    3  502    0  0.37261350299E+03  0.82336353887E+03  0.12518369501E+04  0.15439838663E+04  0.46999998093E+01 0.  1.
       -5    1    3    3    0  502 -0.37261350299E+03 -0.82336353887E+03  0.44127176201E+01  0.90377536027E+03  0.46999998093E+01 0. -1.
</event>
<event>
 5   0  0.6441125E-05  0.2106697E+04  0.7818609E-02  0.8558299E-01
        3   -1    0    0  501    0  0.00000000000E+00  0.00000000000E+00  0.13860023596E+04  0.13860023632E+04  0.10100000352E+00 0.  1.
       -3   -1    0    0    0  501  0.00000000000E+00  0.00000000000E+00 -0.80053504242E+03  0.80053504880E+03  0.10100000352E+00 0. -1.
    10030    2    1    2    0    0  0.00000000000E+00  0.00000000000E+00  0.58546731714E+03  0.21865374120E+04  0.21066973857E+04 0.  0.
        1    1    3    3  502    0 -0.44755858309E+03  0.70725522422E+03 -0.37105464159E+03  0.91553273265E+03  0.50400001928E-02 0. -1.
       -1    1    3    3    0  502  0.44755858309E+03 -0.70725522422E+03  0.95652195873E+03  0.12710046794E+04  0.50400001928E-02 0.  1.
</event>
<event>
 5   0  0.1921687E-04  0.2135302E+04  0.7818609E-02  0.8545850E-01
       -2   -1    0    0    0  501  0.00000000000E+00  0.00000000000E+00  0.20385492397E+04  0.20385492397E+04  0.25500000920E-02 0.  1.
        2   -1    0    0  501    0  0.00000000000E+00  0.00000000000E+00 -0.55916167849E+03  0.55916167850E+03  0.25500000920E-02 0. -1.
    10030    2    1    2    0    0  0.00000000000E+00  0.00000000000E+00  0.14793875612E+04  0.25977109182E+04  0.21353019595E+04 0.  0.
        5    1    3    3  502    0  0.60393091462E+03  0.69010078300E+03  0.14047884957E+04  0.16776246446E+04  0.46999998093E+01 0.  1.
       -5    1    3    3    0  502 -0.60393091462E+03 -0.69010078300E+03  0.74599065461E+02  0.92008627362E+03  0.46999998093E+01 0. -1.
</event>
<event>
 5   0  0.8237966E-05  0.1661321E+04  0.7818609E-02  0.8783737E-01
        1   -1    0    0  501    0  0.00000000000E+00  0.00000000000E+00  0.11753766902E+04  0.11753766902E+04  0.50400001928E-02 0. -1.
       -1   -1    0    0    0  501  0.00000000000E+00  0.00000000000E+00 -0.58704298981E+03  0.58704298983E+03  0.50400001928E-02 0.  1.
    10030    2    1    2    0    0  0.00000000000E+00  0.00000000000E+00  0.58833370035E+03  0.17624196800E+04  0.16613207353E+04 0.  0.
        1    1    3    3  502    0  0.24703613567E+03 -0.57911047765E+03 -0.28065663222E+03  0.68932136401E+03  0.50400001928E-02 0.  1.
       -1    1    3    3    0  502 -0.24703613567E+03  0.57911047765E+03  0.86899033257E+03  0.10730983160E+04  0.50400001928E-02 0. -1.
</event>
<event>
 5   0  0.8486612E-05  0.1655115E+04  0.7818609E-02  0.8787387E-01
       -1   -1    0    0    0  501  0.00000000000E+00  0.00000000000E+00  0.58700905735E+03  0.58700905738E+03  0.50400001928E-02 0.  1.
        1   -1    0    0  501    0  0.00000000000E+00  0.00000000000E+00 -0.11666787812E+04  0.11666787812E+04  0.50400001928E-02 0. -1.
    10030    2    1    2    0    0  0.00000000000E+00  0.00000000000E+00 -0.57966972388E+03  0.17536878386E+04  0.16551145116E+04 0.  0.
        5    1    3    3  502    0 -0.97668459416E+02  0.31612499368E+03  0.51386169413E+03  0.61118742647E+03  0.46999998093E+01 0.  1.
       -5    1    3    3    0  502  0.97668459416E+02 -0.31612499368E+03 -0.10935314180E+04  0.11425004121E+04  0.46999998093E+01 0. -1.
</event>
<event>
 5   0  0.1815400E-04  0.2095211E+04  0.7818609E-02  0.8563356E-01
       -2   -1    0    0    0  501  0.00000000000E+00  0.00000000000E+00  0.84505561460E+03  0.84505561460E+03  0.25500000920E-02 0. -1.
        2   -1    0    0  501    0  0.00000000000E+00  0.00000000000E+00 -0.12987046309E+04  0.12987046309E+04  0.25500000920E-02 0.  1.
    10030    2    1    2    0    0  0.00000000000E+00  0.00000000000E+00 -0.45364901626E+03  0.21437602455E+04  0.20952113402E+04 0.  0.
        3    1    3    3  502    0 -0.29091066515E+03  0.98158026313E+03  0.46881747333E+00  0.10237817434E+04  0.10100000352E+00 0. -1.
       -3    1    3    3    0  502  0.29091066515E+03 -0.98158026313E+03 -0.45411783373E+03  0.11199785021E+04  0.10100000352E+00 0.  1.
</event>
<event>
 5   0  0.1921687E-04  0.2343424E+04  0.7818609E-02  0.8460994E-01
        2   -1    0    0  501    0  0.00000000000E+00  0.00000000000E+00  0.14366288663E+04  0.14366288663E+04  0.25500000920E-02 0. -1.
       -2   -1    0    0    0  501  0.00000000000E+00  0.00000000000E+00 -0.95564605716E+03  0.95564605716E+03  0.25500000920E-02 0.  1.
    10030    2    1    2    0    0  0.00000000000E+00  0.00000000000E+00  0.48098280917E+03  0.23922749235E+04  0.23434237446E+04 0.  0.
        5    1    3    3  502    0 -0.73642316333E+02  0.16292516105E+03  0.14226112420E+04  0.14338105296E+04  0.46999998093E+01 0. -1.
       -5    1    3    3    0  502  0.73642316333E+02 -0.16292516105E+03 -0.94162843284E+03  0.95846439391E+03  0.46999998093E+01 0.  1.
</event>
<event>
 5   0  0.6441125E-05  0.2110579E+04  0.7818609E-02  0.8556597E-01
        3   -1    0    0  501    0  0.00000000000E+00  0.00000000000E+00  0.20925910046E+04  0.20925910070E+04  0.10100000352E+00 0. -1.
       -3   -1    0    0    0  501  0.00000000000E+00  0.00000000000E+00 -0.53218059880E+03  0.53218060838E+03  0.10100000352E+00 0.  1.
    10030    2    1    2    0    0  0.00000000000E+00  0.00000000000E+00  0.15604104058E+04  0.26247716154E+04  0.21105793988E+04 0.  0.
        3    1    3    3  502    0  0.26533453803E+03 -0.89354386044E+03  0.13955341171E+04  0.16781950214E+04  0.10100000352E+00 0. -1.
       -3    1    3    3    0  502 -0.26533453803E+03  0.89354386044E+03  0.16487628870E+03  0.94657659403E+03  0.10100000352E+00 0.  1.
</event>
<event>
 5   0  0.1777590E-04  0.2114224E+04  0.7818609E-02  0.8555003E-01
        2   -1    0    0  501    0  0.00000000000E+00  0.00000000000E+00  0.14222173245E+04  0.14222173245E+04  0.25500000920E-02 0.  1.
       -2   -1    0    0    0  501  0.00000000000E+00  0.00000000000E+00 -0.78573511320E+03  0.78573511321E+03  0.25500000920E-02 0. -1.
    10030    2    1    2    0    0  0.00000000000E+00  0.00000000000E+00  0.63648221133E+03  0.22079524377E+04  0.21142242932E+04 0.  0.
        4    1    3    3  502    0 -0.10150729487E+04  0.21541433264E+03  0.10753417816E+03  0.10432361373E+04  0.12699999809E+01 0.  1.
       -4    1    3    3    0  502  0.10150729487E+04 -0.21541433264E+03  0.52894803317E+03  0.11647163004E+04  0.12699999809E+01 0. -1.
</event>
<event>
 5   0  0.8755004E-05  0.2075332E+04  0.7818609E-02  0.8572188E-01
        1   -1    0    0  501    0  0.00000000000E+00  0.00000000000E+00  0.12480842200E+04  0.12480842200E+04  0.50400001928E-02 0. -1.
       -1   -1    0    0    0  501  0.00000000000E+00  0.00000000000E+00 -0.86272267773E+03  0.86272267775E+03  0.50400001928E-02 0.  1.
    10030    2    1    2    0    0  0.00000000000E+00  0.00000000000E+00  0.38536154223E+03  0.21108068977E+04  0.20753318388E+04 0.  0.
        3    1    3    3  502    0  0.61776475074E+03 -0.48723067051E+02  0.10392200831E+04  0.12099527329E+04  0.10100000352E+00 0. -1.
       -3    1    3    3    0  502 -0.61776475074E+03  0.48723067051E+02 -0.65385854091E+03  0.90085416480E+03  0.10100000352E+00 0.  1.
</event>
<event>
 5   0  0.8525278E-05  0.2085469E+04  0.7818609E-02  0.8567672E-01
        1   -1    0    0  501    0  0.00000000000E+00  0.00000000000E+00  0.12426050336E+04  0.12426050336E+04  0.50400001928E-02 0. -1.
       -1   -1    0    0    0  501  0.00000000000E+00  0.00000000000E+00 -0.87501275397E+03  0.87501275399E+03  0.50400001928E-02 0.  1.
    10030    2    1    2    0    0  0.00000000000E+00  0.00000000000E+00  0.36759227958E+03  0.21176177876E+04  0.20854690144E+04 0.  0.
        4    1    3    3  502    0 -0.10035217564E+04 -0.25948247104E+03  0.68437725936E+02  0.10387840987E+04  0.12699999809E+01 0. -1.
       -4    1    3    3    0  502  0.10035217564E+04  0.25948247104E+03  0.29915455365E+03  0.10788336889E+04  0.12699999809E+01 0.  1.
</event>
<event>
 5   0  0.8525278E-05  0.2126736E+04  0.7818609E-02  0.8549557E-01
       -1   -1    0    0    0  501  0.00000000000E+00  0.00000000000E+00  0.58666938548E+03  0.58666938550E+03  0.50400001928E-02 0.  1.
        1   -1    0    0  501    0  0.00000000000E+00  0.00000000000E+00 -0.19274077804E+04  0.19274077804E+04  0.50400001928E-02 0. -1.
    10030    2    1    2    0    0  0.00000000000E+00  0.00000000000E+00 -0.13407383950E+04  0.25140771659E+04  0.21267356565E+04 0.  0.
        4    1    3    3  502    0 -0.55847091998E+02 -0.64098531576E+03  0.33044747658E+03  0.72331059745E+03  0.12699999809E+01 0.  1.
       -4    1    3    3    0  502  0.55847091998E+02  0.64098531576E+03 -0.16711858715E+04  0.17907665685E+04  0.12699999809E+01 0. -1.
</event>
<event>
 5   0  0.8525278E-05  0.2086612E+04  0.7818609E-02  0.8567164E-01
        1   -1    0    0  501    0  0.00000000000E+00  0.00000000000E+00  0.14335339453E+04  0.14335339453E+04  0.50400001928E-02 0. -1.
       -1   -1    0    0    0  501  0.00000000000E+00  0.00000000000E+00 -0.75930381881E+03  0.75930381882E+03  0.50400001928E-02 0.  1.
    10030    2    1    2    0    0  0.00000000000E+00  0.00000000000E+00  0.67423012644E+03  0.21928377641E+04  0.20866123732E+04 0.  0.
        4    1    3    3  502    0  0.37239651295E+03  0.11921185796E+03  0.13536183768E+04  0.14089623674E+04  0.12699999809E+01 0. -1.
       -4    1    3    3    0  502 -0.37239651295E+03 -0.11921185796E+03 -0.67938825033E+03  0.78387539668E+03  0.12699999809E+01 0.  1.
</event>
<event>
 5   0  0.8237966E-05  0.2027870E+04  0.7818609E-02  0.8593700E-01
       -1   -1    0    0    0  501  0.00000000000E+00  0.00000000000E+00  0.43688694095E+03  0.43688694098E+03  0.50400001928E-02 0. -1.
        1   -1    0    0  501    0  0.00000000000E+00  0.00000000000E+00 -0.23531573882E+04  0.23531573882E+04  0.50400001928E-02 0.  1.
    10030    2    1    2    0    0  0.00000000000E+00  0.00000000000E+00 -0.19162704472E+04  0.27900443292E+04  0.20278695549E+04 0.  0.
        1    1    3    3  502    0  0.19444245434E+02  0.10069980132E+04 -0.79744527465E+03  0.12846563911E+04  0.50400001928E-02 0.  1.
       -1    1    3    3    0  502 -0.19444245434E+02 -0.10069980132E+04 -0.11188251726E+04  0.15053879380E+04  0.50400001928E-02 0. -1.
</event>
<event>
 5   0  0.8486612E-05  0.2139067E+04  0.7818609E-02  0.8544227E-01
        1   -1    0    0  501    0  0.00000000000E+00  0.00000000000E+00  0.21231276459E+04  0.21231276459E+04  0.50400001928E-02 0. -1.
       -1   -1    0    0    0  501  0.00000000000E+00  0.00000000000E+00 -0.53878161386E+03  0.53878161388E+03  0.50400001928E-02 0.  1.
    10030    2    1    2    0    0  0.00000000000E+00  0.00000000000E+00  0.15843460321E+04  0.26619092598E+04  0.21390672168E+04 0.  0.
        5    1    3    3  502    0 -0.55397778136E+03 -0.78567615155E+03  0.13754642862E+04  0.16781246944E+04  0.46999998093E+01 0.  1.
       -5    1    3    3    0  502  0.55397778136E+03  0.78567615155E+03  0.20888174583E+03  0.98378456538E+03  0.46999998093E+01 0. -1.
</event>
<event>
 5   0  0.1777590E-04  0.2117763E+04  0.7818609E-02  0.8553459E-01
       -2   -1    0    0    0  501  0.00000000000E+00  0.00000000000E+00  0.81326392443E+03  0.81326392444E+03  0.25500000920E-02 0. -1.
        2   -1    0    0  501    0  0.00000000000E+00  0.00000000000E+00 -0.13786795138E+04  0.13786795138E+04  0.25500000920E-02 0.  1.
    10030    2    1    2    0    0  0.00000000000E+00  0.00000000000E+00 -0.56541558942E+03  0.21919434383E+04  0.21177632653E+04 0.  0.
        4    1    3    3  502    0  0.29515487135E+03  0.54501776750E+02  0.76831259357E+03  0.82485919774E+03  0.12699999809E+01 0. -1.
       -4    1    3    3    0  502 -0.29515487135E+03 -0.54501776750E+02 -0.13337281830E+04  0.13670842405E+04  0.12699999809E+01 0.  1.
</event>
<event>
 5   0  0.8486612E-05  0.2025937E+04  0.7818609E-02  0.8594590E-01
        1   -1    0    0  501    0  0.00000000000E+00  0.00000000000E+00  0.10657284108E+04  0.10657284108E+04  0.50400001928E-02 0.  1.
       -1   -1    0    0    0  501  0.00000000000E+00  0.00000000000E+00 -0.96282015466E+03  0.96282015467E+03  0.50400001928E-02 0. -1.
    10030    2    1    2    0    0  0.00000000000E+00  0.00000000000E+00  0.10290825614E+03  0.20285485655E+04  0.20259366163E+04 0.  0.
        5    1    3    3  502    0 -0.52462822802E+01  0.50340455063E+03  0.93158626600E+03  0.10589233806E+04  0.46999998093E+01 0.  1.
       -5    1    3    3    0  502  0.52462822802E+01 -0.50340455063E+03 -0.82867800986E+03  0.96962518484E+03  0.46999998093E+01 0. -1.
</event>
<event>
 5   0  0.1777590E-04  0.1529262E+04  0.7818609E-02  0.8865224E-01
       -2   -1    0    0    0  501  0.00000000000E+00  0.00000000000E+00  0.15717407404E+04  0.15717407404E+04  0.25500000920E-02 0.  1.
        2   -1    0    0  501    0  0.00000000000E+00  0.00000000000E+00 -0.37198293094E+03  0.37198293095E+03  0.25500000920E-02 0. -1.
    10030    2    1    2    0    0  0.00000000000E+00  0.00000000000E+00  0.11997578095E+04  0.19437236714E+04  0.15292622108E+04 0.  0.
        4    1    3    3  502    0 -0.77071840258E+01 -0.33364070052E+02  0.15707643544E+04  0.15711380690E+04  0.12699999809E+01 0.  1.
       -4    1    3    3    0  502  0.77071840258E+01  0.33364070052E+02 -0.37100654491E+03  0.37258560241E+03  0.12699999809E+01 0. -1.
</event>
<event>
 5   0  0.8237966E-05  0.2154476E+04  0.7818609E-02  0.8537619E-01
       -1   -1    0    0    0  501  0.00000000000E+00  0.00000000000E+00  0.61081977956E+03  0.61081977958E+03  0.50400001928E-02 0.  1.
        1   -1    0    0  501    0  0.00000000000E+00  0.00000000000E+00 -0.18998108668E+04  0.18998108668E+04  0.50400001928E-02 0. -1.
    10030    2    1    2    0    0  0.00000000000E+00  0.00000000000E+00 -0.12889910872E+04  0.25106306464E+04  0.21544763214E+04 0.  0.
        1    1    3    3  502    0 -0.16272058836E+03  0.49313054365E+03  0.45534030895E+03  0.69064500283E+03  0.50400001928E-02 0.  1.
       -1    1    3    3    0  502  0.16272058836E+03 -0.49313054365E+03 -0.17443313962E+04  0.18199856435E+04  0.50400001928E-02 0. -1.
</event>
<event>
 5   0  0.1810875E-04  0.2063523E+04  0.7818609E-02  0.8577484E-01
        2   -1    0    0  501    0  0.00000000000E+00  0.00000000000E+00  0.15609674177E+04  0.15609674177E+04  0.25500000920E-02 0. -1.
       -2   -1    0    0    0  501  0.00000000000E+00  0.00000000000E+00 -0.68196903970E+03  0.68196903971E+03  0.25500000920E-02 0.  1.
    10030    2    1    2    0    0  0.00000000000E+00  0.00000000000E+00  0.87899837802E+03  0.22429364574E+04  0.20635226685E+04 0.  0.
        1    1    3    3  502    0  0.61298571212E+02  0.60360017877E+03 -0.46758963571E+03  0.76598352339E+03  0.50400001928E-02 0.  1.
       -1    1    3    3    0  502 -0.61298571212E+02 -0.60360017877E+03  0.13465880137E+04  0.14769529340E+04  0.50400001928E-02 0. -1.
</event>
<event>
 5   0  0.8755004E-05  0.2066260E+04  0.7818609E-02  0.8576254E-01
        1   -1    0    0  501    0  0.00000000000E+00  0.00000000000E+00  0.10831450230E+04  0.10831450231E+04  0.50400001928E-02 0.  1.
       -1   -1    0    0    0  501  0.00000000000E+00  0.00000000000E+00 -0.98542416331E+03  0.98542416332E+03  0.50400001928E-02 0. -1.
    10030    2    1    2    0    0  0.00000000000E+00  0.00000000000E+00  0.97720859735E+02  0.20685691864E+04  0.20662596914E+04 0.  0.
        3    1    3    3  502    0 -0.69967572432E+02  0.26870766587E+03  0.10450897668E+04  0.10813472624E+04  0.10100000352E+00 0.  1.
       -3    1    3    3    0  502  0.69967572432E+02 -0.26870766587E+03 -0.94736890710E+03  0.98722192400E+03  0.10100000352E+00 0. -1.
</event>
<event>
 5   0  0.1886323E-04  0.2294723E+04  0.7818609E-02  0.8480005E-01
       -2   -1    0    0    0  501  0.00000000000E+00  0.00000000000E+00  0.60803261958E+03  0.60803261959E+03  0.25500000920E-02 0.  1.
        2   -1    0    0  501    0  0.00000000000E+00  0.00000000000E+00 -0.21650783648E+04  0.21650783648E+04  0.25500000920E-02 0. -1.
    10030    2    1    2    0    0  0.00000000000E+00  0.00000000000E+00 -0.15570457452E+04  0.27731109844E+04  0.22947228763E+04 0.  0.
        2    1    3    3  502    0 -0.78159412508E+03  0.18691160624E+03 -0.17681531458E+04  0.19422128802E+04  0.25500000920E-02 0. -1.
       -2    1    3    3    0  502  0.78159412508E+03 -0.18691160624E+03  0.21110740063E+03  0.83089810417E+03  0.25500000920E-02 0.  1.
</event>
<event>
 5   0  0.8237966E-05  0.2121534E+04  0.7818609E-02  0.8551816E-01
       -1   -1    0    0    0  501  0.00000000000E+00  0.00000000000E+00  0.11305033035E+04  0.11305033035E+04  0.50400001928E-02 0.  1.
        1   -1    0    0  501    0  0.00000000000E+00  0.00000000000E+00 -0.99533252853E+03  0.99533252854E+03  0.50400001928E-02 0. -1.
    10030    2    1    2    0    0  0.00000000000E+00  0.00000000000E+00  0.13517077492E+03  0.21258358320E+04  0.21215340785E+04 0.  0.
        1    1    3    3  502    0  0.82373685386E+03 -0.14417291057E+03  0.72151763635E+03  0.11044980453E+04  0.50400001928E-02 0.  1.
       -1    1    3    3    0  502 -0.82373685386E+03  0.14417291057E+03 -0.58634686143E+03  0.10213377867E+04  0.50400001928E-02 0. -1.
</event>
<event>
 5   0  0.8755004E-05  0.2076571E+04  0.7818609E-02  0.8571635E-01
        1   -1    0    0  501    0  0.00000000000E+00  0.00000000000E+00  0.18494821360E+04  0.18494821360E+04  0.50400001928E-02 0. -1.
       -1   -1    0    0    0  501  0.00000000000E+00  0.00000000000E+00 -0.58288570701E+03  0.58288570703E+03  0.50400001928E-02 0.  1.
    10030    2    1    2    0    0  0.00000000000E+00  0.00000000000E+00  0.12665964290E+04  0.24323678431E+04  0.20765709258E+04 0.  0.
        3    1    3    3  502    0 -0.35196508469E+03 -0.23041545276E+03 -0.47858911989E+03  0.63719561956E+03  0.10100000352E+00 0.  1.
       -3    1    3    3    0  502  0.35196508469E+03  0.23041545276E+03  0.17451855489E+04  0.17951722235E+04  0.10100000352E+00 0. -1.
</event>
<event>
 5   0  0.8237966E-05  0.2082361E+04  0.7818609E-02  0.8569054E-01
        1   -1    0    0  501    0  0.00000000000E+00  0.00000000000E+00  0.15108107142E+04  0.15108107142E+04  0.50400001928E-02 0.  1.
       -1   -1    0    0    0  501  0.00000000000E+00  0.00000000000E+00 -0.71753318095E+03  0.71753318097E+03  0.50400001928E-02 0. -1.
    10030    2    1    2    0    0  0.00000000000E+00  0.00000000000E+00  0.79327753322E+03  0.22283438951E+04  0.20823609846E+04 0.  0.
        1    1    3    3  502    0  0.33581226501E+03 -0.79915900739E+03 -0.22053590397E+03  0.89446133589E+03  0.50400001928E-02 0. -1.
       -1    1    3    3    0  502 -0.33581226501E+03  0.79915900739E+03  0.10138134372E+04  0.13338825593E+04  0.50400001928E-02 0.  1.
</event>
<event>
 5   0  0.1921687E-04  0.2032184E+04  0.7818609E-02  0.8591720E-01
        2   -1    0    0  501    0  0.00000000000E+00  0.00000000000E+00  0.87595770503E+03  0.87595770503E+03  0.25500000920E-02 0. -1.
       -2   -1    0    0    0  501  0.00000000000E+00  0.00000000000E+00 -0.11786448469E+04  0.11786448469E+04  0.25500000920E-02 0.  1.
    10030    2    1    2    0    0  0.00000000000E+00  0.00000000000E+00 -0.30268714189E+03  0.20546025519E+04  0.20321840814E+04 0.  0.
        5    1    3    3  502    0 -0.69892078286E+03  0.17043114253E+03 -0.87681353817E+03  0.11341786040E+04  0.46999998093E+01 0.  1.
       -5    1    3    3    0  502  0.69892078286E+03 -0.17043114253E+03  0.57412639628E+03  0.92042394795E+03  0.46999998093E+01 0. -1.
</event>
<event>
 5   0  0.1815400E-04  0.2176559E+04  0.7818609E-02  0.8528249E-01
        2   -1    0    0  501    0  0.00000000000E+00  0.00000000000E+00  0.62762312972E+03  0.62762312972E+03  0.25500000920E-02 0. -1.
       -2   -1    0    0    0  501  0.00000000000E+00  0.00000000000E+00 -0.18870435579E+04  0.18870435579E+04  0.25500000920E-02 0.  1.
    10030    2    1    2    0    0  0.00000000000E+00  0.00000000000E+00 -0.12594204281E+04  0.25146666876E+04  0.21765589206E+04 0.  0.
        3    1    3    3  502    0  0.71697455918E+03 -0.42696945164E+03  0.17737327316E+03  0.85312174945E+03  0.10100000352E+00 0. -1.
       -3    1    3    3    0  502 -0.71697455918E+03  0.42696945164E+03 -0.14367937013E+04  0.16615449381E+04  0.10100000352E+00 0.  1.
</event>
<event>
 5   0  0.1810875E-04  0.2076779E+04  0.7818609E-02  0.8571542E-01
       -2   -1    0    0    0  501  0.00000000000E+00  0.00000000000E+00  0.13378991429E+04  0.13378991429E+04  0.25500000920E-02 0. -1.
        2   -1    0    0  501    0  0.00000000000E+00  0.00000000000E+00 -0.80593003904E+03  0.80593003904E+03  0.25500000920E-02 0.  1.
    10030    2    1    2    0    0  0.00000000000E+00  0.00000000000E+00  0.53196910387E+03  0.21438291820E+04  0.20767793417E+04 0.  0.
        1    1    3    3  502    0  0.17908924076E+03 -0.18110510928E+03 -0.77318454124E+03  0.81405549664E+03  0.50400001928E-02 0.  1.
       -1    1    3    3    0  502 -0.17908924076E+03  0.18110510928E+03  0.13051536451E+04  0.13297736853E+04  0.50400001928E-02 0. -1.
</event>
<event>
 5   0  0.8271069E-05  0.2110049E+04  0.7818609E-02  0.8556829E-01
        1   -1    0    0  501    0  0.00000000000E+00  0.00000000000E+00  0.23161970414E+04  0.23161970414E+04  0.50400001928E-02 0. -1.
       -1   -1    0    0    0  501  0.00000000000E+00  0.00000000000E+00 -0.48056237871E+03  0.48056237874E+03  0.50400001928E-02 0.  1.
    10030    2    1    2    0    0  0.00000000000E+00  0.00000000000E+00  0.18356346627E+04  0.27967594202E+04  0.21100494400E+04 0.  0.
        2    1    3    3  502    0 -0.51484733562E+03 -0.38263970628E+03  0.20280298077E+04  0.21270603716E+04  0.25500000920E-02 0. -1.
       -2    1    3    3    0  502  0.51484733562E+03  0.38263970628E+03 -0.19239514493E+03  0.66969904854E+03  0.25500000920E-02 0.  1.
</event>
<event>
 5   0  0.8237966E-05  0.2082985E+04  0.7818609E-02  0.8568776E-01
        1   -1    0    0  501    0  0.00000000000E+00  0.00000000000E+00  0.90459798448E+03  0.90459798449E+03  0.50400001928E-02 0. -1.
       -1   -1    0    0    0  501  0.00000000000E+00  0.00000000000E+00 -0.11991032348E+04  0.11991032349E+04  0.50400001928E-02 0.  1.
    10030    2    1    2    0    0  0.00000000000E+00  0.00000000000E+00 -0.29450525037E+03  0.21037012194E+04  0.20829847522E+04 0.  0.
        1    1    3    3  502    0 -0.17687906603E+03 -0.45221424077E+03 -0.10777860469E+04  0.11821195736E+04  0.50400001928E-02 0.  1.
       -1    1    3    3    0  502  0.17687906603E+03  0.45221424077E+03  0.78328079648E+03  0.92158164571E+03  0.50400001928E-02 0. -1.
</event>
<event>
 5   0  0.1921687E-04  0.2058127E+04  0.7818609E-02  0.8579916E-01
       -2   -1    0    0    0  501  0.00000000000E+00  0.00000000000E+00  0.53418724343E+03  0.53418724344E+03  0.25500000920E-02 0. -1.
        2   -1    0    0  501    0  0.00000000000E+00  0.00000000000E+00 -0.19823981598E+04  0.19823981598E+04  0.25500000920E-02 0.  1.
    10030    2    1    2    0    0  0.00000000000E+00  0.00000000000E+00 -0.14482109163E+04  0.25165854032E+04  0.20581271179E+04 0.  0.
        5    1    3    3  502    0  0.21186092257E+03  0.32379847898E+03 -0.18900389573E+04  0.19292485209E+04  0.46999998093E+01 0.  1.
       -5    1    3    3    0  502 -0.21186092257E+03 -0.32379847898E+03  0.44182804095E+03  0.58733688227E+03  0.46999998093E+01 0. -1.
</event>
<event>
 5   0  0.8486612E-05  0.2131113E+04  0.7818609E-02  0.8547660E-01
       -1   -1    0    0    0  501  0.00000000000E+00  0.00000000000E+00  0.18122499559E+04  0.18122499559E+04  0.50400001928E-02 0.  1.
        1   -1    0    0  501    0  0.00000000000E+00  0.00000000000E+00 -0.62651977128E+03  0.62651977130E+03  0.50400001928E-02 0. -1.
    10030    2    1    2    0    0  0.00000000000E+00  0.00000000000E+00  0.11857301846E+04  0.24387697272E+04  0.21311127871E+04 0.  0.
        5    1    3    3  502    0  0.37388420893E+03  0.90089807711E+03  0.10837182005E+04  0.14580377139E+04  0.46999998093E+01 0.  1.
       -5    1    3    3    0  502 -0.37388420893E+03 -0.90089807711E+03  0.10201198412E+03  0.98073201331E+03  0.46999998093E+01 0. -1.
</event>
<event>
 5   0  0.8525278E-05  0.2095776E+04  0.7818609E-02  0.8563106E-01
        1   -1    0    0  501    0  0.00000000000E+00  0.00000000000E+00  0.15738870083E+04  0.15738870083E+04  0.50400001928E-02 0.  1.
       -1   -1    0    0    0  501  0.00000000000E+00  0.00000000000E+00 -0.69767982234E+03  0.69767982236E+03  0.50400001928E-02 0. -1.
    10030    2    1    2    0    0  0.00000000000E+00  0.00000000000E+00  0.87620718595E+03  0.22715668307E+04  0.20957759502E+04 0.  0.
        4    1    3    3  502    0  0.10355642982E+04 -0.53775462963E+02  0.27450475827E+03  0.10726787456E+04  0.12699999809E+01 0. -1.
       -4    1    3    3    0  502 -0.10355642982E+04  0.53775462963E+02  0.60170242768E+03  0.11988880850E+04  0.12699999809E+01 0.  1.
</event>
<event>
 5   0  0.1921687E-04  0.2112719E+04  0.7818609E-02  0.8555661E-01
        2   -1    0    0  501    0  0.00000000000E+00  0.00000000000E+00  0.16805648549E+04  0.16805648549E+04  0.25500000920E-02 0.  1.
       -2   -1    0    0    0  501  0.00000000000E+00  0.00000000000E+00 -0.66400003627E+03  0.66400003628E+03  0.25500000920E-02 0. -1.
    10030    2    1    2    0    0  0.00000000000E+00  0.00000000000E+00  0.10165648186E+04  0.23445648912E+04  0.21127187457E+04 0.  0.
        5    1    3    3  502    0 -0.20404255403E+03  0.45826987732E+03  0.15399382377E+04  0.16195914640E+04  0.46999998093E+01 0.  1.
       -5    1    3    3    0  502  0.20404255403E+03 -0.45826987732E+03 -0.52337341908E+03  0.72497342718E+03  0.46999998093E+01 0. -1.
</event>
<event>
 5   0  0.6441125E-05  0.2072748E+04  0.7818609E-02  0.8573344E-01
       -3   -1    0    0    0  501  0.00000000000E+00  0.00000000000E+00  0.15752039234E+04  0.15752039266E+04  0.10100000352E+00 0. -1.
        3   -1    0    0  501    0  0.00000000000E+00  0.00000000000E+00 -0.68186176136E+03  0.68186176884E+03  0.10100000352E+00 0.  1.
    10030    2    1    2    0    0  0.00000000000E+00  0.00000000000E+00  0.89334216200E+03  0.22570656954E+04  0.20727482566E+04 0.  0.
        2    1    3    3  502    0 -0.81118526869E+03  0.56779615327E+03  0.77991981584E+03  0.12604320414E+04  0.25500000920E-02 0. -1.
       -2    1    3    3    0  502  0.81118526869E+03 -0.56779615327E+03  0.11342234616E+03  0.99663365407E+03  0.25500000920E-02 0.  1.
</event>
<event>
 5   0  0.1921687E-04  0.2126415E+04  0.7818609E-02  0.8549696E-01
       -2   -1    0    0    0  501  0.00000000000E+00  0.00000000000E+00  0.14700042811E+04  0.14700042811E+04  0.25500000920E-02 0. -1.
        2   -1    0    0  501    0  0.00000000000E+00  0.00000000000E+00 -0.76898446086E+03  0.76898446087E+03  0.25500000920E-02 0.  1.
    10030    2    1    2    0    0  0.00000000000E+00  0.00000000000E+00  0.70101982028E+03  0.22389887420E+04  0.21264152460E+04 0.  0.
        5    1    3    3  502    0 -0.60105087080E+03 -0.39396572373E+03  0.11755190116E+04  0.13778019369E+04  0.46999998093E+01 0. -1.
       -5    1    3    3    0  502  0.60105087080E+03  0.39396572373E+03 -0.47449919129E+03  0.86118680511E+03  0.46999998093E+01 0.  1.
</event>
<event>
 5   0  0.1777590E-04  0.2081374E+04  0.7818609E-02  0.8569493E-01
        2   -1    0    0  501    0  0.00000000000E+00  0.00000000000E+00  0.22476763793E+04  0.22476763793E+04  0.25500000920E-02 0.  1.
       -2   -1    0    0    0  501  0.00000000000E+00  0.00000000000E+00 -0.48184402490E+03  0.48184402491E+03  0.25500000920E-02 0. -1.
    10030    2    1    2    0    0  0.00000000000E+00  0.00000000000E+00  0.17658323544E+04  0.27295204042E+04  0.20813740013E+04 0.  0.
        4    1    3    3  502    0  0.75148562187E+03  0.48056611477E+03  0.15858984640E+04  0.18195466418E+04  0.12699999809E+01 0.  1.
       -4    1    3    3    0  502 -0.75148562187E+03 -0.48056611477E+03  0.17993389041E+03  0.90997376246E+03  0.12699999809E+01 0. -1.
</event>
<event>
 5   0  0.1810875E-04  0.2013027E+04  0.7818609E-02  0.8600554E-01
       -2   -1    0    0    0  501  0.00000000000E+00  0.00000000000E+00  0.10316259109E+04  0.10316259109E+04  0.25500000920E-02 0. -1.
        2   -1    0    0  501    0  0.00000000000E+00  0.00000000000E+00 -0.98201273544E+03  0.98201273544E+03  0.25500000920E-02 0.  1.
    10030    2    1    2    0    0  0.00000000000E+00  0.00000000000E+00  0.49613175497E+02  0.20136386464E+04  0.20130273548E+04 0.  0.
        1    1    3    3  502    0  0.72116837519E+03  0.53626147897E+03  0.47816555703E+03  0.10179894396E+04  0.50400001928E-02 0. -1.
       -1    1    3    3    0  502 -0.72116837519E+03 -0.53626147897E+03 -0.42855238153E+03  0.99564920677E+03  0.50400001928E-02 0.  1.
</event>
<event>
 5   0  0.1810875E-04  0.2100562E+04  0.7818609E-02  0.8560996E-01
        2   -1    0    0  501    0  0.00000000000E+00  0.00000000000E+00  0.12019089815E+04  0.12019089815E+04  0.25500000920E-02 0.  1.
       -2   -1    0    0    0  501  0.00000000000E+00  0.00000000000E+00 -0.91778219656E+03  0.91778219657E+03  0.25500000920E-02 0. -1.
    10030    2    1    2    0    0  0.00000000000E+00  0.00000000000E+00  0.28412678494E+03  0.21196911781E+04  0.21005624629E+04 0.  0.
        1    1    3    3  502    0 -0.56936585307E+03  0.42593997861E+03 -0.63794936128E+03  0.95529143595E+03  0.50400001928E-02 0. -1.
       -1    1    3    3    0  502  0.56936585307E+03 -0.42593997861E+03  0.92207614622E+03  0.11643997421E+04  0.50400001928E-02 0.  1.
</event>
<event>
 5   0  0.8271069E-05  0.1711640E+04  0.7818609E-02  0.8754753E-01
        1   -1    0    0  501    0  0.00000000000E+00  0.00000000000E+00  0.78044234214E+03  0.78044234216E+03  0.50400001928E-02 0. -1.
       -1   -1    0    0    0  501  0.00000000000E+00  0.00000000000E+00 -0.93847805197E+03  0.93847805199E+03  0.50400001928E-02 0.  1.
    10030    2    1    2    0    0  0.00000000000E+00  0.00000000000E+00 -0.15803570983E+03  0.17189203941E+04  0.17116401596E+04 0.  0.
        2    1    3    3  502    0 -0.17183292805E+03  0.55519946003E+03  0.55186991539E+03  0.80145704757E+03  0.25500000920E-02 0. -1.
       -2    1    3    3    0  502  0.17183292805E+03 -0.55519946003E+03 -0.70990562522E+03  0.91746334657E+03  0.25500000920E-02 0.  1.
</event>
<event>
 5   0  0.1810875E-04  0.2120039E+04  0.7818609E-02  0.8552467E-01
       -2   -1    0    0    0  501  0.00000000000E+00  0.00000000000E+00  0.94344367039E+03  0.94344367040E+03  0.25500000920E-02 0.  1.
        2   -1    0    0  501    0  0.00000000000E+00  0.00000000000E+00 -0.11910001604E+04  0.11910001604E+04  0.25500000920E-02 0. -1.
    10030    2    1    2    0    0  0.00000000000E+00  0.00000000000E+00 -0.24755649000E+03  0.21344438308E+04  0.21200392098E+04 0.  0.
        1    1    3    3  502    0  0.88881998637E+02  0.74277599766E+03  0.63234076501E+03  0.97952592385E+03  0.50400001928E-02 0.  1.
       -1    1    3    3    0  502 -0.88881998637E+02 -0.74277599766E+03 -0.87989725500E+03  0.11549179069E+04  0.50400001928E-02 0. -1.
</event>
<event>
 5   0  0.8486612E-05  0.2229420E+04  0.7818609E-02  0.8506282E-01
        1   -1    0    0  501    0  0.00000000000E+00  0.00000000000E+00  0.25295252276E+04  0.25295252276E+04  0.50400001928E-02 0.  1.
       -1   -1    0    0    0  501  0.00000000000E+00  0.00000000000E+00 -0.49122983246E+03  0.49122983249E+03  0.50400001928E-02 0. -1.
    10030    2    1    2    0    0  0.00000000000E+00  0.00000000000E+00  0.20382953951E+04  0.30207550601E+04  0.22294198831E+04 0.  0.
        5    1    3    3  502    0  0.10156763987E+04 -0.27188267534E+03  0.15207311964E+04  0.18488277902E+04  0.46999998093E+01 0.  1.
       -5    1    3    3    0  502 -0.10156763987E+04  0.27188267534E+03  0.51756419876E+03  0.11719272699E+04  0.46999998093E+01 0. -1.
</event>
<event>
 5   0  0.8755004E-05  0.1477783E+04  0.7818609E-02  0.8899363E-01
        1   -1    0    0  501    0  0.00000000000E+00  0.00000000000E+00  0.74823357124E+03  0.74823357125E+03  0.50400001928E-02 0. -1.
       -1   -1    0    0    0  501  0.00000000000E+00  0.00000000000E+00 -0.72966648277E+03  0.72966648278E+03  0.50400001928E-02 0.  1.
    10030    2    1    2    0    0  0.00000000000E+00  0.00000000000E+00  0.18567088470E+02  0.14779000540E+04  0.14777834188E+04 0.  0.
        3    1    3    3  502    0  0.66345025811E+02 -0.72987372603E+03  0.10333154092E+03  0.74013156664E+03  0.10100000352E+00 0.  1.
       -3    1    3    3    0  502 -0.66345025811E+02  0.72987372603E+03 -0.84764452445E+02  0.73776848739E+03  0.10100000352E+00 0. -1.
</event>
<event>
 5   0  0.1777590E-04  0.2081344E+04  0.7818609E-02  0.8569506E-01
       -2   -1    0    0    0  501  0.00000000000E+00  0.00000000000E+00  0.71100633568E+03  0.71100633569E+03  0.25500000920E-02 0. -1.
        2   -1    0    0  501    0  0.00000000000E+00  0.00000000000E+00 -0.15231913883E+04  0.15231913883E+04  0.25500000920E-02 0.  1.
    10030    2    1    2    0    0  0.00000000000E+00  0.00000000000E+00 -0.81218505265E+03  0.22341977240E+04  0.20813444958E+04 0.  0.
        4    1    3    3  502    0  0.56594167650E+03 -0.86358011564E+03 -0.26639468613E+03  0.10663153094E+04  0.12699999809E+01 0. -1.
       -4    1    3    3    0  502 -0.56594167650E+03  0.86358011564E+03 -0.54579036652E+03  0.11678824146E+04  0.12699999809E+01 0.  1.
</event>
<event>
 5   0  0.8237966E-05  0.2116746E+04  0.7818609E-02  0.8553902E-01
        1   -1    0    0  501    0  0.00000000000E+00  0.00000000000E+00  0.20423809022E+04  0.20423809022E+04  0.50400001928E-02 0. -1.
       -1   -1    0    0    0  501  0.00000000000E+00  0.00000000000E+00 -0.54845455152E+03  0.54845455154E+03  0.50400001928E-02 0.  1.
    10030    2    1    2    0    0  0.00000000000E+00  0.00000000000E+00  0.14939263507E+04  0.25908354538E+04  0.21167457115E+04 0.  0.
        1    1    3    3  502    0  0.30258130416E+02 -0.31234897188E+03 -0.49020194654E+03  0.58204414189E+03  0.50400001928E-02 0.  1.
       -1    1    3    3    0  502 -0.30258130416E+02  0.31234897188E+03  0.19841282973E+04  0.20087913119E+04  0.50400001928E-02 0. -1.
</event>
<event>
 5   0  0.1815400E-04  0.2115296E+04  0.7818609E-02  0.8554535E-01
        2   -1    0    0  501    0  0.00000000000E+00  0.00000000000E+00  0.14469670751E+04  0.14469670751E+04  0.25500000920E-02 0. -1.
       -2   -1    0    0    0  501  0.00000000000E+00  0.00000000000E+00 -0.77307847045E+03  0.77307847045E+03  0.25500000920E-02 0.  1.
    10030    2    1    2    0    0  0.00000000000E+00  0.00000000000E+00  0.67388860462E+03  0.22200455455E+04  0.21152958121E+04 0.  0.
        3    1    3    3  502    0 -0.34999396784E+03  0.99794990499E+03  0.35248615341E+03  0.11147404581E+04  0.10100000352E+00 0.  1.
       -3    1    3    3    0  502  0.34999396784E+03 -0.99794990499E+03  0.32140245121E+03  0.11053050874E+04  0.10100000352E+00 0. -1.
</event>
<event>
 5   0  0.1815400E-04  0.2088493E+04  0.7818609E-02  0.8566329E-01
        2   -1    0    0  501    0  0.00000000000E+00  0.00000000000E+00  0.10450061647E+04  0.10450061647E+04  0.25500000920E-02 0.  1.
       -2   -1    0    0    0  501  0.00000000000E+00  0.00000000000E+00 -0.10434878126E+04  0.10434878126E+04  0.25500000920E-02 0. -1.
    10030    2    1    2    0    0  0.00000000000E+00  0.00000000000E+00  0.15183520650E+01  0.20884939773E+04  0.20884934254E+04 0.  0.
        3    1    3    3  502    0 -0.24159703429E+03 -0.23946179490E+03  0.98804870994E+03  0.10449647562E+04  0.10100000352E+00 0.  1.
       -3    1    3    3    0  502  0.24159703429E+03  0.23946179490E+03 -0.98653035788E+03  0.10435292212E+04  0.10100000352E+00 0. -1.
</event>
<event>
 5   0  0.1815400E-04  0.2105588E+04  0.7818609E-02  0.8558786E-01
       -2   -1    0    0    0  501  0.00000000000E+00  0.00000000000E+00  0.16156714549E+04  0.16156714549E+04  0.25500000920E-02 0. -1.
        2   -1    0    0  501    0  0.00000000000E+00  0.00000000000E+00 -0.68601506511E+03  0.68601506511E+03  0.25500000920E-02 0.  1.
    10030    2    1    2    0    0  0.00000000000E+00  0.00000000000E+00  0.92965638978E+03  0.23016865200E+04  0.21055877643E+04 0.  0.
        3    1    3    3  502    0  0.61579586892E+03  0.78754382265E+03  0.10401972540E+03  0.10051119033E+04  0.10100000352E+00 0.  1.
       -3    1    3    3    0  502 -0.61579586892E+03 -0.78754382265E+03  0.82563666437E+03  0.12965746167E+04  0.10100000352E+00 0. -1.
</event>
<event>
 5   0  0.8271069E-05  0.2091767E+04  0.7818609E-02  0.8564879E-01
       -1   -1    0    0    0  501  0.00000000000E+00  0.00000000000E+00  0.12975621652E+04  0.12975621652E+04  0.50400001928E-02 0.  1.
        1   -1    0    0  501    0  0.00000000000E+00  0.00000000000E+00 -0.84302098851E+03  0.84302098853E+03  0.50400001928E-02 0. -1.
    10030    2    1    2    0    0  0.00000000000E+00  0.00000000000E+00  0.45454117668E+03  0.21405831537E+04  0.20917668505E+04 0.  0.
        2    1    3    3  502    0  0.54885955324E+03 -0.86983099517E+03  0.42148742772E+03  0.11115324651E+04  0.25500000920E-02 0.  1.
       -2    1    3    3    0  502 -0.54885955324E+03  0.86983099517E+03  0.33053748958E+02  0.10290506886E+04  0.25500000920E-02 0. -1.
</event>
<event>
 5   0  0.1921687E-04  0.2058490E+04  0.7818609E-02  0.8579752E-01
        2   -1    0    0  501    0  0.00000000000E+00  0.00000000000E+00  0.11693248374E+04  0.11693248374E+04  0.25500000920E-02 0.  1.
       -2   -1    0    0    0  501  0.00000000000E+00  0.00000000000E+00 -0.90594627575E+03  0.90594627575E+03  0.25500000920E-02 0. -1.
    10030    2    1    2    0    0  0.00000000000E+00  0.00000000000E+00  0.26337856166E+03  0.20752711132E+04  0.20584902056E+04 0.  0.
        5    1    3    3  502    0  0.46680277410E+03  0.15335991064E+03  0.10434396632E+04  0.11533483918E+04  0.46999998093E+01 0.  1.
       -5    1    3    3    0  502 -0.46680277410E+03 -0.15335991064E+03 -0.78006110153E+03  0.92192272139E+03  0.46999998093E+01 0. -1.
</event>
<event>
 5   0  0.1921687E-04  0.2124574E+04  0.7818609E-02  0.8550495E-01
       -2   -1    0    0    0  501  0.00000000000E+00  0.00000000000E+00  0.75259703610E+03  0.75259703611E+03  0.25500000920E-02 0.  1.
        2   -1    0    0  501    0  0.00000000000E+00  0.00000000000E+00 -0.14994133936E+04  0.14994133936E+04  0.25500000920E-02 0. -1.
    10030    2    1    2    0    0  0.00000000000E+00  0.00000000000E+00 -0.74681635751E+03  0.22520104297E+04  0.21245743818E+04 0.  0.
        5    1    3    3  502    0  0.93103750301E+03 -0.51051060960E+03 -0.40659207039E+03  0.11370097257E+04  0.46999998093E+01 0. -1.
       -5    1    3    3    0  502 -0.93103750301E+03  0.51051060960E+03 -0.34022428712E+03  0.11150007041E+04  0.46999998093E+01 0.  1.
</event>
<event>
 5   0  0.1777590E-04  0.2102326E+04  0.7818609E-02  0.8560220E-01
       -2   -1    0    0    0  501  0.00000000000E+00  0.00000000000E+00  0.11250834826E+04  0.11250834826E+04  0.25500000920E-02 0. -1.
        2   -1    0    0  501    0  0.00000000000E+00  0.00000000000E+00 -0.98209891343E+03  0.98209891343E+03  0.25500000920E-02 0.  1.
    10030    2    1    2    0    0  0.00000000000E+00  0.00000000000E+00  0.14298456919E+03  0.21071823961E+04  0.21023256321E+04 0.  0.
        4    1    3    3  502    0  0.62319462914E+03 -0.35160496454E+03  0.84329980145E+03  0.11059628226E+04  0.12699999809E+01 0. -1.
       -4    1    3    3    0  502 -0.62319462914E+03  0.35160496454E+03 -0.70031523226E+03  0.10012195735E+04  0.12699999809E+01 0.  1.
</event>
<event>
 5   0  0.1777590E-04  0.2126814E+04  0.7818609E-02  0.8549523E-01
       -2   -1    0    0    0  501  0.00000000000E+00  0.00000000000E+00  0.97231293008E+03  0.97231293008E+03  0.25500000920E-02 0.  1.
        2   -1    0    0  501    0  0.00000000000E+00  0.00000000000E+00 -0.11630350861E+04  0.11630350861E+04  0.25500000920E-02 0. -1.
    10030    2    1    2    0    0  0.00000000000E+00  0.00000000000E+00 -0.19072215604E+03  0.21353480162E+04  0.21268136283E+04 0.  0.
        4    1    3    3  502    0  0.29290689086E+03  0.67350243579E+03  0.67677138182E+03  0.99870971452E+03  0.12699999809E+01 0.  1.
       -4    1    3    3    0  502 -0.29290689086E+03 -0.67350243579E+03 -0.86749353785E+03  0.11366383017E+04  0.12699999809E+01 0. -1.
</event>
<event>
 5   0  0.8525278E-05  0.1982958E+04  0.7818609E-02  0.8614630E-01
        1   -1    0    0  501    0  0.00000000000E+00  0.00000000000E+00  0.10949658873E+04  0.10949658874E+04  0.50400001928E-02 0.  1.
       -1   -1    0    0    0  501  0.00000000000E+00  0.00000000000E+00 -0.89777242121E+03  0.89777242123E+03  0.50400001928E-02 0. -1.
    10030    2    1    2    0    0  0.00000000000E+00  0.00000000000E+00  0.19719346613E+03  0.19927383086E+04  0.19829575647E+04 0.  0.
        4    1    3    3  502    0 -0.27172246877E+03 -0.36505461502E+03 -0.78661729274E+03  0.90877189114E+03  0.12699999809E+01 0. -1.
       -4    1    3    3    0  502  0.27172246877E+03  0.36505461502E+03  0.98381075887E+03  0.10839664174E+04  0.12699999809E+01 0.  1.
</event>
<event>
 5   0  0.1815400E-04  0.2309253E+04  0.7818609E-02  0.8474282E-01
        2   -1    0    0  501    0  0.00000000000E+00  0.00000000000E+00  0.16459933042E+04  0.16459933042E+04  0.25500000920E-02 0. -1.
       -2   -1    0    0    0  501  0.00000000000E+00  0.00000000000E+00 -0.80994389893E+03  0.80994389893E+03  0.25500000920E-02 0.  1.
    10030    2    1    2    0    0  0.00000000000E+00  0.00000000000E+00  0.83604940530E+03  0.24559372032E+04  0.23092528960E+04 0.  0.
        3    1    3    3  502    0  0.86764428202E+03 -0.51083037361E+03  0.10190858058E+04  0.14325816419E+04  0.10100000352E+00 0. -1.
       -3    1    3    3    0  502 -0.86764428202E+03  0.51083037361E+03 -0.18303640054E+03  0.10233555613E+04  0.10100000352E+00 0.  1.
</event>
<event>
 5   0  0.8525278E-05  0.2047440E+04  0.7818609E-02  0.8584757E-01
        1   -1    0    0  501    0  0.00000000000E+00  0.00000000000E+00  0.11208917417E+04  0.11208917417E+04  0.50400001928E-02 0.  1.
       -1   -1    0    0    0  501  0.00000000000E+00  0.00000000000E+00 -0.93497184051E+03  0.93497184052E+03  0.50400001928E-02 0. -1.
    10030    2    1    2    0    0  0.00000000000E+00  0.00000000000E+00  0.18591990116E+03  0.20558635822E+04  0.20474395862E+04 0.  0.
        4    1    3    3  502    0 -0.31713875659E+03  0.38553103263E+02  0.10695546570E+04  0.11162491254E+04  0.12699999809E+01 0.  1.
       -4    1    3    3    0  502  0.31713875659E+03 -0.38553103263E+02 -0.88363475588E+03  0.93961445678E+03  0.12699999809E+01 0. -1.
</event>
<event>
 5   0  0.1810875E-04  0.2194147E+04  0.7818609E-02  0.8520868E-01
       -2   -1    0    0    0  501  0.00000000000E+00  0.00000000000E+00  0.44959494180E+03  0.44959494180E+03  0.25500000920E-02 0.  1.
        2   -1    0    0  501    0  0.00000000000E+00  0.00000000000E+00 -0.26770108124E+04  0.26770108124E+04  0.25500000920E-02 0. -1.
    10030    2    1    2    0    0  0.00000000000E+00  0.00000000000E+00 -0.22274158706E+04  0.31266057542E+04  0.21941472334E+04 0.  0.
        1    1    3    3  502    0  0.48588019952E+03  0.46839995584E+03 -0.23462024279E+04  0.24413405989E+04  0.50400001928E-02 0. -1.
       -1    1    3    3    0  502 -0.48588019952E+03 -0.46839995584E+03  0.11878655729E+03  0.68526515535E+03  0.50400001928E-02 0.  1.
</event>
<event>
 5   0  0.1886323E-04  0.2133991E+04  0.7818609E-02  0.8546416E-01
       -2   -1    0    0    0  501  0.00000000000E+00  0.00000000000E+00  0.69337117726E+03  0.69337117726E+03  0.25500000920E-02 0. -1.
        2   -1    0    0  501    0  0.00000000000E+00  0.00000000000E+00 -0.16419484729E+04  0.16419484729E+04  0.25500000920E-02 0.  1.
    10030    2    1    2    0    0  0.00000000000E+00  0.00000000000E+00 -0.94857729564E+03  0.23353196502E+04  0.21339913267E+04 0.  0.
        2    1    3    3  502    0 -0.10880978853E+03  0.10543625981E+04 -0.34043970630E+03  0.11132920785E+04  0.25500000920E-02 0. -1.
       -2    1    3    3    0  502  0.10880978853E+03 -0.10543625981E+04 -0.60813758935E+03  0.12220275717E+04  0.25500000920E-02 0.  1.
</event>
<event>
 5   0  0.8525278E-05  0.1959105E+04  0.7818609E-02  0.8625983E-01
        1   -1    0    0  501    0  0.00000000000E+00  0.00000000000E+00  0.82264765179E+03  0.82264765181E+03  0.50400001928E-02 0.  1.
       -1   -1    0    0    0  501  0.00000000000E+00  0.00000000000E+00 -0.11663845630E+04  0.11663845630E+04  0.50400001928E-02 0. -1.
    10030    2    1    2    0    0  0.00000000000E+00  0.00000000000E+00 -0.34373691119E+03  0.19890322148E+04  0.19591054304E+04 0.  0.
        4    1    3    3  502    0  0.22778849134E+03  0.20233511159E+03  0.77331716908E+03  0.83117275645E+03  0.12699999809E+01 0.  1.
       -4    1    3    3    0  502 -0.22778849134E+03 -0.20233511159E+03 -0.11170540803E+04  0.11578594584E+04  0.12699999809E+01 0. -1.
</event>
<event>
 5   0  0.8271069E-05  0.2101635E+04  0.7818609E-02  0.8560523E-01
       -1   -1    0    0    0  501  0.00000000000E+00  0.00000000000E+00  0.39928626388E+03  0.39928626391E+03  0.50400001928E-02 0. -1.
        1   -1    0    0  501    0  0.00000000000E+00  0.00000000000E+00 -0.27654784889E+04  0.27654784889E+04  0.50400001928E-02 0.  1.
    10030    2    1    2    0    0  0.00000000000E+00  0.00000000000E+00 -0.23661922250E+04  0.31647647528E+04  0.21016351479E+04 0.  0.
        2    1    3    3  502    0 -0.32415270318E+03  0.98316536118E+03 -0.14546874646E+04  0.17854424443E+04  0.25500000920E-02 0. -1.
       -2    1    3    3    0  502  0.32415270318E+03 -0.98316536118E+03 -0.91150476048E+03  0.13793223085E+04  0.25500000920E-02 0.  1.
</event>
<event>
 5   0  0.1777590E-04  0.2103018E+04  0.7818609E-02  0.8559915E-01
        2   -1    0    0  501    0  0.00000000000E+00  0.00000000000E+00  0.53763905218E+03  0.53763905219E+03  0.25500000920E-02 0.  1.
       -2   -1    0    0    0  501  0.00000000000E+00  0.00000000000E+00 -0.20565308695E+04  0.20565308695E+04  0.25500000920E-02 0. -1.
    10030    2    1    2    0    0  0.00000000000E+00  0.00000000000E+00 -0.15188918174E+04  0.25941699217E+04  0.21030181240E+04 0.  0.
        4    1    3    3  502    0 -0.77181560205E+03 -0.13997528534E+03  0.10436876850E+03  0.79131969318E+03  0.12699999809E+01 0.  1.
       -4    1    3    3    0  502  0.77181560205E+03  0.13997528534E+03 -0.16232605859E+04  0.18028502286E+04  0.12699999809E+01 0. -1.
</event>
<event>
 5   0  0.1777590E-04  0.2073554E+04  0.7818609E-02  0.8572983E-01
       -2   -1    0    0    0  501  0.00000000000E+00  0.00000000000E+00  0.51627643477E+03  0.51627643478E+03  0.25500000920E-02 0. -1.
        2   -1    0    0  501    0  0.00000000000E+00  0.00000000000E+00 -0.20820370485E+04  0.20820370485E+04  0.25500000920E-02 0.  1.
    10030    2    1    2    0    0  0.00000000000E+00  0.00000000000E+00 -0.15657606137E+04  0.25983134833E+04  0.20735541126E+04 0.  0.
        4    1    3    3  502    0  0.44517112444E+03 -0.61723249265E+03 -0.16651641189E+04  0.18308267083E+04  0.12699999809E+01 0.  1.
       -4    1    3    3    0  502 -0.44517112444E+03  0.61723249265E+03  0.99403505174E+02  0.76748677498E+03  0.12699999809E+01 0. -1.
</event>
<event>
 5   0  0.8525278E-05  0.1654741E+04  0.7818609E-02  0.8787607E-01
       -1   -1    0    0    0  501  0.00000000000E+00  0.00000000000E+00  0.30794253082E+03  0.30794253086E+03  0.50400001928E-02 0.  1.
        1   -1    0    0  501    0  0.00000000000E+00  0.00000000000E+00 -0.22229524027E+04  0.22229524027E+04  0.50400001928E-02 0. -1.
    10030    2    1    2    0    0  0.00000000000E+00  0.00000000000E+00 -0.19150098719E+04  0.25308949336E+04  0.16547405704E+04 0.  0.
        4    1    3    3  502    0  0.23186061306E+03 -0.77768896620E+03 -0.71097595157E+03  0.10789105100E+04  0.12699999809E+01 0.  1.
       -4    1    3    3    0  502 -0.23186061306E+03  0.77768896620E+03 -0.12040339203E+04  0.14519844235E+04  0.12699999809E+01 0. -1.
</event>
<event>
 5   0  0.8271069E-05  0.2102290E+04  0.7818609E-02  0.8560235E-01
        1   -1    0    0  501    0  0.00000000000E+00  0.00000000000E+00  0.12905324634E+04  0.12905324635E+04  0.50400001928E-02 0. -1.
       -1   -1    0    0    0  501  0.00000000000E+00  0.00000000000E+00 -0.85616308491E+03  0.85616308493E+03  0.50400001928E-02 0.  1.
    10030    2    1    2    0    0  0.00000000000E+00  0.00000000000E+00  0.43436937853E+03  0.21466955484E+04  0.21022904225E+04 0.  0.
        2    1    3    3  502    0 -0.78421757874E+03 -0.10263837802E+03  0.92417777459E+03  0.12164030609E+04  0.25500000920E-02 0. -1.
       -2    1    3    3    0  502  0.78421757874E+03  0.10263837802E+03 -0.48980839606E+03  0.93029248751E+03  0.25500000920E-02 0.  1.
</event>
<event>
 5   0  0.1921687E-04  0.2006360E+04  0.7818609E-02  0.8603653E-01
        2   -1    0    0  501    0  0.00000000000E+00  0.00000000000E+00  0.14223167820E+04  0.14223167820E+04  0.25500000920E-02 0.  1.
       -2   -1    0    0    0  501  0.00000000000E+00  0.00000000000E+00 -0.70755714240E+03  0.70755714241E+03  0.25500000920E-02 0. -1.
    10030    2    1    2    0    0  0.00000000000E+00  0.00000000000E+00  0.71475963961E+03  0.21298739244E+04  0.20063602846E+04 0.  0.
        5    1    3    3  502    0 -0.31098943336E+03  0.90651924007E+03  0.42726342842E+02  0.95934310371E+03  0.46999998093E+01 0. -1.
       -5    1    3    3    0  502  0.31098943336E+03 -0.90651924007E+03  0.67203329677E+03  0.11705308207E+04  0.46999998093E+01 0.  1.
</event>
<event>
 5   0  0.6441125E-05  0.2060158E+04  0.7818609E-02  0.8579000E-01
       -4   -1    0    0    0  501  0.00000000000E+00  0.00000000000E+00  0.82986624907E+03  0.82986722086E+03  0.12699999809E+01 0. -1.
        4   -1    0    0  501    0  0.00000000000E+00  0.00000000000E+00 -0.12785923845E+04  0.12785930152E+04  0.12699999809E+01 0.  1.
    10030    2    1    2    0    0  0.00000000000E+00  0.00000000000E+00 -0.44872613541E+03  0.21084602361E+04  0.20601576208E+04 0.  0.
        4    1    3    3  502    0  0.28023974149E+03  0.99042024451E+03 -0.26522624993E+03  0.10629266908E+04  0.12699999809E+01 0.  1.
       -4    1    3    3    0  502 -0.28023974149E+03 -0.99042024451E+03 -0.18349988548E+03  0.10455335453E+04  0.12699999809E+01 0. -1.
</event>
<event>
 5   0  0.8486612E-05  0.2166658E+04  0.7818609E-02  0.8532435E-01
        1   -1    0    0  501    0  0.00000000000E+00  0.00000000000E+00  0.29146360024E+04  0.29146360024E+04  0.50400001928E-02 0. -1.
       -1   -1    0    0    0  501  0.00000000000E+00  0.00000000000E+00 -0.40265815252E+03  0.40265815255E+03  0.50400001928E-02 0.  1.
    10030    2    1    2    0    0  0.00000000000E+00  0.00000000000E+00  0.25119778499E+04  0.33172941550E+04  0.21666582084E+04 0.  0.
        5    1    3    3  502    0 -0.30631453698E+03 -0.10658796231E+03  0.28385429281E+04  0.28570155116E+04  0.46999998093E+01 0. -1.
       -5    1    3    3    0  502  0.30631453698E+03  0.10658796231E+03 -0.32656507814E+03  0.46027864336E+03  0.46999998093E+01 0.  1.
</event>
<event>
 5   0  0.1886323E-04  0.2079893E+04  0.7818609E-02  0.8570153E-01
        2   -1    0    0  501    0  0.00000000000E+00  0.00000000000E+00  0.14610275501E+04  0.14610275501E+04  0.25500000920E-02 0. -1.
       -2   -1    0    0    0  501  0.00000000000E+00  0.00000000000E+00 -0.74022478170E+03  0.74022478171E+03  0.25500000920E-02 0.  1.
    10030    2    1    2    0    0  0.00000000000E+00  0.00000000000E+00  0.72080276841E+03  0.22012523318E+04  0.20798930736E+04 0.  0.
        2    1    3    3  502    0  0.38334901821E+03  0.84031170906E+03  0.86620858694E+03  0.12662533531E+04  0.25500000920E-02 0. -1.
       -2    1    3    3    0  502 -0.38334901821E+03 -0.84031170906E+03 -0.14540581853E+03  0.93499897872E+03  0.25500000920E-02 0.  1.
</event>
<event>
 5   0  0.8525278E-05  0.2085409E+04  0.7818609E-02  0.8567698E-01
        1   -1    0    0  501    0  0.00000000000E+00  0.00000000000E+00  0.14816466369E+04  0.14816466369E+04  0.50400001928E-02 0. -1.
       -1   -1    0    0    0  501  0.00000000000E+00  0.00000000000E+00 -0.73380046657E+03  0.73380046659E+03  0.50400001928E-02 0.  1.
    10030    2    1    2    0    0  0.00000000000E+00  0.00000000000E+00  0.74784617032E+03  0.22154471035E+04  0.20854093061E+04 0.  0.
        4    1    3    3  502    0  0.35134609628E+03  0.98163476764E+03  0.35965092751E+03  0.11029058432E+04  0.12699999809E+01 0. -1.
       -4    1    3    3    0  502 -0.35134609628E+03 -0.98163476764E+03  0.38819524280E+03  0.11125412603E+04  0.12699999809E+01 0.  1.
</event>
<event>
 5   0  0.1815400E-04  0.2100107E+04  0.7818609E-02  0.8561196E-01
        2   -1    0    0  501    0  0.00000000000E+00  0.00000000000E+00  0.92440187851E+03  0.92440187852E+03  0.25500000920E-02 0.  1.
       -2   -1    0    0    0  501  0.00000000000E+00  0.00000000000E+00 -0.11927844136E+04  0.11927844136E+04  0.25500000920E-02 0. -1.
    10030    2    1    2    0    0  0.00000000000E+00  0.00000000000E+00 -0.26838253511E+03  0.21171862921E+04  0.21001068093E+04 0.  0.
        3    1    3    3  502    0  0.60127813553E+03  0.62915763896E+03  0.45815630935E+03  0.98350492878E+03  0.10100000352E+00 0.  1.
       -3    1    3    3    0  502 -0.60127813553E+03 -0.62915763896E+03 -0.72653884446E+03  0.11336813634E+04  0.10100000352E+00 0. -1.
</event>
<event>
 5   0  0.6441125E-05  0.2168353E+04  0.7818609E-02  0.8531717E-01
       -4   -1    0    0    0  501  0.00000000000E+00  0.00000000000E+00  0.11042799653E+04  0.11042806956E+04  0.12699999809E+01 0.  1.
        4   -1    0    0  501    0  0.00000000000E+00  0.00000000000E+00 -0.10644377596E+04  0.10644385172E+04  0.12699999809E+01 0. -1.
    10030    2    1    2    0    0  0.00000000000E+00  0.00000000000E+00  0.39842205759E+02  0.21687192128E+04  0.21683532052E+04 0.  0.
        5    1    3    3  502    0 -0.53323449697E+03  0.30552209071E+03  0.91323144596E+03  0.11007708847E+04  0.46999998093E+01 0.  1.
       -5    1    3    3    0  502  0.53323449697E+03 -0.30552209071E+03 -0.87338924020E+03  0.10679483281E+04  0.46999998093E+01 0. -1.
</event>
<event>
 5   0  0.1886323E-04  0.2146463E+04  0.7818609E-02  0.8541048E-01
        2   -1    0    0  501    0  0.00000000000E+00  0.00000000000E+00  0.18697056286E+04  0.18697056286E+04  0.25500000920E-02 0. -1.
       -2   -1    0    0    0  501  0.00000000000E+00  0.00000000000E+00 -0.61604645708E+03  0.61604645709E+03  0.25500000920E-02 0.  1.
    10030    2    1    2    0    0  0.00000000000E+00  0.00000000000E+00  0.12536591715E+04  0.24857520857E+04  0.21464626978E+04 0.  0.
        2    1    3    3  502    0 -0.10588776765E+04  0.68253441514E+02  0.44029394399E+03  0.11487990351E+04  0.25500000920E-02 0.  1.
       -2    1    3    3    0  502  0.10588776765E+04 -0.68253441514E+02  0.81336522749E+03  0.13369530505E+04  0.25500000920E-02 0. -1.
</event>
<event>
 5   0  0.8755004E-05  0.2093549E+04  0.7818609E-02  0.8564090E-01
        1   -1    0    0  501    0  0.00000000000E+00  0.00000000000E+00  0.11188492064E+04  0.11188492064E+04  0.50400001928E-02 0. -1.
       -1   -1    0    0    0  501  0.00000000000E+00  0.00000000000E+00 -0.97934314581E+03  0.97934314582E+03  0.50400001928E-02 0.  1.
    10030    2    1    2    0    0  0.00000000000E+00  0.00000000000E+00  0.13950606059E+03  0.20981923522E+04  0.20935494277E+04 0.  0.
        3    1    3    3  502    0 -0.52212720815E+03 -0.59804050231E+03 -0.61401219280E+03  0.10036335223E+04  0.10100000352E+00 0.  1.
       -3    1    3    3    0  502  0.52212720815E+03  0.59804050231E+03  0.75351825339E+03  0.10945588300E+04  0.10100000352E+00 0. -1.
</event>
<event>
 5   0  0.1886323E-04  0.2108025E+04  0.7818609E-02  0.8557716E-01
       -2   -1    0    0    0  501  0.00000000000E+00  0.00000000000E+00  0.66123681721E+03  0.66123681721E+03  0.25500000920E-02 0. -1.
        2   -1    0    0  501    0  0.00000000000E+00  0.00000000000E+00 -0.16800978932E+04  0.16800978932E+04  0.25500000920E-02 0.  1.
    10030    2    1    2    0    0  0.00000000000E+00  0.00000000000E+00 -0.10188610760E+04  0.23413347104E+04  0.21080252214E+04 0.  0.
        2    1    3    3  502    0 -0.86340111772E+03  0.14757503394E+03 -0.11605777338E+04  0.14540221996E+04  0.25500000920E-02 0.  1.
       -2    1    3    3    0  502  0.86340111772E+03 -0.14757503394E+03  0.14171665783E+03  0.88731251081E+03  0.25500000920E-02 0. -1.
</event>
<event>
 5   0  0.8486612E-05  0.1844020E+04  0.7818609E-02  0.8683234E-01
       -1   -1    0    0    0  501  0.00000000000E+00  0.00000000000E+00  0.14621172976E+04  0.14621172976E+04  0.50400001928E-02 0.  1.
        1   -1    0    0  501    0  0.00000000000E+00  0.00000000000E+00 -0.58141883102E+03  0.58141883104E+03  0.50400001928E-02 0. -1.
    10030    2    1    2    0    0  0.00000000000E+00  0.00000000000E+00  0.88069846656E+03  0.20435361286E+04  0.18440200975E+04 0.  0.
        5    1    3    3  502    0  0.51303437204E+03  0.62781037800E+03 -0.46160654885E+02  0.81209792124E+03  0.46999998093E+01 0. -1.
       -5    1    3    3    0  502 -0.51303437204E+03 -0.62781037800E+03  0.92685912145E+03  0.12314382074E+04  0.46999998093E+01 0.  1.
</event>
<event>
 5   0  0.8525278E-05  0.2060704E+04  0.7818609E-02  0.8578754E-01
        1   -1    0    0  501    0  0.00000000000E+00  0.00000000000E+00  0.62504511368E+03  0.62504511370E+03  0.50400001928E-02 0. -1.
       -1   -1    0    0    0  501  0.00000000000E+00  0.00000000000E+00 -0.16984777237E+04  0.16984777237E+04  0.50400001928E-02 0.  1.
    10030    2    1    2    0    0  0.00000000000E+00  0.00000000000E+00 -0.10734326100E+04  0.23235228374E+04  0.20607039593E+04 0.  0.
        4    1    3    3  502    0 -0.16468898468E+02  0.10150491514E+04 -0.33810437838E+03  0.10700056953E+04  0.12699999809E+01 0. -1.
       -4    1    3    3    0  502  0.16468898468E+02 -0.10150491514E+04 -0.73532823166E+03  0.12535171421E+04  0.12699999809E+01 0.  1.
</event>
<event>
 5   0  0.1815400E-04  0.2011988E+04  0.7818609E-02  0.8601036E-01
       -2   -1    0    0    0  501  0.00000000000E+00  0.00000000000E+00  0.55093396235E+03  0.55093396235E+03  0.25500000920E-02 0.  1.
        2   -1    0    0  501    0  0.00000000000E+00  0.00000000000E+00 -0.18369248148E+04  0.18369248148E+04  0.25500000920E-02 0. -1.
    10030    2    1    2    0    0  0.00000000000E+00  0.00000000000E+00 -0.12859908524E+04  0.23878587771E+04  0.20119883367E+04 0.  0.
        3    1    3    3  502    0 -0.23419797730E+03  0.30781113653E+03  0.45916438290E+03  0.60035683478E+03  0.10100000352E+00 0.  1.
       -3    1    3    3    0  502  0.23419797730E+03 -0.30781113653E+03 -0.17451552353E+04  0.17875019424E+04  0.10100000352E+00 0. -1.
</event>
<event>
 5   0  0.8755004E-05  0.1937777E+04  0.7818609E-02  0.8636277E-01
        1   -1    0    0  501    0  0.00000000000E+00  0.00000000000E+00  0.84221408191E+03  0.84221408192E+03  0.50400001928E-02 0. -1.
       -1   -1    0    0    0  501  0.00000000000E+00  0.00000000000E+00 -0.11146160080E+04  0.11146160080E+04  0.50400001928E-02 0.  1.
    10030    2    1    2    0    0  0.00000000000E+00  0.00000000000E+00 -0.27240192611E+03  0.19568300900E+04  0.19377773844E+04 0.  0.
        3    1    3    3  502    0 -0.91960284871E+03  0.56144936702E+02 -0.43902208247E+03  0.10205694745E+04  0.10100000352E+00 0.  1.
       -3    1    3    3    0  502  0.91960284871E+03 -0.56144936702E+02  0.16662015636E+03  0.93626061541E+03  0.10100000352E+00 0. -1.
</event>
<event>
 5   0  0.8271069E-05  0.2115630E+04  0.7818609E-02  0.8554389E-01
        1   -1    0    0  501    0  0.00000000000E+00  0.00000000000E+00  0.56927013717E+03  0.56927013719E+03  0.50400001928E-02 0. -1.
       -1   -1    0    0    0  501  0.00000000000E+00  0.00000000000E+00 -0.19656272035E+04  0.19656272035E+04  0.50400001928E-02 0.  1.
    10030    2    1    2    0    0  0.00000000000E+00  0.00000000000E+00 -0.13963570663E+04  0.25348973407E+04  0.21156302775E+04 0.  0.
        2    1    3    3  502    0 -0.81648178687E+02 -0.44189801459E+03  0.44921655530E+03  0.63540207267E+03  0.25500000920E-02 0. -1.
       -2    1    3    3    0  502  0.81648178687E+02  0.44189801459E+03 -0.18455736216E+04  0.18994952680E+04  0.25500000920E-02 0.  1.
</event>
<event>
 5   0  0.8271069E-05  0.2091660E+04  0.7818609E-02  0.8564926E-01
       -1   -1    0    0    0  501  0.00000000000E+00  0.00000000000E+00  0.66042095706E+03  0.66042095708E+03  0.50400001928E-02 0. -1.
        1   -1    0    0  501    0  0.00000000000E+00  0.00000000000E+00 -0.16561567431E+04  0.16561567431E+04  0.50400001928E-02 0.  1.
    10030    2    1    2    0    0  0.00000000000E+00  0.00000000000E+00 -0.99573578603E+03  0.23165777002E+04  0.20916602223E+04 0.  0.
        2    1    3    3  502    0 -0.62858568207E+03  0.52368349160E+03  0.22364070233E+03  0.84816243894E+03  0.25500000920E-02 0. -1.
       -2    1    3    3    0  502  0.62858568207E+03 -0.52368349160E+03 -0.12193764884E+04  0.14684152612E+04  0.25500000920E-02 0.  1.
</event>
<event>
 5   0  0.1777590E-04  0.1936931E+04  0.7818609E-02  0.8636689E-01
       -2   -1    0    0    0  501  0.00000000000E+00  0.00000000000E+00  0.48491638697E+03  0.48491638698E+03  0.25500000920E-02 0.  1.
        2   -1    0    0  501    0  0.00000000000E+00  0.00000000000E+00 -0.19342001356E+04  0.19342001356E+04  0.25500000920E-02 0. -1.
    10030    2    1    2    0    0  0.00000000000E+00  0.00000000000E+00 -0.14492837486E+04  0.24191165225E+04  0.19369309140E+04 0.  0.
        4    1    3    3  502    0 -0.62979611070E+02  0.26321915391E+03 -0.18860065158E+04  0.19053275165E+04  0.12699999809E+01 0. -1.
       -4    1    3    3    0  502  0.62979611070E+02 -0.26321915391E+03  0.43672276725E+03  0.51378900605E+03  0.12699999809E+01 0.  1.
</event>
<event>
 5   0  0.8237966E-05  0.2135777E+04  0.7818609E-02  0.8545645E-01
        1   -1    0    0  501    0  0.00000000000E+00  0.00000000000E+00  0.18471625468E+04  0.18471625468E+04  0.50400001928E-02 0.  1.
       -1   -1    0    0    0  501  0.00000000000E+00  0.00000000000E+00 -0.61737167195E+03  0.61737167197E+03  0.50400001928E-02 0. -1.
    10030    2    1    2    0    0  0.00000000000E+00  0.00000000000E+00  0.12297908748E+04  0.24645342188E+04  0.21357769827E+04 0.  0.
        1    1    3    3  502    0  0.73829489440E+03  0.66463748081E+02 -0.27212151761E+03  0.78964985992E+03  0.50400001928E-02 0. -1.
       -1    1    3    3    0  502 -0.73829489440E+03 -0.66463748081E+02  0.15019123924E+04  0.16748843588E+04  0.50400001928E-02 0.  1.
</event>
<event>
 5   0  0.8237966E-05  0.2115227E+04  0.7818609E-02  0.8554565E-01
       -1   -1    0    0    0  501  0.00000000000E+00  0.00000000000E+00  0.15490108858E+04  0.15490108858E+04  0.50400001928E-02 0.  1.
        1   -1    0    0  501    0  0.00000000000E+00  0.00000000000E+00 -0.72210370796E+03  0.72210370798E+03  0.50400001928E-02 0. -1.
    10030    2    1    2    0    0  0.00000000000E+00  0.00000000000E+00  0.82690717780E+03  0.22711145937E+04  0.21152271786E+04 0.  0.
        1    1    3    3  502    0  0.51039724263E+03 -0.27651685599E+02  0.14075820335E+04  0.14975169922E+04  0.50400001928E-02 0.  1.
       -1    1    3    3    0  502 -0.51039724263E+03  0.27651685599E+02 -0.58067485569E+03  0.77359760151E+03  0.50400001928E-02 0. -1.
</event>
<event>
 5   0  0.1921687E-04  0.2094391E+04  0.7818609E-02  0.8563718E-01
       -2   -1    0    0    0  501  0.00000000000E+00  0.00000000000E+00  0.83810013327E+03  0.83810013328E+03  0.25500000920E-02 0. -1.
        2   -1    0    0  501    0  0.00000000000E+00  0.00000000000E+00 -0.13084576392E+04  0.13084576392E+04  0.25500000920E-02 0.  1.
    10030    2    1    2    0    0  0.00000000000E+00  0.00000000000E+00 -0.47035750593E+03  0.21465577725E+04  0.20943911018E+04 0.  0.
        5    1    3    3  502    0  0.23979656066E+03 -0.77995927548E+03 -0.90784750975E+03  0.12206752446E+04  0.46999998093E+01 0.  1.
       -5    1    3    3    0  502 -0.23979656066E+03  0.77995927548E+03  0.43749000382E+03  0.92588252784E+03  0.46999998093E+01 0. -1.
</event>
<event>
 5   0  0.1810875E-04  0.2075842E+04  0.7818609E-02  0.8571960E-01
       -2   -1    0    0    0  501  0.00000000000E+00  0.00000000000E+00  0.87102723999E+03  0.87102723999E+03  0.25500000920E-02 0. -1.
        2   -1    0    0  501    0  0.00000000000E+00  0.00000000000E+00 -0.12367927746E+04  0.12367927746E+04  0.25500000920E-02 0.  1.
    10030    2    1    2    0    0  0.00000000000E+00  0.00000000000E+00 -0.36576553459E+03  0.21078200146E+04  0.20758421875E+04 0.  0.
        1    1    3    3  502    0  0.22355254299E+03 -0.83136169547E+03 -0.77159180337E+03  0.11560674371E+04  0.50400001928E-02 0.  1.
       -1    1    3    3    0  502 -0.22355254299E+03  0.83136169547E+03  0.40582626878E+03  0.95175257742E+03  0.50400001928E-02 0. -1.
</event>
<event>
 5   0  0.1810875E-04  0.2108591E+04  0.7818609E-02  0.8557468E-01
        2   -1    0    0  501    0  0.00000000000E+00  0.00000000000E+00  0.29843020343E+04  0.29843020343E+04  0.25500000920E-02 0.  1.
       -2   -1    0    0    0  501  0.00000000000E+00  0.00000000000E+00 -0.37246210412E+03  0.37246210413E+03  0.25500000920E-02 0. -1.
    10030    2    1    2    0    0  0.00000000000E+00  0.00000000000E+00  0.26118399302E+04  0.33567641384E+04  0.21085913924E+04 0.  0.
        1    1    3    3  502    0  0.23007407256E+03  0.10174498833E+04  0.15494464869E+04  0.18678658302E+04  0.50400001928E-02 0. -1.
       -1    1    3    3    0  502 -0.23007407256E+03 -0.10174498833E+04  0.10623934433E+04  0.14888983082E+04  0.50400001928E-02 0.  1.
</event>
<event>
 5   0  0.8755004E-05  0.2094791E+04  0.7818609E-02  0.8563541E-01
        1   -1    0    0  501    0  0.00000000000E+00  0.00000000000E+00  0.16881150813E+04  0.16881150813E+04  0.50400001928E-02 0. -1.
       -1   -1    0    0    0  501  0.00000000000E+00  0.00000000000E+00 -0.64985935733E+03  0.64985935735E+03  0.50400001928E-02 0.  1.
    10030    2    1    2    0    0  0.00000000000E+00  0.00000000000E+00  0.10382557239E+04  0.23379744386E+04  0.20947910462E+04 0.  0.
        3    1    3    3  502    0 -0.61771350916E+03  0.80808775204E+03  0.24019124905E+03  0.10451160896E+04  0.10100000352E+00 0. -1.
       -3    1    3    3    0  502  0.61771350916E+03 -0.80808775204E+03  0.79806447489E+03  0.12928583490E+04  0.10100000352E+00 0.  1.
</event>
<event>
 5   0  0.1921687E-04  0.2048456E+04  0.7818609E-02  0.8584295E-01
       -2   -1    0    0    0  501  0.00000000000E+00  0.00000000000E+00  0.43949327077E+03  0.43949327078E+03  0.25500000920E-02 0.  1.
        2   -1    0    0  501    0  0.00000000000E+00  0.00000000000E+00 -0.23869364868E+04  0.23869364868E+04  0.25500000920E-02 0. -1.
    10030    2    1    2    0    0  0.00000000000E+00  0.00000000000E+00 -0.19474432160E+04  0.28264297576E+04  0.20484555389E+04 0.  0.
        5    1    3    3  502    0  0.29845946645E+03  0.67280429113E+03 -0.19564514418E+04  0.20903272474E+04  0.46999998093E+01 0. -1.
       -5    1    3    3    0  502 -0.29845946645E+03 -0.67280429113E+03  0.90082257829E+01  0.73610251012E+03  0.46999998093E+01 0.  1.
</event>
<event>
 5   0  0.1886323E-04  0.2374453E+04  0.7818609E-02  0.8449130E-01
       -2   -1    0    0    0  501  0.00000000000E+00  0.00000000000E+00  0.77095955058E+03  0.77095955059E+03  0.25500000920E-02 0.  1.
        2   -1    0    0  501    0  0.00000000000E+00  0.00000000000E+00 -0.18282504444E+04  0.18282504444E+04  0.25500000920E-02 0. -1.
    10030    2    1    2    0    0  0.00000000000E+00  0.00000000000E+00 -0.10572908938E+04  0.25992099950E+04  0.23744533190E+04 0.  0.
        2    1    3    3  502    0  0.52228234022E+03 -0.77145313540E+03 -0.13342323417E+04  0.16272967537E+04  0.25500000920E-02 0. -1.
       -2    1    3    3    0  502 -0.52228234022E+03  0.77145313540E+03  0.27694144787E+03  0.97191324128E+03  0.25500000920E-02 0.  1.
</event>
<event>
 5   0  0.8486612E-05  0.2090489E+04  0.7818609E-02  0.8565445E-01
       -1   -1    0    0    0  501  0.00000000000E+00  0.00000000000E+00  0.12557098115E+04  0.12557098115E+04  0.50400001928E-02 0.  1.
        1   -1    0    0  501    0  0.00000000000E+00  0.00000000000E+00 -0.87005422123E+03  0.87005422125E+03  0.50400001928E-02 0. -1.
    10030    2    1    2    0    0  0.00000000000E+00  0.00000000000E+00  0.38565559026E+03  0.21257640328E+04  0.20904885765E+04 0.  0.
        5    1    3    3  502    0  0.52462321302E+03 -0.90246717450E+03  0.13866536927E+03  0.10530558823E+04  0.46999998093E+01 0. -1.
       -5    1    3    3    0  502 -0.52462321302E+03  0.90246717450E+03  0.24699022099E+03  0.10727081504E+04  0.46999998093E+01 0.  1.
</event>
<event>
 5   0  0.1810875E-04  0.2303729E+04  0.7818609E-02  0.8476452E-01
       -2   -1    0    0    0  501  0.00000000000E+00  0.00000000000E+00  0.44810990434E+03  0.44810990434E+03  0.25500000920E-02 0. -1.
        2   -1    0    0  501    0  0.00000000000E+00  0.00000000000E+00 -0.29608626648E+04  0.29608626648E+04  0.25500000920E-02 0.  1.
    10030    2    1    2    0    0  0.00000000000E+00  0.00000000000E+00 -0.25127527605E+04  0.34089725691E+04  0.23037290513E+04 0.  0.
        1    1    3    3  502    0 -0.25701490917E+03  0.73534226719E+03 -0.74992190824E+00  0.77896436110E+03  0.50400001928E-02 0. -1.
       -1    1    3    3    0  502  0.25701490917E+03 -0.73534226719E+03 -0.25120028386E+04  0.26300082081E+04  0.50400001928E-02 0.  1.
</event>
<event>
 5   0  0.1777590E-04  0.2063424E+04  0.7818609E-02  0.8577529E-01
       -2   -1    0    0    0  501  0.00000000000E+00  0.00000000000E+00  0.48650545072E+03  0.48650545072E+03  0.25500000920E-02 0. -1.
        2   -1    0    0  501    0  0.00000000000E+00  0.00000000000E+00 -0.21879085825E+04  0.21879085825E+04  0.25500000920E-02 0.  1.
    10030    2    1    2    0    0  0.00000000000E+00  0.00000000000E+00 -0.17014031318E+04  0.26744140332E+04  0.20634238063E+04 0.  0.
        4    1    3    3  502    0  0.36367924127E+03  0.69061045623E+03  0.23782779464E+02  0.78087939292E+03  0.12699999809E+01 0. -1.
       -4    1    3    3    0  502 -0.36367924127E+03 -0.69061045623E+03 -0.17251859113E+04  0.18935346403E+04  0.12699999809E+01 0.  1.
</event>
<event>
 5   0  0.1810875E-04  0.2103289E+04  0.7818609E-02  0.8559796E-01
       -2   -1    0    0    0  501  0.00000000000E+00  0.00000000000E+00  0.74924770794E+03  0.74924770794E+03  0.25500000920E-02 0. -1.
        2   -1    0    0  501    0  0.00000000000E+00  0.00000000000E+00 -0.14760889244E+04  0.14760889244E+04  0.25500000920E-02 0.  1.
    10030    2    1    2    0    0  0.00000000000E+00  0.00000000000E+00 -0.72684121646E+03  0.22253366323E+04  0.21032890846E+04 0.  0.
        1    1    3    3  502    0 -0.73977917508E+03  0.23553743894E+03 -0.11139527214E+04  0.13578077105E+04  0.50400001928E-02 0.  1.
       -1    1    3    3    0  502  0.73977917508E+03 -0.23553743894E+03  0.38711150495E+03  0.86752892189E+03  0.50400001928E-02 0. -1.
</event>
<event>
 5   0  0.1886323E-04  0.2135567E+04  0.7818609E-02  0.8545735E-01
        2   -1    0    0  501    0  0.00000000000E+00  0.00000000000E+00  0.12620452069E+04  0.12620452069E+04  0.25500000920E-02 0.  1.
       -2   -1    0    0    0  501  0.00000000000E+00  0.00000000000E+00 -0.90342409922E+03  0.90342409922E+03  0.25500000920E-02 0. -1.
    10030    2    1    2    0    0  0.00000000000E+00  0.00000000000E+00  0.35862110771E+03  0.21654693062E+04  0.21355674227E+04 0.  0.
        2    1    3    3  502    0 -0.88978822667E+03 -0.24709113135E+03  0.72289966301E+03  0.11727578771E+04  0.25500000920E-02 0.  1.
       -2    1    3    3    0  502  0.88978822667E+03  0.24709113135E+03 -0.36427855529E+03  0.99271142905E+03  0.25500000920E-02 0. -1.
</event>
<event>
 5   0  0.8271069E-05  0.2202677E+04  0.7818609E-02  0.8517315E-01
       -1   -1    0    0    0  501  0.00000000000E+00  0.00000000000E+00  0.13690179997E+04  0.13690179997E+04  0.50400001928E-02 0.  1.
        1   -1    0    0  501    0  0.00000000000E+00  0.00000000000E+00 -0.88599749708E+03  0.88599749709E+03  0.50400001928E-02 0. -1.
    10030    2    1    2    0    0  0.00000000000E+00  0.00000000000E+00  0.48302050262E+03  0.22550154968E+04  0.22026770269E+04 0.  0.
        2    1    3    3  502    0  0.76745935821E+02  0.40910119565E+02  0.13654970995E+04  0.13682638288E+04  0.25500000920E-02 0.  1.
       -2    1    3    3    0  502 -0.76745935821E+02 -0.40910119565E+02 -0.88247659689E+03  0.88675166795E+03  0.25500000920E-02 0. -1.
</event>
<event>
 5   0  0.8271069E-05  0.2083632E+04  0.7818609E-02  0.8568488E-01
       -1   -1    0    0    0  501  0.00000000000E+00  0.00000000000E+00  0.54569995286E+03  0.54569995288E+03  0.50400001928E-02 0.  1.
        1   -1    0    0  501    0  0.00000000000E+00  0.00000000000E+00 -0.19889693279E+04  0.19889693279E+04  0.50400001928E-02 0. -1.
    10030    2    1    2    0    0  0.00000000000E+00  0.00000000000E+00 -0.14432693751E+04  0.25346692808E+04  0.20836318951E+04 0.  0.
        2    1    3    3  502    0 -0.10349548066E+04 -0.44709763171E+02 -0.58699617516E+03  0.11906699477E+04  0.25500000920E-02 0. -1.
       -2    1    3    3    0  502  0.10349548066E+04  0.44709763171E+02 -0.85627319990E+03  0.13439993331E+04  0.25500000920E-02 0.  1.
</event>
<event>
 5   0  0.1810875E-04  0.2123793E+04  0.7818609E-02  0.8550834E-01
        2   -1    0    0  501    0  0.00000000000E+00  0.00000000000E+00  0.21343236998E+04  0.21343236998E+04  0.25500000920E-02 0. -1.
       -2   -1    0    0    0  501  0.00000000000E+00  0.00000000000E+00 -0.52832877753E+03  0.52832877754E+03  0.25500000920E-02 0.  1.
    10030    2    1    2    0    0  0.00000000000E+00  0.00000000000E+00  0.16059949223E+04  0.26626524774E+04  0.21237934280E+04 0.  0.
        1    1    3    3  502    0 -0.60383643383E+03 -0.41322325734E+03  0.17678384629E+04  0.19132759159E+04  0.50400001928E-02 0. -1.
       -1    1    3    3    0  502  0.60383643383E+03  0.41322325734E+03 -0.16184354064E+03  0.74937656149E+03  0.50400001928E-02 0.  1.
</event>
<event>
 5   0  0.8237966E-05  0.2104130E+04  0.7818609E-02  0.8559426E-01
       -1   -1    0    0    0  501  0.00000000000E+00  0.00000000000E+00  0.81264858635E+03  0.81264858637E+03  0.50400001928E-02 0.  1.
        1   -1    0    0  501    0  0.00000000000E+00  0.00000000000E+00 -0.13620164700E+04  0.13620164700E+04  0.50400001928E-02 0. -1.
    10030    2    1    2    0    0  0.00000000000E+00  0.00000000000E+00 -0.54936788365E+03  0.21746650564E+04  0.21041299950E+04 0.  0.
        1    1    3    3  502    0  0.85159295560E+02  0.57073891138E+03  0.63449006140E+03  0.85765532041E+03  0.50400001928E-02 0.  1.
       -1    1    3    3    0  502 -0.85159295560E+02 -0.57073891138E+03 -0.11838579450E+04  0.13170097360E+04  0.50400001928E-02 0. -1.
</event>
<event>
 5   0  0.8486612E-05  0.2099731E+04  0.7818609E-02  0.8561362E-01
       -1   -1    0    0    0  501  0.00000000000E+00  0.00000000000E+00  0.14870204571E+04  0.14870204571E+04  0.50400001928E-02 0. -1.
        1   -1    0    0  501    0  0.00000000000E+00  0.00000000000E+00 -0.74122588103E+03  0.74122588105E+03  0.50400001928E-02 0.  1.
    10030    2    1    2    0    0  0.00000000000E+00  0.00000000000E+00  0.74579457606E+03  0.22282463382E+04  0.20997314575E+04 0.  0.
        5    1    3    3  502    0 -0.61506965283E+03 -0.75183410050E+03 -0.49764666802E+02  0.97265811289E+03  0.46999998093E+01 0.  1.
       -5    1    3    3    0  502  0.61506965283E+03  0.75183410050E+03  0.79555924287E+03  0.12555882253E+04  0.46999998093E+01 0. -1.
</event>
<event>
 5   0  0.1815400E-04  0.2127343E+04  0.7818609E-02  0.8549293E-01
       -2   -1    0    0    0  501  0.00000000000E+00  0.00000000000E+00  0.49792800285E+03  0.49792800286E+03  0.25500000920E-02 0.  1.
        2   -1    0    0  501    0  0.00000000000E+00  0.00000000000E+00 -0.22722098717E+04  0.22722098717E+04  0.25500000920E-02 0. -1.
    10030    2    1    2    0    0  0.00000000000E+00  0.00000000000E+00 -0.17742818688E+04  0.27701378745E+04  0.21273428717E+04 0.  0.
        3    1    3    3  502    0 -0.18543371778E+03  0.87966950254E+03 -0.16274187623E+04  0.18592191736E+04  0.10100000352E+00 0. -1.
       -3    1    3    3    0  502  0.18543371778E+03 -0.87966950254E+03 -0.14686310648E+03  0.91091870090E+03  0.10100000352E+00 0.  1.
</event>
<event>
 5   0  0.8525278E-05  0.1960948E+04  0.7818609E-02  0.8625100E-01
        1   -1    0    0  501    0  0.00000000000E+00  0.00000000000E+00  0.88328963397E+03  0.88328963399E+03  0.50400001928E-02 0.  1.
       -1   -1    0    0    0  501  0.00000000000E+00  0.00000000000E+00 -0.10883508802E+04  0.10883508802E+04  0.50400001928E-02 0. -1.
    10030    2    1    2    0    0  0.00000000000E+00  0.00000000000E+00 -0.20506124624E+03  0.19716405142E+04  0.19609477817E+04 0.  0.
        4    1    3    3  502    0 -0.71590878236E+03  0.39349947947E+03 -0.64766802655E+03  0.10425174869E+04  0.12699999809E+01 0. -1.
       -4    1    3    3    0  502  0.71590878236E+03 -0.39349947947E+03  0.44260678031E+03  0.92912302730E+03  0.12699999809E+01 0.  1.
</event>
<event>
 5   0  0.1886323E-04  0.2093301E+04  0.7818609E-02  0.8564200E-01
        2   -1    0    0  501    0  0.00000000000E+00  0.00000000000E+00  0.17484328677E+04  0.17484328677E+04  0.25500000920E-02 0. -1.
       -2   -1    0    0    0  501  0.00000000000E+00  0.00000000000E+00 -0.62654807158E+03  0.62654807158E+03  0.25500000920E-02 0.  1.
    10030    2    1    2    0    0  0.00000000000E+00  0.00000000000E+00  0.11218847962E+04  0.23749809393E+04  0.20933009736E+04 0.  0.
        2    1    3    3  502    0  0.91947188195E+03 -0.13944123552E+03  0.11057744688E+04  0.14448562474E+04  0.25500000920E-02 0. -1.
       -2    1    3    3    0  502 -0.91947188195E+03  0.13944123552E+03  0.16110327397E+02  0.93012469192E+03  0.25500000920E-02 0.  1.
</event>
<event>
 5   0  0.8525278E-05  0.2098929E+04  0.7818609E-02  0.8561715E-01
        1   -1    0    0  501    0  0.00000000000E+00  0.00000000000E+00  0.16640061948E+04  0.16640061948E+04  0.50400001928E-02 0. -1.
       -1   -1    0    0    0  501  0.00000000000E+00  0.00000000000E+00 -0.66188174481E+03  0.66188174483E+03  0.50400001928E-02 0.  1.
    10030    2    1    2    0    0  0.00000000000E+00  0.00000000000E+00  0.10021244500E+04  0.23258879396E+04  0.20989286063E+04 0.  0.
        4    1    3    3  502    0  0.63986078511E+03  0.83153452199E+03  0.47622858737E+03  0.11522442301E+04  0.12699999809E+01 0. -1.
       -4    1    3    3    0  502 -0.63986078511E+03 -0.83153452199E+03  0.52589586263E+03  0.11736437095E+04  0.12699999809E+01 0.  1.
</event>
<event>
 5   0  0.8237966E-05  0.2103772E+04  0.7818609E-02  0.8559584E-01
       -1   -1    0    0    0  501  0.00000000000E+00  0.00000000000E+00  0.91296653170E+03  0.91296653172E+03  0.50400001928E-02 0.  1.
        1   -1    0    0  501    0  0.00000000000E+00  0.00000000000E+00 -0.12119434293E+04  0.12119434293E+04  0.50400001928E-02 0. -1.
    10030    2    1    2    0    0  0.00000000000E+00  0.00000000000E+00 -0.29897689759E+03  0.21249099610E+04  0.21037716504E+04 0.  0.
        1    1    3    3  502    0 -0.35031737081E+03  0.12829241079E+03 -0.11428757835E+04  0.12022255444E+04  0.50400001928E-02 0. -1.
       -1    1    3    3    0  502  0.35031737081E+03 -0.12829241079E+03  0.84389888595E+03  0.92268441663E+03  0.50400001928E-02 0.  1.
</event>
<event>
 5   0  0.1921687E-04  0.2066138E+04  0.7818609E-02  0.8576308E-01
       -2   -1    0    0    0  501  0.00000000000E+00  0.00000000000E+00  0.88943804028E+03  0.88943804029E+03  0.25500000920E-02 0.  1.
        2   -1    0    0  501    0  0.00000000000E+00  0.00000000000E+00 -0.11998939521E+04  0.11998939521E+04  0.25500000920E-02 0. -1.
    10030    2    1    2    0    0  0.00000000000E+00  0.00000000000E+00 -0.31045591184E+03  0.20893319924E+04  0.20661377740E+04 0.  0.
        5    1    3    3  502    0 -0.89358664066E+03 -0.23612670050E+03  0.31142439255E+03  0.97532566117E+03  0.46999998093E+01 0.  1.
       -5    1    3    3    0  502  0.89358664066E+03  0.23612670050E+03 -0.62188030439E+03  0.11140063312E+04  0.46999998093E+01 0. -1.
</event>
<event>
 5   0  0.8755004E-05  0.2152741E+04  0.7818609E-02  0.8538360E-01
       -1   -1    0    0    0  501  0.00000000000E+00  0.00000000000E+00  0.10473666509E+04  0.10473666509E+04  0.50400001928E-02 0. -1.
        1   -1    0    0  501    0  0.00000000000E+00  0.00000000000E+00 -0.11061770643E+04  0.11061770643E+04  0.50400001928E-02 0.  1.
    10030    2    1    2    0    0  0.00000000000E+00  0.00000000000E+00 -0.58810413404E+02  0.21535437153E+04  0.21527405484E+04 0.  0.
        3    1    3    3  502    0  0.82697338104E+03  0.56840037018E+03  0.36011007166E+03  0.10661347137E+04  0.10100000352E+00 0. -1.
       -3    1    3    3    0  502 -0.82697338104E+03 -0.56840037018E+03 -0.41892048506E+03  0.10874090016E+04  0.10100000352E+00 0.  1.
</event>
<event>
 5   0  0.8486612E-05  0.2050077E+04  0.7818609E-02  0.8583559E-01
        1   -1    0    0  501    0  0.00000000000E+00  0.00000000000E+00  0.61031373848E+03  0.61031373850E+03  0.50400001928E-02 0. -1.
       -1   -1    0    0    0  501  0.00000000000E+00  0.00000000000E+00 -0.17215800195E+04  0.17215800195E+04  0.50400001928E-02 0.  1.
    10030    2    1    2    0    0  0.00000000000E+00  0.00000000000E+00 -0.11112662810E+04  0.23318937580E+04  0.20500770111E+04 0.  0.
        5    1    3    3  502    0  0.84894866102E+03  0.20377095428E+03 -0.11665335353E+04  0.14570720675E+04  0.46999998093E+01 0.  1.
       -5    1    3    3    0  502 -0.84894866102E+03 -0.20377095428E+03  0.55267254267E+02  0.87482169054E+03  0.46999998093E+01 0. -1.
</event>
<event>
 5   0  0.1886323E-04  0.2062132E+04  0.7818609E-02  0.8578110E-01
        2   -1    0    0  501    0  0.00000000000E+00  0.00000000000E+00  0.17804981298E+04  0.17804981298E+04  0.25500000920E-02 0. -1.
       -2   -1    0    0    0  501  0.00000000000E+00  0.00000000000E+00 -0.59707866765E+03  0.59707866766E+03  0.25500000920E-02 0.  1.
    10030    2    1    2    0    0  0.00000000000E+00  0.00000000000E+00  0.11834194622E+04  0.23775767975E+04  0.20621323441E+04 0.  0.
        2    1    3    3  502    0 -0.77683293183E+03  0.59003323357E+03  0.20673369232E+03  0.99716971486E+03  0.25500000920E-02 0. -1.
       -2    1    3    3    0  502  0.77683293183E+03 -0.59003323357E+03  0.97668576984E+03  0.13804070826E+04  0.25500000920E-02 0.  1.
</event>
<event>
 5   0  0.1777590E-04  0.1993051E+04  0.7818609E-02  0.8609877E-01
       -2   -1    0    0    0  501  0.00000000000E+00  0.00000000000E+00  0.53278478876E+03  0.53278478876E+03  0.25500000920E-02 0. -1.
        2   -1    0    0  501    0  0.00000000000E+00  0.00000000000E+00 -0.18639098488E+04  0.18639098488E+04  0.25500000920E-02 0.  1.
    10030    2    1    2    0    0  0.00000000000E+00  0.00000000000E+00 -0.13311250600E+04  0.23966946375E+04  0.19930507420E+04 0.  0.
        4    1    3    3  502    0 -0.86363904412E+03  0.34654275187E+03 -0.10942708082E+04  0.14364520500E+04  0.12699999809E+01 0.  1.
       -4    1    3    3    0  502  0.86363904412E+03 -0.34654275187E+03 -0.23685425182E+03  0.96024258753E+03  0.12699999809E+01 0. -1.
</event>
<event>
 5   0  0.8755004E-05  0.1966018E+04  0.7818609E-02  0.8622675E-01
        1   -1    0    0  501    0  0.00000000000E+00  0.00000000000E+00  0.10717130224E+04  0.10717130224E+04  0.50400001928E-02 0.  1.
       -1   -1    0    0    0  501  0.00000000000E+00  0.00000000000E+00 -0.90164719354E+03  0.90164719355E+03  0.50400001928E-02 0. -1.
    10030    2    1    2    0    0  0.00000000000E+00  0.00000000000E+00  0.17006582885E+03  0.19733602160E+04  0.19660183508E+04 0.  0.
        3    1    3    3  502    0 -0.52801720822E+03  0.70432600806E+03  0.52419364165E+03  0.10245273456E+04  0.10100000352E+00 0.  1.
       -3    1    3    3    0  502  0.52801720822E+03 -0.70432600806E+03 -0.35412781279E+03  0.94883287032E+03  0.10100000352E+00 0. -1.
</event>
<event>
 5   0  0.1886323E-04  0.2102391E+04  0.7818609E-02  0.8560191E-01
       -2   -1    0    0    0  501  0.00000000000E+00  0.00000000000E+00  0.46447190077E+03  0.46447190078E+03  0.25500000920E-02 0. -1.
        2   -1    0    0  501    0  0.00000000000E+00  0.00000000000E+00 -0.23790721103E+04  0.23790721103E+04  0.25500000920E-02 0.  1.
    10030    2    1    2    0    0  0.00000000000E+00  0.00000000000E+00 -0.19146002095E+04  0.28435440111E+04  0.21023911579E+04 0.  0.
        2    1    3    3  502    0 -0.74363957864E+03 -0.12889873059E+03 -0.19469568249E+04  0.20881225021E+04  0.25500000920E-02 0.  1.
       -2    1    3    3    0  502  0.74363957864E+03  0.12889873059E+03  0.32356615392E+02  0.75542150898E+03  0.25500000920E-02 0. -1.
</event>
<event>
 5   0  0.1777590E-04  0.2125530E+04  0.7818609E-02  0.8550080E-01
       -2   -1    0    0    0  501  0.00000000000E+00  0.00000000000E+00  0.79266012491E+03  0.79266012492E+03  0.25500000920E-02 0.  1.
        2   -1    0    0  501    0  0.00000000000E+00  0.00000000000E+00 -0.14249106938E+04  0.14249106938E+04  0.25500000920E-02 0. -1.
    10030    2    1    2    0    0  0.00000000000E+00  0.00000000000E+00 -0.63225056888E+03  0.22175708187E+04  0.21255304171E+04 0.  0.
        4    1    3    3  502    0  0.92288915469E+03  0.15718820772E+03 -0.84093409454E+03  0.12584134014E+04  0.12699999809E+01 0.  1.
       -4    1    3    3    0  502 -0.92288915469E+03 -0.15718820772E+03  0.20868352565E+03  0.95915741735E+03  0.12699999809E+01 0. -1.
</event>
<event>
 5   0  0.1815400E-04  0.1947551E+04  0.7818609E-02  0.8631542E-01
       -2   -1    0    0    0  501  0.00000000000E+00  0.00000000000E+00  0.71496340999E+03  0.71496340999E+03  0.25500000920E-02 0. -1.
        2   -1    0    0  501    0  0.00000000000E+00  0.00000000000E+00 -0.13262762826E+04  0.13262762826E+04  0.25500000920E-02 0.  1.
    10030    2    1    2    0    0  0.00000000000E+00  0.00000000000E+00 -0.61131287261E+03  0.20412396926E+04  0.19475512970E+04 0.  0.
        3    1    3    3  502    0 -0.45767918849E+03 -0.72399989120E+03  0.17986990344E+03  0.87521384495E+03  0.10100000352E+00 0. -1.
       -3    1    3    3    0  502  0.45767918849E+03  0.72399989120E+03 -0.79118277604E+03  0.11660258476E+04  0.10100000352E+00 0.  1.
</event>
<event>
 5   0  0.8486612E-05  0.1940297E+04  0.7818609E-02  0.8635054E-01
       -1   -1    0    0    0  501  0.00000000000E+00  0.00000000000E+00  0.82313453707E+03  0.82313453708E+03  0.50400001928E-02 0.  1.
        1   -1    0    0  501    0  0.00000000000E+00  0.00000000000E+00 -0.11434193882E+04  0.11434193882E+04  0.50400001928E-02 0. -1.
    10030    2    1    2    0    0  0.00000000000E+00  0.00000000000E+00 -0.32028485116E+03  0.19665539253E+04  0.19402968730E+04 0.  0.
        5    1    3    3  502    0 -0.39903690171E+03  0.10043068315E+03 -0.10505808344E+04  0.11282991406E+04  0.46999998093E+01 0. -1.
       -5    1    3    3    0  502  0.39903690171E+03 -0.10043068315E+03  0.73029598323E+03  0.83825478475E+03  0.46999998093E+01 0.  1.
</event>
<event>
 5   0  0.1886323E-04  0.2124421E+04  0.7818609E-02  0.8550561E-01
       -2   -1    0    0    0  501  0.00000000000E+00  0.00000000000E+00  0.77483746436E+03  0.77483746437E+03  0.25500000920E-02 0. -1.
        2   -1    0    0  501    0  0.00000000000E+00  0.00000000000E+00 -0.14561655552E+04  0.14561655553E+04  0.25500000920E-02 0.  1.
    10030    2    1    2    0    0  0.00000000000E+00  0.00000000000E+00 -0.68132809089E+03  0.22310030196E+04  0.21244214521E+04 0.  0.
        2    1    3    3  502    0 -0.30011519983E+02  0.80803369602E+03  0.38271345139E+03  0.89458858205E+03  0.25500000920E-02 0.  1.
       -2    1    3    3    0  502  0.30011519983E+02 -0.80803369602E+03 -0.10640415423E+04  0.13364144376E+04  0.25500000920E-02 0. -1.
</event>
<event>
 5   0  0.6441125E-05  0.1971477E+04  0.7818609E-02  0.8620073E-01
        3   -1    0    0  501    0  0.00000000000E+00  0.00000000000E+00  0.56403900106E+03  0.56403901010E+03  0.10100000352E+00 0.  1.
       -3   -1    0    0    0  501  0.00000000000E+00  0.00000000000E+00 -0.17227182175E+04  0.17227182205E+04  0.10100000352E+00 0. -1.
    10030    2    1    2    0    0  0.00000000000E+00  0.00000000000E+00 -0.11586792164E+04  0.22867572306E+04  0.19714768842E+04 0.  0.
        4    1    3    3  502    0  0.86600365549E+03 -0.45832863819E+03 -0.70454226379E+03  0.12068176690E+04  0.12699999809E+01 0. -1.
       -4    1    3    3    0  502 -0.86600365549E+03  0.45832863819E+03 -0.45413695265E+03  0.10799395615E+04  0.12699999809E+01 0.  1.
</event>
<event>
 5   0  0.8525278E-05  0.2112502E+04  0.7818609E-02  0.8555756E-01
       -1   -1    0    0    0  501  0.00000000000E+00  0.00000000000E+00  0.96850116493E+03  0.96850116494E+03  0.50400001928E-02 0. -1.
        1   -1    0    0  501    0  0.00000000000E+00  0.00000000000E+00 -0.11519510221E+04  0.11519510221E+04  0.50400001928E-02 0.  1.
    10030    2    1    2    0    0  0.00000000000E+00  0.00000000000E+00 -0.18344985720E+03  0.21204521871E+04  0.21125017462E+04 0.  0.
        4    1    3    3  502    0  0.39272725244E+03 -0.22903905555E+03 -0.10487126205E+04  0.11430194036E+04  0.12699999809E+01 0.  1.
       -4    1    3    3    0  502 -0.39272725244E+03  0.22903905555E+03  0.86526276328E+03  0.97743278347E+03  0.12699999809E+01 0. -1.
</event>
<event>
 5   0  0.1886323E-04  0.2112757E+04  0.7818609E-02  0.8555645E-01
       -2   -1    0    0    0  501  0.00000000000E+00  0.00000000000E+00  0.69508537910E+03  0.69508537911E+03  0.25500000920E-02 0.  1.
        2   -1    0    0  501    0  0.00000000000E+00  0.00000000000E+00 -0.16054653748E+04  0.16054653748E+04  0.25500000920E-02 0. -1.
    10030    2    1    2    0    0  0.00000000000E+00  0.00000000000E+00 -0.91037999572E+03  0.23005507539E+04  0.21127569749E+04 0.  0.
        2    1    3    3  502    0 -0.52024297507E+03 -0.82979410636E+03 -0.88626289338E+03  0.13208606771E+04  0.25500000920E-02 0. -1.
       -2    1    3    3    0  502  0.52024297507E+03  0.82979410636E+03 -0.24117102338E+02  0.97969007685E+03  0.25500000920E-02 0.  1.
</event>
<event>
 5   0  0.8486612E-05  0.2114109E+04  0.7818609E-02  0.8555054E-01
        1   -1    0    0  501    0  0.00000000000E+00  0.00000000000E+00  0.16982414766E+04  0.16982414767E+04  0.50400001928E-02 0.  1.
       -1   -1    0    0    0  501  0.00000000000E+00  0.00000000000E+00 -0.65795378042E+03  0.65795378044E+03  0.50400001928E-02 0. -1.
    10030    2    1    2    0    0  0.00000000000E+00  0.00000000000E+00  0.10402876962E+04  0.23561952571E+04  0.21141091738E+04 0.  0.
        5    1    3    3  502    0 -0.20579287583E+03  0.86735892453E+03 -0.11295271626E+03  0.89857810891E+03  0.46999998093E+01 0.  1.
       -5    1    3    3    0  502  0.20579287583E+03 -0.86735892453E+03  0.11532404125E+04  0.14576171482E+04  0.46999998093E+01 0. -1.
</event>
<event>
 5   0  0.8486612E-05  0.2113978E+04  0.7818609E-02  0.8555111E-01
       -1   -1    0    0    0  501  0.00000000000E+00  0.00000000000E+00  0.59453720102E+03  0.59453720104E+03  0.50400001928E-02 0.  1.
        1   -1    0    0  501    0  0.00000000000E+00  0.00000000000E+00 -0.18791524675E+04  0.18791524675E+04  0.50400001928E-02 0. -1.
    10030    2    1    2    0    0  0.00000000000E+00  0.00000000000E+00 -0.12846152664E+04  0.24736896685E+04  0.21139782859E+04 0.  0.
        5    1    3    3  502    0  0.31904134254E+03 -0.10636092098E+03  0.53024953926E+03  0.62792251723E+03  0.46999998093E+01 0.  1.
       -5    1    3    3    0  502 -0.31904134254E+03  0.10636092098E+03 -0.18148648057E+04  0.18457671513E+04  0.46999998093E+01 0. -1.
</event>
<event>
 5   0  0.8755004E-05  0.2080301E+04  0.7818609E-02  0.8569971E-01
       -1   -1    0    0    0  501  0.00000000000E+00  0.00000000000E+00  0.87878488575E+03  0.87878488576E+03  0.50400001928E-02 0.  1.
        1   -1    0    0  501    0  0.00000000000E+00  0.00000000000E+00 -0.12311460945E+04  0.12311460945E+04  0.50400001928E-02 0. -1.
    10030    2    1    2    0    0  0.00000000000E+00  0.00000000000E+00 -0.35236120873E+03  0.21099309803E+04  0.20803005360E+04 0.  0.
        3    1    3    3  502    0  0.68883803383E+03  0.69407486214E+03  0.18337519805E+03  0.99491920504E+03  0.10100000352E+00 0.  1.
       -3    1    3    3    0  502 -0.68883803383E+03 -0.69407486214E+03 -0.53573640678E+03  0.11150117752E+04  0.10100000352E+00 0. -1.
</event>
<event>
 5   0  0.8271069E-05  0.1993665E+04  0.7818609E-02  0.8609588E-01
        1   -1    0    0  501    0  0.00000000000E+00  0.00000000000E+00  0.19629874354E+04  0.19629874354E+04  0.50400001928E-02 0. -1.
       -1   -1    0    0    0  501  0.00000000000E+00  0.00000000000E+00 -0.50620542327E+03  0.50620542329E+03  0.50400001928E-02 0.  1.
    10030    2    1    2    0    0  0.00000000000E+00  0.00000000000E+00  0.14567820121E+04  0.24691928587E+04  0.19936648521E+04 0.  0.
        2    1    3    3  502    0 -0.27175464570E+02  0.72495871181E+03 -0.11831736741E+03  0.73505281385E+03  0.25500000920E-02 0.  1.
       -2    1    3    3    0  502  0.27175464570E+02 -0.72495871181E+03  0.15750993796E+04  0.17341400449E+04  0.25500000920E-02 0. -1.
</event>
<event>
 5   0  0.1921687E-04  0.1899572E+04  0.7818609E-02  0.8655070E-01
        2   -1    0    0  501    0  0.00000000000E+00  0.00000000000E+00  0.21579463556E+04  0.21579463556E+04  0.25500000920E-02 0.  1.
       -2   -1    0    0    0  501  0.00000000000E+00  0.00000000000E+00 -0.41803312098E+03  0.41803312099E+03  0.25500000920E-02 0. -1.
    10030    2    1    2    0    0  0.00000000000E+00  0.00000000000E+00  0.17399132346E+04  0.25759794766E+04  0.18995715832E+04 0.  0.
        5    1    3    3  502    0 -0.67080555820E+03 -0.65946688439E+03  0.10477759091E+04  0.14080955629E+04  0.46999998093E+01 0.  1.
       -5    1    3    3    0  502  0.67080555820E+03  0.65946688439E+03  0.69213732552E+03  0.11678839137E+04  0.46999998093E+01 0. -1.
</event>
<event>
 5   0  0.8525278E-05  0.2085744E+04  0.7818609E-02  0.8567549E-01
       -1   -1    0    0    0  501  0.00000000000E+00  0.00000000000E+00  0.64974128378E+03  0.64974128380E+03  0.50400001928E-02 0.  1.
        1   -1    0    0  501    0  0.00000000000E+00  0.00000000000E+00 -0.16738697408E+04  0.16738697408E+04  0.50400001928E-02 0. -1.
    10030    2    1    2    0    0  0.00000000000E+00  0.00000000000E+00 -0.10241284570E+04  0.23236110246E+04  0.20857442550E+04 0.  0.
        4    1    3    3  502    0 -0.92260710822E+02 -0.77887704138E+03 -0.12777774246E+04  0.14992925812E+04  0.12699999809E+01 0. -1.
       -4    1    3    3    0  502  0.92260710822E+02  0.77887704138E+03  0.25364896764E+03  0.82431844335E+03  0.12699999809E+01 0.  1.
</event>
<event>
 5   0  0.8486612E-05  0.2066382E+04  0.7818609E-02  0.8576199E-01
       -1   -1    0    0    0  501  0.00000000000E+00  0.00000000000E+00  0.75765379939E+03  0.75765379941E+03  0.50400001928E-02 0. -1.
        1   -1    0    0  501    0  0.00000000000E+00  0.00000000000E+00 -0.14089331618E+04  0.14089331618E+04  0.50400001928E-02 0.  1.
    10030    2    1    2    0    0  0.00000000000E+00  0.00000000000E+00 -0.65127936243E+03  0.21665869612E+04  0.20663819232E+04 0.  0.
        5    1    3    3  502    0  0.80691324664E+03  0.88662267187E+02  0.34448719604E+03  0.88185231385E+03  0.46999998093E+01 0. -1.
       -5    1    3    3    0  502 -0.80691324664E+03 -0.88662267187E+02 -0.99576655847E+03  0.12847346474E+04  0.46999998093E+01 0.  1.
</event>
<event>
 5   0  0.1886323E-04  0.2112205E+04  0.7818609E-02  0.8555886E-01
        2   -1    0    0  501    0  0.00000000000E+00  0.00000000000E+00  0.11802302837E+04  0.11802302837E+04  0.25500000920E-02 0. -1.
       -2   -1    0    0    0  501  0.00000000000E+00  0.00000000000E+00 -0.94502977355E+03  0.94502977355E+03  0.25500000920E-02 0.  1.
    10030    2    1    2    0    0  0.00000000000E+00  0.00000000000E+00  0.23520051012E+03  0.21252600572E+04  0.21122052530E+04 0.  0.
        2    1    3    3  502    0 -0.35015567717E+03 -0.13240146724E+03 -0.87603236071E+03  0.95266565164E+03  0.25500000920E-02 0.  1.
       -2    1    3    3    0  502  0.35015567717E+03  0.13240146724E+03  0.11112328708E+04  0.11725944056E+04  0.25500000920E-02 0. -1.
</event>
<event>
 5   0  0.8271069E-05  0.2155659E+04  0.7818609E-02  0.8537114E-01
       -1   -1    0    0    0  501  0.00000000000E+00  0.00000000000E+00  0.70884137338E+03  0.70884137339E+03  0.50400001928E-02 0. -1.
        1   -1    0    0  501    0  0.00000000000E+00  0.00000000000E+00 -0.16388942706E+04  0.16388942706E+04  0.50400001928E-02 0.  1.
    10030    2    1    2    0    0  0.00000000000E+00  0.00000000000E+00 -0.93005289722E+03  0.23477356440E+04  0.21556586609E+04 0.  0.
        2    1    3    3  502    0 -0.65038738505E+03  0.19344225269E+03  0.44702380724E+03  0.81256011471E+03  0.25500000920E-02 0. -1.
       -2    1    3    3    0  502  0.65038738505E+03 -0.19344225269E+03 -0.13770767045E+04  0.15351755293E+04  0.25500000920E-02 0.  1.
</event>
<event>
 5   0  0.1921687E-04  0.2075146E+04  0.7818609E-02  0.8572272E-01
        2   -1    0    0  501    0  0.00000000000E+00  0.00000000000E+00  0.13624749730E+04  0.13624749730E+04  0.25500000920E-02 0. -1.
       -2   -1    0    0    0  501  0.00000000000E+00  0.00000000000E+00 -0.79014851210E+03  0.79014851211E+03  0.25500000920E-02 0.  1.
    10030    2    1    2    0    0  0.00000000000E+00  0.00000000000E+00  0.57232646094E+03  0.21526234852E+04  0.20751458481E+04 0.  0.
        5    1    3    3  502    0 -0.23781051663E+03 -0.79089598327E+03  0.93767728318E+03  0.12495323427E+04  0.46999998093E+01 0. -1.
       -5    1    3    3    0  502  0.23781051663E+03  0.79089598327E+03 -0.36535082224E+03  0.90309114240E+03  0.46999998093E+01 0.  1.
</event>
<event>
 5   0  0.8237966E-05  0.2084121E+04  0.7818609E-02  0.8568270E-01
       -1   -1    0    0    0  501  0.00000000000E+00  0.00000000000E+00  0.11645635998E+04  0.11645635998E+04  0.50400001928E-02 0.  1.
        1   -1    0    0  501    0  0.00000000000E+00  0.00000000000E+00 -0.93244412595E+03  0.93244412596E+03  0.50400001928E-02 0. -1.
    10030    2    1    2    0    0  0.00000000000E+00  0.00000000000E+00  0.23211947385E+03  0.20970077258E+04  0.20841213861E+04 0.  0.
        1    1    3    3  502    0 -0.67733000325E+03  0.59085457569E+03 -0.41446257778E+03  0.98977992065E+03  0.50400001928E-02 0. -1.
       -1    1    3    3    0  502  0.67733000325E+03 -0.59085457569E+03  0.64658205163E+03  0.11072278051E+04  0.50400001928E-02 0.  1.
</event>
<event>
 5   0  0.1815400E-04  0.2091224E+04  0.7818609E-02  0.8565119E-01
       -2   -1    0    0    0  501  0.00000000000E+00  0.00000000000E+00  0.81118445106E+03  0.81118445107E+03  0.25500000920E-02 0. -1.
        2   -1    0    0  501    0  0.00000000000E+00  0.00000000000E+00 -0.13477875295E+04  0.13477875295E+04  0.25500000920E-02 0.  1.
    10030    2    1    2    0    0  0.00000000000E+00  0.00000000000E+00 -0.53660307846E+03  0.21589719806E+04  0.20912238400E+04 0.  0.
        3    1    3    3  502    0 -0.18372756155E+03 -0.99281378363E+03 -0.54889550896E+03  0.11492263988E+04  0.10100000352E+00 0.  1.
       -3    1    3    3    0  502  0.18372756155E+03  0.99281378363E+03  0.12292430495E+02  0.10097455818E+04  0.10100000352E+00 0. -1.
</event>
<event>
 5   0  0.1921687E-04  0.2120977E+04  0.7818609E-02  0.8552059E-01
        2   -1    0    0  501    0  0.00000000000E+00  0.00000000000E+00  0.12570725305E+04  0.12570725305E+04  0.25500000920E-02 0.  1.
       -2   -1    0    0    0  501  0.00000000000E+00  0.00000000000E+00 -0.89464666362E+03  0.89464666363E+03  0.25500000920E-02 0. -1.
    10030    2    1    2    0    0  0.00000000000E+00  0.00000000000E+00  0.36242586685E+03  0.21517191941E+04  0.21209768932E+04 0.  0.
        5    1    3    3  502    0  0.45997830384E+03 -0.53526409697E+03 -0.62179381067E+03  0.94060476635E+03  0.46999998093E+01 0. -1.
       -5    1    3    3    0  502 -0.45997830384E+03  0.53526409697E+03  0.98421967752E+03  0.12111144278E+04  0.46999998093E+01 0.  1.
</event>
<event>
 5   0  0.8237966E-05  0.2123899E+04  0.7818609E-02  0.8550788E-01
        1   -1    0    0  501    0  0.00000000000E+00  0.00000000000E+00  0.13853181952E+04  0.13853181952E+04  0.50400001928E-02 0. -1.
       -1   -1    0    0    0  501  0.00000000000E+00  0.00000000000E+00 -0.81406302224E+03  0.81406302226E+03  0.50400001928E-02 0.  1.
    10030    2    1    2    0    0  0.00000000000E+00  0.00000000000E+00  0.57125517296E+03  0.21993812175E+04  0.21238986010E+04 0.  0.
        1    1    3    3  502    0  0.10435154482E+04 -0.13298801809E+03  0.43614110431E+03  0.11387841615E+04  0.50400001928E-02 0. -1.
       -1    1    3    3    0  502 -0.10435154482E+04  0.13298801809E+03  0.13511406864E+03  0.10605970560E+04  0.50400001928E-02 0.  1.
</event>
<event>
 5   0  0.1886323E-04  0.2093385E+04  0.7818609E-02  0.8564163E-01
        2   -1    0    0  501    0  0.00000000000E+00  0.00000000000E+00  0.65502360821E+03  0.65502360822E+03  0.25500000920E-02 0.  1.
       -2   -1    0    0    0  501  0.00000000000E+00  0.00000000000E+00 -0.16725576755E+04  0.16725576755E+04  0.25500000920E-02 0. -1.
    10030    2    1    2    0    0  0.00000000000E+00  0.00000000000E+00 -0.10175340673E+04  0.23275812837E+04  0.20933845930E+04 0.  0.
        2    1    3    3  502    0 -0.86136815044E+03  0.59461089702E+03 -0.51643446406E+03  0.11671425642E+04  0.25500000920E-02 0. -1.
       -2    1    3    3    0  502  0.86136815044E+03 -0.59461089702E+03 -0.50109960324E+03  0.11604387195E+04  0.25500000920E-02 0.  1.
</event>
<event>
 5   0  0.1921687E-04  0.2070309E+04  0.7818609E-02  0.8574436E-01
       -2   -1    0    0    0  501  0.00000000000E+00  0.00000000000E+00  0.13335950938E+04  0.13335950938E+04  0.25500000920E-02 0. -1.
        2   -1    0    0  501    0  0.00000000000E+00  0.00000000000E+00 -0.80350122967E+03  0.80350122967E+03  0.25500000920E-02 0.  1.
    10030    2    1    2    0    0  0.00000000000E+00  0.00000000000E+00  0.53009386412E+03  0.21370963235E+04  0.20703094433E+04 0.  0.
        5    1    3    3  502    0  0.33638707339E+03  0.69338303060E+03 -0.44832340194E+03  0.89160094941E+03  0.46999998093E+01 0.  1.
       -5    1    3    3    0  502 -0.33638707339E+03 -0.69338303060E+03  0.97841726606E+03  0.12454953740E+04  0.46999998093E+01 0. -1.
</event>
<event>
 5   0  0.8271069E-05  0.2078339E+04  0.7818609E-02  0.8570846E-01
       -1   -1    0    0    0  501  0.00000000000E+00  0.00000000000E+00  0.65160717697E+03  0.65160717699E+03  0.50400001928E-02 0.  1.
        1   -1    0    0  501    0  0.00000000000E+00  0.00000000000E+00 -0.16572452835E+04  0.16572452835E+04  0.50400001928E-02 0. -1.
    10030    2    1    2    0    0  0.00000000000E+00  0.00000000000E+00 -0.10056381066E+04  0.23088524605E+04  0.20783386835E+04 0.  0.
        2    1    3    3  502    0  0.53190947423E+03 -0.10692312498E+03 -0.14874114095E+04  0.15832728585E+04  0.25500000920E-02 0. -1.
       -2    1    3    3    0  502 -0.53190947423E+03  0.10692312498E+03  0.48177330293E+03  0.72557960201E+03  0.25500000920E-02 0.  1.
</event>
<event>
 5   0  0.1921687E-04  0.2118639E+04  0.7818609E-02  0.8553077E-01
        2   -1    0    0  501    0  0.00000000000E+00  0.00000000000E+00  0.95983123675E+03  0.95983123675E+03  0.25500000920E-02 0. -1.
       -2   -1    0    0    0  501  0.00000000000E+00  0.00000000000E+00 -0.11691198502E+04  0.11691198502E+04  0.25500000920E-02 0.  1.
    10030    2    1    2    0    0  0.00000000000E+00  0.00000000000E+00 -0.20928861343E+03  0.21289510869E+04  0.21186389515E+04 0.  0.
        5    1    3    3  502    0  0.83929466464E+03 -0.26008562883E+03 -0.69919603749E+03  0.11229235314E+04  0.46999998093E+01 0.  1.
       -5    1    3    3    0  502 -0.83929466464E+03  0.26008562883E+03  0.48990742406E+03  0.10060275556E+04  0.46999998093E+01 0. -1.
</event>
<event>
 5   0  0.8525278E-05  0.2026188E+04  0.7818609E-02  0.8594474E-01
       -1   -1    0    0    0  501  0.00000000000E+00  0.00000000000E+00  0.58883702479E+03  0.58883702481E+03  0.50400001928E-02 0. -1.
        1   -1    0    0  501    0  0.00000000000E+00  0.00000000000E+00 -0.17430287585E+04  0.17430287585E+04  0.50400001928E-02 0.  1.
    10030    2    1    2    0    0  0.00000000000E+00  0.00000000000E+00 -0.11541917338E+04  0.23318657834E+04  0.20261884101E+04 0.  0.
        4    1    3    3  502    0 -0.45867640737E+03  0.23817127377E+03  0.42570739532E+03  0.66958046691E+03  0.12699999809E+01 0. -1.
       -4    1    3    3    0  502  0.45867640737E+03 -0.23817127377E+03 -0.15798991291E+04  0.16622853165E+04  0.12699999809E+01 0.  1.
</event>
<event>
 5   0  0.8486612E-05  0.2083393E+04  0.7818609E-02  0.8568594E-01
       -1   -1    0    0    0  501  0.00000000000E+00  0.00000000000E+00  0.15393808327E+04  0.15393808327E+04  0.50400001928E-02 0.  1.
        1   -1    0    0  501    0  0.00000000000E+00  0.00000000000E+00 -0.70491463051E+03  0.70491463053E+03  0.50400001928E-02 0. -1.
    10030    2    1    2    0    0  0.00000000000E+00  0.00000000000E+00  0.83446620218E+03  0.22442954632E+04  0.20833934539E+04 0.  0.
        5    1    3    3  502    0  0.64714626071E+02 -0.89119825716E+03 -0.15955094556E+03  0.90768987579E+03  0.46999998093E+01 0. -1.
       -5    1    3    3    0  502 -0.64714626071E+02  0.89119825716E+03  0.99401714774E+03  0.13366055874E+04  0.46999998093E+01 0.  1.
</event>
<event>
 5   0  0.8486612E-05  0.2042053E+04  0.7818609E-02  0.8587208E-01
       -1   -1    0    0    0  501  0.00000000000E+00  0.00000000000E+00  0.67852017349E+03  0.67852017351E+03  0.50400001928E-02 0.  1.
        1   -1    0    0  501    0  0.00000000000E+00  0.00000000000E+00 -0.15364239281E+04  0.15364239281E+04  0.50400001928E-02 0. -1.
    10030    2    1    2    0    0  0.00000000000E+00  0.00000000000E+00 -0.85790375461E+03  0.22149441016E+04  0.20420525265E+04 0.  0.
        5    1    3    3  502    0  0.15716584150E+03  0.25600855405E+03  0.62949004481E+03  0.69751077984E+03  0.46999998093E+01 0.  1.
       -5    1    3    3    0  502 -0.15716584150E+03 -0.25600855405E+03 -0.14873937994E+04  0.15174333218E+04  0.46999998093E+01 0. -1.
</event>
<event>
 5   0  0.6441125E-05  0.1963571E+04  0.7818609E-02  0.8623844E-01
       -3   -1    0    0    0  501  0.00000000000E+00  0.00000000000E+00  0.13008572716E+04  0.13008572755E+04  0.10100000352E+00 0.  1.
        3   -1    0    0  501    0  0.00000000000E+00  0.00000000000E+00 -0.74097537354E+03  0.74097538042E+03  0.10100000352E+00 0. -1.
    10030    2    1    2    0    0  0.00000000000E+00  0.00000000000E+00  0.55988189808E+03  0.20418326560E+04  0.19635714541E+04 0.  0.
        1    1    3    3  502    0  0.42039958597E+03  0.58195003014E+03  0.97633558404E+03  0.12118716195E+04  0.50400001928E-02 0.  1.
       -1    1    3    3    0  502 -0.42039958597E+03 -0.58195003014E+03 -0.41645368596E+03  0.82996103646E+03  0.50400001928E-02 0. -1.
</event>
<event>
 5   0  0.1815400E-04  0.2064191E+04  0.7818609E-02  0.8577184E-01
       -2   -1    0    0    0  501  0.00000000000E+00  0.00000000000E+00  0.89332159565E+03  0.89332159565E+03  0.25500000920E-02 0.  1.
        2   -1    0    0  501    0  0.00000000000E+00  0.00000000000E+00 -0.11924271756E+04  0.11924271756E+04  0.25500000920E-02 0. -1.
    10030    2    1    2    0    0  0.00000000000E+00  0.00000000000E+00 -0.29910557995E+03  0.20857487713E+04  0.20641908315E+04 0.  0.
        3    1    3    3  502    0 -0.17914756023E+03  0.90727089131E+03  0.31347596422E+03  0.97647401854E+03  0.10100000352E+00 0.  1.
       -3    1    3    3    0  502  0.17914756023E+03 -0.90727089131E+03 -0.61258154417E+03  0.11092747527E+04  0.10100000352E+00 0. -1.
</event>
<event>
 5   0  0.8486612E-05  0.2084515E+04  0.7818609E-02  0.8568096E-01
        1   -1    0    0  501    0  0.00000000000E+00  0.00000000000E+00  0.10625694610E+04  0.10625694610E+04  0.50400001928E-02 0.  1.
       -1   -1    0    0    0  501  0.00000000000E+00  0.00000000000E+00 -0.10223333688E+04  0.10223333688E+04  0.50400001928E-02 0. -1.
    10030    2    1    2    0    0  0.00000000000E+00  0.00000000000E+00  0.40236092180E+02  0.20849028298E+04  0.20845145398E+04 0.  0.
        5    1    3    3  502    0 -0.57134245546E+03 -0.42494233668E+03  0.78135766750E+03  0.10571424149E+04  0.46999998093E+01 0.  1.
       -5    1    3    3    0  502  0.57134245546E+03  0.42494233668E+03 -0.74112157532E+03  0.10277604148E+04  0.46999998093E+01 0. -1.
</event>
<event>
 5   0  0.8486612E-05  0.2101852E+04  0.7818609E-02  0.8560428E-01
        1   -1    0    0  501    0  0.00000000000E+00  0.00000000000E+00  0.22112215249E+04  0.22112215249E+04  0.50400001928E-02 0.  1.
       -1   -1    0    0    0  501  0.00000000000E+00  0.00000000000E+00 -0.49947308606E+03  0.49947308609E+03  0.50400001928E-02 0. -1.
    10030    2    1    2    0    0  0.00000000000E+00  0.00000000000E+00  0.17117484388E+04  0.27106946110E+04  0.21018521728E+04 0.  0.
        5    1    3    3  502    0 -0.12335130318E+03 -0.93545509940E+03  0.25908774772E+03  0.97848880321E+03  0.46999998093E+01 0.  1.
       -5    1    3    3    0  502  0.12335130318E+03  0.93545509940E+03  0.14526606911E+04  0.17322058078E+04  0.46999998093E+01 0. -1.
</event>
<event>
 5   0  0.1815400E-04  0.1935818E+04  0.7818609E-02  0.8637230E-01
       -2   -1    0    0    0  501  0.00000000000E+00  0.00000000000E+00  0.10198329353E+04  0.10198329353E+04  0.25500000920E-02 0. -1.
        2   -1    0    0  501    0  0.00000000000E+00  0.00000000000E+00 -0.91862886212E+03  0.91862886213E+03  0.25500000920E-02 0.  1.
    10030    2    1    2    0    0  0.00000000000E+00  0.00000000000E+00  0.10120407315E+03  0.19384617974E+04  0.19358181411E+04 0.  0.
        3    1    3    3  502    0  0.82389331181E+03  0.94889041028E+02  0.55032647948E+03  0.99532073402E+03  0.10100000352E+00 0. -1.
       -3    1    3    3    0  502 -0.82389331181E+03 -0.94889041028E+02 -0.44912240634E+03  0.94314106338E+03  0.10100000352E+00 0.  1.
</event>
<event>
 5   0  0.1810875E-04  0.1316215E+04  0.7818609E-02  0.9016804E-01
       -2   -1    0    0    0  501  0.00000000000E+00  0.00000000000E+00  0.62240060483E+03  0.62240060484E+03  0.25500000920E-02 0.  1.
        2   -1    0    0  501    0  0.00000000000E+00  0.00000000000E+00 -0.69586293785E+03  0.69586293786E+03  0.25500000920E-02 0. -1.
    10030    2    1    2    0    0  0.00000000000E+00  0.00000000000E+00 -0.73462333020E+02  0.13182635427E+04  0.13162150484E+04 0.  0.
        1    1    3    3  502    0 -0.35885146610E+03 -0.68187349763E+02 -0.58501500746E+03  0.68968576060E+03  0.50400001928E-02 0. -1.
       -1    1    3    3    0  502  0.35885146610E+03  0.68187349763E+02  0.51155267444E+03  0.62857778209E+03  0.50400001928E-02 0.  1.
</event>
<event>
 5   0  0.1777590E-04  0.2140597E+04  0.7818609E-02  0.8543568E-01
        2   -1    0    0  501    0  0.00000000000E+00  0.00000000000E+00  0.12344639957E+04  0.12344639957E+04  0.25500000920E-02 0.  1.
       -2   -1    0    0    0  501  0.00000000000E+00  0.00000000000E+00 -0.92796432823E+03  0.92796432824E+03  0.25500000920E-02 0. -1.
    10030    2    1    2    0    0  0.00000000000E+00  0.00000000000E+00  0.30649966743E+03  0.21624283239E+04  0.21405966948E+04 0.  0.
        4    1    3    3  502    0  0.37618929276E+03  0.67768790778E+03 -0.59235470259E+03  0.97553318289E+03  0.12699999809E+01 0. -1.
       -4    1    3    3    0  502 -0.37618929276E+03 -0.67768790778E+03  0.89885437003E+03  0.11868951410E+04  0.12699999809E+01 0.  1.
</event>
<event>
 5   0  0.8271069E-05  0.2008692E+04  0.7818609E-02  0.8602568E-01
       -1   -1    0    0    0  501  0.00000000000E+00  0.00000000000E+00  0.11826627140E+04  0.11826627140E+04  0.50400001928E-02 0. -1.
        1   -1    0    0  501    0  0.00000000000E+00  0.00000000000E+00 -0.85291508827E+03  0.85291508828E+03  0.50400001928E-02 0.  1.
    10030    2    1    2    0    0  0.00000000000E+00  0.00000000000E+00  0.32974762573E+03  0.20355778023E+04  0.20086919855E+04 0.  0.
        2    1    3    3  502    0 -0.49714182396E+03 -0.24632338699E+03 -0.68352089259E+03  0.88035561833E+03  0.25500000920E-02 0.  1.
       -2    1    3    3    0  502  0.49714182396E+03  0.24632338699E+03  0.10132685183E+04  0.11552221840E+04  0.25500000920E-02 0. -1.
</event>
<event>
 5   0  0.1921687E-04  0.1489974E+04  0.7818609E-02  0.8891148E-01
        2   -1    0    0  501    0  0.00000000000E+00  0.00000000000E+00  0.74892517792E+03  0.74892517793E+03  0.25500000920E-02 0.  1.
       -2   -1    0    0    0  501  0.00000000000E+00  0.00000000000E+00 -0.74106907008E+03  0.74106907009E+03  0.25500000920E-02 0. -1.
    10030    2    1    2    0    0  0.00000000000E+00  0.00000000000E+00  0.78561078366E+01  0.14899942480E+04  0.14899735369E+04 0.  0.
        5    1    3    3  502    0  0.25876989223E+03 -0.31050876142E+03 -0.62186467062E+03  0.74169758434E+03  0.46999998093E+01 0. -1.
       -5    1    3    3    0  502 -0.25876989223E+03  0.31050876142E+03  0.62972077846E+03  0.74829666368E+03  0.46999998093E+01 0.  1.
</event>
<event>
 5   0  0.8525278E-05  0.2096613E+04  0.7818609E-02  0.8562737E-01
       -1   -1    0    0    0  501  0.00000000000E+00  0.00000000000E+00  0.14450062961E+04  0.14450062961E+04  0.50400001928E-02 0.  1.
        1   -1    0    0  501    0  0.00000000000E+00  0.00000000000E+00 -0.76051356270E+03  0.76051356272E+03  0.50400001928E-02 0. -1.
    10030    2    1    2    0    0  0.00000000000E+00  0.00000000000E+00  0.68449273342E+03  0.22055198588E+04  0.20966133515E+04 0.  0.
        4    1    3    3  502    0  0.15671026510E+03 -0.29432576427E+03  0.13877324002E+04  0.14272310921E+04  0.12699999809E+01 0.  1.
       -4    1    3    3    0  502 -0.15671026510E+03  0.29432576427E+03 -0.70323966677E+03  0.77828876679E+03  0.12699999809E+01 0. -1.
</event>
<event>
 5   0  0.1810875E-04  0.2107748E+04  0.7818609E-02  0.8557838E-01
        2   -1    0    0  501    0  0.00000000000E+00  0.00000000000E+00  0.12907905802E+04  0.12907905802E+04  0.25500000920E-02 0. -1.
       -2   -1    0    0    0  501  0.00000000000E+00  0.00000000000E+00 -0.86044175423E+03  0.86044175424E+03  0.25500000920E-02 0.  1.
    10030    2    1    2    0    0  0.00000000000E+00  0.00000000000E+00  0.43034882592E+03  0.21512323344E+04  0.21077477184E+04 0.  0.
        1    1    3    3  502    0 -0.91758597629E+02 -0.35368616459E+03  0.12240702321E+04  0.12774433359E+04  0.50400001928E-02 0. -1.
       -1    1    3    3    0  502  0.91758597629E+02  0.35368616459E+03 -0.79372140618E+03  0.87378899851E+03  0.50400001928E-02 0.  1.
</event>
<event>
 5   0  0.6441125E-05  0.2068174E+04  0.7818609E-02  0.8575394E-01
        4   -1    0    0  501    0  0.00000000000E+00  0.00000000000E+00  0.10698674371E+04  0.10698681909E+04  0.12699999809E+01 0.  1.
       -4   -1    0    0    0  501  0.00000000000E+00  0.00000000000E+00 -0.99950184755E+03  0.99950265440E+03  0.12699999809E+01 0. -1.
    10030    2    1    2    0    0  0.00000000000E+00  0.00000000000E+00  0.70365589572E+02  0.20693708453E+04  0.20681741656E+04 0.  0.
        4    1    3    3  502    0 -0.91144419743E+03  0.48721291839E+03  0.12641208908E+00  0.10334933874E+04  0.12699999809E+01 0.  1.
       -4    1    3    3    0  502  0.91144419743E+03 -0.48721291839E+03  0.70239177482E+02  0.10358774579E+04  0.12699999809E+01 0. -1.
</event>
<event>
 5   0  0.1886323E-04  0.2038361E+04  0.7818609E-02  0.8588893E-01
        2   -1    0    0  501    0  0.00000000000E+00  0.00000000000E+00  0.12177213393E+04  0.12177213393E+04  0.25500000920E-02 0.  1.
       -2   -1    0    0    0  501  0.00000000000E+00  0.00000000000E+00 -0.85301069757E+03  0.85301069758E+03  0.25500000920E-02 0. -1.
    10030    2    1    2    0    0  0.00000000000E+00  0.00000000000E+00  0.36471064174E+03  0.20707320369E+04  0.20383614293E+04 0.  0.
        2    1    3    3  502    0  0.37922901317E+03  0.22638875623E+03  0.11154531174E+04  0.11997092024E+04  0.25500000920E-02 0.  1.
       -2    1    3    3    0  502 -0.37922901317E+03 -0.22638875623E+03 -0.75074247564E+03  0.87102283444E+03  0.25500000920E-02 0. -1.
</event>
<event>
 5   0  0.8237966E-05  0.2129750E+04  0.7818609E-02  0.8548250E-01
       -1   -1    0    0    0  501  0.00000000000E+00  0.00000000000E+00  0.91312234730E+03  0.91312234731E+03  0.50400001928E-02 0. -1.
        1   -1    0    0  501    0  0.00000000000E+00  0.00000000000E+00 -0.12418472819E+04  0.12418472819E+04  0.50400001928E-02 0.  1.
    10030    2    1    2    0    0  0.00000000000E+00  0.00000000000E+00 -0.32872493462E+03  0.21549696292E+04  0.21297497553E+04 0.  0.
        1    1    3    3  502    0  0.58922463930E+03  0.87565031466E+03 -0.30749195987E+03  0.10993181771E+04  0.50400001928E-02 0. -1.
       -1    1    3    3    0  502 -0.58922463930E+03 -0.87565031466E+03 -0.21232974748E+02  0.10556514521E+04  0.50400001928E-02 0.  1.
</event>
<event>
 5   0  0.8525278E-05  0.2041704E+04  0.7818609E-02  0.8587367E-01
       -1   -1    0    0    0  501  0.00000000000E+00  0.00000000000E+00  0.88180467206E+03  0.88180467208E+03  0.50400001928E-02 0. -1.
        1   -1    0    0  501    0  0.00000000000E+00  0.00000000000E+00 -0.11818253871E+04  0.11818253871E+04  0.50400001928E-02 0.  1.
    10030    2    1    2    0    0  0.00000000000E+00  0.00000000000E+00 -0.30002071502E+03  0.20636300592E+04  0.20417043350E+04 0.  0.
        4    1    3    3  502    0 -0.17385429133E+03  0.82659895899E+03 -0.72944361919E+03  0.11160558947E+04  0.12699999809E+01 0.  1.
       -4    1    3    3    0  502  0.17385429133E+03 -0.82659895899E+03  0.42942290418E+03  0.94757416446E+03  0.12699999809E+01 0. -1.
</event>
<event>
 5   0  0.1886323E-04  0.2047790E+04  0.7818609E-02  0.8584598E-01
       -2   -1    0    0    0  501  0.00000000000E+00  0.00000000000E+00  0.11015585015E+04  0.11015585015E+04  0.25500000920E-02 0.  1.
        2   -1    0    0  501    0  0.00000000000E+00  0.00000000000E+00 -0.95170679453E+03  0.95170679453E+03  0.25500000920E-02 0. -1.
    10030    2    1    2    0    0  0.00000000000E+00  0.00000000000E+00  0.14985170693E+03  0.20532652960E+04  0.20477897455E+04 0.  0.
        2    1    3    3  502    0 -0.33135866869E+03 -0.28199994333E+02  0.10458988533E+04  0.10974963409E+04  0.25500000920E-02 0.  1.
       -2    1    3    3    0  502  0.33135866869E+03  0.28199994333E+02 -0.89604714636E+03  0.95576895508E+03  0.25500000920E-02 0. -1.
</event>
<event>
 5   0  0.1921687E-04  0.2141072E+04  0.7818609E-02  0.8543364E-01
        2   -1    0    0  501    0  0.00000000000E+00  0.00000000000E+00  0.12062283508E+04  0.12062283508E+04  0.25500000920E-02 0.  1.
       -2   -1    0    0    0  501  0.00000000000E+00  0.00000000000E+00 -0.95010777160E+03  0.95010777160E+03  0.25500000920E-02 0. -1.
    10030    2    1    2    0    0  0.00000000000E+00  0.00000000000E+00  0.25612057922E+03  0.21563361224E+04  0.21410716293E+04 0.  0.
        5    1    3    3  502    0  0.28185392289E+03  0.10087087110E+04 -0.95081815048E+02  0.10516641760E+04  0.46999998093E+01 0.  1.
       -5    1    3    3    0  502 -0.28185392289E+03 -0.10087087110E+04  0.35120239426E+03  0.11046719464E+04  0.46999998093E+01 0. -1.
</event>
<event>
 5   0  0.8237966E-05  0.2580876E+04  0.7818609E-02  0.8374726E-01
       -1   -1    0    0    0  501  0.00000000000E+00  0.00000000000E+00  0.86605017714E+03  0.86605017716E+03  0.50400001928E-02 0.  1.
        1   -1    0    0  501    0  0.00000000000E+00  0.00000000000E+00 -0.19227866885E+04  0.19227866885E+04  0.50400001928E-02 0. -1.
    10030    2    1    2    0    0  0.00000000000E+00  0.00000000000E+00 -0.10567365114E+04  0.27888368657E+04  0.25808756283E+04 0.  0.
        1    1    3    3  502    0 -0.36528571718E+03  0.11748929672E+03 -0.18597139174E+04  0.18988873701E+04  0.50400001928E-02 0. -1.
       -1    1    3    3    0  502  0.36528571718E+03 -0.11748929672E+03  0.80297740600E+03  0.88994949553E+03  0.50400001928E-02 0.  1.
</event>
<event>
 5   0  0.8271069E-05  0.1885295E+04  0.7818609E-02  0.8662211E-01
       -1   -1    0    0    0  501  0.00000000000E+00  0.00000000000E+00  0.13305557570E+04  0.13305557570E+04  0.50400001928E-02 0.  1.
        1   -1    0    0  501    0  0.00000000000E+00  0.00000000000E+00 -0.66782931651E+03  0.66782931653E+03  0.50400001928E-02 0. -1.
    10030    2    1    2    0    0  0.00000000000E+00  0.00000000000E+00  0.66272644046E+03  0.19983850735E+04  0.18852948223E+04 0.  0.
        2    1    3    3  502    0 -0.16002434773E+02  0.67436353319E+03  0.10293150534E+04  0.12306550012E+04  0.25500000920E-02 0.  1.
       -2    1    3    3    0  502  0.16002434773E+02 -0.67436353319E+03 -0.36658861292E+03  0.76773007232E+03  0.25500000920E-02 0. -1.
</event>
<event>
 5   0  0.1777590E-04  0.2050131E+04  0.7818609E-02  0.8583535E-01
        2   -1    0    0  501    0  0.00000000000E+00  0.00000000000E+00  0.14123520806E+04  0.14123520806E+04  0.25500000920E-02 0. -1.
       -2   -1    0    0    0  501  0.00000000000E+00  0.00000000000E+00 -0.74397843506E+03  0.74397843506E+03  0.25500000920E-02 0.  1.
    10030    2    1    2    0    0  0.00000000000E+00  0.00000000000E+00  0.66837364553E+03  0.21563305156E+04  0.20501312062E+04 0.  0.
        4    1    3    3  502    0  0.70736133611E+03 -0.20875874499E+03  0.10829759308E+04  0.13102590404E+04  0.12699999809E+01 0. -1.
       -4    1    3    3    0  502 -0.70736133611E+03  0.20875874499E+03 -0.41460228523E+03  0.84607147526E+03  0.12699999809E+01 0.  1.
</event>
<event>
 5   0  0.6441125E-05  0.1904806E+04  0.7818609E-02  0.8652468E-01
        3   -1    0    0  501    0  0.00000000000E+00  0.00000000000E+00  0.18107314968E+04  0.18107314996E+04  0.10100000352E+00 0.  1.
       -3   -1    0    0    0  501  0.00000000000E+00  0.00000000000E+00 -0.50094226197E+03  0.50094227216E+03  0.10100000352E+00 0. -1.
    10030    2    1    2    0    0  0.00000000000E+00  0.00000000000E+00  0.13097892348E+04  0.23116737717E+04  0.19048064960E+04 0.  0.
        2    1    3    3  502    0  0.73843838649E+03 -0.55639077342E+03  0.93219632442E+03  0.13129554184E+04  0.25500000920E-02 0.  1.
       -2    1    3    3    0  502 -0.73843838649E+03  0.55639077342E+03  0.37759291038E+03  0.99871835337E+03  0.25500000920E-02 0. -1.
</event>
<event>
 5   0  0.1777590E-04  0.2113730E+04  0.7818609E-02  0.8555219E-01
        2   -1    0    0  501    0  0.00000000000E+00  0.00000000000E+00  0.13395412032E+04  0.13395412032E+04  0.25500000920E-02 0.  1.
       -2   -1    0    0    0  501  0.00000000000E+00  0.00000000000E+00 -0.83384037655E+03  0.83384037655E+03  0.25500000920E-02 0. -1.
    10030    2    1    2    0    0  0.00000000000E+00  0.00000000000E+00  0.50570082663E+03  0.21733815797E+04  0.21137299177E+04 0.  0.
        4    1    3    3  502    0  0.79301193002E+03 -0.69679849613E+03  0.30493428019E+03  0.10988096257E+04  0.12699999809E+01 0.  1.
       -4    1    3    3    0  502 -0.79301193002E+03  0.69679849613E+03  0.20076654644E+03  0.10745719540E+04  0.12699999809E+01 0. -1.
</event>
<event>
 5   0  0.1777590E-04  0.1573716E+04  0.7818609E-02  0.8836860E-01
        2   -1    0    0  501    0  0.00000000000E+00  0.00000000000E+00  0.17759436678E+04  0.17759436678E+04  0.25500000920E-02 0.  1.
       -2   -1    0    0    0  501  0.00000000000E+00  0.00000000000E+00 -0.34862908549E+03  0.34862908550E+03  0.25500000920E-02 0. -1.
    10030    2    1    2    0    0  0.00000000000E+00  0.00000000000E+00  0.14273145823E+04  0.21245727533E+04  0.15737161330E+04 0.  0.
        4    1    3    3  502    0  0.18705072985E+03  0.11300844820E+03  0.17341494528E+04  0.17478657908E+04  0.12699999809E+01 0.  1.
       -4    1    3    3    0  502 -0.18705072985E+03 -0.11300844820E+03 -0.30683487055E+03  0.37670696249E+03  0.12699999809E+01 0. -1.
</event>
<event>
 5   0  0.1815400E-04  0.2015913E+04  0.7818609E-02  0.8599217E-01
        2   -1    0    0  501    0  0.00000000000E+00  0.00000000000E+00  0.10751835539E+04  0.10751835539E+04  0.25500000920E-02 0. -1.
       -2   -1    0    0    0  501  0.00000000000E+00  0.00000000000E+00 -0.94493261298E+03  0.94493261298E+03  0.25500000920E-02 0.  1.
    10030    2    1    2    0    0  0.00000000000E+00  0.00000000000E+00  0.13025094087E+03  0.20201161668E+04  0.20159127015E+04 0.  0.
        3    1    3    3  502    0 -0.34377803658E+01 -0.71345748447E+03  0.77860910273E+03  0.10560613361E+04  0.10100000352E+00 0. -1.
       -3    1    3    3    0  502  0.34377803658E+01  0.71345748447E+03 -0.64835816186E+03  0.96405483077E+03  0.10100000352E+00 0.  1.
</event>
<event>
 5   0  0.8271069E-05  0.2265453E+04  0.7818609E-02  0.8491669E-01
        1   -1    0    0  501    0  0.00000000000E+00  0.00000000000E+00  0.15256462690E+04  0.15256462690E+04  0.50400001928E-02 0. -1.
       -1   -1    0    0    0  501  0.00000000000E+00  0.00000000000E+00 -0.84100025897E+03  0.84100025898E+03  0.50400001928E-02 0.  1.
    10030    2    1    2    0    0  0.00000000000E+00  0.00000000000E+00  0.68464601000E+03  0.23666465280E+04  0.22654526323E+04 0.  0.
        2    1    3    3  502    0  0.79561439670E+03  0.80620398786E+03  0.33178432460E+03  0.11802745343E+04  0.25500000920E-02 0.  1.
       -2    1    3    3    0  502 -0.79561439670E+03 -0.80620398786E+03  0.35286168540E+03  0.11863719936E+04  0.25500000920E-02 0. -1.
</event>
<event>
 5   0  0.8237966E-05  0.1994212E+04  0.7818609E-02  0.8609332E-01
       -1   -1    0    0    0  501  0.00000000000E+00  0.00000000000E+00  0.51785181535E+03  0.51785181538E+03  0.50400001928E-02 0. -1.
        1   -1    0    0  501    0  0.00000000000E+00  0.00000000000E+00 -0.19198928855E+04  0.19198928855E+04  0.50400001928E-02 0.  1.
    10030    2    1    2    0    0  0.00000000000E+00  0.00000000000E+00 -0.14020410701E+04  0.24377447009E+04  0.19942116398E+04 0.  0.
        1    1    3    3  502    0  0.54095518689E+03  0.83554555818E+03 -0.62920851691E+03  0.11775704870E+04  0.50400001928E-02 0.  1.
       -1    1    3    3    0  502 -0.54095518689E+03 -0.83554555818E+03 -0.77283255324E+03  0.12601742139E+04  0.50400001928E-02 0. -1.
</event>
<event>
 5   0  0.8486612E-05  0.2058707E+04  0.7818609E-02  0.8579655E-01
       -1   -1    0    0    0  501  0.00000000000E+00  0.00000000000E+00  0.82834327022E+03  0.82834327024E+03  0.50400001928E-02 0. -1.
        1   -1    0    0  501    0  0.00000000000E+00  0.00000000000E+00 -0.12791421904E+04  0.12791421904E+04  0.50400001928E-02 0.  1.
    10030    2    1    2    0    0  0.00000000000E+00  0.00000000000E+00 -0.45079892015E+03  0.21074854606E+04  0.20587071915E+04 0.  0.
        5    1    3    3  502    0 -0.72232652902E+03  0.70523008391E+03 -0.19533550739E+02  0.10097072523E+04  0.46999998093E+01 0.  1.
       -5    1    3    3    0  502  0.72232652902E+03 -0.70523008391E+03 -0.43126536941E+03  0.10977782083E+04  0.46999998093E+01 0. -1.
</event>
<event>
 5   0  0.1810875E-04  0.2096258E+04  0.7818609E-02  0.8562894E-01
       -2   -1    0    0    0  501  0.00000000000E+00  0.00000000000E+00  0.81719269990E+03  0.81719269991E+03  0.25500000920E-02 0. -1.
        2   -1    0    0  501    0  0.00000000000E+00  0.00000000000E+00 -0.13443273242E+04  0.13443273242E+04  0.25500000920E-02 0.  1.
    10030    2    1    2    0    0  0.00000000000E+00  0.00000000000E+00 -0.52713462430E+03  0.21615200241E+04  0.20962580715E+04 0.  0.
        1    1    3    3  502    0  0.56100187640E+03  0.61225652268E+03 -0.92300326749E+03  0.12415781033E+04  0.50400001928E-02 0.  1.
       -1    1    3    3    0  502 -0.56100187640E+03 -0.61225652268E+03  0.39586864320E+03  0.91994192076E+03  0.50400001928E-02 0. -1.
</event>
<event>
 5   0  0.6441125E-05  0.2108491E+04  0.7818609E-02  0.8557512E-01
       -4   -1    0    0    0  501  0.00000000000E+00  0.00000000000E+00  0.11726977715E+04  0.11726984591E+04  0.12699999809E+01 0. -1.
        4   -1    0    0  501    0  0.00000000000E+00  0.00000000000E+00 -0.94775633381E+03  0.94775718471E+03  0.12699999809E+01 0.  1.
    10030    2    1    2    0    0  0.00000000000E+00  0.00000000000E+00  0.22494143765E+03  0.21204556439E+04  0.21084908079E+04 0.  0.
        2    1    3    3  502    0  0.54374368612E+03  0.73386290460E+03 -0.41703525786E+03  0.10040569532E+04  0.25500000920E-02 0.  1.
       -2    1    3    3    0  502 -0.54374368612E+03 -0.73386290460E+03  0.64197669551E+03  0.11163986907E+04  0.25500000920E-02 0. -1.
</event>
<event>
 5   0  0.1777590E-04  0.2136409E+04  0.7818609E-02  0.8545372E-01
       -2   -1    0    0    0  501  0.00000000000E+00  0.00000000000E+00  0.96893404486E+03  0.96893404486E+03  0.25500000920E-02 0. -1.
        2   -1    0    0  501    0  0.00000000000E+00  0.00000000000E+00 -0.11776452544E+04  0.11776452544E+04  0.25500000920E-02 0.  1.
    10030    2    1    2    0    0  0.00000000000E+00  0.00000000000E+00 -0.20871120950E+03  0.21465792992E+04  0.21364087434E+04 0.  0.
        4    1    3    3  502    0 -0.52020303988E+03  0.92637676369E+03 -0.21567045314E+03  0.10841127562E+04  0.12699999809E+01 0.  1.
       -4    1    3    3    0  502  0.52020303988E+03 -0.92637676369E+03  0.69592436325E+01  0.10624665430E+04  0.12699999809E+01 0. -1.
</event>
<event>
 5   0  0.8486612E-05  0.2122557E+04  0.7818609E-02  0.8551371E-01
        1   -1    0    0  501    0  0.00000000000E+00  0.00000000000E+00  0.13070927738E+04  0.13070927738E+04  0.50400001928E-02 0.  1.
       -1   -1    0    0    0  501  0.00000000000E+00  0.00000000000E+00 -0.86169277486E+03  0.86169277487E+03  0.50400001928E-02 0. -1.
    10030    2    1    2    0    0  0.00000000000E+00  0.00000000000E+00  0.44539999894E+03  0.21687855487E+04  0.21225573248E+04 0.  0.
        5    1    3    3  502    0  0.42201011204E+03  0.30206742811E+03  0.11685792427E+04  0.12786464728E+04  0.46999998093E+01 0.  1.
       -5    1    3    3    0  502 -0.42201011204E+03 -0.30206742811E+03 -0.72317924380E+03  0.89013907590E+03  0.46999998093E+01 0. -1.
</event>
<event>
 5   0  0.8237966E-05  0.2080671E+04  0.7818609E-02  0.8569806E-01
        1   -1    0    0  501    0  0.00000000000E+00  0.00000000000E+00  0.11584237916E+04  0.11584237916E+04  0.50400001928E-02 0. -1.
       -1   -1    0    0    0  501  0.00000000000E+00  0.00000000000E+00 -0.93428453431E+03  0.93428453432E+03  0.50400001928E-02 0.  1.
    10030    2    1    2    0    0  0.00000000000E+00  0.00000000000E+00  0.22413925728E+03  0.20927083259E+04  0.20806705003E+04 0.  0.
        1    1    3    3  502    0  0.23457996391E+03 -0.95478515260E+03  0.45411803534E+03  0.10829892138E+04  0.50400001928E-02 0.  1.
       -1    1    3    3    0  502 -0.23457996391E+03  0.95478515260E+03 -0.22997877806E+03  0.10097191122E+04  0.50400001928E-02 0. -1.
</event>
<event>
 5   0  0.8271069E-05  0.2081335E+04  0.7818609E-02  0.8569510E-01
       -1   -1    0    0    0  501  0.00000000000E+00  0.00000000000E+00  0.61901288002E+03  0.61901288004E+03  0.50400001928E-02 0.  1.
        1   -1    0    0  501    0  0.00000000000E+00  0.00000000000E+00 -0.17495410845E+04  0.17495410845E+04  0.50400001928E-02 0. -1.
    10030    2    1    2    0    0  0.00000000000E+00  0.00000000000E+00 -0.11305282045E+04  0.23685539646E+04  0.20813346348E+04 0.  0.
        2    1    3    3  502    0  0.27754849966E+02  0.77218254564E+03 -0.13585654122E+04  0.15629255244E+04  0.25500000920E-02 0. -1.
       -2    1    3    3    0  502 -0.27754849966E+02 -0.77218254564E+03  0.22803720773E+03  0.80562844017E+03  0.25500000920E-02 0.  1.
</event>
<event>
 5   0  0.8271069E-05  0.2133316E+04  0.7818609E-02  0.8546708E-01
       -1   -1    0    0    0  501  0.00000000000E+00  0.00000000000E+00  0.85336282488E+03  0.85336282490E+03  0.50400001928E-02 0. -1.
        1   -1    0    0  501    0  0.00000000000E+00  0.00000000000E+00 -0.13332653953E+04  0.13332653953E+04  0.50400001928E-02 0.  1.
    10030    2    1    2    0    0  0.00000000000E+00  0.00000000000E+00 -0.47990257041E+03  0.21866282202E+04  0.21333158454E+04 0.  0.
        2    1    3    3  502    0 -0.88161564357E+03 -0.54110087033E+02  0.37297674704E+03  0.95879387688E+03  0.25500000920E-02 0. -1.
       -2    1    3    3    0  502  0.88161564357E+03  0.54110087033E+02 -0.85287931745E+03  0.12278343433E+04  0.25500000920E-02 0.  1.
</event>
<event>
 5   0  0.8486612E-05  0.2117262E+04  0.7818609E-02  0.8553677E-01
       -1   -1    0    0    0  501  0.00000000000E+00  0.00000000000E+00  0.86284685968E+03  0.86284685969E+03  0.50400001928E-02 0. -1.
        1   -1    0    0  501    0  0.00000000000E+00  0.00000000000E+00 -0.12988394246E+04  0.12988394246E+04  0.50400001928E-02 0.  1.
    10030    2    1    2    0    0  0.00000000000E+00  0.00000000000E+00 -0.43599256495E+03  0.21616862843E+04  0.21172619288E+04 0.  0.
        5    1    3    3  502    0  0.61576177486E+03  0.63943532492E+03  0.37085221613E+03  0.96207772781E+03  0.46999998093E+01 0. -1.
       -5    1    3    3    0  502 -0.61576177486E+03 -0.63943532492E+03 -0.80684478109E+03  0.11996085565E+04  0.46999998093E+01 0.  1.
</event>
<event>
 5   0  0.1810875E-04  0.2125969E+04  0.7818609E-02  0.8549889E-01
       -2   -1    0    0    0  501  0.00000000000E+00  0.00000000000E+00  0.86212213827E+03  0.86212213827E+03  0.25500000920E-02 0.  1.
        2   -1    0    0  501    0  0.00000000000E+00  0.00000000000E+00 -0.13106449617E+04  0.13106449617E+04  0.25500000920E-02 0. -1.
    10030    2    1    2    0    0  0.00000000000E+00  0.00000000000E+00 -0.44852282342E+03  0.21727671000E+04  0.21259689903E+04 0.  0.
        1    1    3    3  502    0 -0.36924741935E+03  0.22660312635E+03  0.76779827912E+03  0.88159334788E+03  0.50400001928E-02 0.  1.
       -1    1    3    3    0  502  0.36924741935E+03 -0.22660312635E+03 -0.12163211025E+04  0.12911737521E+04  0.50400001928E-02 0. -1.
</event>
<event>
 5   0  0.8525278E-05  0.2174198E+04  0.7818609E-02  0.8529245E-01
       -1   -1    0    0    0  501  0.00000000000E+00  0.00000000000E+00  0.81663790882E+03  0.81663790884E+03  0.50400001928E-02 0.  1.
        1   -1    0    0  501    0  0.00000000000E+00  0.00000000000E+00 -0.14471330497E+04  0.14471330497E+04  0.50400001928E-02 0. -1.
    10030    2    1    2    0    0  0.00000000000E+00  0.00000000000E+00 -0.63049514085E+03  0.22637709585E+04  0.21741975140E+04 0.  0.
        4    1    3    3  502    0 -0.22049321353E+03  0.94339211301E+03  0.19819749706E+03  0.98888310575E+03  0.12699999809E+01 0.  1.
       -4    1    3    3    0  502  0.22049321353E+03 -0.94339211301E+03 -0.82869263791E+03  0.12748878528E+04  0.12699999809E+01 0. -1.
</event>
<event>
 5   0  0.8237966E-05  0.2114904E+04  0.7818609E-02  0.8554706E-01
       -1   -1    0    0    0  501  0.00000000000E+00  0.00000000000E+00  0.12874421960E+04  0.12874421960E+04  0.50400001928E-02 0.  1.
        1   -1    0    0  501    0  0.00000000000E+00  0.00000000000E+00 -0.86854777881E+03  0.86854777882E+03  0.50400001928E-02 0. -1.
    10030    2    1    2    0    0  0.00000000000E+00  0.00000000000E+00  0.41889441716E+03  0.21559899748E+04  0.21149043096E+04 0.  0.
        1    1    3    3  502    0 -0.61098581690E+03  0.82869466953E+03  0.45530989066E+03  0.11257644604E+04  0.50400001928E-02 0.  1.
       -1    1    3    3    0  502  0.61098581690E+03 -0.82869466953E+03 -0.36415473498E+02  0.10302255144E+04  0.50400001928E-02 0. -1.
</event>
<event>
 5   0  0.1777590E-04  0.2182958E+04  0.7818609E-02  0.8525555E-01
       -2   -1    0    0    0  501  0.00000000000E+00  0.00000000000E+00  0.66013262812E+03  0.66013262812E+03  0.25500000920E-02 0. -1.
        2   -1    0    0  501    0  0.00000000000E+00  0.00000000000E+00 -0.18046774826E+04  0.18046774826E+04  0.25500000920E-02 0.  1.
    10030    2    1    2    0    0  0.00000000000E+00  0.00000000000E+00 -0.11445448545E+04  0.24648101107E+04  0.21829580752E+04 0.  0.
        4    1    3    3  502    0 -0.24320741680E+03 -0.60290071600E+03  0.41767581428E+03  0.77271846080E+03  0.12699999809E+01 0. -1.
       -4    1    3    3    0  502  0.24320741680E+03  0.60290071600E+03 -0.15622206688E+04  0.16920916499E+04  0.12699999809E+01 0.  1.
</event>
<event>
 5   0  0.8486612E-05  0.2091399E+04  0.7818609E-02  0.8565042E-01
        1   -1    0    0  501    0  0.00000000000E+00  0.00000000000E+00  0.15135934946E+04  0.15135934946E+04  0.50400001928E-02 0. -1.
       -1   -1    0    0    0  501  0.00000000000E+00  0.00000000000E+00 -0.72244426733E+03  0.72244426734E+03  0.50400001928E-02 0.  1.
    10030    2    1    2    0    0  0.00000000000E+00  0.00000000000E+00  0.79114922729E+03  0.22360377620E+04  0.20913985209E+04 0.  0.
        5    1    3    3  502    0 -0.34562586616E+02  0.79334400583E+03  0.11229765732E+04  0.13753864031E+04  0.46999998093E+01 0. -1.
       -5    1    3    3    0  502  0.34562586616E+02 -0.79334400583E+03 -0.33182734591E+03  0.86065135883E+03  0.46999998093E+01 0.  1.
</event>
<event>
 5   0  0.8486612E-05  0.2012781E+04  0.7818609E-02  0.8600668E-01
        1   -1    0    0  501    0  0.00000000000E+00  0.00000000000E+00  0.24663389540E+04  0.24663389540E+04  0.50400001928E-02 0. -1.
       -1   -1    0    0    0  501  0.00000000000E+00  0.00000000000E+00 -0.41065806820E+03  0.41065806823E+03  0.50400001928E-02 0.  1.
    10030    2    1    2    0    0  0.00000000000E+00  0.00000000000E+00  0.20556808858E+04  0.28769970222E+04  0.20127811510E+04 0.  0.
        5    1    3    3  502    0 -0.19553456793E+01 -0.39418801254E+03  0.23513820729E+04  0.23841996047E+04  0.46999998093E+01 0. -1.
       -5    1    3    3    0  502  0.19553456793E+01  0.39418801254E+03 -0.29570118710E+03  0.49279741746E+03  0.46999998093E+01 0.  1.
</event>
<event>
 5   0  0.8271069E-05  0.2089283E+04  0.7818609E-02  0.8565979E-01
       -1   -1    0    0    0  501  0.00000000000E+00  0.00000000000E+00  0.65845613312E+03  0.65845613314E+03  0.50400001928E-02 0. -1.
        1   -1    0    0  501    0  0.00000000000E+00  0.00000000000E+00 -0.16573244705E+04  0.16573244705E+04  0.50400001928E-02 0.  1.
    10030    2    1    2    0    0  0.00000000000E+00  0.00000000000E+00 -0.99886833733E+03  0.23157806036E+04  0.20892826158E+04 0.  0.
        2    1    3    3  502    0 -0.57047665665E+03 -0.48297489458E+03  0.30945195896E+03  0.80899250892E+03  0.25500000920E-02 0. -1.
       -2    1    3    3    0  502  0.57047665665E+03  0.48297489458E+03 -0.13083202963E+04  0.15067880947E+04  0.25500000920E-02 0.  1.
</event>
<event>
 5   0  0.1810875E-04  0.2129284E+04  0.7818609E-02  0.8548452E-01
        2   -1    0    0  501    0  0.00000000000E+00  0.00000000000E+00  0.13273294444E+04  0.13273294444E+04  0.25500000920E-02 0.  1.
       -2   -1    0    0    0  501  0.00000000000E+00  0.00000000000E+00 -0.85394221508E+03  0.85394221508E+03  0.25500000920E-02 0. -1.
    10030    2    1    2    0    0  0.00000000000E+00  0.00000000000E+00  0.47338722936E+03  0.21812716595E+04  0.21292840543E+04 0.  0.
        1    1    3    3  502    0 -0.63977022673E+03 -0.85096083127E+03  0.23184881804E+03  0.10895843950E+04  0.50400001928E-02 0. -1.
       -1    1    3    3    0  502  0.63977022673E+03  0.85096083127E+03  0.24153841132E+03  0.10916872645E+04  0.50400001928E-02 0.  1.
</event>
<event>
 5   0  0.8525278E-05  0.2094257E+04  0.7818609E-02  0.8563777E-01
       -1   -1    0    0    0  501  0.00000000000E+00  0.00000000000E+00  0.82744581540E+03  0.82744581541E+03  0.50400001928E-02 0. -1.
        1   -1    0    0  501    0  0.00000000000E+00  0.00000000000E+00 -0.13251361249E+04  0.13251361249E+04  0.50400001928E-02 0.  1.
    10030    2    1    2    0    0  0.00000000000E+00  0.00000000000E+00 -0.49769030952E+03  0.21525819403E+04  0.20942572348E+04 0.  0.
        4    1    3    3  502    0  0.27578240152E+03  0.30297003099E+03 -0.12393372466E+04  0.13052988915E+04  0.12699999809E+01 0.  1.
       -4    1    3    3    0  502 -0.27578240152E+03 -0.30297003099E+03  0.74164693704E+03  0.84728304880E+03  0.12699999809E+01 0. -1.
</event>
<event>
 5   0  0.1810875E-04  0.2130132E+04  0.7818609E-02  0.8548085E-01
       -2   -1    0    0    0  501  0.00000000000E+00  0.00000000000E+00  0.44628464920E+03  0.44628464920E+03  0.25500000920E-02 0. -1.
        2   -1    0    0  501    0  0.00000000000E+00  0.00000000000E+00 -0.25417972657E+04  0.25417972657E+04  0.25500000920E-02 0.  1.
    10030    2    1    2    0    0  0.00000000000E+00  0.00000000000E+00 -0.20955126165E+04  0.29880819149E+04  0.21301315462E+04 0.  0.
        1    1    3    3  502    0 -0.54276127707E+03  0.91639222067E+03 -0.10466742229E+04  0.14932821016E+04  0.50400001928E-02 0. -1.
       -1    1    3    3    0  502  0.54276127707E+03 -0.91639222067E+03 -0.10488383936E+04  0.14947998133E+04  0.50400001928E-02 0.  1.
</event>
<event>
 5   0  0.1815400E-04  0.2017750E+04  0.7818609E-02  0.8598367E-01
        2   -1    0    0  501    0  0.00000000000E+00  0.00000000000E+00  0.12780718601E+04  0.12780718601E+04  0.25500000920E-02 0. -1.
       -2   -1    0    0    0  501  0.00000000000E+00  0.00000000000E+00 -0.79637824489E+03  0.79637824490E+03  0.25500000920E-02 0.  1.
    10030    2    1    2    0    0  0.00000000000E+00  0.00000000000E+00  0.48169361521E+03  0.20744501050E+04  0.20177498604E+04 0.  0.
        3    1    3    3  502    0 -0.52594733066E+03  0.33720081740E+02 -0.64360129355E+03  0.83185351704E+03  0.10100000352E+00 0.  1.
       -3    1    3    3    0  502  0.52594733066E+03 -0.33720081740E+02  0.11252949088E+04  0.12425965880E+04  0.10100000352E+00 0. -1.
</event>
<event>
 5   0  0.1815400E-04  0.2083424E+04  0.7818609E-02  0.8568581E-01
       -2   -1    0    0    0  501  0.00000000000E+00  0.00000000000E+00  0.64028246471E+03  0.64028246471E+03  0.25500000920E-02 0.  1.
        2   -1    0    0  501    0  0.00000000000E+00  0.00000000000E+00 -0.16948207084E+04  0.16948207084E+04  0.25500000920E-02 0. -1.
    10030    2    1    2    0    0  0.00000000000E+00  0.00000000000E+00 -0.10545382437E+04  0.23351031731E+04  0.20834240859E+04 0.  0.
        3    1    3    3  502    0  0.31635999710E+03 -0.17143670455E+03 -0.16229570176E+04  0.16623668917E+04  0.10100000352E+00 0. -1.
       -3    1    3    3    0  502 -0.31635999710E+03  0.17143670455E+03  0.56841877398E+03  0.67273628135E+03  0.10100000352E+00 0.  1.
</event>
<event>
 5   0  0.8237966E-05  0.1689803E+04  0.7818609E-02  0.8767202E-01
        1   -1    0    0  501    0  0.00000000000E+00  0.00000000000E+00  0.11717313597E+04  0.11717313597E+04  0.50400001928E-02 0. -1.
       -1   -1    0    0    0  501  0.00000000000E+00  0.00000000000E+00 -0.60923367219E+03  0.60923367221E+03  0.50400001928E-02 0.  1.
    10030    2    1    2    0    0  0.00000000000E+00  0.00000000000E+00  0.56249768747E+03  0.17809650319E+04  0.16898025909E+04 0.  0.
        1    1    3    3  502    0  0.46149351748E+03 -0.33729950184E+03 -0.37449944333E+03  0.68337182682E+03  0.50400001928E-02 0.  1.
       -1    1    3    3    0  502 -0.46149351748E+03  0.33729950184E+03  0.93699713080E+03  0.10975932051E+04  0.50400001928E-02 0. -1.
</event>
<event>
 5   0  0.8486612E-05  0.2113622E+04  0.7818609E-02  0.8555267E-01
        1   -1    0    0  501    0  0.00000000000E+00  0.00000000000E+00  0.69648543143E+03  0.69648543145E+03  0.50400001928E-02 0. -1.
       -1   -1    0    0    0  501  0.00000000000E+00  0.00000000000E+00 -0.16035500012E+04  0.16035500012E+04  0.50400001928E-02 0.  1.
    10030    2    1    2    0    0  0.00000000000E+00  0.00000000000E+00 -0.90706456975E+03  0.23000354326E+04  0.21136217395E+04 0.  0.
        5    1    3    3  502    0 -0.83756734585E+03  0.19423706067E+03  0.21513760518E+03  0.88631448918E+03  0.46999998093E+01 0. -1.
       -5    1    3    3    0  502  0.83756734585E+03 -0.19423706067E+03 -0.11222021749E+04  0.14137209435E+04  0.46999998093E+01 0.  1.
</event>
<event>
 5   0  0.1815400E-04  0.2114880E+04  0.7818609E-02  0.8554717E-01
       -2   -1    0    0    0  501  0.00000000000E+00  0.00000000000E+00  0.61304280551E+03  0.61304280551E+03  0.25500000920E-02 0. -1.
        2   -1    0    0  501    0  0.00000000000E+00  0.00000000000E+00 -0.18239829647E+04  0.18239829647E+04  0.25500000920E-02 0.  1.
    10030    2    1    2    0    0  0.00000000000E+00  0.00000000000E+00 -0.12109401592E+04  0.24370257702E+04  0.21148802651E+04 0.  0.
        3    1    3    3  502    0 -0.28994850319E+03  0.36006333581E+03  0.49042745968E+03  0.67396946793E+03  0.10100000352E+00 0. -1.
       -3    1    3    3    0  502  0.28994850319E+03 -0.36006333581E+03 -0.17013676189E+04  0.17630563023E+04  0.10100000352E+00 0.  1.
</event>
<event>
 5   0  0.8486612E-05  0.2045127E+04  0.7818609E-02  0.8585808E-01
       -1   -1    0    0    0  501  0.00000000000E+00  0.00000000000E+00  0.63567209509E+03  0.63567209511E+03  0.50400001928E-02 0. -1.
        1   -1    0    0  501    0  0.00000000000E+00  0.00000000000E+00 -0.16449297653E+04  0.16449297653E+04  0.50400001928E-02 0.  1.
    10030    2    1    2    0    0  0.00000000000E+00  0.00000000000E+00 -0.10092576702E+04  0.22806018604E+04  0.20451268422E+04 0.  0.
        5    1    3    3  502    0  0.61723411209E+03 -0.62053069348E+03  0.85002272621E+02  0.87936554801E+03  0.46999998093E+01 0. -1.
       -5    1    3    3    0  502 -0.61723411209E+03  0.62053069348E+03 -0.10942599428E+04  0.14012363124E+04  0.46999998093E+01 0.  1.
</event>
<event>
 5   0  0.1886323E-04  0.2162862E+04  0.7818609E-02  0.8534047E-01
       -2   -1    0    0    0  501  0.00000000000E+00  0.00000000000E+00  0.13448091109E+04  0.13448091109E+04  0.25500000920E-02 0. -1.
        2   -1    0    0  501    0  0.00000000000E+00  0.00000000000E+00 -0.86963455574E+03  0.86963455574E+03  0.25500000920E-02 0.  1.
    10030    2    1    2    0    0  0.00000000000E+00  0.00000000000E+00  0.47517455521E+03  0.22144436667E+04  0.21628615062E+04 0.  0.
        2    1    3    3  502    0  0.16111739008E+03  0.10632562235E+04  0.35441317897E+03  0.11322902948E+04  0.25500000920E-02 0.  1.
       -2    1    3    3    0  502 -0.16111739008E+03 -0.10632562235E+04  0.12076137624E+03  0.10821533719E+04  0.25500000920E-02 0. -1.
</event>
<event>
 5   0  0.8755004E-05  0.2298320E+04  0.7818609E-02  0.8478584E-01
        1   -1    0    0  501    0  0.00000000000E+00  0.00000000000E+00  0.16308968509E+04  0.16308968509E+04  0.50400001928E-02 0.  1.
       -1   -1    0    0    0  501  0.00000000000E+00  0.00000000000E+00 -0.80971907081E+03  0.80971907083E+03  0.50400001928E-02 0. -1.
    10030    2    1    2    0    0  0.00000000000E+00  0.00000000000E+00  0.82117778012E+03  0.24406159218E+04  0.22983196320E+04 0.  0.
        3    1    3    3  502    0  0.32764039761E+03  0.96587352892E+03  0.97280986669E+03  0.14094747074E+04  0.10100000352E+00 0.  1.
       -3    1    3    3    0  502 -0.32764039761E+03 -0.96587352892E+03 -0.15163208657E+03  0.10311412143E+04  0.10100000352E+00 0. -1.
</event>
<event>
 5   0  0.8237966E-05  0.2160628E+04  0.7818609E-02  0.8534997E-01
        1   -1    0    0  501    0  0.00000000000E+00  0.00000000000E+00  0.13514901445E+04  0.13514901445E+04  0.50400001928E-02 0. -1.
       -1   -1    0    0    0  501  0.00000000000E+00  0.00000000000E+00 -0.86354948298E+03  0.86354948299E+03  0.50400001928E-02 0.  1.
    10030    2    1    2    0    0  0.00000000000E+00  0.00000000000E+00  0.48794066151E+03  0.22150396275E+04  0.21606282564E+04 0.  0.
        1    1    3    3  502    0 -0.99310296625E+03  0.28061995041E+03  0.57151201919E+03  0.11796724318E+04  0.50400001928E-02 0. -1.
       -1    1    3    3    0  502  0.99310296625E+03 -0.28061995041E+03 -0.83571357679E+02  0.10353671957E+04  0.50400001928E-02 0.  1.
</event>
<event>
 5   0  0.8525278E-05  0.2121592E+04  0.7818609E-02  0.8551791E-01
        1   -1    0    0  501    0  0.00000000000E+00  0.00000000000E+00  0.12522211731E+04  0.12522211731E+04  0.50400001928E-02 0. -1.
       -1   -1    0    0    0  501  0.00000000000E+00  0.00000000000E+00 -0.89863405729E+03  0.89863405730E+03  0.50400001928E-02 0.  1.
    10030    2    1    2    0    0  0.00000000000E+00  0.00000000000E+00  0.35358711577E+03  0.21508552304E+04  0.21215924146E+04 0.  0.
        4    1    3    3  502    0 -0.57173774624E+03  0.76276723047E+03  0.64860395424E+03  0.11529902865E+04  0.12699999809E+01 0. -1.
       -4    1    3    3    0  502  0.57173774624E+03 -0.76276723047E+03 -0.29501683847E+03  0.99786494389E+03  0.12699999809E+01 0.  1.
</event>
<event>
 5   0  0.1777590E-04  0.2072532E+04  0.7818609E-02  0.8573440E-01
       -2   -1    0    0    0  501  0.00000000000E+00  0.00000000000E+00  0.65059465079E+03  0.65059465080E+03  0.25500000920E-02 0. -1.
        2   -1    0    0  501    0  0.00000000000E+00  0.00000000000E+00 -0.16505633807E+04  0.16505633807E+04  0.25500000920E-02 0.  1.
    10030    2    1    2    0    0  0.00000000000E+00  0.00000000000E+00 -0.99996872989E+03  0.23011580315E+04  0.20725324666E+04 0.  0.
        4    1    3    3  502    0  0.87953509486E+03  0.12440896543E+03  0.92538093668E+02  0.89309825073E+03  0.12699999809E+01 0. -1.
       -4    1    3    3    0  502 -0.87953509486E+03 -0.12440896543E+03 -0.10925068236E+04  0.14080597808E+04  0.12699999809E+01 0.  1.
</event>
<event>
 5   0  0.8755004E-05  0.2137831E+04  0.7818609E-02  0.8544759E-01
        1   -1    0    0  501    0  0.00000000000E+00  0.00000000000E+00  0.23485835397E+04  0.23485835397E+04  0.50400001928E-02 0.  1.
       -1   -1    0    0    0  501  0.00000000000E+00  0.00000000000E+00 -0.48649777919E+03  0.48649777921E+03  0.50400001928E-02 0. -1.
    10030    2    1    2    0    0  0.00000000000E+00  0.00000000000E+00  0.18620857605E+04  0.28350813190E+04  0.21378313089E+04 0.  0.
        3    1    3    3  502    0 -0.35092177780E+03  0.67520157565E+03 -0.64485077157E+02  0.76367636946E+03  0.10100000352E+00 0. -1.
       -3    1    3    3    0  502  0.35092177780E+03 -0.67520157565E+03  0.19265708377E+04  0.20714049495E+04  0.10100000352E+00 0.  1.
</event>
<event>
 5   0  0.8486612E-05  0.2109396E+04  0.7818609E-02  0.8557115E-01
       -1   -1    0    0    0  501  0.00000000000E+00  0.00000000000E+00  0.71413846030E+03  0.71413846032E+03  0.50400001928E-02 0. -1.
        1   -1    0    0  501    0  0.00000000000E+00  0.00000000000E+00 -0.15576646895E+04  0.15576646895E+04  0.50400001928E-02 0.  1.
    10030    2    1    2    0    0  0.00000000000E+00  0.00000000000E+00 -0.84352622920E+03  0.22718031498E+04  0.21093963715E+04 0.  0.
        5    1    3    3  502    0  0.96458518104E+03 -0.84336543443E+02 -0.87208097911E+03  0.13031057318E+04  0.46999998093E+01 0. -1.
       -5    1    3    3    0  502 -0.96458518104E+03  0.84336543443E+02  0.28554749905E+02  0.96869741807E+03  0.46999998093E+01 0.  1.
</event>
<event>
 5   0  0.8525278E-05  0.2076884E+04  0.7818609E-02  0.8571495E-01
        1   -1    0    0  501    0  0.00000000000E+00  0.00000000000E+00  0.71527099342E+03  0.71527099344E+03  0.50400001928E-02 0. -1.
       -1   -1    0    0    0  501  0.00000000000E+00  0.00000000000E+00 -0.15076271273E+04  0.15076271273E+04  0.50400001928E-02 0.  1.
    10030    2    1    2    0    0  0.00000000000E+00  0.00000000000E+00 -0.79235613384E+03  0.22228981207E+04  0.20768841596E+04 0.  0.
        4    1    3    3  502    0  0.48654533678E+03 -0.81703152981E+03  0.50401148590E+02  0.95226507555E+03  0.12699999809E+01 0. -1.
       -4    1    3    3    0  502 -0.48654533678E+03  0.81703152981E+03 -0.84275728243E+03  0.12706330452E+04  0.12699999809E+01 0.  1.
</event>
<event>
 5   0  0.1886323E-04  0.2085712E+04  0.7818609E-02  0.8567564E-01
        2   -1    0    0  501    0  0.00000000000E+00  0.00000000000E+00  0.12607446454E+04  0.12607446454E+04  0.25500000920E-02 0. -1.
       -2   -1    0    0    0  501  0.00000000000E+00  0.00000000000E+00 -0.86262387047E+03  0.86262387047E+03  0.25500000920E-02 0.  1.
    10030    2    1    2    0    0  0.00000000000E+00  0.00000000000E+00  0.39812077495E+03  0.21233685159E+04  0.20857117976E+04 0.  0.
        2    1    3    3  502    0  0.44596038830E+03  0.14880681365E+03 -0.74861902592E+03  0.88399919780E+03  0.25500000920E-02 0.  1.
       -2    1    3    3    0  502 -0.44596038830E+03 -0.14880681365E+03  0.11467398009E+04  0.12393693181E+04  0.25500000920E-02 0. -1.
</event>
<event>
 5   0  0.1777590E-04  0.2118013E+04  0.7818609E-02  0.8553350E-01
       -2   -1    0    0    0  501  0.00000000000E+00  0.00000000000E+00  0.11997035545E+04  0.11997035545E+04  0.25500000920E-02 0. -1.
        2   -1    0    0  501    0  0.00000000000E+00  0.00000000000E+00 -0.93481003254E+03  0.93481003254E+03  0.25500000920E-02 0.  1.
    10030    2    1    2    0    0  0.00000000000E+00  0.00000000000E+00  0.26489352201E+03  0.21345135871E+04  0.21180131434E+04 0.  0.
        4    1    3    3  502    0  0.69120666355E+03 -0.35988659439E+03  0.85511640309E+03  0.11569402268E+04  0.12699999809E+01 0. -1.
       -4    1    3    3    0  502 -0.69120666355E+03  0.35988659439E+03 -0.59022288108E+03  0.97757336032E+03  0.12699999809E+01 0.  1.
</event>
<event>
 5   0  0.1777590E-04  0.2110074E+04  0.7818609E-02  0.8556819E-01
        2   -1    0    0  501    0  0.00000000000E+00  0.00000000000E+00  0.20509517428E+04  0.20509517428E+04  0.25500000920E-02 0. -1.
       -2   -1    0    0    0  501  0.00000000000E+00  0.00000000000E+00 -0.54272498106E+03  0.54272498107E+03  0.25500000920E-02 0.  1.
    10030    2    1    2    0    0  0.00000000000E+00  0.00000000000E+00  0.15082267617E+04  0.25936767238E+04  0.21100736914E+04 0.  0.
        4    1    3    3  502    0  0.72107577872E+02  0.33687848716E+03  0.19798635147E+04  0.20096138355E+04  0.12699999809E+01 0. -1.
       -4    1    3    3    0  502 -0.72107577872E+02 -0.33687848716E+03 -0.47163675300E+03  0.58406288838E+03  0.12699999809E+01 0.  1.
</event>
<event>
 5   0  0.8525278E-05  0.2108023E+04  0.7818609E-02  0.8557717E-01
        1   -1    0    0  501    0  0.00000000000E+00  0.00000000000E+00  0.19812990370E+04  0.19812990370E+04  0.50400001928E-02 0. -1.
       -1   -1    0    0    0  501  0.00000000000E+00  0.00000000000E+00 -0.56071326009E+03  0.56071326011E+03  0.50400001928E-02 0.  1.
    10030    2    1    2    0    0  0.00000000000E+00  0.00000000000E+00  0.14205857769E+04  0.25420122972E+04  0.21080233797E+04 0.  0.
        4    1    3    3  502    0 -0.48135352673E+03 -0.57948342044E+03  0.15992416657E+04  0.17677889497E+04  0.12699999809E+01 0. -1.
       -4    1    3    3    0  502  0.48135352673E+03  0.57948342044E+03 -0.17865588880E+03  0.77422334747E+03  0.12699999809E+01 0.  1.
</event>
<event>
 5   0  0.1886323E-04  0.2112122E+04  0.7818609E-02  0.8555922E-01
        2   -1    0    0  501    0  0.00000000000E+00  0.00000000000E+00  0.94147335192E+03  0.94147335192E+03  0.25500000920E-02 0. -1.
       -2   -1    0    0    0  501  0.00000000000E+00  0.00000000000E+00 -0.11845951569E+04  0.11845951569E+04  0.25500000920E-02 0.  1.
    10030    2    1    2    0    0  0.00000000000E+00  0.00000000000E+00 -0.24312180502E+03  0.21260685089E+04  0.21121219407E+04 0.  0.
        2    1    3    3  502    0 -0.73209473995E+03  0.75622777787E+03 -0.34843270003E+02  0.10531178537E+04  0.25500000920E-02 0. -1.
       -2    1    3    3    0  502  0.73209473995E+03 -0.75622777787E+03 -0.20827853502E+03  0.10729506552E+04  0.25500000920E-02 0.  1.
</event>
<event>
 5   0  0.1777590E-04  0.2058110E+04  0.7818609E-02  0.8579924E-01
       -2   -1    0    0    0  501  0.00000000000E+00  0.00000000000E+00  0.51797520419E+03  0.51797520419E+03  0.25500000920E-02 0.  1.
        2   -1    0    0  501    0  0.00000000000E+00  0.00000000000E+00 -0.20444108353E+04  0.20444108353E+04  0.25500000920E-02 0. -1.
    10030    2    1    2    0    0  0.00000000000E+00  0.00000000000E+00 -0.15264356311E+04  0.25623860395E+04  0.20581099289E+04 0.  0.
        4    1    3    3  502    0 -0.80199418299E+03  0.44274189304E+03 -0.17960067909E+03  0.93352721986E+03  0.12699999809E+01 0.  1.
       -4    1    3    3    0  502  0.80199418299E+03 -0.44274189304E+03 -0.13468349520E+04  0.16288588196E+04  0.12699999809E+01 0. -1.
</event>
<event>
 5   0  0.1921687E-04  0.2087043E+04  0.7818609E-02  0.8566973E-01
        2   -1    0    0  501    0  0.00000000000E+00  0.00000000000E+00  0.18021101473E+04  0.18021101473E+04  0.25500000920E-02 0. -1.
       -2   -1    0    0    0  501  0.00000000000E+00  0.00000000000E+00 -0.60425676231E+03  0.60425676231E+03  0.25500000920E-02 0.  1.
    10030    2    1    2    0    0  0.00000000000E+00  0.00000000000E+00  0.11978533850E+04  0.24063669096E+04  0.20870431169E+04 0.  0.
        5    1    3    3  502    0 -0.34287061045E+03  0.50205752531E+02  0.17338203631E+04  0.17681165161E+04  0.46999998093E+01 0. -1.
       -5    1    3    3    0  502  0.34287061045E+03 -0.50205752531E+02 -0.53596697814E+03  0.63825039346E+03  0.46999998093E+01 0.  1.
</event>
<event>
 5   0  0.8271069E-05  0.2128941E+04  0.7818609E-02  0.8548601E-01
       -1   -1    0    0    0  501  0.00000000000E+00  0.00000000000E+00  0.43033486565E+03  0.43033486567E+03  0.50400001928E-02 0.  1.
        1   -1    0    0  501    0  0.00000000000E+00  0.00000000000E+00 -0.26330597762E+04  0.26330597762E+04  0.50400001928E-02 0. -1.
    10030    2    1    2    0    0  0.00000000000E+00  0.00000000000E+00 -0.22027249106E+04  0.30633946419E+04  0.21289409810E+04 0.  0.
        2    1    3    3  502    0  0.64351256863E+03  0.50188167741E+03 -0.11792664639E+03  0.82456069396E+03  0.25500000920E-02 0.  1.
       -2    1    3    3    0  502 -0.64351256863E+03 -0.50188167741E+03 -0.20847982642E+04  0.22388339480E+04  0.25500000920E-02 0. -1.
</event>
<event>
 5   0  0.1921687E-04  0.2082328E+04  0.7818609E-02  0.8569068E-01
       -2   -1    0    0    0  501  0.00000000000E+00  0.00000000000E+00  0.75223545465E+03  0.75223545465E+03  0.25500000920E-02 0.  1.
        2   -1    0    0  501    0  0.00000000000E+00  0.00000000000E+00 -0.14410682647E+04  0.14410682647E+04  0.25500000920E-02 0. -1.
    10030    2    1    2    0    0  0.00000000000E+00  0.00000000000E+00 -0.68883281004E+03  0.21933037193E+04  0.20823281598E+04 0.  0.
        5    1    3    3  502    0 -0.65195459910E+03  0.29194796896E+03  0.45339530410E+03  0.84608971607E+03  0.46999998093E+01 0.  1.
       -5    1    3    3    0  502  0.65195459910E+03 -0.29194796896E+03 -0.11422281141E+04  0.13472140033E+04  0.46999998093E+01 0. -1.
</event>
<event>
 5   0  0.8486612E-05  0.2086047E+04  0.7818609E-02  0.8567415E-01
        1   -1    0    0  501    0  0.00000000000E+00  0.00000000000E+00  0.94747178620E+03  0.94747178622E+03  0.50400001928E-02 0. -1.
       -1   -1    0    0    0  501  0.00000000000E+00  0.00000000000E+00 -0.11482111001E+04  0.11482111001E+04  0.50400001928E-02 0.  1.
    10030    2    1    2    0    0  0.00000000000E+00  0.00000000000E+00 -0.20073931385E+03  0.20956828863E+04  0.20860466169E+04 0.  0.
        5    1    3    3  502    0 -0.12614734858E+03 -0.45182692470E+03 -0.10362387087E+04  0.11374855933E+04  0.46999998093E+01 0.  1.
       -5    1    3    3    0  502  0.12614734858E+03  0.45182692470E+03  0.83549939489E+03  0.95819729300E+03  0.46999998093E+01 0. -1.
</event>
<event>
 5   0  0.8271069E-05  0.2115907E+04  0.7818609E-02  0.8554269E-01
        1   -1    0    0  501    0  0.00000000000E+00  0.00000000000E+00  0.16279126025E+04  0.16279126025E+04  0.50400001928E-02 0.  1.
       -1   -1    0    0    0  501  0.00000000000E+00  0.00000000000E+00 -0.68754619548E+03  0.68754619550E+03  0.50400001928E-02 0. -1.
    10030    2    1    2    0    0  0.00000000000E+00  0.00000000000E+00  0.94036640700E+03  0.23154587980E+04  0.21159065352E+04 0.  0.
        2    1    3    3  502    0  0.21352413385E+03  0.82419875330E+03 -0.21703071791E+03  0.87863443661E+03  0.25500000920E-02 0. -1.
       -2    1    3    3    0  502 -0.21352413385E+03 -0.82419875330E+03  0.11573971249E+04  0.14368243614E+04  0.25500000920E-02 0.  1.
</event>
<event>
 5   0  0.1810875E-04  0.2029092E+04  0.7818609E-02  0.8593139E-01
       -2   -1    0    0    0  501  0.00000000000E+00  0.00000000000E+00  0.46411126522E+03  0.46411126522E+03  0.25500000920E-02 0.  1.
        2   -1    0    0  501    0  0.00000000000E+00  0.00000000000E+00 -0.22177957475E+04  0.22177957475E+04  0.25500000920E-02 0. -1.
    10030    2    1    2    0    0  0.00000000000E+00  0.00000000000E+00 -0.17536844823E+04  0.26819070127E+04  0.20290923985E+04 0.  0.
        1    1    3    3  502    0 -0.51321594405E+03 -0.47177386691E+03 -0.18511111685E+04  0.19780226856E+04  0.50400001928E-02 0. -1.
       -1    1    3    3    0  502  0.51321594405E+03  0.47177386691E+03  0.97426686204E+02  0.70388432710E+03  0.50400001928E-02 0.  1.
</event>
<event>
 5   0  0.8525278E-05  0.1544680E+04  0.7818609E-02  0.8855273E-01
       -1   -1    0    0    0  501  0.00000000000E+00  0.00000000000E+00  0.29995888714E+03  0.29995888718E+03  0.50400001928E-02 0.  1.
        1   -1    0    0  501    0  0.00000000000E+00  0.00000000000E+00 -0.19886361495E+04  0.19886361495E+04  0.50400001928E-02 0. -1.
    10030    2    1    2    0    0  0.00000000000E+00  0.00000000000E+00 -0.16886772624E+04  0.22885950367E+04  0.15446800140E+04 0.  0.
        4    1    3    3  502    0  0.48580583250E+03  0.14125468031E+03 -0.17089463999E+04  0.17822624954E+04  0.12699999809E+01 0. -1.
       -4    1    3    3    0  502 -0.48580583250E+03 -0.14125468031E+03  0.20269137545E+02  0.50633254136E+03  0.12699999809E+01 0.  1.
</event>
<event>
 5   0  0.1815400E-04  0.2072931E+04  0.7818609E-02  0.8573262E-01
        2   -1    0    0  501    0  0.00000000000E+00  0.00000000000E+00  0.70017948542E+03  0.70017948542E+03  0.25500000920E-02 0.  1.
       -2   -1    0    0    0  501  0.00000000000E+00  0.00000000000E+00 -0.15342642459E+04  0.15342642459E+04  0.25500000920E-02 0. -1.
    10030    2    1    2    0    0  0.00000000000E+00  0.00000000000E+00 -0.83408476047E+03  0.22344437313E+04  0.20729306310E+04 0.  0.
        3    1    3    3  502    0 -0.59610413290E+03  0.38414408970E+03 -0.12318162784E+04  0.14213648978E+04  0.10100000352E+00 0. -1.
       -3    1    3    3    0  502  0.59610413290E+03 -0.38414408970E+03  0.39773151791E+03  0.81307883348E+03  0.10100000352E+00 0.  1.
</event>
<event>
 5   0  0.8486612E-05  0.2130678E+04  0.7818609E-02  0.8547849E-01
       -1   -1    0    0    0  501  0.00000000000E+00  0.00000000000E+00  0.79356615437E+03  0.79356615439E+03  0.50400001928E-02 0. -1.
        1   -1    0    0  501    0  0.00000000000E+00  0.00000000000E+00 -0.14301857463E+04  0.14301857463E+04  0.50400001928E-02 0.  1.
    10030    2    1    2    0    0  0.00000000000E+00  0.00000000000E+00 -0.63661959190E+03  0.22237519007E+04  0.21306778290E+04 0.  0.
        5    1    3    3  502    0 -0.56270412623E+03 -0.42820123388E+03  0.51332449177E+03  0.87379422876E+03  0.46999998093E+01 0.  1.
       -5    1    3    3    0  502  0.56270412623E+03  0.42820123388E+03 -0.11499440837E+04  0.13499576719E+04  0.46999998093E+01 0. -1.
</event>
<event>
 5   0  0.8755004E-05  0.2039232E+04  0.7818609E-02  0.8588495E-01
       -1   -1    0    0    0  501  0.00000000000E+00  0.00000000000E+00  0.13230925054E+04  0.13230925054E+04  0.50400001928E-02 0. -1.
        1   -1    0    0  501    0  0.00000000000E+00  0.00000000000E+00 -0.78574745733E+03  0.78574745735E+03  0.50400001928E-02 0.  1.
    10030    2    1    2    0    0  0.00000000000E+00  0.00000000000E+00  0.53734504803E+03  0.21088399627E+04  0.20392317886E+04 0.  0.
        3    1    3    3  502    0  0.71446562487E+03  0.41561749503E+03  0.88605821362E+03  0.12117335513E+04  0.10100000352E+00 0. -1.
       -3    1    3    3    0  502 -0.71446562487E+03 -0.41561749503E+03 -0.34871316559E+03  0.89710641139E+03  0.10100000352E+00 0.  1.
</event>
<event>
 5   0  0.6441125E-05  0.2161966E+04  0.7818609E-02  0.8534427E-01
       -3   -1    0    0    0  501  0.00000000000E+00  0.00000000000E+00  0.13459045537E+04  0.13459045575E+04  0.10100000352E+00 0.  1.
        3   -1    0    0  501    0  0.00000000000E+00  0.00000000000E+00 -0.86820763505E+03  0.86820764093E+03  0.10100000352E+00 0. -1.
    10030    2    1    2    0    0  0.00000000000E+00  0.00000000000E+00  0.47769691864E+03  0.22141121984E+04  0.21619663460E+04 0.  0.
        3    1    3    3  502    0  0.33928182425E+03  0.40574269741E+03  0.12043414631E+04  0.13153621793E+04  0.10100000352E+00 0.  1.
       -3    1    3    3    0  502 -0.33928182425E+03 -0.40574269741E+03 -0.72664454443E+03  0.89875001915E+03  0.10100000352E+00 0. -1.
</event>
<event>
 5   0  0.1886323E-04  0.2155166E+04  0.7818609E-02  0.8537324E-01
        2   -1    0    0  501    0  0.00000000000E+00  0.00000000000E+00  0.14352910148E+04  0.14352910148E+04  0.25500000920E-02 0.  1.
       -2   -1    0    0    0  501  0.00000000000E+00  0.00000000000E+00 -0.80902421717E+03  0.80902421718E+03  0.25500000920E-02 0. -1.
    10030    2    1    2    0    0  0.00000000000E+00  0.00000000000E+00  0.62626679765E+03  0.22443152320E+04  0.21551660629E+04 0.  0.
        2    1    3    3  502    0 -0.15578091066E+02 -0.88442374038E+03  0.95400654854E+03  0.13009905934E+04  0.25500000920E-02 0.  1.
       -2    1    3    3    0  502  0.15578091066E+02  0.88442374038E+03 -0.32773975090E+03  0.94332463860E+03  0.25500000920E-02 0. -1.
</event>
<event>
 5   0  0.1921687E-04  0.2111740E+04  0.7818609E-02  0.8556089E-01
       -2   -1    0    0    0  501  0.00000000000E+00  0.00000000000E+00  0.55337753719E+03  0.55337753720E+03  0.25500000920E-02 0. -1.
        2   -1    0    0  501    0  0.00000000000E+00  0.00000000000E+00 -0.20146487250E+04  0.20146487250E+04  0.25500000920E-02 0.  1.
    10030    2    1    2    0    0  0.00000000000E+00  0.00000000000E+00 -0.14612711878E+04  0.25680262622E+04  0.21117398985E+04 0.  0.
        5    1    3    3  502    0 -0.67179155808E+03 -0.93281048845E+02 -0.17147025487E+04  0.18439718469E+04  0.46999998093E+01 0.  1.
       -5    1    3    3    0  502  0.67179155808E+03  0.93281048845E+02  0.25343136094E+03  0.72405441528E+03  0.46999998093E+01 0. -1.
</event>
<event>
 5   0  0.8525278E-05  0.2148817E+04  0.7818609E-02  0.8540039E-01
       -1   -1    0    0    0  501  0.00000000000E+00  0.00000000000E+00  0.10132284661E+04  0.10132284661E+04  0.50400001928E-02 0. -1.
        1   -1    0    0  501    0  0.00000000000E+00  0.00000000000E+00 -0.11392822000E+04  0.11392822000E+04  0.50400001928E-02 0.  1.
    10030    2    1    2    0    0  0.00000000000E+00  0.00000000000E+00 -0.12605373394E+03  0.21525106661E+04  0.21488165636E+04 0.  0.
        4    1    3    3  502    0 -0.34467066723E+03 -0.97000711874E+03 -0.37119166154E+03  0.10943018513E+04  0.12699999809E+01 0.  1.
       -4    1    3    3    0  502  0.34467066723E+03  0.97000711874E+03  0.24513792760E+03  0.10582088148E+04  0.12699999809E+01 0. -1.
</event>
<event>
 5   0  0.1777590E-04  0.2080626E+04  0.7818609E-02  0.8569826E-01
       -2   -1    0    0    0  501  0.00000000000E+00  0.00000000000E+00  0.13491167326E+04  0.13491167326E+04  0.25500000920E-02 0.  1.
        2   -1    0    0  501    0  0.00000000000E+00  0.00000000000E+00 -0.80219262079E+03  0.80219262079E+03  0.25500000920E-02 0. -1.
    10030    2    1    2    0    0  0.00000000000E+00  0.00000000000E+00  0.54692411184E+03  0.21513093534E+04  0.20806263360E+04 0.  0.
        4    1    3    3  502    0  0.86650012665E+03  0.49527086038E+03  0.57691861974E+03  0.11528019784E+04  0.12699999809E+01 0.  1.
       -4    1    3    3    0  502 -0.86650012665E+03 -0.49527086038E+03 -0.29994507902E+02  0.99850737505E+03  0.12699999809E+01 0. -1.
</event>
<event>
 5   0  0.8486612E-05  0.2009670E+04  0.7818609E-02  0.8602113E-01
       -1   -1    0    0    0  501  0.00000000000E+00  0.00000000000E+00  0.72444804944E+03  0.72444804945E+03  0.50400001928E-02 0.  1.
        1   -1    0    0  501    0  0.00000000000E+00  0.00000000000E+00 -0.13937421268E+04  0.13937421268E+04  0.50400001928E-02 0. -1.
    10030    2    1    2    0    0  0.00000000000E+00  0.00000000000E+00 -0.66929407737E+03  0.21181901763E+04  0.20096703861E+04 0.  0.
        5    1    3    3  502    0  0.82318482442E+03  0.37564511908E+02  0.27140440477E+03  0.86759828760E+03  0.46999998093E+01 0.  1.
       -5    1    3    3    0  502 -0.82318482442E+03 -0.37564511908E+02 -0.94069848214E+03  0.12505918887E+04  0.46999998093E+01 0. -1.
</event>
<event>
 5   0  0.1886323E-04  0.2011456E+04  0.7818609E-02  0.8601283E-01
        2   -1    0    0  501    0  0.00000000000E+00  0.00000000000E+00  0.18816164338E+04  0.18816164338E+04  0.25500000920E-02 0. -1.
       -2   -1    0    0    0  501  0.00000000000E+00  0.00000000000E+00 -0.53756374662E+03  0.53756374662E+03  0.25500000920E-02 0.  1.
    10030    2    1    2    0    0  0.00000000000E+00  0.00000000000E+00  0.13440526872E+04  0.24191801804E+04  0.20114559701E+04 0.  0.
        2    1    3    3  502    0 -0.37893913302E+03 -0.82226855559E+03  0.11987055045E+04  0.15022034918E+04  0.25500000920E-02 0. -1.
       -2    1    3    3    0  502  0.37893913302E+03  0.82226855559E+03  0.14534718265E+03  0.91697668867E+03  0.25500000920E-02 0.  1.
</event>
<event>
 5   0  0.1815400E-04  0.2051420E+04  0.7818609E-02  0.8582950E-01
        2   -1    0    0  501    0  0.00000000000E+00  0.00000000000E+00  0.12740935330E+04  0.12740935330E+04  0.25500000920E-02 0. -1.
       -2   -1    0    0    0  501  0.00000000000E+00  0.00000000000E+00 -0.82574874340E+03  0.82574874340E+03  0.25500000920E-02 0.  1.
    10030    2    1    2    0    0  0.00000000000E+00  0.00000000000E+00  0.44834478959E+03  0.20998422764E+04  0.20514201265E+04 0.  0.
        3    1    3    3  502    0 -0.46585209261E+03  0.37603648281E+03  0.10766936920E+04  0.12319459912E+04  0.10100000352E+00 0. -1.
       -3    1    3    3    0  502  0.46585209261E+03 -0.37603648281E+03 -0.62834890239E+03  0.86789628523E+03  0.10100000352E+00 0.  1.
</event>
<event>
 5   0  0.8271069E-05  0.2132683E+04  0.7818609E-02  0.8546981E-01
       -1   -1    0    0    0  501  0.00000000000E+00  0.00000000000E+00  0.51546872149E+03  0.51546872151E+03  0.50400001928E-02 0. -1.
        1   -1    0    0  501    0  0.00000000000E+00  0.00000000000E+00 -0.22059234314E+04  0.22059234314E+04  0.50400001928E-02 0.  1.
    10030    2    1    2    0    0  0.00000000000E+00  0.00000000000E+00 -0.16904547099E+04  0.27213921529E+04  0.21326833154E+04 0.  0.
        2    1    3    3  502    0  0.19119747112E+03  0.46373668048E+03 -0.20459791366E+04  0.21065703903E+04  0.25500000920E-02 0.  1.
       -2    1    3    3    0  502 -0.19119747112E+03 -0.46373668048E+03  0.35552442672E+03  0.61482176262E+03  0.25500000920E-02 0. -1.
</event>
<event>
 5   0  0.8486612E-05  0.2005121E+04  0.7818609E-02  0.8604230E-01
       -1   -1    0    0    0  501  0.00000000000E+00  0.00000000000E+00  0.10699188606E+04  0.10699188606E+04  0.50400001928E-02 0. -1.
        1   -1    0    0  501    0  0.00000000000E+00  0.00000000000E+00 -0.93944286084E+03  0.93944286085E+03  0.50400001928E-02 0.  1.
    10030    2    1    2    0    0  0.00000000000E+00  0.00000000000E+00  0.13047599975E+03  0.20093617215E+04  0.20051210789E+04 0.  0.
        5    1    3    3  502    0  0.98765728006E+03  0.14593585436E+03 -0.26286251418E+02  0.99873782018E+03  0.46999998093E+01 0. -1.
       -5    1    3    3    0  502 -0.98765728006E+03 -0.14593585436E+03  0.15676225117E+03  0.10106239013E+04  0.46999998093E+01 0.  1.
</event>
<event>
 5   0  0.1815400E-04  0.2137312E+04  0.7818609E-02  0.8544983E-01
        2   -1    0    0  501    0  0.00000000000E+00  0.00000000000E+00  0.22930549767E+04  0.22930549767E+04  0.25500000920E-02 0.  1.
       -2   -1    0    0    0  501  0.00000000000E+00  0.00000000000E+00 -0.49803675966E+03  0.49803675967E+03  0.25500000920E-02 0. -1.
    10030    2    1    2    0    0  0.00000000000E+00  0.00000000000E+00  0.17950182171E+04  0.27910917364E+04  0.21373120225E+04 0.  0.
        3    1    3    3  502    0  0.82680209224E+03  0.67031179474E+02  0.17773436319E+04  0.19613886088E+04  0.10100000352E+00 0.  1.
       -3    1    3    3    0  502 -0.82680209224E+03 -0.67031179474E+02  0.17674585175E+02  0.82970312758E+03  0.10100000352E+00 0. -1.
</event>
<event>
 5   0  0.1815400E-04  0.2083640E+04  0.7818609E-02  0.8568484E-01
        2   -1    0    0  501    0  0.00000000000E+00  0.00000000000E+00  0.10967865452E+04  0.10967865452E+04  0.25500000920E-02 0. -1.
       -2   -1    0    0    0  501  0.00000000000E+00  0.00000000000E+00 -0.98960843302E+03  0.98960843302E+03  0.25500000920E-02 0.  1.
    10030    2    1    2    0    0  0.00000000000E+00  0.00000000000E+00  0.10717811218E+03  0.20863949782E+04  0.20836402898E+04 0.  0.
        3    1    3    3  502    0 -0.38390171089E+02 -0.79549962769E+03  0.72611361106E+03  0.10777450762E+04  0.10100000352E+00 0. -1.
       -3    1    3    3    0  502  0.38390171089E+02  0.79549962769E+03 -0.61893549888E+03  0.10086499020E+04  0.10100000352E+00 0.  1.
</event>
<event>
 5   0  0.1886323E-04  0.2119120E+04  0.7818609E-02  0.8552867E-01
       -2   -1    0    0    0  501  0.00000000000E+00  0.00000000000E+00  0.66386728907E+03  0.66386728907E+03  0.25500000920E-02 0.  1.
        2   -1    0    0  501    0  0.00000000000E+00  0.00000000000E+00 -0.16911027727E+04  0.16911027727E+04  0.25500000920E-02 0. -1.
    10030    2    1    2    0    0  0.00000000000E+00  0.00000000000E+00 -0.10272354836E+04  0.23549700617E+04  0.21191203960E+04 0.  0.
        2    1    3    3  502    0  0.86534874096E+03 -0.38240277349E+03  0.16561881600E+02  0.94622123237E+03  0.25500000920E-02 0.  1.
       -2    1    3    3    0  502 -0.86534874096E+03  0.38240277349E+03 -0.10437973652E+04  0.14087488294E+04  0.25500000920E-02 0. -1.
</event>
<event>
 5   0  0.8237966E-05  0.2223842E+04  0.7818609E-02  0.8508570E-01
        1   -1    0    0  501    0  0.00000000000E+00  0.00000000000E+00  0.12924666655E+04  0.12924666655E+04  0.50400001928E-02 0.  1.
       -1   -1    0    0    0  501  0.00000000000E+00  0.00000000000E+00 -0.95659602040E+03  0.95659602042E+03  0.50400001928E-02 0. -1.
    10030    2    1    2    0    0  0.00000000000E+00  0.00000000000E+00  0.33587064506E+03  0.22490626859E+04  0.22238421425E+04 0.  0.
        1    1    3    3  502    0  0.10742518962E+04  0.26132717738E+03  0.48018090855E+02  0.11066231369E+04  0.50400001928E-02 0. -1.
       -1    1    3    3    0  502 -0.10742518962E+04 -0.26132717738E+03  0.28785255421E+03  0.11424395490E+04  0.50400001928E-02 0.  1.
</event>
<event>
 5   0  0.1777590E-04  0.1862693E+04  0.7818609E-02  0.8673653E-01
        2   -1    0    0  501    0  0.00000000000E+00  0.00000000000E+00  0.15669484138E+04  0.15669484138E+04  0.25500000920E-02 0.  1.
       -2   -1    0    0    0  501  0.00000000000E+00  0.00000000000E+00 -0.55356398212E+03  0.55356398213E+03  0.25500000920E-02 0. -1.
    10030    2    1    2    0    0  0.00000000000E+00  0.00000000000E+00  0.10133844317E+04  0.21205123959E+04  0.18626928934E+04 0.  0.
        4    1    3    3  502    0 -0.60198893211E+03  0.69765677417E+03  0.66064723365E+03  0.11338306880E+04  0.12699999809E+01 0. -1.
       -4    1    3    3    0  502  0.60198893211E+03 -0.69765677417E+03  0.35273719804E+03  0.98668170790E+03  0.12699999809E+01 0.  1.
</event>
<event>
 5   0  0.1815400E-04  0.2107920E+04  0.7818609E-02  0.8557762E-01
        2   -1    0    0  501    0  0.00000000000E+00  0.00000000000E+00  0.12008546258E+04  0.12008546258E+04  0.25500000920E-02 0.  1.
       -2   -1    0    0    0  501  0.00000000000E+00  0.00000000000E+00 -0.92503438886E+03  0.92503438886E+03  0.25500000920E-02 0. -1.
    10030    2    1    2    0    0  0.00000000000E+00  0.00000000000E+00  0.27582023697E+03  0.21258890147E+04  0.21079201360E+04 0.  0.
        3    1    3    3  502    0 -0.15365985036E+03  0.48910327337E+03  0.10666283374E+04  0.11834396402E+04  0.10100000352E+00 0.  1.
       -3    1    3    3    0  502  0.15365985036E+03 -0.48910327337E+03 -0.79080810042E+03  0.94244937451E+03  0.10100000352E+00 0. -1.
</event>
<event>
 5   0  0.8271069E-05  0.2036939E+04  0.7818609E-02  0.8589542E-01
        1   -1    0    0  501    0  0.00000000000E+00  0.00000000000E+00  0.11942472218E+04  0.11942472218E+04  0.50400001928E-02 0. -1.
       -1   -1    0    0    0  501  0.00000000000E+00  0.00000000000E+00 -0.86856438224E+03  0.86856438225E+03  0.50400001928E-02 0.  1.
    10030    2    1    2    0    0  0.00000000000E+00  0.00000000000E+00  0.32568283952E+03  0.20628116040E+04  0.20369394693E+04 0.  0.
        2    1    3    3  502    0 -0.78448164591E+03  0.10083875251E+03 -0.48694741054E+03  0.92881520628E+03  0.25500000920E-02 0.  1.
       -2    1    3    3    0  502  0.78448164591E+03 -0.10083875251E+03  0.81263025006E+03  0.11339963977E+04  0.25500000920E-02 0. -1.
</event>
<event>
 5   0  0.8237966E-05  0.1952535E+04  0.7818609E-02  0.8629139E-01
       -1   -1    0    0    0  501  0.00000000000E+00  0.00000000000E+00  0.37895010849E+03  0.37895010853E+03  0.50400001928E-02 0. -1.
        1   -1    0    0  501    0  0.00000000000E+00  0.00000000000E+00 -0.25151026408E+04  0.25151026408E+04  0.50400001928E-02 0.  1.
    10030    2    1    2    0    0  0.00000000000E+00  0.00000000000E+00 -0.21361525323E+04  0.28940527493E+04  0.19525351916E+04 0.  0.
        1    1    3    3  502    0 -0.51923993584E+03  0.41274251046E+03 -0.21298258304E+04  0.22307228781E+04  0.50400001928E-02 0.  1.
       -1    1    3    3    0  502  0.51923993584E+03 -0.41274251046E+03 -0.63267018976E+01  0.66332987124E+03  0.50400001928E-02 0. -1.
</event>
<event>
 5   0  0.1810875E-04  0.2108604E+04  0.7818609E-02  0.8557463E-01
        2   -1    0    0  501    0  0.00000000000E+00  0.00000000000E+00  0.16424031136E+04  0.16424031136E+04  0.25500000920E-02 0. -1.
       -2   -1    0    0    0  501  0.00000000000E+00  0.00000000000E+00 -0.67678419901E+03  0.67678419901E+03  0.25500000920E-02 0.  1.
    10030    2    1    2    0    0  0.00000000000E+00  0.00000000000E+00  0.96561891460E+03  0.23191873126E+04  0.21086037804E+04 0.  0.
        1    1    3    3  502    0  0.70219003663E+03  0.50712054877E+03 -0.17831171138E+03  0.88432865212E+03  0.50400001928E-02 0.  1.
       -1    1    3    3    0  502 -0.70219003663E+03 -0.50712054877E+03  0.11439306260E+04  0.14348586605E+04  0.50400001928E-02 0. -1.
</event>
<event>
 5   0  0.8486612E-05  0.2113051E+04  0.7818609E-02  0.8555516E-01
       -1   -1    0    0    0  501  0.00000000000E+00  0.00000000000E+00  0.12591737894E+04  0.12591737894E+04  0.50400001928E-02 0. -1.
        1   -1    0    0  501    0  0.00000000000E+00  0.00000000000E+00 -0.88649096776E+03  0.88649096778E+03  0.50400001928E-02 0.  1.
    10030    2    1    2    0    0  0.00000000000E+00  0.00000000000E+00  0.37268282168E+03  0.21456647572E+04  0.21130510559E+04 0.  0.
        5    1    3    3  502    0  0.91995054407E+02 -0.96848220039E+03  0.60477338360E+03  0.11455102784E+04  0.46999998093E+01 0. -1.
       -5    1    3    3    0  502 -0.91995054407E+02  0.96848220039E+03 -0.23209056193E+03  0.10001544788E+04  0.46999998093E+01 0.  1.
</event>
<event>
 5   0  0.8237966E-05  0.2092323E+04  0.7818609E-02  0.8564633E-01
       -1   -1    0    0    0  501  0.00000000000E+00  0.00000000000E+00  0.11805923390E+04  0.11805923390E+04  0.50400001928E-02 0. -1.
        1   -1    0    0  501    0  0.00000000000E+00  0.00000000000E+00 -0.92703772401E+03  0.92703772403E+03  0.50400001928E-02 0.  1.
    10030    2    1    2    0    0  0.00000000000E+00  0.00000000000E+00  0.25355461498E+03  0.21076300630E+04  0.20923227619E+04 0.  0.
        1    1    3    3  502    0 -0.53720428263E+02  0.65185243212E+03  0.94924084305E+03  0.11527600166E+04  0.50400001928E-02 0. -1.
       -1    1    3    3    0  502  0.53720428263E+02 -0.65185243212E+03 -0.69568622807E+03  0.95487004646E+03  0.50400001928E-02 0.  1.
</event>
<event>
 5   0  0.1815400E-04  0.2008349E+04  0.7818609E-02  0.8602727E-01
        2   -1    0    0  501    0  0.00000000000E+00  0.00000000000E+00  0.14130803126E+04  0.14130803126E+04  0.25500000920E-02 0. -1.
       -2   -1    0    0    0  501  0.00000000000E+00  0.00000000000E+00 -0.71359431219E+03  0.71359431219E+03  0.25500000920E-02 0.  1.
    10030    2    1    2    0    0  0.00000000000E+00  0.00000000000E+00  0.69948600041E+03  0.21266746248E+04  0.20083486487E+04 0.  0.
        3    1    3    3  502    0 -0.35947641211E+03  0.30937754522E+03 -0.58752021059E+03  0.75506143088E+03  0.10100000352E+00 0.  1.
       -3    1    3    3    0  502  0.35947641211E+03 -0.30937754522E+03  0.12870062110E+04  0.13716131939E+04  0.10100000352E+00 0. -1.
</event>
<event>
 5   0  0.8237966E-05  0.2064652E+04  0.7818609E-02  0.8576976E-01
       -1   -1    0    0    0  501  0.00000000000E+00  0.00000000000E+00  0.44341559392E+03  0.44341559395E+03  0.50400001928E-02 0.  1.
        1   -1    0    0  501    0  0.00000000000E+00  0.00000000000E+00 -0.24033809988E+04  0.24033809988E+04  0.50400001928E-02 0. -1.
    10030    2    1    2    0    0  0.00000000000E+00  0.00000000000E+00 -0.19599654049E+04  0.28467965927E+04  0.20646516540E+04 0.  0.
        1    1    3    3  502    0  0.62568470255E+03 -0.77308388375E+03 -0.59847712113E+03  0.11607389469E+04  0.50400001928E-02 0.  1.
       -1    1    3    3    0  502 -0.62568470255E+03  0.77308388375E+03 -0.13614882837E+04  0.16860576458E+04  0.50400001928E-02 0. -1.
</event>
<event>
 5   0  0.8237966E-05  0.2092404E+04  0.7818609E-02  0.8564597E-01
        1   -1    0    0  501    0  0.00000000000E+00  0.00000000000E+00  0.83905536743E+03  0.83905536744E+03  0.50400001928E-02 0.  1.
       -1   -1    0    0    0  501  0.00000000000E+00  0.00000000000E+00 -0.13044896978E+04  0.13044896978E+04  0.50400001928E-02 0. -1.
    10030    2    1    2    0    0  0.00000000000E+00  0.00000000000E+00 -0.46543433040E+03  0.21435450653E+04  0.20924044377E+04 0.  0.
        1    1    3    3  502    0  0.36068833425E+03 -0.62869810299E+03  0.54016351544E+03  0.90395464633E+03  0.50400001928E-02 0.  1.
       -1    1    3    3    0  502 -0.36068833425E+03  0.62869810299E+03 -0.10055978458E+04  0.12395904190E+04  0.50400001928E-02 0. -1.
</event>
<event>
 5   0  0.8271069E-05  0.2110916E+04  0.7818609E-02  0.8556450E-01
        1   -1    0    0  501    0  0.00000000000E+00  0.00000000000E+00  0.12235788633E+04  0.12235788633E+04  0.50400001928E-02 0.  1.
       -1   -1    0    0    0  501  0.00000000000E+00  0.00000000000E+00 -0.91043720204E+03  0.91043720205E+03  0.50400001928E-02 0. -1.
    10030    2    1    2    0    0  0.00000000000E+00  0.00000000000E+00  0.31314166129E+03  0.21340160654E+04  0.21109161204E+04 0.  0.
        2    1    3    3  502    0  0.44478868612E+03 -0.95084394733E+03  0.26754701035E+03  0.10832924768E+04  0.25500000920E-02 0.  1.
       -2    1    3    3    0  502 -0.44478868612E+03  0.95084394733E+03  0.45594650940E+02  0.10507235886E+04  0.25500000920E-02 0. -1.
</event>
<event>
 5   0  0.1810875E-04  0.1962720E+04  0.7818609E-02  0.8624251E-01
        2   -1    0    0  501    0  0.00000000000E+00  0.00000000000E+00  0.14425803833E+04  0.14425803833E+04  0.25500000920E-02 0.  1.
       -2   -1    0    0    0  501  0.00000000000E+00  0.00000000000E+00 -0.66760044434E+03  0.66760044435E+03  0.25500000920E-02 0. -1.
    10030    2    1    2    0    0  0.00000000000E+00  0.00000000000E+00  0.77497993900E+03  0.21101808277E+04  0.19627198526E+04 0.  0.
        1    1    3    3  502    0  0.57098832777E+03  0.75461709090E+03  0.66700887852E+03  0.11577458566E+04  0.50400001928E-02 0.  1.
       -1    1    3    3    0  502 -0.57098832777E+03 -0.75461709090E+03  0.10797106048E+03  0.95243497114E+03  0.50400001928E-02 0. -1.
</event>
<event>
 5   0  0.6441125E-05  0.2088714E+04  0.7818609E-02  0.8566231E-01
        3   -1    0    0  501    0  0.00000000000E+00  0.00000000000E+00  0.13149795605E+04  0.13149795644E+04  0.10100000352E+00 0.  1.
       -3   -1    0    0    0  501  0.00000000000E+00  0.00000000000E+00 -0.82942819061E+03  0.82942819676E+03  0.10100000352E+00 0. -1.
    10030    2    1    2    0    0  0.00000000000E+00  0.00000000000E+00  0.48555136989E+03  0.21444077611E+04  0.20887136025E+04 0.  0.
        1    1    3    3  502    0  0.37537774895E+03  0.83184737716E+02  0.12396730838E+04  0.12979281604E+04  0.50400001928E-02 0.  1.
       -1    1    3    3    0  502 -0.37537774895E+03 -0.83184737716E+02 -0.75412171389E+03  0.84647960069E+03  0.50400001928E-02 0. -1.
</event>
<event>
 5   0  0.1815400E-04  0.2067164E+04  0.7818609E-02  0.8575847E-01
       -2   -1    0    0    0  501  0.00000000000E+00  0.00000000000E+00  0.47090587315E+03  0.47090587315E+03  0.25500000920E-02 0.  1.
        2   -1    0    0  501    0  0.00000000000E+00  0.00000000000E+00 -0.22685887312E+04  0.22685887312E+04  0.25500000920E-02 0. -1.
    10030    2    1    2    0    0  0.00000000000E+00  0.00000000000E+00 -0.17976828581E+04  0.27394946044E+04  0.20671640064E+04 0.  0.
        3    1    3    3  502    0 -0.48713336904E+03 -0.82550628668E+03 -0.38637800466E+03  0.10334638461E+04  0.10100000352E+00 0.  1.
       -3    1    3    3    0  502  0.48713336904E+03  0.82550628668E+03 -0.14113048534E+04  0.17060307582E+04  0.10100000352E+00 0. -1.
</event>
<event>
 5   0  0.1886323E-04  0.2148031E+04  0.7818609E-02  0.8540375E-01
       -2   -1    0    0    0  501  0.00000000000E+00  0.00000000000E+00  0.10618450930E+04  0.10618450930E+04  0.25500000920E-02 0. -1.
        2   -1    0    0  501    0  0.00000000000E+00  0.00000000000E+00 -0.10863258261E+04  0.10863258261E+04  0.25500000920E-02 0.  1.
    10030    2    1    2    0    0  0.00000000000E+00  0.00000000000E+00 -0.24480733078E+02  0.21481709191E+04  0.21480314223E+04 0.  0.
        2    1    3    3  502    0 -0.22026652928E+03  0.84340317737E+03 -0.63970719139E+03  0.10812361233E+04  0.25500000920E-02 0.  1.
       -2    1    3    3    0  502  0.22026652928E+03 -0.84340317737E+03  0.61522645831E+03  0.10669347958E+04  0.25500000920E-02 0. -1.
</event>
<event>
 5   0  0.1777590E-04  0.1736440E+04  0.7818609E-02  0.8740850E-01
        2   -1    0    0  501    0  0.00000000000E+00  0.00000000000E+00  0.28236081006E+04  0.28236081006E+04  0.25500000920E-02 0.  1.
       -2   -1    0    0    0  501  0.00000000000E+00  0.00000000000E+00 -0.26696557791E+03  0.26696557792E+03  0.25500000920E-02 0. -1.
    10030    2    1    2    0    0  0.00000000000E+00  0.00000000000E+00  0.25566425227E+04  0.30905736786E+04  0.17364402304E+04 0.  0.
        4    1    3    3  502    0 -0.11326824770E+03  0.48257123919E+03  0.96362779555E+01  0.49578137075E+03  0.12699999809E+01 0. -1.
       -4    1    3    3    0  502  0.11326824770E+03 -0.48257123919E+03  0.25470062448E+04  0.25947923078E+04  0.12699999809E+01 0.  1.
</event>
<event>
 5   0  0.1815400E-04  0.2096272E+04  0.7818609E-02  0.8562887E-01
       -2   -1    0    0    0  501  0.00000000000E+00  0.00000000000E+00  0.49943155687E+03  0.49943155688E+03  0.25500000920E-02 0.  1.
        2   -1    0    0  501    0  0.00000000000E+00  0.00000000000E+00 -0.21996789232E+04  0.21996789232E+04  0.25500000920E-02 0. -1.
    10030    2    1    2    0    0  0.00000000000E+00  0.00000000000E+00 -0.17002473663E+04  0.26991104801E+04  0.20962719950E+04 0.  0.
        3    1    3    3  502    0  0.17588739984E+03 -0.18135306905E+03  0.45964207179E+03  0.52449609859E+03  0.10100000352E+00 0.  1.
       -3    1    3    3    0  502 -0.17588739984E+03  0.18135306905E+03 -0.21598894381E+04  0.21746143815E+04  0.10100000352E+00 0. -1.
</event>
<event>
 5   0  0.8237966E-05  0.2058802E+04  0.7818609E-02  0.8579612E-01
        1   -1    0    0  501    0  0.00000000000E+00  0.00000000000E+00  0.76456071410E+03  0.76456071412E+03  0.50400001928E-02 0.  1.
       -1   -1    0    0    0  501  0.00000000000E+00  0.00000000000E+00 -0.13859809550E+04  0.13859809550E+04  0.50400001928E-02 0. -1.
    10030    2    1    2    0    0  0.00000000000E+00  0.00000000000E+00 -0.62142024089E+03  0.21505416691E+04  0.20588021650E+04 0.  0.
        1    1    3    3  502    0 -0.66964022255E+03  0.56040990506E+03  0.25873231703E+03  0.91072482192E+03  0.50400001928E-02 0.  1.
       -1    1    3    3    0  502  0.66964022255E+03 -0.56040990506E+03 -0.88015255792E+03  0.12398168472E+04  0.50400001928E-02 0. -1.
</event>
<event>
 5   0  0.6441125E-05  0.2042536E+04  0.7818609E-02  0.8586988E-01
        3   -1    0    0  501    0  0.00000000000E+00  0.00000000000E+00  0.82439182544E+03  0.82439183163E+03  0.10100000352E+00 0.  1.
       -3   -1    0    0    0  501  0.00000000000E+00  0.00000000000E+00 -0.12651613750E+04  0.12651613790E+04  0.10100000352E+00 0. -1.
    10030    2    1    2    0    0  0.00000000000E+00  0.00000000000E+00 -0.44076954951E+03  0.20895532106E+04  0.20425363704E+04 0.  0.
        1    1    3    3  502    0 -0.86925724726E+03 -0.48939288486E+03  0.34557435729E+01  0.99755977258E+03  0.50400001928E-02 0.  1.
       -1    1    3    3    0  502  0.86925724726E+03  0.48939288486E+03 -0.44422529308E+03  0.10919934380E+04  0.50400001928E-02 0. -1.
</event>
<event>
 5   0  0.1777590E-04  0.2076200E+04  0.7818609E-02  0.8571800E-01
       -2   -1    0    0    0  501  0.00000000000E+00  0.00000000000E+00  0.12742794757E+04  0.12742794757E+04  0.25500000920E-02 0.  1.
        2   -1    0    0  501    0  0.00000000000E+00  0.00000000000E+00 -0.84569504592E+03  0.84569504592E+03  0.25500000920E-02 0. -1.
    10030    2    1    2    0    0  0.00000000000E+00  0.00000000000E+00  0.42858442979E+03  0.21199745216E+04  0.20762002213E+04 0.  0.
        4    1    3    3  502    0  0.63152682333E+03  0.57581898304E+03 -0.38741699785E+03  0.93834278008E+03  0.12699999809E+01 0. -1.
       -4    1    3    3    0  502 -0.63152682333E+03 -0.57581898304E+03  0.81600142764E+03  0.11816317415E+04  0.12699999809E+01 0.  1.
</event>
<event>
 5   0  0.1886323E-04  0.2074788E+04  0.7818609E-02  0.8572431E-01
       -2   -1    0    0    0  501  0.00000000000E+00  0.00000000000E+00  0.56839351665E+03  0.56839351665E+03  0.25500000920E-02 0.  1.
        2   -1    0    0  501    0  0.00000000000E+00  0.00000000000E+00 -0.18933831288E+04  0.18933831288E+04  0.25500000920E-02 0. -1.
    10030    2    1    2    0    0  0.00000000000E+00  0.00000000000E+00 -0.13249896121E+04  0.24617766454E+04  0.20747883699E+04 0.  0.
        2    1    3    3  502    0  0.55021030211E+03 -0.72591160571E+03 -0.73393411127E+02  0.91381925382E+03  0.25500000920E-02 0.  1.
       -2    1    3    3    0  502 -0.55021030211E+03  0.72591160571E+03 -0.12515962010E+04  0.15479573916E+04  0.25500000920E-02 0. -1.
</event>
<event>
 5   0  0.8271069E-05  0.2156026E+04  0.7818609E-02  0.8536957E-01
       -1   -1    0    0    0  501  0.00000000000E+00  0.00000000000E+00  0.74105657098E+03  0.74105657099E+03  0.50400001928E-02 0. -1.
        1   -1    0    0  501    0  0.00000000000E+00  0.00000000000E+00 -0.15681829768E+04  0.15681829769E+04  0.50400001928E-02 0.  1.
    10030    2    1    2    0    0  0.00000000000E+00  0.00000000000E+00 -0.82712640587E+03  0.23092395478E+04  0.21560262517E+04 0.  0.
        2    1    3    3  502    0 -0.18964924203E+03  0.10484458747E+04 -0.23787392442E+03  0.10916911611E+04  0.25500000920E-02 0. -1.
       -2    1    3    3    0  502  0.18964924203E+03 -0.10484458747E+04 -0.58925248145E+03  0.12175483868E+04  0.25500000920E-02 0.  1.
</event>
<event>
 5   0  0.8271069E-05  0.2130184E+04  0.7818609E-02  0.8548062E-01
       -1   -1    0    0    0  501  0.00000000000E+00  0.00000000000E+00  0.48623779456E+03  0.48623779458E+03  0.50400001928E-02 0. -1.
        1   -1    0    0  501    0  0.00000000000E+00  0.00000000000E+00 -0.23330589080E+04  0.23330589080E+04  0.50400001928E-02 0.  1.
    10030    2    1    2    0    0  0.00000000000E+00  0.00000000000E+00 -0.18468211135E+04  0.28192967026E+04  0.21301844221E+04 0.  0.
        2    1    3    3  502    0  0.47529521628E+03 -0.95046742858E+03 -0.82863895537E+03  0.13475668420E+04  0.25500000920E-02 0. -1.
       -2    1    3    3    0  502 -0.47529521628E+03  0.95046742858E+03 -0.10181821581E+04  0.14717298606E+04  0.25500000920E-02 0.  1.
</event>
<event>
 5   0  0.1810875E-04  0.2102596E+04  0.7818609E-02  0.8560101E-01
       -2   -1    0    0    0  501  0.00000000000E+00  0.00000000000E+00  0.11124113655E+04  0.11124113655E+04  0.25500000920E-02 0. -1.
        2   -1    0    0  501    0  0.00000000000E+00  0.00000000000E+00 -0.99354214455E+03  0.99354214455E+03  0.25500000920E-02 0.  1.
    10030    2    1    2    0    0  0.00000000000E+00  0.00000000000E+00  0.11886922095E+03  0.21059535100E+04  0.21025960846E+04 0.  0.
        1    1    3    3  502    0 -0.82349103482E+03 -0.17863507899E+03 -0.57020230951E+03  0.10174372952E+04  0.50400001928E-02 0. -1.
       -1    1    3    3    0  502  0.82349103482E+03  0.17863507899E+03  0.68907153046E+03  0.10885162148E+04  0.50400001928E-02 0.  1.
</event>
<event>
 5   0  0.8237966E-05  0.2084289E+04  0.7818609E-02  0.8568196E-01
        1   -1    0    0  501    0  0.00000000000E+00  0.00000000000E+00  0.16857292129E+04  0.16857292129E+04  0.50400001928E-02 0. -1.
       -1   -1    0    0    0  501  0.00000000000E+00  0.00000000000E+00 -0.64427017755E+03  0.64427017757E+03  0.50400001928E-02 0.  1.
    10030    2    1    2    0    0  0.00000000000E+00  0.00000000000E+00  0.10414590354E+04  0.23299993905E+04  0.20842889045E+04 0.  0.
        1    1    3    3  502    0 -0.59568675093E+03 -0.42763690814E+03  0.13485314392E+04  0.15350091442E+04  0.50400001928E-02 0. -1.
       -1    1    3    3    0  502  0.59568675093E+03  0.42763690814E+03 -0.30707240381E+03  0.79499024626E+03  0.50400001928E-02 0.  1.
</event>
<event>
 5   0  0.8486612E-05  0.2095020E+04  0.7818609E-02  0.8563440E-01
       -1   -1    0    0    0  501  0.00000000000E+00  0.00000000000E+00  0.92470780602E+03  0.92470780604E+03  0.50400001928E-02 0.  1.
        1   -1    0    0  501    0  0.00000000000E+00  0.00000000000E+00 -0.11866201647E+04  0.11866201647E+04  0.50400001928E-02 0. -1.
    10030    2    1    2    0    0  0.00000000000E+00  0.00000000000E+00 -0.26191235864E+03  0.21113279707E+04  0.20950197413E+04 0.  0.
        5    1    3    3  502    0  0.99723552602E+03  0.16824140484E+03 -0.40597416689E+03  0.10897802434E+04  0.46999998093E+01 0. -1.
       -5    1    3    3    0  502 -0.99723552602E+03 -0.16824140484E+03  0.14406180825E+03  0.10215477273E+04  0.46999998093E+01 0.  1.
</event>
<event>
 5   0  0.8237966E-05  0.2093394E+04  0.7818609E-02  0.8564159E-01
       -1   -1    0    0    0  501  0.00000000000E+00  0.00000000000E+00  0.55398156682E+03  0.55398156684E+03  0.50400001928E-02 0. -1.
        1   -1    0    0  501    0  0.00000000000E+00  0.00000000000E+00 -0.19776376505E+04  0.19776376505E+04  0.50400001928E-02 0.  1.
    10030    2    1    2    0    0  0.00000000000E+00  0.00000000000E+00 -0.14236560837E+04  0.25316192174E+04  0.20933941858E+04 0.  0.
        1    1    3    3  502    0 -0.58241412933E+02 -0.10811743038E+03 -0.19688950312E+04  0.19727212385E+04  0.50400001928E-02 0.  1.
       -1    1    3    3    0  502  0.58241412933E+02  0.10811743038E+03  0.54523894748E+03  0.55889797889E+03  0.50400001928E-02 0. -1.
</event>
<event>
 5   0  0.8755004E-05  0.2126677E+04  0.7818609E-02  0.8549582E-01
        1   -1    0    0  501    0  0.00000000000E+00  0.00000000000E+00  0.94738474865E+03  0.94738474867E+03  0.50400001928E-02 0. -1.
       -1   -1    0    0    0  501  0.00000000000E+00  0.00000000000E+00 -0.11934839565E+04  0.11934839565E+04  0.50400001928E-02 0.  1.
    10030    2    1    2    0    0  0.00000000000E+00  0.00000000000E+00 -0.24609920788E+03  0.21408687052E+04  0.21266767486E+04 0.  0.
        3    1    3    3  502    0 -0.62249120772E+03 -0.85088973323E+03  0.16365912248E+02  0.10544081255E+04  0.10100000352E+00 0.  1.
       -3    1    3    3    0  502  0.62249120772E+03  0.85088973323E+03 -0.26246512013E+03  0.10864605797E+04  0.10100000352E+00 0. -1.
</event>
<event>
 5   0  0.1815400E-04  0.2096018E+04  0.7818609E-02  0.8563000E-01
        2   -1    0    0  501    0  0.00000000000E+00  0.00000000000E+00  0.29968326790E+04  0.29968326790E+04  0.25500000920E-02 0. -1.
       -2   -1    0    0    0  501  0.00000000000E+00  0.00000000000E+00 -0.36649448115E+03  0.36649448116E+03  0.25500000920E-02 0.  1.
    10030    2    1    2    0    0  0.00000000000E+00  0.00000000000E+00  0.26303381979E+04  0.33633271602E+04  0.20960177841E+04 0.  0.
        3    1    3    3  502    0 -0.81440616208E+03 -0.24515781478E+03  0.33258826778E+03  0.91322216194E+03  0.10100000352E+00 0.  1.
       -3    1    3    3    0  502  0.81440616208E+03  0.24515781478E+03  0.22977499301E+04  0.24501049983E+04  0.10100000352E+00 0. -1.
</event>
<event>
 5   0  0.1810875E-04  0.2091348E+04  0.7818609E-02  0.8565064E-01
       -2   -1    0    0    0  501  0.00000000000E+00  0.00000000000E+00  0.10409431612E+04  0.10409431612E+04  0.25500000920E-02 0.  1.
        2   -1    0    0  501    0  0.00000000000E+00  0.00000000000E+00 -0.10504259817E+04  0.10504259817E+04  0.25500000920E-02 0. -1.
    10030    2    1    2    0    0  0.00000000000E+00  0.00000000000E+00 -0.94828205193E+01  0.20913691429E+04  0.20913476440E+04 0.  0.
        1    1    3    3  502    0 -0.56696085162E+03 -0.65214375708E+03  0.58407501521E+03  0.10430147221E+04  0.50400001928E-02 0.  1.
       -1    1    3    3    0  502  0.56696085162E+03  0.65214375708E+03 -0.59355783573E+03  0.10483544208E+04  0.50400001928E-02 0. -1.
</event>
<event>
 5   0  0.6441125E-05  0.2060076E+04  0.7818609E-02  0.8579037E-01
       -3   -1    0    0    0  501  0.00000000000E+00  0.00000000000E+00  0.21790995464E+04  0.21790995487E+04  0.10100000352E+00 0. -1.
        3   -1    0    0  501    0  0.00000000000E+00  0.00000000000E+00 -0.48688837500E+03  0.48688838547E+03  0.10100000352E+00 0.  1.
    10030    2    1    2    0    0  0.00000000000E+00  0.00000000000E+00  0.16922111714E+04  0.26659879342E+04  0.20600759735E+04 0.  0.
        3    1    3    3  502    0 -0.74437272134E+03  0.36044789029E+03  0.16406631198E+04  0.18373320094E+04  0.10100000352E+00 0. -1.
       -3    1    3    3    0  502  0.74437272134E+03 -0.36044789029E+03  0.51548051597E+02  0.82865592481E+03  0.10100000352E+00 0.  1.
</event>
<event>
 5   0  0.1777590E-04  0.2074185E+04  0.7818609E-02  0.8572701E-01
        2   -1    0    0  501    0  0.00000000000E+00  0.00000000000E+00  0.40027160285E+03  0.40027160286E+03  0.25500000920E-02 0.  1.
       -2   -1    0    0    0  501  0.00000000000E+00  0.00000000000E+00 -0.26870777549E+04  0.26870777549E+04  0.25500000920E-02 0. -1.
    10030    2    1    2    0    0  0.00000000000E+00  0.00000000000E+00 -0.22868061520E+04  0.30873493577E+04  0.20741850640E+04 0.  0.
        4    1    3    3  502    0 -0.28071773963E+03  0.33905189843E+03 -0.25411337148E+04  0.25789766979E+04  0.12699999809E+01 0. -1.
       -4    1    3    3    0  502  0.28071773963E+03 -0.33905189843E+03  0.25432756275E+03  0.50837265981E+03  0.12699999809E+01 0.  1.
</event>
<event>
 5   0  0.8271069E-05  0.2110058E+04  0.7818609E-02  0.8556826E-01
       -1   -1    0    0    0  501  0.00000000000E+00  0.00000000000E+00  0.91555949022E+03  0.91555949023E+03  0.50400001928E-02 0.  1.
        1   -1    0    0  501    0  0.00000000000E+00  0.00000000000E+00 -0.12157437217E+04  0.12157437217E+04  0.50400001928E-02 0. -1.
    10030    2    1    2    0    0  0.00000000000E+00  0.00000000000E+00 -0.30018423150E+03  0.21313032120E+04  0.21100575368E+04 0.  0.
        2    1    3    3  502    0 -0.10263656812E+04 -0.13266551714E+03  0.57055852248E+02  0.10364757697E+04  0.25500000920E-02 0.  1.
       -2    1    3    3    0  502  0.10263656812E+04  0.13266551714E+03 -0.35724008375E+03  0.10948274423E+04  0.25500000920E-02 0. -1.
</event>
<event>
 5   0  0.1921687E-04  0.1957425E+04  0.7818609E-02  0.8626788E-01
        2   -1    0    0  501    0  0.00000000000E+00  0.00000000000E+00  0.14563973541E+04  0.14563973541E+04  0.25500000920E-02 0.  1.
       -2   -1    0    0    0  501  0.00000000000E+00  0.00000000000E+00 -0.65770414749E+03  0.65770414749E+03  0.25500000920E-02 0. -1.
    10030    2    1    2    0    0  0.00000000000E+00  0.00000000000E+00  0.79869320663E+03  0.21141015016E+04  0.19574254317E+04 0.  0.
        5    1    3    3  502    0 -0.39213612684E+03 -0.77182826558E+03 -0.93662511996E+02  0.87079525129E+03  0.46999998093E+01 0. -1.
       -5    1    3    3    0  502  0.39213612684E+03  0.77182826558E+03  0.89235571863E+03  0.12433062503E+04  0.46999998093E+01 0.  1.
</event>
<event>
 5   0  0.1921687E-04  0.1839787E+04  0.7818609E-02  0.8685423E-01
       -2   -1    0    0    0  501  0.00000000000E+00  0.00000000000E+00  0.69619509740E+03  0.69619509740E+03  0.25500000920E-02 0. -1.
        2   -1    0    0  501    0  0.00000000000E+00  0.00000000000E+00 -0.12154700228E+04  0.12154700228E+04  0.25500000920E-02 0.  1.
    10030    2    1    2    0    0  0.00000000000E+00  0.00000000000E+00 -0.51927492536E+03  0.19116651202E+04  0.18397872387E+04 0.  0.
        5    1    3    3  502    0 -0.85601158602E+03 -0.19578849457E+02 -0.60899175095E+03  0.10507293702E+04  0.46999998093E+01 0. -1.
       -5    1    3    3    0  502  0.85601158602E+03  0.19578849457E+02  0.89716825584E+02  0.86093574994E+03  0.46999998093E+01 0.  1.
</event>
<event>
 5   0  0.1815400E-04  0.2096118E+04  0.7818609E-02  0.8562956E-01
        2   -1    0    0  501    0  0.00000000000E+00  0.00000000000E+00  0.17557539570E+04  0.17557539570E+04  0.25500000920E-02 0. -1.
       -2   -1    0    0    0  501  0.00000000000E+00  0.00000000000E+00 -0.62561570495E+03  0.62561570496E+03  0.25500000920E-02 0.  1.
    10030    2    1    2    0    0  0.00000000000E+00  0.00000000000E+00  0.11301382521E+04  0.23813696620E+04  0.20961176012E+04 0.  0.
        3    1    3    3  502    0 -0.91201506678E+02 -0.10385320563E+04  0.68722183392E+03  0.12486554392E+04  0.10100000352E+00 0.  1.
       -3    1    3    3    0  502  0.91201506678E+02  0.10385320563E+04  0.44291641814E+03  0.11327142227E+04  0.10100000352E+00 0. -1.
</event>
<event>
 5   0  0.1921687E-04  0.2075933E+04  0.7818609E-02  0.8571920E-01
       -2   -1    0    0    0  501  0.00000000000E+00  0.00000000000E+00  0.82848782411E+03  0.82848782412E+03  0.25500000920E-02 0. -1.
        2   -1    0    0  501    0  0.00000000000E+00  0.00000000000E+00 -0.13004109572E+04  0.13004109572E+04  0.25500000920E-02 0.  1.
    10030    2    1    2    0    0  0.00000000000E+00  0.00000000000E+00 -0.47192313307E+03  0.21288987813E+04  0.20759331823E+04 0.  0.
        5    1    3    3  502    0 -0.66171999964E+03 -0.73847228572E+03 -0.55060875005E+03  0.11341987305E+04  0.46999998093E+01 0.  1.
       -5    1    3    3    0  502  0.66171999964E+03  0.73847228572E+03  0.78685616977E+02  0.99470005078E+03  0.46999998093E+01 0. -1.
</event>
<event>
 5   0  0.1886323E-04  0.1985767E+04  0.7818609E-02  0.8613304E-01
        2   -1    0    0  501    0  0.00000000000E+00  0.00000000000E+00  0.55769107549E+03  0.55769107550E+03  0.25500000920E-02 0.  1.
       -2   -1    0    0    0  501  0.00000000000E+00  0.00000000000E+00 -0.17676769804E+04  0.17676769804E+04  0.25500000920E-02 0. -1.
    10030    2    1    2    0    0  0.00000000000E+00  0.00000000000E+00 -0.12099859049E+04  0.23253680559E+04  0.19857670320E+04 0.  0.
        2    1    3    3  502    0  0.79650450059E+03 -0.33947734631E+03 -0.11740561456E+04  0.14587913220E+04  0.25500000920E-02 0. -1.
       -2    1    3    3    0  502 -0.79650450059E+03  0.33947734631E+03 -0.35929759321E+02  0.86657673390E+03  0.25500000920E-02 0.  1.
</event>
<event>
 5   0  0.1921687E-04  0.2079827E+04  0.7818609E-02  0.8570182E-01
        2   -1    0    0  501    0  0.00000000000E+00  0.00000000000E+00  0.88606108912E+03  0.88606108912E+03  0.25500000920E-02 0.  1.
       -2   -1    0    0    0  501  0.00000000000E+00  0.00000000000E+00 -0.12204797139E+04  0.12204797139E+04  0.25500000920E-02 0. -1.
    10030    2    1    2    0    0  0.00000000000E+00  0.00000000000E+00 -0.33441862476E+03  0.21065408030E+04  0.20798265164E+04 0.  0.
        5    1    3    3  502    0  0.75145259982E+03 -0.22217945786E+02  0.56050576977E+03  0.93774381088E+03  0.46999998093E+01 0.  1.
       -5    1    3    3    0  502 -0.75145259982E+03  0.22217945786E+02 -0.89492439453E+03  0.11687969921E+04  0.46999998093E+01 0. -1.
</event>
<event>
 5   0  0.1886323E-04  0.2098927E+04  0.7818609E-02  0.8561716E-01
       -2   -1    0    0    0  501  0.00000000000E+00  0.00000000000E+00  0.59759452468E+03  0.59759452469E+03  0.25500000920E-02 0. -1.
        2   -1    0    0  501    0  0.00000000000E+00  0.00000000000E+00 -0.18430117527E+04  0.18430117527E+04  0.25500000920E-02 0.  1.
    10030    2    1    2    0    0  0.00000000000E+00  0.00000000000E+00 -0.12454172281E+04  0.24406062774E+04  0.20989270901E+04 0.  0.
        2    1    3    3  502    0 -0.59874003990E+03 -0.25610749109E+03  0.33424013862E+03  0.73198166141E+03  0.25500000920E-02 0. -1.
       -2    1    3    3    0  502  0.59874003990E+03  0.25610749109E+03 -0.15796573667E+04  0.17086246160E+04  0.25500000920E-02 0.  1.
</event>
<event>
 5   0  0.1777590E-04  0.2092226E+04  0.7818609E-02  0.8564676E-01
       -2   -1    0    0    0  501  0.00000000000E+00  0.00000000000E+00  0.40608768631E+03  0.40608768632E+03  0.25500000920E-02 0. -1.
        2   -1    0    0  501    0  0.00000000000E+00  0.00000000000E+00 -0.26948670395E+04  0.26948670395E+04  0.25500000920E-02 0.  1.
    10030    2    1    2    0    0  0.00000000000E+00  0.00000000000E+00 -0.22887793532E+04  0.31009547258E+04  0.20922259161E+04 0.  0.
        4    1    3    3  502    0  0.12010417060E+03  0.97481547235E+03 -0.16780816602E+04  0.19443893355E+04  0.12699999809E+01 0.  1.
       -4    1    3    3    0  502 -0.12010417060E+03 -0.97481547235E+03 -0.61069769303E+03  0.11565653903E+04  0.12699999809E+01 0. -1.
</event>
<event>
 5   0  0.1810875E-04  0.2092614E+04  0.7818609E-02  0.8564504E-01
       -2   -1    0    0    0  501  0.00000000000E+00  0.00000000000E+00  0.79261736484E+03  0.79261736485E+03  0.25500000920E-02 0. -1.
        2   -1    0    0  501    0  0.00000000000E+00  0.00000000000E+00 -0.13811937801E+04  0.13811937801E+04  0.25500000920E-02 0.  1.
    10030    2    1    2    0    0  0.00000000000E+00  0.00000000000E+00 -0.58857641525E+03  0.21738111449E+04  0.20926138433E+04 0.  0.
        1    1    3    3  502    0  0.78587340855E+03  0.58914195724E+03  0.80362150718E+02  0.98546604982E+03  0.50400001928E-02 0. -1.
       -1    1    3    3    0  502 -0.78587340855E+03 -0.58914195724E+03 -0.66893856597E+03  0.11883450951E+04  0.50400001928E-02 0.  1.
</event>
<event>
 5   0  0.8237966E-05  0.2158119E+04  0.7818609E-02  0.8536065E-01
       -1   -1    0    0    0  501  0.00000000000E+00  0.00000000000E+00  0.12504796266E+04  0.12504796266E+04  0.50400001928E-02 0.  1.
        1   -1    0    0  501    0  0.00000000000E+00  0.00000000000E+00 -0.93113806230E+03  0.93113806232E+03  0.50400001928E-02 0. -1.
    10030    2    1    2    0    0  0.00000000000E+00  0.00000000000E+00  0.31934156430E+03  0.21816176889E+04  0.21581187887E+04 0.  0.
        1    1    3    3  502    0 -0.95021222710E+03 -0.25739858218E+03 -0.28696798001E+03  0.10254306062E+04  0.50400001928E-02 0. -1.
       -1    1    3    3    0  502  0.95021222710E+03  0.25739858218E+03  0.60630954430E+03  0.11561870827E+04  0.50400001928E-02 0.  1.
</event>
<event>
 5   0  0.8486612E-05  0.2121638E+04  0.7818609E-02  0.8551771E-01
        1   -1    0    0  501    0  0.00000000000E+00  0.00000000000E+00  0.18180896451E+04  0.18180896451E+04  0.50400001928E-02 0. -1.
       -1   -1    0    0    0  501  0.00000000000E+00  0.00000000000E+00 -0.61896672390E+03  0.61896672392E+03  0.50400001928E-02 0.  1.
    10030    2    1    2    0    0  0.00000000000E+00  0.00000000000E+00  0.11991229212E+04  0.24370563690E+04  0.21216380383E+04 0.  0.
        5    1    3    3  502    0  0.60208378200E+03 -0.61014171013E+03 -0.11827487520E+03  0.86532584792E+03  0.46999998093E+01 0.  1.
       -5    1    3    3    0  502 -0.60208378200E+03  0.61014171013E+03  0.13173977964E+04  0.15717305211E+04  0.46999998093E+01 0. -1.
</event>
<event>
 5   0  0.8271069E-05  0.2122774E+04  0.7818609E-02  0.8551277E-01
        1   -1    0    0  501    0  0.00000000000E+00  0.00000000000E+00  0.94845157880E+03  0.94845157881E+03  0.50400001928E-02 0.  1.
       -1   -1    0    0    0  501  0.00000000000E+00  0.00000000000E+00 -0.11877695433E+04  0.11877695433E+04  0.50400001928E-02 0. -1.
    10030    2    1    2    0    0  0.00000000000E+00  0.00000000000E+00 -0.23931796454E+03  0.21362211222E+04  0.21227735618E+04 0.  0.
        2    1    3    3  502    0 -0.15322484480E+03  0.96945847498E+03 -0.52621617851E+03  0.11136566142E+04  0.25500000920E-02 0. -1.
       -2    1    3    3    0  502  0.15322484480E+03 -0.96945847498E+03  0.28689821397E+03  0.10225645080E+04  0.25500000920E-02 0.  1.
</event>
<event>
 5   0  0.8486612E-05  0.1796007E+04  0.7818609E-02  0.8708426E-01
        1   -1    0    0  501    0  0.00000000000E+00  0.00000000000E+00  0.50305450392E+03  0.50305450395E+03  0.50400001928E-02 0.  1.
       -1   -1    0    0    0  501  0.00000000000E+00  0.00000000000E+00 -0.16030284749E+04  0.16030284749E+04  0.50400001928E-02 0. -1.
    10030    2    1    2    0    0  0.00000000000E+00  0.00000000000E+00 -0.10999739710E+04  0.21060829789E+04  0.17960074546E+04 0.  0.
        5    1    3    3  502    0 -0.32653781416E+02 -0.79825155907E+03 -0.10307963074E+04  0.13041606260E+04  0.46999998093E+01 0. -1.
       -5    1    3    3    0  502  0.32653781416E+02  0.79825155907E+03 -0.69177663635E+02  0.80192235294E+03  0.46999998093E+01 0.  1.
</event>
<event>
 5   0  0.1810875E-04  0.2092889E+04  0.7818609E-02  0.8564382E-01
       -2   -1    0    0    0  501  0.00000000000E+00  0.00000000000E+00  0.58438294298E+03  0.58438294298E+03  0.25500000920E-02 0. -1.
        2   -1    0    0  501    0  0.00000000000E+00  0.00000000000E+00 -0.18738506972E+04  0.18738506972E+04  0.25500000920E-02 0.  1.
    10030    2    1    2    0    0  0.00000000000E+00  0.00000000000E+00 -0.12894677542E+04  0.24582336402E+04  0.20928892805E+04 0.  0.
        1    1    3    3  502    0  0.13060552974E+03  0.40137215313E+03  0.47996245649E+03  0.63915676432E+03  0.50400001928E-02 0. -1.
       -1    1    3    3    0  502 -0.13060552974E+03 -0.40137215313E+03 -0.17694302107E+04  0.18190768759E+04  0.50400001928E-02 0.  1.
</event>
<event>
 5   0  0.1777590E-04  0.2104904E+04  0.7818609E-02  0.8559086E-01
        2   -1    0    0  501    0  0.00000000000E+00  0.00000000000E+00  0.14504097671E+04  0.14504097671E+04  0.25500000920E-02 0. -1.
       -2   -1    0    0    0  501  0.00000000000E+00  0.00000000000E+00 -0.76368399287E+03  0.76368399287E+03  0.25500000920E-02 0.  1.
    10030    2    1    2    0    0  0.00000000000E+00  0.00000000000E+00  0.68672577425E+03  0.22140937600E+04  0.21049035344E+04 0.  0.
        4    1    3    3  502    0 -0.18318248598E+03  0.41931087899E+03  0.13403019880E+04  0.14162586163E+04  0.12699999809E+01 0. -1.
       -4    1    3    3    0  502  0.18318248598E+03 -0.41931087899E+03 -0.65357621374E+03  0.79783514367E+03  0.12699999809E+01 0.  1.
</event>
<event>
 5   0  0.8525278E-05  0.2113800E+04  0.7818609E-02  0.8555189E-01
       -1   -1    0    0    0  501  0.00000000000E+00  0.00000000000E+00  0.10493897626E+04  0.10493897626E+04  0.50400001928E-02 0. -1.
        1   -1    0    0  501    0  0.00000000000E+00  0.00000000000E+00 -0.10644635943E+04  0.10644635943E+04  0.50400001928E-02 0.  1.
    10030    2    1    2    0    0  0.00000000000E+00  0.00000000000E+00 -0.15073831671E+02  0.21138533569E+04  0.21137996107E+04 0.  0.
        4    1    3    3  502    0  0.63119322058E+03  0.47976962443E+03 -0.70644796229E+03  0.10619105944E+04  0.12699999809E+01 0.  1.
       -4    1    3    3    0  502 -0.63119322058E+03 -0.47976962443E+03  0.69137413061E+03  0.10519427625E+04  0.12699999809E+01 0. -1.
</event>
<event>
 5   0  0.8271069E-05  0.2110531E+04  0.7818609E-02  0.8556618E-01
       -1   -1    0    0    0  501  0.00000000000E+00  0.00000000000E+00  0.50551261577E+03  0.50551261580E+03  0.50400001928E-02 0.  1.
        1   -1    0    0  501    0  0.00000000000E+00  0.00000000000E+00 -0.22028840989E+04  0.22028840989E+04  0.50400001928E-02 0. -1.
    10030    2    1    2    0    0  0.00000000000E+00  0.00000000000E+00 -0.16973714831E+04  0.27083967147E+04  0.21105314052E+04 0.  0.
        2    1    3    3  502    0 -0.61777727492E+03 -0.54291861546E+03 -0.16971797379E+04  0.18859555793E+04  0.25500000920E-02 0. -1.
       -2    1    3    3    0  502  0.61777727492E+03  0.54291861546E+03 -0.19174524135E+00  0.82244113540E+03  0.25500000920E-02 0.  1.
</event>
<event>
 5   0  0.8271069E-05  0.2131483E+04  0.7818609E-02  0.8547500E-01
        1   -1    0    0  501    0  0.00000000000E+00  0.00000000000E+00  0.77717190176E+03  0.77717190178E+03  0.50400001928E-02 0.  1.
       -1   -1    0    0    0  501  0.00000000000E+00  0.00000000000E+00 -0.14614586351E+04  0.14614586351E+04  0.50400001928E-02 0. -1.
    10030    2    1    2    0    0  0.00000000000E+00  0.00000000000E+00 -0.68428673334E+03  0.22386305369E+04  0.21314826641E+04 0.  0.
        2    1    3    3  502    0 -0.51315982222E+03 -0.42339879013E+03  0.53229957635E+03  0.85202252178E+03  0.25500000920E-02 0.  1.
       -2    1    3    3    0  502  0.51315982222E+03  0.42339879013E+03 -0.12165863097E+04  0.13866080151E+04  0.25500000920E-02 0. -1.
</event>
<event>
 5   0  0.1886323E-04  0.2534618E+04  0.7818609E-02  0.8390756E-01
        2   -1    0    0  501    0  0.00000000000E+00  0.00000000000E+00  0.22064143946E+04  0.22064143946E+04  0.25500000920E-02 0.  1.
       -2   -1    0    0    0  501  0.00000000000E+00  0.00000000000E+00 -0.72791025320E+03  0.72791025320E+03  0.25500000920E-02 0. -1.
    10030    2    1    2    0    0  0.00000000000E+00  0.00000000000E+00  0.14785041414E+04  0.29343246478E+04  0.25346176522E+04 0.  0.
        2    1    3    3  502    0 -0.11436358439E+04 -0.48471146548E+03  0.10303472519E+04  0.16138350622E+04  0.25500000920E-02 0.  1.
       -2    1    3    3    0  502  0.11436358439E+04  0.48471146548E+03  0.44815688947E+03  0.13204895857E+04  0.25500000920E-02 0. -1.
</event>
<event>
 5   0  0.8237966E-05  0.2078072E+04  0.7818609E-02  0.8570965E-01
       -1   -1    0    0    0  501  0.00000000000E+00  0.00000000000E+00  0.12205959722E+04  0.12205959722E+04  0.50400001928E-02 0.  1.
        1   -1    0    0  501    0  0.00000000000E+00  0.00000000000E+00 -0.88448275084E+03  0.88448275085E+03  0.50400001928E-02 0. -1.
    10030    2    1    2    0    0  0.00000000000E+00  0.00000000000E+00  0.33611322140E+03  0.21050787231E+04  0.20780722636E+04 0.  0.
        1    1    3    3  502    0 -0.35559450110E+03 -0.51622525298E+03 -0.67136202977E+03  0.91851126072E+03  0.50400001928E-02 0. -1.
       -1    1    3    3    0  502  0.35559450110E+03  0.51622525298E+03  0.10074752512E+04  0.11865674624E+04  0.50400001928E-02 0.  1.
</event>
<event>
 5   0  0.8525278E-05  0.2130832E+04  0.7818609E-02  0.8547782E-01
       -1   -1    0    0    0  501  0.00000000000E+00  0.00000000000E+00  0.53050261502E+03  0.53050261504E+03  0.50400001928E-02 0.  1.
        1   -1    0    0  501    0  0.00000000000E+00  0.00000000000E+00 -0.21396897040E+04  0.21396897040E+04  0.50400001928E-02 0. -1.
    10030    2    1    2    0    0  0.00000000000E+00  0.00000000000E+00 -0.16091870889E+04  0.26701923190E+04  0.21308317468E+04 0.  0.
        4    1    3    3  502    0  0.48968935403E+03 -0.41508981236E+03  0.26093915857E+03  0.69295459675E+03  0.12699999809E+01 0.  1.
       -4    1    3    3    0  502 -0.48968935403E+03  0.41508981236E+03 -0.18701262475E+04  0.19772377223E+04  0.12699999809E+01 0. -1.
</event>
<event>
 5   0  0.8755004E-05  0.2131216E+04  0.7818609E-02  0.8547616E-01
        1   -1    0    0  501    0  0.00000000000E+00  0.00000000000E+00  0.24884478126E+04  0.24884478126E+04  0.50400001928E-02 0.  1.
       -1   -1    0    0    0  501  0.00000000000E+00  0.00000000000E+00 -0.45631693495E+03  0.45631693497E+03  0.50400001928E-02 0. -1.
    10030    2    1    2    0    0  0.00000000000E+00  0.00000000000E+00  0.20321308777E+04  0.29447647476E+04  0.21312164401E+04 0.  0.
        3    1    3    3  502    0 -0.16311519872E+03 -0.12759447765E+03 -0.42824447762E+03  0.47568924898E+03  0.10100000352E+00 0. -1.
       -3    1    3    3    0  502  0.16311519872E+03  0.12759447765E+03  0.24603753553E+04  0.24690754986E+04  0.10100000352E+00 0.  1.
</event>
<event>
 5   0  0.8525278E-05  0.2380465E+04  0.7818609E-02  0.8446854E-01
       -1   -1    0    0    0  501  0.00000000000E+00  0.00000000000E+00  0.69025850870E+03  0.69025850872E+03  0.50400001928E-02 0.  1.
        1   -1    0    0  501    0  0.00000000000E+00  0.00000000000E+00 -0.20523517661E+04  0.20523517661E+04  0.50400001928E-02 0. -1.
    10030    2    1    2    0    0  0.00000000000E+00  0.00000000000E+00 -0.13620932574E+04  0.27426102748E+04  0.23804648869E+04 0.  0.
        4    1    3    3  502    0  0.49114830021E+03 -0.23624368828E+03  0.53804532341E+03  0.76585384768E+03  0.12699999809E+01 0.  1.
       -4    1    3    3    0  502 -0.49114830021E+03  0.23624368828E+03 -0.19001385808E+04  0.19767564271E+04  0.12699999809E+01 0. -1.
</event>
<event>
 5   0  0.1777590E-04  0.2122888E+04  0.7818609E-02  0.8551227E-01
        2   -1    0    0  501    0  0.00000000000E+00  0.00000000000E+00  0.75753292338E+03  0.75753292338E+03  0.25500000920E-02 0. -1.
       -2   -1    0    0    0  501  0.00000000000E+00  0.00000000000E+00 -0.14872799429E+04  0.14872799429E+04  0.25500000920E-02 0.  1.
    10030    2    1    2    0    0  0.00000000000E+00  0.00000000000E+00 -0.72974701955E+03  0.22448128663E+04  0.21228881488E+04 0.  0.
        4    1    3    3  502    0  0.97351468355E+02 -0.99135503344E+03  0.22787694571E+02  0.99638496709E+03  0.12699999809E+01 0.  1.
       -4    1    3    3    0  502 -0.97351468355E+02  0.99135503344E+03 -0.75253471412E+03  0.12484278992E+04  0.12699999809E+01 0. -1.
</event>
<event>
 5   0  0.1886323E-04  0.2090384E+04  0.7818609E-02  0.8565491E-01
        2   -1    0    0  501    0  0.00000000000E+00  0.00000000000E+00  0.24983871340E+04  0.24983871340E+04  0.25500000920E-02 0.  1.
       -2   -1    0    0    0  501  0.00000000000E+00  0.00000000000E+00 -0.43725242073E+03  0.43725242074E+03  0.25500000920E-02 0. -1.
    10030    2    1    2    0    0  0.00000000000E+00  0.00000000000E+00  0.20611347132E+04  0.29356395547E+04  0.20903835268E+04 0.  0.
        2    1    3    3  502    0  0.88379177442E+03 -0.53023706435E+03  0.12745639109E+04  0.16391316017E+04  0.25500000920E-02 0. -1.
       -2    1    3    3    0  502 -0.88379177442E+03  0.53023706435E+03  0.78657080234E+03  0.12965079529E+04  0.25500000920E-02 0.  1.
</event>
<event>
 5   0  0.1921687E-04  0.2109546E+04  0.7818609E-02  0.8557050E-01
        2   -1    0    0  501    0  0.00000000000E+00  0.00000000000E+00  0.15655642468E+04  0.15655642468E+04  0.25500000920E-02 0. -1.
       -2   -1    0    0    0  501  0.00000000000E+00  0.00000000000E+00 -0.71063565117E+03  0.71063565117E+03  0.25500000920E-02 0.  1.
    10030    2    1    2    0    0  0.00000000000E+00  0.00000000000E+00  0.85492859561E+03  0.22761998980E+04  0.21095457027E+04 0.  0.
        5    1    3    3  502    0  0.76644675781E+03  0.38433878832E+03  0.10902959996E+04  0.13870560167E+04  0.46999998093E+01 0. -1.
       -5    1    3    3    0  502 -0.76644675781E+03 -0.38433878832E+03 -0.23536740395E+03  0.88914388127E+03  0.46999998093E+01 0.  1.
</event>
<event>
 5   0  0.1815400E-04  0.2087371E+04  0.7818609E-02  0.8566827E-01
       -2   -1    0    0    0  501  0.00000000000E+00  0.00000000000E+00  0.46073152469E+03  0.46073152470E+03  0.25500000920E-02 0.  1.
        2   -1    0    0  501    0  0.00000000000E+00  0.00000000000E+00 -0.23642382167E+04  0.23642382167E+04  0.25500000920E-02 0. -1.
    10030    2    1    2    0    0  0.00000000000E+00  0.00000000000E+00 -0.19035066920E+04  0.28249697414E+04  0.20873706699E+04 0.  0.
        3    1    3    3  502    0 -0.10251488679E+04 -0.54198920850E+02 -0.12064278259E+04  0.15840883288E+04  0.10100000352E+00 0.  1.
       -3    1    3    3    0  502  0.10251488679E+04  0.54198920850E+02 -0.69707886617E+03  0.12408814126E+04  0.10100000352E+00 0. -1.
</event>
<event>
 5   0  0.1810875E-04  0.2136914E+04  0.7818609E-02  0.8545155E-01
       -2   -1    0    0    0  501  0.00000000000E+00  0.00000000000E+00  0.76177073537E+03  0.76177073538E+03  0.25500000920E-02 0. -1.
        2   -1    0    0  501    0  0.00000000000E+00  0.00000000000E+00 -0.14986134934E+04  0.14986134934E+04  0.25500000920E-02 0.  1.
    10030    2    1    2    0    0  0.00000000000E+00  0.00000000000E+00 -0.73684275798E+03  0.22603842287E+04  0.21369135714E+04 0.  0.
        1    1    3    3  502    0 -0.37648835672E+03  0.30490283040E+03 -0.13757537295E+04  0.14585635204E+04  0.50400001928E-02 0.  1.
       -1    1    3    3    0  502  0.37648835672E+03 -0.30490283040E+03  0.63891097154E+03  0.80182070833E+03  0.50400001928E-02 0. -1.
</event>
<event>
 5   0  0.8755004E-05  0.2078346E+04  0.7818609E-02  0.8570843E-01
        1   -1    0    0  501    0  0.00000000000E+00  0.00000000000E+00  0.14168900441E+04  0.14168900442E+04  0.50400001928E-02 0. -1.
       -1   -1    0    0    0  501  0.00000000000E+00  0.00000000000E+00 -0.76214847012E+03  0.76214847013E+03  0.50400001928E-02 0.  1.
    10030    2    1    2    0    0  0.00000000000E+00  0.00000000000E+00  0.65474157403E+03  0.21790385143E+04  0.20783460535E+04 0.  0.
        3    1    3    3  502    0  0.16580550063E+01 -0.67297100751E+02 -0.75986001311E+03  0.76283608898E+03  0.10100000352E+00 0.  1.
       -3    1    3    3    0  502 -0.16580550063E+01  0.67297100751E+02  0.14146015871E+04  0.14162024253E+04  0.10100000352E+00 0. -1.
</event>
<event>
 5   0  0.8755004E-05  0.2106284E+04  0.7818609E-02  0.8558480E-01
        1   -1    0    0  501    0  0.00000000000E+00  0.00000000000E+00  0.79967583460E+03  0.79967583462E+03  0.50400001928E-02 0. -1.
       -1   -1    0    0    0  501  0.00000000000E+00  0.00000000000E+00 -0.13869470915E+04  0.13869470915E+04  0.50400001928E-02 0.  1.
    10030    2    1    2    0    0  0.00000000000E+00  0.00000000000E+00 -0.58727125691E+03  0.21866229261E+04  0.21062840008E+04 0.  0.
        3    1    3    3  502    0  0.28081613877E+03  0.38067780425E+03 -0.12704470484E+04  0.13556581455E+04  0.10100000352E+00 0. -1.
       -3    1    3    3    0  502 -0.28081613877E+03 -0.38067780425E+03  0.68317579147E+03  0.83096478066E+03  0.10100000352E+00 0.  1.
</event>
<event>
 5   0  0.1921687E-04  0.2082835E+04  0.7818609E-02  0.8568842E-01
        2   -1    0    0  501    0  0.00000000000E+00  0.00000000000E+00  0.28426354351E+04  0.28426354351E+04  0.25500000920E-02 0.  1.
       -2   -1    0    0    0  501  0.00000000000E+00  0.00000000000E+00 -0.38153003740E+03  0.38153003741E+03  0.25500000920E-02 0. -1.
    10030    2    1    2    0    0  0.00000000000E+00  0.00000000000E+00  0.24611053977E+04  0.32241654725E+04  0.20828353789E+04 0.  0.
        5    1    3    3  502    0  0.28289504034E+03 -0.79996198489E+03  0.29590735967E+03  0.89863899126E+03  0.46999998093E+01 0. -1.
       -5    1    3    3    0  502 -0.28289504034E+03  0.79996198489E+03  0.21651980380E+04  0.23255264812E+04  0.46999998093E+01 0.  1.
</event>
<event>
 5   0  0.8525278E-05  0.2077435E+04  0.7818609E-02  0.8571249E-01
       -1   -1    0    0    0  501  0.00000000000E+00  0.00000000000E+00  0.46532407229E+03  0.46532407232E+03  0.50400001928E-02 0. -1.
        1   -1    0    0  501    0  0.00000000000E+00  0.00000000000E+00 -0.23186724281E+04  0.23186724281E+04  0.50400001928E-02 0.  1.
    10030    2    1    2    0    0  0.00000000000E+00  0.00000000000E+00 -0.18533483558E+04  0.27839965004E+04  0.20774350498E+04 0.  0.
        4    1    3    3  502    0 -0.23798066360E+03 -0.14907871088E+03 -0.22668356565E+04  0.22841639093E+04  0.12699999809E+01 0.  1.
       -4    1    3    3    0  502  0.23798066360E+03  0.14907871088E+03  0.41348730073E+03  0.49983259103E+03  0.12699999809E+01 0. -1.
</event>
<event>
 5   0  0.1810875E-04  0.2079057E+04  0.7818609E-02  0.8570526E-01
       -2   -1    0    0    0  501  0.00000000000E+00  0.00000000000E+00  0.97254436380E+03  0.97254436381E+03  0.25500000920E-02 0. -1.
        2   -1    0    0  501    0  0.00000000000E+00  0.00000000000E+00 -0.11111259775E+04  0.11111259775E+04  0.25500000920E-02 0.  1.
    10030    2    1    2    0    0  0.00000000000E+00  0.00000000000E+00 -0.13858161373E+03  0.20836703413E+04  0.20790568120E+04 0.  0.
        1    1    3    3  502    0  0.24547827845E+03 -0.31102174844E+03 -0.10324776430E+04  0.11058952014E+04  0.50400001928E-02 0.  1.
       -1    1    3    3    0  502 -0.24547827845E+03  0.31102174844E+03  0.89389602924E+03  0.97777513995E+03  0.50400001928E-02 0. -1.
</event>
<event>
 5   0  0.1815400E-04  0.2105709E+04  0.7818609E-02  0.8558733E-01
       -2   -1    0    0    0  501  0.00000000000E+00  0.00000000000E+00  0.76511793570E+03  0.76511793570E+03  0.25500000920E-02 0.  1.
        2   -1    0    0  501    0  0.00000000000E+00  0.00000000000E+00 -0.14487999780E+04  0.14487999780E+04  0.25500000920E-02 0. -1.
    10030    2    1    2    0    0  0.00000000000E+00  0.00000000000E+00 -0.68368204233E+03  0.22139179137E+04  0.21057092377E+04 0.  0.
        3    1    3    3  502    0 -0.41466990252E+03  0.80512613546E+03 -0.90639207198E+03  0.12812984900E+04  0.10100000352E+00 0. -1.
       -3    1    3    3    0  502  0.41466990252E+03 -0.80512613546E+03  0.22271002965E+03  0.93261942376E+03  0.10100000352E+00 0.  1.
</event>
<event>
 5   0  0.8755004E-05  0.2081545E+04  0.7818609E-02  0.8569417E-01
       -1   -1    0    0    0  501  0.00000000000E+00  0.00000000000E+00  0.45548887173E+03  0.45548887175E+03  0.50400001928E-02 0. -1.
        1   -1    0    0  501    0  0.00000000000E+00  0.00000000000E+00 -0.23781211047E+04  0.23781211047E+04  0.50400001928E-02 0.  1.
    10030    2    1    2    0    0  0.00000000000E+00  0.00000000000E+00 -0.19226322330E+04  0.28336099765E+04  0.20815452903E+04 0.  0.
        3    1    3    3  502    0 -0.39251420391E+03 -0.97173991053E+02 -0.22668156232E+04  0.23025992410E+04  0.10100000352E+00 0.  1.
       -3    1    3    3    0  502  0.39251420391E+03  0.97173991053E+02  0.34418339027E+03  0.53101073543E+03  0.10100000352E+00 0. -1.
</event>
<event>
 5   0  0.1815400E-04  0.2116710E+04  0.7818609E-02  0.8553918E-01
        2   -1    0    0  501    0  0.00000000000E+00  0.00000000000E+00  0.73170558965E+03  0.73170558965E+03  0.25500000920E-02 0. -1.
       -2   -1    0    0    0  501  0.00000000000E+00  0.00000000000E+00 -0.15308275793E+04  0.15308275793E+04  0.25500000920E-02 0.  1.
    10030    2    1    2    0    0  0.00000000000E+00  0.00000000000E+00 -0.79912198967E+03  0.22625331690E+04  0.21167098021E+04 0.  0.
        3    1    3    3  502    0  0.63666741415E+03  0.82534465326E+03 -0.59542174923E+03  0.12004441939E+04  0.10100000352E+00 0.  1.
       -3    1    3    3    0  502 -0.63666741415E+03 -0.82534465326E+03 -0.20370024044E+03  0.10620889751E+04  0.10100000352E+00 0. -1.
</event>
<event>
 5   0  0.1810875E-04  0.1857330E+04  0.7818609E-02  0.8676392E-01
        2   -1    0    0  501    0  0.00000000000E+00  0.00000000000E+00  0.92713728320E+03  0.92713728321E+03  0.25500000920E-02 0.  1.
       -2   -1    0    0    0  501  0.00000000000E+00  0.00000000000E+00 -0.93019553109E+03  0.93019553110E+03  0.25500000920E-02 0. -1.
    10030    2    1    2    0    0  0.00000000000E+00  0.00000000000E+00 -0.30582478893E+01  0.18573328143E+04  0.18573302965E+04 0.  0.
        1    1    3    3  502    0  0.12825903730E+03  0.54363040979E+03 -0.74344289709E+03  0.92988802786E+03  0.50400001928E-02 0. -1.
       -1    1    3    3    0  502 -0.12825903730E+03 -0.54363040979E+03  0.74038464920E+03  0.92744478644E+03  0.50400001928E-02 0.  1.
</event>
<event>
 5   0  0.8271069E-05  0.2256462E+04  0.7818609E-02  0.8495288E-01
        1   -1    0    0  501    0  0.00000000000E+00  0.00000000000E+00  0.21514793614E+04  0.21514793614E+04  0.50400001928E-02 0. -1.
       -1   -1    0    0    0  501  0.00000000000E+00  0.00000000000E+00 -0.59164186438E+03  0.59164186440E+03  0.50400001928E-02 0.  1.
    10030    2    1    2    0    0  0.00000000000E+00  0.00000000000E+00  0.15598374970E+04  0.27431212258E+04  0.22564620631E+04 0.  0.
        2    1    3    3  502    0 -0.36627797804E+03  0.89485107733E+03  0.14866708767E+04  0.17734453201E+04  0.25500000920E-02 0. -1.
       -2    1    3    3    0  502  0.36627797804E+03 -0.89485107733E+03  0.73166620353E+02  0.96967590572E+03  0.25500000920E-02 0.  1.
</event>
<event>
 5   0  0.1777590E-04  0.2116988E+04  0.7818609E-02  0.8553797E-01
        2   -1    0    0  501    0  0.00000000000E+00  0.00000000000E+00  0.10397474412E+04  0.10397474412E+04  0.25500000920E-02 0.  1.
       -2   -1    0    0    0  501  0.00000000000E+00  0.00000000000E+00 -0.10775785827E+04  0.10775785827E+04  0.25500000920E-02 0. -1.
    10030    2    1    2    0    0  0.00000000000E+00  0.00000000000E+00 -0.37831141514E+02  0.21173260238E+04  0.21169880245E+04 0.  0.
        4    1    3    3  502    0 -0.44066128577E+02 -0.55031109423E+03 -0.92217871268E+03  0.10748019888E+04  0.12699999809E+01 0. -1.
       -4    1    3    3    0  502  0.44066128577E+02  0.55031109423E+03  0.88434757116E+03  0.10425240350E+04  0.12699999809E+01 0.  1.
</event>
<event>
 5   0  0.1886323E-04  0.1884579E+04  0.7818609E-02  0.8662571E-01
        2   -1    0    0  501    0  0.00000000000E+00  0.00000000000E+00  0.10140003242E+04  0.10140003242E+04  0.25500000920E-02 0.  1.
       -2   -1    0    0    0  501  0.00000000000E+00  0.00000000000E+00 -0.87564979222E+03  0.87564979223E+03  0.25500000920E-02 0. -1.
    10030    2    1    2    0    0  0.00000000000E+00  0.00000000000E+00  0.13835053199E+03  0.18896501164E+04  0.18845786513E+04 0.  0.
        2    1    3    3  502    0  0.16745651747E+03  0.34367841011E+03 -0.79439301330E+03  0.88159899864E+03  0.25500000920E-02 0. -1.
       -2    1    3    3    0  502 -0.16745651747E+03 -0.34367841011E+03  0.93274354529E+03  0.10080511178E+04  0.25500000920E-02 0.  1.
</event>
<event>
 5   0  0.8755004E-05  0.2091771E+04  0.7818609E-02  0.8564877E-01
        1   -1    0    0  501    0  0.00000000000E+00  0.00000000000E+00  0.76591053328E+03  0.76591053329E+03  0.50400001928E-02 0.  1.
       -1   -1    0    0    0  501  0.00000000000E+00  0.00000000000E+00 -0.14282038308E+04  0.14282038308E+04  0.50400001928E-02 0. -1.
    10030    2    1    2    0    0  0.00000000000E+00  0.00000000000E+00 -0.66229329756E+03  0.21941143641E+04  0.20917708839E+04 0.  0.
        3    1    3    3  502    0  0.41217756412E+03 -0.54302858690E+03 -0.11631154599E+04  0.13481869210E+04  0.10100000352E+00 0. -1.
       -3    1    3    3    0  502 -0.41217756412E+03  0.54302858690E+03  0.50082216238E+03  0.84592744316E+03  0.10100000352E+00 0.  1.
</event>
<event>
 5   0  0.8525278E-05  0.2124352E+04  0.7818609E-02  0.8550591E-01
        1   -1    0    0  501    0  0.00000000000E+00  0.00000000000E+00  0.10921839833E+04  0.10921839833E+04  0.50400001928E-02 0. -1.
       -1   -1    0    0    0  501  0.00000000000E+00  0.00000000000E+00 -0.10329924797E+04  0.10329924797E+04  0.50400001928E-02 0.  1.
    10030    2    1    2    0    0  0.00000000000E+00  0.00000000000E+00  0.59191503622E+02  0.21251764630E+04  0.21243519871E+04 0.  0.
        4    1    3    3  502    0 -0.10184033030E+04 -0.25739486800E+03 -0.12800529906E+03  0.10581986463E+04  0.12699999809E+01 0. -1.
       -4    1    3    3    0  502  0.10184033030E+04  0.25739486800E+03  0.18719680268E+03  0.10669778167E+04  0.12699999809E+01 0.  1.
</event>
<event>
 5   0  0.8486612E-05  0.2063049E+04  0.7818609E-02  0.8577697E-01
       -1   -1    0    0    0  501  0.00000000000E+00  0.00000000000E+00  0.51981803637E+03  0.51981803639E+03  0.50400001928E-02 0.  1.
        1   -1    0    0  501    0  0.00000000000E+00  0.00000000000E+00 -0.20469532736E+04  0.20469532736E+04  0.50400001928E-02 0. -1.
    10030    2    1    2    0    0  0.00000000000E+00  0.00000000000E+00 -0.15271352373E+04  0.25667713100E+04  0.20630494238E+04 0.  0.
        5    1    3    3  502    0 -0.83100460912E+03 -0.35399025406E+03 -0.13833352514E+04  0.16521247738E+04  0.46999998093E+01 0. -1.
       -5    1    3    3    0  502  0.83100460912E+03  0.35399025406E+03 -0.14379998586E+03  0.91464653625E+03  0.46999998093E+01 0.  1.
</event>
<event>
 5   0  0.8525278E-05  0.2097827E+04  0.7818609E-02  0.8562201E-01
        1   -1    0    0  501    0  0.00000000000E+00  0.00000000000E+00  0.13558306831E+04  0.13558306831E+04  0.50400001928E-02 0.  1.
       -1   -1    0    0    0  501  0.00000000000E+00  0.00000000000E+00 -0.81147236414E+03  0.81147236416E+03  0.50400001928E-02 0. -1.
    10030    2    1    2    0    0  0.00000000000E+00  0.00000000000E+00  0.54435831899E+03  0.21673030473E+04  0.20978266180E+04 0.  0.
        4    1    3    3  502    0 -0.24513805950E+03 -0.63191432600E+03 -0.55483776360E+03  0.87593089935E+03  0.12699999809E+01 0. -1.
       -4    1    3    3    0  502  0.24513805950E+03  0.63191432600E+03  0.10991960826E+04  0.12913721479E+04  0.12699999809E+01 0.  1.
</event>
<event>
 5   0  0.8237966E-05  0.2080258E+04  0.7818609E-02  0.8569990E-01
       -1   -1    0    0    0  501  0.00000000000E+00  0.00000000000E+00  0.96676177761E+03  0.96676177762E+03  0.50400001928E-02 0.  1.
        1   -1    0    0  501    0  0.00000000000E+00  0.00000000000E+00 -0.11190645657E+04  0.11190645657E+04  0.50400001928E-02 0. -1.
    10030    2    1    2    0    0  0.00000000000E+00  0.00000000000E+00 -0.15230278810E+03  0.20858263433E+04  0.20802584924E+04 0.  0.
        1    1    3    3  502    0  0.35872531265E+03 -0.80353835146E+03  0.47986968297E+03  0.10023136460E+04  0.50400001928E-02 0.  1.
       -1    1    3    3    0  502 -0.35872531265E+03  0.80353835146E+03 -0.63217247107E+03  0.10835126974E+04  0.50400001928E-02 0. -1.
</event>
<event>
 5   0  0.1921687E-04  0.2035341E+04  0.7818609E-02  0.8590274E-01
       -2   -1    0    0    0  501  0.00000000000E+00  0.00000000000E+00  0.50374675644E+03  0.50374675644E+03  0.25500000920E-02 0. -1.
        2   -1    0    0  501    0  0.00000000000E+00  0.00000000000E+00 -0.20558996003E+04  0.20558996003E+04  0.25500000920E-02 0.  1.
    10030    2    1    2    0    0  0.00000000000E+00  0.00000000000E+00 -0.15521528439E+04  0.25596463568E+04  0.20353405172E+04 0.  0.
        5    1    3    3  502    0  0.49536886334E+03  0.86225797548E+03 -0.10479962274E+04  0.14447135736E+04  0.46999998093E+01 0. -1.
       -5    1    3    3    0  502 -0.49536886334E+03 -0.86225797548E+03 -0.50415661644E+03  0.11149327832E+04  0.46999998093E+01 0.  1.
</event>
<event>
 5   0  0.8525278E-05  0.2095592E+04  0.7818609E-02  0.8563188E-01
       -1   -1    0    0    0  501  0.00000000000E+00  0.00000000000E+00  0.46620634951E+03  0.46620634954E+03  0.50400001928E-02 0.  1.
        1   -1    0    0  501    0  0.00000000000E+00  0.00000000000E+00 -0.23549146227E+04  0.23549146227E+04  0.50400001928E-02 0. -1.
    10030    2    1    2    0    0  0.00000000000E+00  0.00000000000E+00 -0.18887082732E+04  0.28211209723E+04  0.20955917061E+04 0.  0.
        4    1    3    3  502    0  0.65463699381E+03  0.32146511607E+03  0.68431529588E+02  0.73251204881E+03  0.12699999809E+01 0.  1.
       -4    1    3    3    0  502 -0.65463699381E+03 -0.32146511607E+03 -0.19571398028E+04  0.20886089234E+04  0.12699999809E+01 0. -1.
</event>
<event>
 5   0  0.8271069E-05  0.2071892E+04  0.7818609E-02  0.8573727E-01
        1   -1    0    0  501    0  0.00000000000E+00  0.00000000000E+00  0.12727922375E+04  0.12727922375E+04  0.50400001928E-02 0.  1.
       -1   -1    0    0    0  501  0.00000000000E+00  0.00000000000E+00 -0.84317272608E+03  0.84317272610E+03  0.50400001928E-02 0. -1.
    10030    2    1    2    0    0  0.00000000000E+00  0.00000000000E+00  0.42961951141E+03  0.21159649636E+04  0.20718916001E+04 0.  0.
        2    1    3    3  502    0  0.25409814998E+03  0.96306241860E+03  0.50569953137E+03  0.11170439150E+04  0.25500000920E-02 0. -1.
       -2    1    3    3    0  502 -0.25409814998E+03 -0.96306241860E+03 -0.76080019965E+02  0.99892104862E+03  0.25500000920E-02 0.  1.
</event>
<event>
 5   0  0.1815400E-04  0.2097060E+04  0.7818609E-02  0.8562540E-01
       -2   -1    0    0    0  501  0.00000000000E+00  0.00000000000E+00  0.44317511629E+03  0.44317511629E+03  0.25500000920E-02 0. -1.
        2   -1    0    0  501    0  0.00000000000E+00  0.00000000000E+00 -0.24807686794E+04  0.24807686794E+04  0.25500000920E-02 0.  1.
    10030    2    1    2    0    0  0.00000000000E+00  0.00000000000E+00 -0.20375935631E+04  0.29239437957E+04  0.20970597969E+04 0.  0.
        3    1    3    3  502    0  0.67203652750E+03 -0.72460460330E+03 -0.15072619438E+04  0.18023660846E+04  0.10100000352E+00 0.  1.
       -3    1    3    3    0  502 -0.67203652750E+03  0.72460460330E+03 -0.53033161929E+03  0.11215777111E+04  0.10100000352E+00 0. -1.
</event>
<event>
 5   0  0.1815400E-04  0.2149665E+04  0.7818609E-02  0.8539676E-01
       -2   -1    0    0    0  501  0.00000000000E+00  0.00000000000E+00  0.88254732998E+03  0.88254732999E+03  0.25500000920E-02 0.  1.
        2   -1    0    0  501    0  0.00000000000E+00  0.00000000000E+00 -0.13090121408E+04  0.13090121408E+04  0.25500000920E-02 0. -1.
    10030    2    1    2    0    0  0.00000000000E+00  0.00000000000E+00 -0.42646481079E+03  0.21915594708E+04  0.21496652481E+04 0.  0.
        3    1    3    3  502    0  0.54533683134E+03 -0.52315286544E+02  0.72952515171E+03  0.91232456176E+03  0.10100000352E+00 0.  1.
       -3    1    3    3    0  502 -0.54533683134E+03  0.52315286544E+02 -0.11559899625E+04  0.12792349090E+04  0.10100000352E+00 0. -1.
</event>
<event>
 5   0  0.8486612E-05  0.2128189E+04  0.7818609E-02  0.8548927E-01
        1   -1    0    0  501    0  0.00000000000E+00  0.00000000000E+00  0.12027170314E+04  0.12027170314E+04  0.50400001928E-02 0. -1.
       -1   -1    0    0    0  501  0.00000000000E+00  0.00000000000E+00 -0.94144935477E+03  0.94144935479E+03  0.50400001928E-02 0.  1.
    10030    2    1    2    0    0  0.00000000000E+00  0.00000000000E+00  0.26126767667E+03  0.21441663862E+04  0.21281890642E+04 0.  0.
        5    1    3    3  502    0  0.87614574053E+01 -0.90196898577E+03 -0.43809522303E+03  0.10027832911E+04  0.46999998093E+01 0.  1.
       -5    1    3    3    0  502 -0.87614574053E+01  0.90196898577E+03  0.69936289969E+03  0.11413830952E+04  0.46999998093E+01 0. -1.
</event>
<event>
 5   0  0.1921687E-04  0.2113892E+04  0.7818609E-02  0.8555148E-01
       -2   -1    0    0    0  501  0.00000000000E+00  0.00000000000E+00  0.13170097640E+04  0.13170097640E+04  0.25500000920E-02 0. -1.
        2   -1    0    0  501    0  0.00000000000E+00  0.00000000000E+00 -0.84823568453E+03  0.84823568454E+03  0.25500000920E-02 0.  1.
    10030    2    1    2    0    0  0.00000000000E+00  0.00000000000E+00  0.46877407946E+03  0.21652454485E+04  0.21138918408E+04 0.  0.
        5    1    3    3  502    0  0.35469983763E+03 -0.85453440198E+03 -0.28897734114E+03  0.96931471291E+03  0.46999998093E+01 0.  1.
       -5    1    3    3    0  502 -0.35469983763E+03  0.85453440198E+03  0.75775142060E+03  0.11959307356E+04  0.46999998093E+01 0. -1.
</event>
<event>
 5   0  0.1815400E-04  0.2087648E+04  0.7818609E-02  0.8566704E-01
       -2   -1    0    0    0  501  0.00000000000E+00  0.00000000000E+00  0.87466764760E+03  0.87466764761E+03  0.25500000920E-02 0. -1.
        2   -1    0    0  501    0  0.00000000000E+00  0.00000000000E+00 -0.12456940734E+04  0.12456940734E+04  0.25500000920E-02 0.  1.
    10030    2    1    2    0    0  0.00000000000E+00  0.00000000000E+00 -0.37102642580E+03  0.21203617210E+04  0.20876477718E+04 0.  0.
        3    1    3    3  502    0  0.30565012243E+03 -0.60944501808E+03  0.61726670548E+03  0.91970833600E+03  0.10100000352E+00 0. -1.
       -3    1    3    3    0  502 -0.30565012243E+03  0.60944501808E+03 -0.98829313128E+03  0.12006533850E+04  0.10100000352E+00 0.  1.
</event>
<event>
 5   0  0.8755004E-05  0.2074451E+04  0.7818609E-02  0.8572582E-01
       -1   -1    0    0    0  501  0.00000000000E+00  0.00000000000E+00  0.67976628045E+03  0.67976628047E+03  0.50400001928E-02 0. -1.
        1   -1    0    0  501    0  0.00000000000E+00  0.00000000000E+00 -0.15826560995E+04  0.15826560995E+04  0.50400001928E-02 0.  1.
    10030    2    1    2    0    0  0.00000000000E+00  0.00000000000E+00 -0.90288981906E+03  0.22624223800E+04  0.20744505297E+04 0.  0.
        3    1    3    3  502    0 -0.75163316545E+03 -0.48661654571E+03  0.11952831784E+03  0.90334661506E+03  0.10100000352E+00 0. -1.
       -3    1    3    3    0  502  0.75163316545E+03  0.48661654571E+03 -0.10224181369E+04  0.13590757649E+04  0.10100000352E+00 0.  1.
</event>
<event>
 5   0  0.8755004E-05  0.2110848E+04  0.7818609E-02  0.8556480E-01
        1   -1    0    0  501    0  0.00000000000E+00  0.00000000000E+00  0.21256710754E+04  0.21256710754E+04  0.50400001928E-02 0.  1.
       -1   -1    0    0    0  501  0.00000000000E+00  0.00000000000E+00 -0.52403200468E+03  0.52403200471E+03  0.50400001928E-02 0. -1.
    10030    2    1    2    0    0  0.00000000000E+00  0.00000000000E+00  0.16016390707E+04  0.26497030801E+04  0.21108478628E+04 0.  0.
        3    1    3    3  502    0  0.64640755076E+02  0.68934609557E+03 -0.19911340185E+03  0.72043224782E+03  0.10100000352E+00 0. -1.
       -3    1    3    3    0  502 -0.64640755076E+02 -0.68934609557E+03  0.18007524726E+04  0.19292708323E+04  0.10100000352E+00 0.  1.
</event>
<event>
 5   0  0.8525278E-05  0.2193885E+04  0.7818609E-02  0.8520978E-01
        1   -1    0    0  501    0  0.00000000000E+00  0.00000000000E+00  0.18695162322E+04  0.18695162322E+04  0.50400001928E-02 0.  1.
       -1   -1    0    0    0  501  0.00000000000E+00  0.00000000000E+00 -0.64363300586E+03  0.64363300588E+03  0.50400001928E-02 0. -1.
    10030    2    1    2    0    0  0.00000000000E+00  0.00000000000E+00  0.12258832264E+04  0.25131492381E+04  0.21938845476E+04 0.  0.
        4    1    3    3  502    0  0.20555995595E+03 -0.89394274562E+03  0.13020604603E+04  0.15927183000E+04  0.12699999809E+01 0.  1.
       -4    1    3    3    0  502 -0.20555995595E+03  0.89394274562E+03 -0.76177233955E+02  0.92043093810E+03  0.12699999809E+01 0. -1.
</event>
<event>
 5   0  0.1810875E-04  0.2074435E+04  0.7818609E-02  0.8572589E-01
        2   -1    0    0  501    0  0.00000000000E+00  0.00000000000E+00  0.15487141653E+04  0.15487141653E+04  0.25500000920E-02 0.  1.
       -2   -1    0    0    0  501  0.00000000000E+00  0.00000000000E+00 -0.69465364204E+03  0.69465364204E+03  0.25500000920E-02 0. -1.
    10030    2    1    2    0    0  0.00000000000E+00  0.00000000000E+00  0.85406052325E+03  0.22433678073E+04  0.20744348005E+04 0.  0.
        1    1    3    3  502    0 -0.38448945480E+03 -0.80012989752E+03 -0.15310725822E+03  0.90082286067E+03  0.50400001928E-02 0. -1.
       -1    1    3    3    0  502  0.38448945480E+03  0.80012989752E+03  0.10071677815E+04  0.13425449467E+04  0.50400001928E-02 0.  1.
</event>
<event>
 5   0  0.6441125E-05  0.2065749E+04  0.7818609E-02  0.8576483E-01
       -4   -1    0    0    0  501  0.00000000000E+00  0.00000000000E+00  0.13498077384E+04  0.13498083359E+04  0.12699999809E+01 0.  1.
        4   -1    0    0  501    0  0.00000000000E+00  0.00000000000E+00 -0.79035531058E+03  0.79035633094E+03  0.12699999809E+01 0. -1.
    10030    2    1    2    0    0  0.00000000000E+00  0.00000000000E+00  0.55945242786E+03  0.21401646668E+04  0.20657487219E+04 0.  0.
        5    1    3    3  502    0 -0.93398774080E+03  0.27010428437E+03 -0.81425666536E+02  0.97567497332E+03  0.46999998093E+01 0. -1.
       -5    1    3    3    0  502  0.93398774080E+03 -0.27010428437E+03  0.64087809440E+03  0.11644896935E+04  0.46999998093E+01 0.  1.
</event>
<event>
 5   0  0.1886323E-04  0.2075141E+04  0.7818609E-02  0.8572274E-01
        2   -1    0    0  501    0  0.00000000000E+00  0.00000000000E+00  0.11448697366E+04  0.11448697366E+04  0.25500000920E-02 0. -1.
       -2   -1    0    0    0  501  0.00000000000E+00  0.00000000000E+00 -0.94032784776E+03  0.94032784776E+03  0.25500000920E-02 0.  1.
    10030    2    1    2    0    0  0.00000000000E+00  0.00000000000E+00  0.20454188881E+03  0.20851975843E+04  0.20751413401E+04 0.  0.
        2    1    3    3  502    0 -0.69723607257E+03 -0.50573493699E+03 -0.47901918984E+03  0.98557868870E+03  0.25500000920E-02 0.  1.
       -2    1    3    3    0  502  0.69723607257E+03  0.50573493699E+03  0.68356107865E+03  0.10996188956E+04  0.25500000920E-02 0. -1.
</event>
<event>
 5   0  0.1815400E-04  0.2037873E+04  0.7818609E-02  0.8589116E-01
       -2   -1    0    0    0  501  0.00000000000E+00  0.00000000000E+00  0.61512878126E+03  0.61512878126E+03  0.25500000920E-02 0. -1.
        2   -1    0    0  501    0  0.00000000000E+00  0.00000000000E+00 -0.16878286310E+04  0.16878286310E+04  0.25500000920E-02 0.  1.
    10030    2    1    2    0    0  0.00000000000E+00  0.00000000000E+00 -0.10726998497E+04  0.23029574123E+04  0.20378733707E+04 0.  0.
        3    1    3    3  502    0 -0.48103747323E+03 -0.87902163436E+03 -0.32749658949E+03  0.10541964289E+04  0.10100000352E+00 0. -1.
       -3    1    3    3    0  502  0.48103747323E+03  0.87902163436E+03 -0.74520326025E+03  0.12487609834E+04  0.10100000352E+00 0.  1.
</event>
<event>
 5   0  0.8271069E-05  0.2083947E+04  0.7818609E-02  0.8568348E-01
       -1   -1    0    0    0  501  0.00000000000E+00  0.00000000000E+00  0.84914846200E+03  0.84914846201E+03  0.50400001928E-02 0.  1.
        1   -1    0    0  501    0  0.00000000000E+00  0.00000000000E+00 -0.12785852164E+04  0.12785852164E+04  0.50400001928E-02 0. -1.
    10030    2    1    2    0    0  0.00000000000E+00  0.00000000000E+00 -0.42943675442E+03  0.21277336784E+04  0.20839468996E+04 0.  0.
        2    1    3    3  502    0 -0.23699771624E+03  0.10140501805E+04 -0.17872161792E+03  0.10566016765E+04  0.25500000920E-02 0. -1.
       -2    1    3    3    0  502  0.23699771624E+03 -0.10140501805E+04 -0.25071513649E+03  0.10711320020E+04  0.25500000920E-02 0.  1.
</event>
<event>
 5   0  0.8237966E-05  0.2127118E+04  0.7818609E-02  0.8549391E-01
        1   -1    0    0  501    0  0.00000000000E+00  0.00000000000E+00  0.22610404535E+04  0.22610404535E+04  0.50400001928E-02 0.  1.
       -1   -1    0    0    0  501  0.00000000000E+00  0.00000000000E+00 -0.50028206126E+03  0.50028206128E+03  0.50400001928E-02 0. -1.
    10030    2    1    2    0    0  0.00000000000E+00  0.00000000000E+00  0.17607583923E+04  0.27613225148E+04  0.21271182184E+04 0.  0.
        1    1    3    3  502    0  0.95444341591E+03  0.33714610928E+03  0.45667975229E+03  0.11104891397E+04  0.50400001928E-02 0.  1.
       -1    1    3    3    0  502 -0.95444341591E+03 -0.33714610928E+03  0.13040786400E+04  0.16508333751E+04  0.50400001928E-02 0. -1.
</event>
<event>
 5   0  0.1815400E-04  0.2106101E+04  0.7818609E-02  0.8558560E-01
       -2   -1    0    0    0  501  0.00000000000E+00  0.00000000000E+00  0.45526958359E+03  0.45526958360E+03  0.25500000920E-02 0.  1.
        2   -1    0    0  501    0  0.00000000000E+00  0.00000000000E+00 -0.24357344540E+04  0.24357344540E+04  0.25500000920E-02 0. -1.
    10030    2    1    2    0    0  0.00000000000E+00  0.00000000000E+00 -0.19804648704E+04  0.28910040376E+04  0.21061014321E+04 0.  0.
        3    1    3    3  502    0  0.17663743194E+03 -0.47854907372E+03  0.27435248990E+03  0.57920574689E+03  0.10100000352E+00 0.  1.
       -3    1    3    3    0  502 -0.17663743194E+03  0.47854907372E+03 -0.22548173603E+04  0.23117982907E+04  0.10100000352E+00 0. -1.
</event>
<event>
 5   0  0.1921687E-04  0.2108769E+04  0.7818609E-02  0.8557390E-01
       -2   -1    0    0    0  501  0.00000000000E+00  0.00000000000E+00  0.63038928077E+03  0.63038928077E+03  0.25500000920E-02 0. -1.
        2   -1    0    0  501    0  0.00000000000E+00  0.00000000000E+00 -0.17635558716E+04  0.17635558716E+04  0.25500000920E-02 0.  1.
    10030    2    1    2    0    0  0.00000000000E+00  0.00000000000E+00 -0.11331665908E+04  0.23939451523E+04  0.21087690414E+04 0.  0.
        5    1    3    3  502    0 -0.25500266120E+03  0.89974537227E+03 -0.11194041451E+04  0.14586486287E+04  0.46999998093E+01 0.  1.
       -5    1    3    3    0  502  0.25500266120E+03 -0.89974537227E+03 -0.13762445728E+02  0.93529652359E+03  0.46999998093E+01 0. -1.
</event>
<event>
 5   0  0.8755004E-05  0.2090711E+04  0.7818609E-02  0.8565346E-01
       -1   -1    0    0    0  501  0.00000000000E+00  0.00000000000E+00  0.69961543279E+03  0.69961543281E+03  0.50400001928E-02 0. -1.
        1   -1    0    0  501    0  0.00000000000E+00  0.00000000000E+00 -0.15619552640E+04  0.15619552640E+04  0.50400001928E-02 0.  1.
    10030    2    1    2    0    0  0.00000000000E+00  0.00000000000E+00 -0.86233983122E+03  0.22615706968E+04  0.20907108916E+04 0.  0.
        3    1    3    3  502    0  0.33596526084E+02  0.20778510697E+03  0.67645591888E+03  0.70844618541E+03  0.10100000352E+00 0. -1.
       -3    1    3    3    0  502 -0.33596526084E+02 -0.20778510697E+03 -0.15387957501E+04  0.15531245114E+04  0.10100000352E+00 0.  1.
</event>
<event>
 5   0  0.8525278E-05  0.2092495E+04  0.7818609E-02  0.8564556E-01
        1   -1    0    0  501    0  0.00000000000E+00  0.00000000000E+00  0.15638486608E+04  0.15638486608E+04  0.50400001928E-02 0. -1.
       -1   -1    0    0    0  501  0.00000000000E+00  0.00000000000E+00 -0.69996166641E+03  0.69996166643E+03  0.50400001928E-02 0.  1.
    10030    2    1    2    0    0  0.00000000000E+00  0.00000000000E+00  0.86388699441E+03  0.22638103273E+04  0.20924952709E+04 0.  0.
        4    1    3    3  502    0 -0.35802106431E+03 -0.89412783395E+03 -0.10155235691E+02  0.96319697241E+03  0.12699999809E+01 0.  1.
       -4    1    3    3    0  502  0.35802106431E+03  0.89412783395E+03  0.87404223010E+03  0.13006133549E+04  0.12699999809E+01 0. -1.
</event>
<event>
 5   0  0.8271069E-05  0.2078247E+04  0.7818609E-02  0.8570887E-01
        1   -1    0    0  501    0  0.00000000000E+00  0.00000000000E+00  0.14311608588E+04  0.14311608588E+04  0.50400001928E-02 0. -1.
       -1   -1    0    0    0  501  0.00000000000E+00  0.00000000000E+00 -0.75447700197E+03  0.75447700199E+03  0.50400001928E-02 0.  1.
    10030    2    1    2    0    0  0.00000000000E+00  0.00000000000E+00  0.67668385685E+03  0.21856378608E+04  0.20782472944E+04 0.  0.
        2    1    3    3  502    0  0.40953139289E+03 -0.26545215861E+03 -0.62644877018E+03  0.79411515030E+03  0.25500000920E-02 0.  1.
       -2    1    3    3    0  502 -0.40953139289E+03  0.26545215861E+03  0.13031326270E+04  0.13915227105E+04  0.25500000920E-02 0. -1.
</event>
<event>
 5   0  0.1777590E-04  0.2050566E+04  0.7818609E-02  0.8583338E-01
        2   -1    0    0  501    0  0.00000000000E+00  0.00000000000E+00  0.14551458861E+04  0.14551458861E+04  0.25500000920E-02 0.  1.
       -2   -1    0    0    0  501  0.00000000000E+00  0.00000000000E+00 -0.72240556684E+03  0.72240556685E+03  0.25500000920E-02 0. -1.
    10030    2    1    2    0    0  0.00000000000E+00  0.00000000000E+00  0.73274031929E+03  0.21775514530E+04  0.20505662522E+04 0.  0.
        4    1    3    3  502    0 -0.18757393816E+03 -0.69741770487E+03 -0.40645324915E+03  0.82872268823E+03  0.12699999809E+01 0. -1.
       -4    1    3    3    0  502  0.18757393816E+03  0.69741770487E+03  0.11391935684E+04  0.13488287647E+04  0.12699999809E+01 0.  1.
</event>
<event>
 5   0  0.8486612E-05  0.2188563E+04  0.7818609E-02  0.8523203E-01
        1   -1    0    0  501    0  0.00000000000E+00  0.00000000000E+00  0.16779383171E+04  0.16779383171E+04  0.50400001928E-02 0.  1.
       -1   -1    0    0    0  501  0.00000000000E+00  0.00000000000E+00 -0.71364502251E+03  0.71364502253E+03  0.50400001928E-02 0. -1.
    10030    2    1    2    0    0  0.00000000000E+00  0.00000000000E+00  0.96429329462E+03  0.23915833397E+04  0.21885632987E+04 0.  0.
        5    1    3    3  502    0 -0.39564732009E+03  0.32535515528E+03  0.15388203814E+04  0.16218455646E+04  0.46999998093E+01 0.  1.
       -5    1    3    3    0  502  0.39564732009E+03 -0.32535515528E+03 -0.57452708681E+03  0.76973777511E+03  0.46999998093E+01 0. -1.
</event>
<event>
 5   0  0.1921687E-04  0.1815504E+04  0.7818609E-02  0.8698098E-01
        2   -1    0    0  501    0  0.00000000000E+00  0.00000000000E+00  0.76399290716E+03  0.76399290716E+03  0.25500000920E-02 0.  1.
       -2   -1    0    0    0  501  0.00000000000E+00  0.00000000000E+00 -0.10785619809E+04  0.10785619809E+04  0.25500000920E-02 0. -1.
    10030    2    1    2    0    0  0.00000000000E+00  0.00000000000E+00 -0.31456907375E+03  0.18425548881E+04  0.18155040108E+04 0.  0.
        5    1    3    3  502    0  0.47810670495E+03 -0.28187209314E+03  0.57171725070E+03  0.79681905283E+03  0.46999998093E+01 0.  1.
       -5    1    3    3    0  502 -0.47810670495E+03  0.28187209314E+03 -0.88628632445E+03  0.10457358352E+04  0.46999998093E+01 0. -1.
</event>
<event>
 5   0  0.8271069E-05  0.2049260E+04  0.7818609E-02  0.8583930E-01
        1   -1    0    0  501    0  0.00000000000E+00  0.00000000000E+00  0.64659051398E+03  0.64659051400E+03  0.50400001928E-02 0. -1.
       -1   -1    0    0    0  501  0.00000000000E+00  0.00000000000E+00 -0.16236961727E+04  0.16236961727E+04  0.50400001928E-02 0.  1.
    10030    2    1    2    0    0  0.00000000000E+00  0.00000000000E+00 -0.97710565869E+03  0.22702866867E+04  0.20492599082E+04 0.  0.
        2    1    3    3  502    0  0.82599842110E+03  0.12921387310E+03 -0.11448090615E+04  0.14175885877E+04  0.25500000920E-02 0. -1.
       -2    1    3    3    0  502 -0.82599842110E+03 -0.12921387310E+03  0.16770340284E+03  0.85269809897E+03  0.25500000920E-02 0.  1.
</event>
<event>
 5   0  0.1810875E-04  0.2012891E+04  0.7818609E-02  0.8600617E-01
       -2   -1    0    0    0  501  0.00000000000E+00  0.00000000000E+00  0.59279625952E+03  0.59279625953E+03  0.25500000920E-02 0.  1.
        2   -1    0    0  501    0  0.00000000000E+00  0.00000000000E+00 -0.17087368688E+04  0.17087368688E+04  0.25500000920E-02 0. -1.
    10030    2    1    2    0    0  0.00000000000E+00  0.00000000000E+00 -0.11159406092E+04  0.23015331283E+04  0.20128912781E+04 0.  0.
        1    1    3    3  502    0 -0.20095340358E+03 -0.40108753710E+03 -0.15880934821E+04  0.16502407069E+04  0.50400001928E-02 0. -1.
       -1    1    3    3    0  502  0.20095340358E+03  0.40108753710E+03  0.47215287283E+03  0.65129242141E+03  0.50400001928E-02 0.  1.
</event>
<event>
 5   0  0.8486612E-05  0.2125379E+04  0.7818609E-02  0.8550145E-01
       -1   -1    0    0    0  501  0.00000000000E+00  0.00000000000E+00  0.80064456211E+03  0.80064456213E+03  0.50400001928E-02 0. -1.
        1   -1    0    0  501    0  0.00000000000E+00  0.00000000000E+00 -0.14104999848E+04  0.14104999848E+04  0.50400001928E-02 0.  1.
    10030    2    1    2    0    0  0.00000000000E+00  0.00000000000E+00 -0.60985542267E+03  0.22111445469E+04  0.21253791593E+04 0.  0.
        5    1    3    3  502    0  0.27755789981E+03  0.10138008198E+04 -0.14223113076E+03  0.10606989557E+04  0.46999998093E+01 0. -1.
       -5    1    3    3    0  502 -0.27755789981E+03 -0.10138008198E+04 -0.46762429191E+03  0.11504455912E+04  0.46999998093E+01 0.  1.
</event>
<event>
 5   0  0.8271069E-05  0.2070714E+04  0.7818609E-02  0.8574255E-01
       -1   -1    0    0    0  501  0.00000000000E+00  0.00000000000E+00  0.77684037764E+03  0.77684037766E+03  0.50400001928E-02 0. -1.
        1   -1    0    0  501    0  0.00000000000E+00  0.00000000000E+00 -0.13799027708E+04  0.13799027708E+04  0.50400001928E-02 0.  1.
    10030    2    1    2    0    0  0.00000000000E+00  0.00000000000E+00 -0.60306239316E+03  0.21567431485E+04  0.20707140697E+04 0.  0.
        2    1    3    3  502    0  0.80510347555E+03 -0.40165945096E+03 -0.83510584192E+03  0.12275682010E+04  0.25500000920E-02 0.  1.
       -2    1    3    3    0  502 -0.80510347555E+03  0.40165945096E+03  0.23204344876E+03  0.92917494747E+03  0.25500000920E-02 0. -1.
</event>
<event>
 5   0  0.1886323E-04  0.2266127E+04  0.7818609E-02  0.8491398E-01
       -2   -1    0    0    0  501  0.00000000000E+00  0.00000000000E+00  0.88940554271E+03  0.88940554271E+03  0.25500000920E-02 0. -1.
        2   -1    0    0  501    0  0.00000000000E+00  0.00000000000E+00 -0.14434732430E+04  0.14434732430E+04  0.25500000920E-02 0.  1.
    10030    2    1    2    0    0  0.00000000000E+00  0.00000000000E+00 -0.55406770025E+03  0.23328787857E+04  0.22661271836E+04 0.  0.
        2    1    3    3  502    0 -0.10935227409E+04  0.29582219854E+03 -0.25332627488E+03  0.11608087524E+04  0.25500000920E-02 0. -1.
       -2    1    3    3    0  502  0.10935227409E+04 -0.29582219854E+03 -0.30074142537E+03  0.11720700333E+04  0.25500000920E-02 0.  1.
</event>
<event>
 5   0  0.1886323E-04  0.2073749E+04  0.7818609E-02  0.8572896E-01
       -2   -1    0    0    0  501  0.00000000000E+00  0.00000000000E+00  0.15254104059E+04  0.15254104059E+04  0.25500000920E-02 0.  1.
        2   -1    0    0  501    0  0.00000000000E+00  0.00000000000E+00 -0.70479998863E+03  0.70479998864E+03  0.25500000920E-02 0. -1.
    10030    2    1    2    0    0  0.00000000000E+00  0.00000000000E+00  0.82061041725E+03  0.22302103945E+04  0.20737494899E+04 0.  0.
        2    1    3    3  502    0 -0.36491766267E+03  0.94541554778E+03  0.64625224115E+03  0.12019223842E+04  0.25500000920E-02 0. -1.
       -2    1    3    3    0  502  0.36491766267E+03 -0.94541554778E+03  0.17435817609E+03  0.10282880103E+04  0.25500000920E-02 0.  1.
</event>
<event>
 5   0  0.1777590E-04  0.2106093E+04  0.7818609E-02  0.8558564E-01
        2   -1    0    0  501    0  0.00000000000E+00  0.00000000000E+00  0.81144970949E+03  0.81144970949E+03  0.25500000920E-02 0. -1.
       -2   -1    0    0    0  501  0.00000000000E+00  0.00000000000E+00 -0.13665747953E+04  0.13665747953E+04  0.25500000920E-02 0.  1.
    10030    2    1    2    0    0  0.00000000000E+00  0.00000000000E+00 -0.55512508580E+03  0.21780245048E+04  0.21060928001E+04 0.  0.
        4    1    3    3  502    0  0.30514954293E+03 -0.94004727478E+03  0.98306573466E+02  0.99321242323E+03  0.12699999809E+01 0. -1.
       -4    1    3    3    0  502 -0.30514954293E+03  0.94004727478E+03 -0.65343165927E+03  0.11848120816E+04  0.12699999809E+01 0.  1.
</event>
<event>
 5   0  0.1886323E-04  0.2090382E+04  0.7818609E-02  0.8565492E-01
       -2   -1    0    0    0  501  0.00000000000E+00  0.00000000000E+00  0.67341710740E+03  0.67341710741E+03  0.25500000920E-02 0. -1.
        2   -1    0    0  501    0  0.00000000000E+00  0.00000000000E+00 -0.16222098198E+04  0.16222098198E+04  0.25500000920E-02 0.  1.
    10030    2    1    2    0    0  0.00000000000E+00  0.00000000000E+00 -0.94879271237E+03  0.22956269272E+04  0.20903816345E+04 0.  0.
        2    1    3    3  502    0  0.49464946774E+03 -0.67481859779E+03 -0.11622898408E+04  0.14321228683E+04  0.25500000920E-02 0.  1.
       -2    1    3    3    0  502 -0.49464946774E+03  0.67481859779E+03  0.21349712844E+03  0.86350405889E+03  0.25500000920E-02 0. -1.
</event>
<event>
 5   0  0.1886323E-04  0.1983693E+04  0.7818609E-02  0.8614283E-01
        2   -1    0    0  501    0  0.00000000000E+00  0.00000000000E+00  0.13202315199E+04  0.13202315199E+04  0.25500000920E-02 0. -1.
       -2   -1    0    0    0  501  0.00000000000E+00  0.00000000000E+00 -0.74514167662E+03  0.74514167663E+03  0.25500000920E-02 0.  1.
    10030    2    1    2    0    0  0.00000000000E+00  0.00000000000E+00  0.57508984331E+03  0.20653731966E+04  0.19836930491E+04 0.  0.
        2    1    3    3  502    0  0.33262964976E+03  0.75716262005E+03 -0.28256116377E+03  0.87394423643E+03  0.25500000920E-02 0.  1.
       -2    1    3    3    0  502 -0.33262964976E+03 -0.75716262005E+03  0.85765100708E+03  0.11914289601E+04  0.25500000920E-02 0. -1.
</event>
<event>
 5   0  0.1815400E-04  0.2141137E+04  0.7818609E-02  0.8543336E-01
        2   -1    0    0  501    0  0.00000000000E+00  0.00000000000E+00  0.18914569443E+04  0.18914569443E+04  0.25500000920E-02 0. -1.
       -2   -1    0    0    0  501  0.00000000000E+00  0.00000000000E+00 -0.60594376240E+03  0.60594376241E+03  0.25500000920E-02 0.  1.
    10030    2    1    2    0    0  0.00000000000E+00  0.00000000000E+00  0.12855131819E+04  0.24974007067E+04  0.21411366489E+04 0.  0.
        3    1    3    3  502    0 -0.99331628100E+03  0.93957437887E+02  0.10954171061E+04  0.14817030340E+04  0.10100000352E+00 0.  1.
       -3    1    3    3    0  502  0.99331628100E+03 -0.93957437887E+02  0.19009607580E+03  0.10156976728E+04  0.10100000352E+00 0. -1.
</event>
<event>
 5   0  0.8525278E-05  0.2097991E+04  0.7818609E-02  0.8562129E-01
        1   -1    0    0  501    0  0.00000000000E+00  0.00000000000E+00  0.10001018736E+04  0.10001018737E+04  0.50400001928E-02 0.  1.
       -1   -1    0    0    0  501  0.00000000000E+00  0.00000000000E+00 -0.11002793620E+04  0.11002793620E+04  0.50400001928E-02 0. -1.
    10030    2    1    2    0    0  0.00000000000E+00  0.00000000000E+00 -0.10017748839E+03  0.21003812357E+04  0.20979908975E+04 0.  0.
        4    1    3    3  502    0 -0.90950890061E+03 -0.40542818383E+03 -0.38033028464E+03  0.10659414575E+04  0.12699999809E+01 0. -1.
       -4    1    3    3    0  502  0.90950890061E+03  0.40542818383E+03  0.28015279625E+03  0.10344397782E+04  0.12699999809E+01 0.  1.
</event>
<event>
 5   0  0.8237966E-05  0.2186446E+04  0.7818609E-02  0.8524091E-01
       -1   -1    0    0    0  501  0.00000000000E+00  0.00000000000E+00  0.13544973435E+04  0.13544973436E+04  0.50400001928E-02 0.  1.
        1   -1    0    0  501    0  0.00000000000E+00  0.00000000000E+00 -0.88234656742E+03  0.88234656743E+03  0.50400001928E-02 0. -1.
    10030    2    1    2    0    0  0.00000000000E+00  0.00000000000E+00  0.47215077613E+03  0.22368439110E+04  0.21864455920E+04 0.  0.
        1    1    3    3  502    0  0.88025552490E+02 -0.67522292957E+03 -0.63889380991E+03  0.93373433206E+03  0.50400001928E-02 0. -1.
       -1    1    3    3    0  502 -0.88025552490E+02  0.67522292957E+03  0.11110445860E+04  0.13031095789E+04  0.50400001928E-02 0.  1.
</event>
<event>
 5   0  0.8755004E-05  0.2092704E+04  0.7818609E-02  0.8564464E-01
        1   -1    0    0  501    0  0.00000000000E+00  0.00000000000E+00  0.19878802324E+04  0.19878802324E+04  0.50400001928E-02 0.  1.
       -1   -1    0    0    0  501  0.00000000000E+00  0.00000000000E+00 -0.55076388673E+03  0.55076388675E+03  0.50400001928E-02 0. -1.
    10030    2    1    2    0    0  0.00000000000E+00  0.00000000000E+00  0.14371163456E+04  0.25386441191E+04  0.20927041293E+04 0.  0.
        3    1    3    3  502    0 -0.31087365304E+03  0.83833585063E+03  0.59230058870E+02  0.89607903484E+03  0.10100000352E+00 0. -1.
       -3    1    3    3    0  502  0.31087365304E+03 -0.83833585063E+03  0.13778862868E+04  0.16425650843E+04  0.10100000352E+00 0.  1.
</event>
<event>
 5   0  0.8271069E-05  0.2060252E+04  0.7818609E-02  0.8578957E-01
       -1   -1    0    0    0  501  0.00000000000E+00  0.00000000000E+00  0.74099954540E+03  0.74099954542E+03  0.50400001928E-02 0. -1.
        1   -1    0    0  501    0  0.00000000000E+00  0.00000000000E+00 -0.14320657055E+04  0.14320657055E+04  0.50400001928E-02 0.  1.
    10030    2    1    2    0    0  0.00000000000E+00  0.00000000000E+00 -0.69106616006E+03  0.21730652509E+04  0.20602524474E+04 0.  0.
        2    1    3    3  502    0 -0.54568901446E+03 -0.53022549834E+03  0.38693035732E+03  0.85359866507E+03  0.25500000920E-02 0. -1.
       -2    1    3    3    0  502  0.54568901446E+03  0.53022549834E+03 -0.10779965174E+04  0.13194665858E+04  0.25500000920E-02 0.  1.
</event>
<event>
 5   0  0.8755004E-05  0.2046470E+04  0.7818609E-02  0.8585197E-01
        1   -1    0    0  501    0  0.00000000000E+00  0.00000000000E+00  0.40170942368E+03  0.40170942371E+03  0.50400001928E-02 0. -1.
       -1   -1    0    0    0  501  0.00000000000E+00  0.00000000000E+00 -0.26063857691E+04  0.26063857691E+04  0.50400001928E-02 0.  1.
    10030    2    1    2    0    0  0.00000000000E+00  0.00000000000E+00 -0.22046763454E+04  0.30080951928E+04  0.20464698632E+04 0.  0.
        3    1    3    3  502    0  0.20940799182E+03  0.28790463146E+03  0.30774133851E+03  0.47057998840E+03  0.10100000352E+00 0. -1.
       -3    1    3    3    0  502 -0.20940799182E+03 -0.28790463146E+03 -0.25124176840E+04  0.25375152044E+04  0.10100000352E+00 0.  1.
</event>
<event>
 5   0  0.1777590E-04  0.2119630E+04  0.7818609E-02  0.8552645E-01
        2   -1    0    0  501    0  0.00000000000E+00  0.00000000000E+00  0.12650850378E+04  0.12650850378E+04  0.25500000920E-02 0.  1.
       -2   -1    0    0    0  501  0.00000000000E+00  0.00000000000E+00 -0.88785171585E+03  0.88785171585E+03  0.25500000920E-02 0. -1.
    10030    2    1    2    0    0  0.00000000000E+00  0.00000000000E+00  0.37723332199E+03  0.21529367537E+04  0.21196300824E+04 0.  0.
        4    1    3    3  502    0 -0.29661588193E+03  0.82738610282E+03  0.79008504416E+03  0.11818564779E+04  0.12699999809E+01 0.  1.
       -4    1    3    3    0  502  0.29661588193E+03 -0.82738610282E+03 -0.41285172216E+03  0.97108027575E+03  0.12699999809E+01 0. -1.
</event>
<event>
 5   0  0.1777590E-04  0.1732359E+04  0.7818609E-02  0.8743121E-01
        2   -1    0    0  501    0  0.00000000000E+00  0.00000000000E+00  0.96796822896E+03  0.96796822896E+03  0.25500000920E-02 0.  1.
       -2   -1    0    0    0  501  0.00000000000E+00  0.00000000000E+00 -0.77509469833E+03  0.77509469833E+03  0.25500000920E-02 0. -1.
    10030    2    1    2    0    0  0.00000000000E+00  0.00000000000E+00  0.19287353063E+03  0.17430629273E+04  0.17323591342E+04 0.  0.
        4    1    3    3  502    0 -0.68993752860E+03 -0.51014763447E+03 -0.22620275914E+02  0.85835755493E+03  0.12699999809E+01 0.  1.
       -4    1    3    3    0  502  0.68993752860E+03  0.51014763447E+03  0.21549380654E+03  0.88470537236E+03  0.12699999809E+01 0. -1.
</event>
<event>
 5   0  0.1886323E-04  0.2037593E+04  0.7818609E-02  0.8589244E-01
        2   -1    0    0  501    0  0.00000000000E+00  0.00000000000E+00  0.52195892593E+03  0.52195892593E+03  0.25500000920E-02 0. -1.
       -2   -1    0    0    0  501  0.00000000000E+00  0.00000000000E+00 -0.19885592616E+04  0.19885592616E+04  0.25500000920E-02 0.  1.
    10030    2    1    2    0    0  0.00000000000E+00  0.00000000000E+00 -0.14666003357E+04  0.25105181876E+04  0.20375929489E+04 0.  0.
        2    1    3    3  502    0  0.19660910179E+03  0.96033598253E+03 -0.10752959582E+04  0.14550469875E+04  0.25500000920E-02 0.  1.
       -2    1    3    3    0  502 -0.19660910179E+03 -0.96033598253E+03 -0.39130437755E+03  0.10554712001E+04  0.25500000920E-02 0. -1.
</event>
<event>
 5   0  0.6441125E-05  0.2189468E+04  0.7818609E-02  0.8522825E-01
       -3   -1    0    0    0  501  0.00000000000E+00  0.00000000000E+00  0.12943835492E+04  0.12943835532E+04  0.10100000352E+00 0. -1.
        3   -1    0    0  501    0  0.00000000000E+00  0.00000000000E+00 -0.92587861414E+03  0.92587861965E+03  0.10100000352E+00 0.  1.
    10030    2    1    2    0    0  0.00000000000E+00  0.00000000000E+00  0.36850493509E+03  0.22202621728E+04  0.21894675675E+04 0.  0.
        4    1    3    3  502    0 -0.70870139850E+03 -0.77194218155E+02  0.10267346337E+04  0.12499608956E+04  0.12699999809E+01 0. -1.
       -4    1    3    3    0  502  0.70870139850E+03  0.77194218155E+02 -0.65822969862E+03  0.97030127723E+03  0.12699999809E+01 0.  1.
</event>
<event>
 5   0  0.8525278E-05  0.2017628E+04  0.7818609E-02  0.8598423E-01
        1   -1    0    0  501    0  0.00000000000E+00  0.00000000000E+00  0.81825207748E+03  0.81825207749E+03  0.50400001928E-02 0.  1.
       -1   -1    0    0    0  501  0.00000000000E+00  0.00000000000E+00 -0.12437557538E+04  0.12437557538E+04  0.50400001928E-02 0. -1.
    10030    2    1    2    0    0  0.00000000000E+00  0.00000000000E+00 -0.42550367630E+03  0.20620078313E+04  0.20176280425E+04 0.  0.
        4    1    3    3  502    0 -0.49180048437E+03 -0.86266366018E+03 -0.39456320544E+03  0.10685214284E+04  0.12699999809E+01 0. -1.
       -4    1    3    3    0  502  0.49180048437E+03  0.86266366018E+03 -0.30940470863E+02  0.99348640285E+03  0.12699999809E+01 0.  1.
</event>
<event>
 5   0  0.8755004E-05  0.2193616E+04  0.7818609E-02  0.8521090E-01
        1   -1    0    0  501    0  0.00000000000E+00  0.00000000000E+00  0.13241374798E+04  0.13241374799E+04  0.50400001928E-02 0. -1.
       -1   -1    0    0    0  501  0.00000000000E+00  0.00000000000E+00 -0.90850631083E+03  0.90850631085E+03  0.50400001928E-02 0.  1.
    10030    2    1    2    0    0  0.00000000000E+00  0.00000000000E+00  0.41563116901E+03  0.22326437907E+04  0.21936155150E+04 0.  0.
        3    1    3    3  502    0 -0.59047160290E+03  0.70579667408E+03 -0.39961221269E+03  0.10032425378E+04  0.10100000352E+00 0.  1.
       -3    1    3    3    0  502  0.59047160290E+03 -0.70579667408E+03  0.81524338170E+03  0.12294012529E+04  0.10100000352E+00 0. -1.
</event>
<event>
 5   0  0.8525278E-05  0.2344521E+04  0.7818609E-02  0.8460571E-01
        1   -1    0    0  501    0  0.00000000000E+00  0.00000000000E+00  0.89726983147E+03  0.89726983148E+03  0.50400001928E-02 0.  1.
       -1   -1    0    0    0  501  0.00000000000E+00  0.00000000000E+00 -0.15315289878E+04  0.15315289878E+04  0.50400001928E-02 0. -1.
    10030    2    1    2    0    0  0.00000000000E+00  0.00000000000E+00 -0.63425915633E+03  0.24287988193E+04  0.23445210656E+04 0.  0.
        4    1    3    3  502    0 -0.30518907741E+03  0.44864499807E+03 -0.13936025256E+04  0.14955107220E+04  0.12699999809E+01 0. -1.
       -4    1    3    3    0  502  0.30518907741E+03 -0.44864499807E+03  0.75934336927E+03  0.93328809733E+03  0.12699999809E+01 0.  1.
</event>
<event>
 5   0  0.8525278E-05  0.2115468E+04  0.7818609E-02  0.8554460E-01
       -1   -1    0    0    0  501  0.00000000000E+00  0.00000000000E+00  0.11398478434E+04  0.11398478434E+04  0.50400001928E-02 0. -1.
        1   -1    0    0  501    0  0.00000000000E+00  0.00000000000E+00 -0.98153577893E+03  0.98153577894E+03  0.50400001928E-02 0.  1.
    10030    2    1    2    0    0  0.00000000000E+00  0.00000000000E+00  0.15831206447E+03  0.21213836224E+04  0.21154682138E+04 0.  0.
        4    1    3    3  502    0 -0.27804550513E+03 -0.24582793843E+03 -0.91409792441E+03  0.98656845001E+03  0.12699999809E+01 0.  1.
       -4    1    3    3    0  502  0.27804550513E+03  0.24582793843E+03  0.10724099889E+04  0.11348151723E+04  0.12699999809E+01 0. -1.
</event>
<event>
 5   0  0.1810875E-04  0.1830953E+04  0.7818609E-02  0.8690010E-01
        2   -1    0    0  501    0  0.00000000000E+00  0.00000000000E+00  0.12276421961E+04  0.12276421961E+04  0.25500000920E-02 0. -1.
       -2   -1    0    0    0  501  0.00000000000E+00  0.00000000000E+00 -0.68268819878E+03  0.68268819878E+03  0.25500000920E-02 0.  1.
    10030    2    1    2    0    0  0.00000000000E+00  0.00000000000E+00  0.54495399733E+03  0.19103303949E+04  0.18309525823E+04 0.  0.
        1    1    3    3  502    0 -0.11943777419E+03 -0.88661531246E+03  0.69774249591E+02  0.89734081604E+03  0.50400001928E-02 0.  1.
       -1    1    3    3    0  502  0.11943777419E+03  0.88661531246E+03  0.47517974774E+03  0.10129895789E+04  0.50400001928E-02 0. -1.
</event>
<event>
 5   0  0.1886323E-04  0.2080533E+04  0.7818609E-02  0.8569868E-01
       -2   -1    0    0    0  501  0.00000000000E+00  0.00000000000E+00  0.11706059643E+04  0.11706059643E+04  0.25500000920E-02 0. -1.
        2   -1    0    0  501    0  0.00000000000E+00  0.00000000000E+00 -0.92443933267E+03  0.92443933267E+03  0.25500000920E-02 0.  1.
    10030    2    1    2    0    0  0.00000000000E+00  0.00000000000E+00  0.24616663166E+03  0.20950452970E+04  0.20805328130E+04 0.  0.
        2    1    3    3  502    0 -0.38409949020E+03  0.59129362317E+03  0.89326718052E+03  0.11380188149E+04  0.25500000920E-02 0. -1.
       -2    1    3    3    0  502  0.38409949020E+03 -0.59129362317E+03 -0.64710054887E+03  0.95702648214E+03  0.25500000920E-02 0.  1.
</event>
<event>
 5   0  0.1815400E-04  0.2019474E+04  0.7818609E-02  0.8597570E-01
       -2   -1    0    0    0  501  0.00000000000E+00  0.00000000000E+00  0.50544237198E+03  0.50544237198E+03  0.25500000920E-02 0. -1.
        2   -1    0    0  501    0  0.00000000000E+00  0.00000000000E+00 -0.20171815522E+04  0.20171815522E+04  0.25500000920E-02 0.  1.
    10030    2    1    2    0    0  0.00000000000E+00  0.00000000000E+00 -0.15117391802E+04  0.25226239241E+04  0.20194742172E+04 0.  0.
        3    1    3    3  502    0  0.10070986656E+02  0.77939606509E+03  0.45933530790E+02  0.78081339032E+03  0.10100000352E+00 0. -1.
       -3    1    3    3    0  502 -0.10070986656E+02 -0.77939606509E+03 -0.15576727110E+04  0.17418105338E+04  0.10100000352E+00 0.  1.
</event>
<event>
 5   0  0.1921687E-04  0.2132693E+04  0.7818609E-02  0.8546977E-01
        2   -1    0    0  501    0  0.00000000000E+00  0.00000000000E+00  0.28616065342E+04  0.28616065342E+04  0.25500000920E-02 0.  1.
       -2   -1    0    0    0  501  0.00000000000E+00  0.00000000000E+00 -0.39736251657E+03  0.39736251658E+03  0.25500000920E-02 0. -1.
    10030    2    1    2    0    0  0.00000000000E+00  0.00000000000E+00  0.24642440176E+04  0.32589690507E+04  0.21326932961E+04 0.  0.
        5    1    3    3  502    0 -0.10137084574E+04  0.14979521282E+03  0.78132042861E+03  0.12886144282E+04  0.46999998093E+01 0. -1.
       -5    1    3    3    0  502  0.10137084574E+04 -0.14979521282E+03  0.16829235890E+04  0.19703546226E+04  0.46999998093E+01 0.  1.
</event>
<event>
 5   0  0.8486612E-05  0.1887609E+04  0.7818609E-02  0.8661049E-01
        1   -1    0    0  501    0  0.00000000000E+00  0.00000000000E+00  0.68890422573E+03  0.68890422574E+03  0.50400001928E-02 0.  1.
       -1   -1    0    0    0  501  0.00000000000E+00  0.00000000000E+00 -0.12930201784E+04  0.12930201784E+04  0.50400001928E-02 0. -1.
    10030    2    1    2    0    0  0.00000000000E+00  0.00000000000E+00 -0.60411595266E+03  0.19819244041E+04  0.18876091384E+04 0.  0.
        5    1    3    3  502    0  0.34907536509E+03  0.24570772907E+03 -0.11858514454E+04  0.12603537754E+04  0.46999998093E+01 0. -1.
       -5    1    3    3    0  502 -0.34907536509E+03 -0.24570772907E+03  0.58173549278E+03  0.72157062869E+03  0.46999998093E+01 0.  1.
</event>
<event>
 5   0  0.8271069E-05  0.2007561E+04  0.7818609E-02  0.8603094E-01
        1   -1    0    0  501    0  0.00000000000E+00  0.00000000000E+00  0.10312349757E+04  0.10312349757E+04  0.50400001928E-02 0. -1.
       -1   -1    0    0    0  501  0.00000000000E+00  0.00000000000E+00 -0.97705676037E+03  0.97705676038E+03  0.50400001928E-02 0.  1.
    10030    2    1    2    0    0  0.00000000000E+00  0.00000000000E+00  0.54178215360E+02  0.20082917361E+04  0.20075608131E+04 0.  0.
        2    1    3    3  502    0  0.12347912333E+03 -0.10431831497E+02  0.10235537702E+04  0.10310277578E+04  0.25500000920E-02 0. -1.
       -2    1    3    3    0  502 -0.12347912333E+03  0.10431831497E+02 -0.96937555480E+03  0.97726397829E+03  0.25500000920E-02 0.  1.
</event>
<event>
 5   0  0.8486612E-05  0.2105829E+04  0.7818609E-02  0.8558680E-01
       -1   -1    0    0    0  501  0.00000000000E+00  0.00000000000E+00  0.58132405122E+03  0.58132405125E+03  0.50400001928E-02 0. -1.
        1   -1    0    0  501    0  0.00000000000E+00  0.00000000000E+00 -0.19070765161E+04  0.19070765161E+04  0.50400001928E-02 0.  1.
    10030    2    1    2    0    0  0.00000000000E+00  0.00000000000E+00 -0.13257524648E+04  0.24884005673E+04  0.21058294768E+04 0.  0.
        5    1    3    3  502    0 -0.63543944549E+02 -0.85887528706E+03  0.52892270153E+02  0.86285820031E+03  0.46999998093E+01 0. -1.
       -5    1    3    3    0  502  0.63543944549E+02  0.85887528706E+03 -0.13786447350E+04  0.16255423670E+04  0.46999998093E+01 0.  1.
</event>
<event>
 5   0  0.1886323E-04  0.2088351E+04  0.7818609E-02  0.8566392E-01
        2   -1    0    0  501    0  0.00000000000E+00  0.00000000000E+00  0.15338762794E+04  0.15338762794E+04  0.25500000920E-02 0.  1.
       -2   -1    0    0    0  501  0.00000000000E+00  0.00000000000E+00 -0.71081504931E+03  0.71081504932E+03  0.25500000920E-02 0. -1.
    10030    2    1    2    0    0  0.00000000000E+00  0.00000000000E+00  0.82306123014E+03  0.22446913288E+04  0.20883508740E+04 0.  0.
        2    1    3    3  502    0 -0.39325223646E+03  0.46092670481E+03  0.13256077553E+04  0.14575104355E+04  0.25500000920E-02 0.  1.
       -2    1    3    3    0  502  0.39325223646E+03 -0.46092670481E+03 -0.50254652519E+03  0.78718089324E+03  0.25500000920E-02 0. -1.
</event>
<event>
 5   0  0.1810875E-04  0.2156231E+04  0.7818609E-02  0.8536870E-01
       -2   -1    0    0    0  501  0.00000000000E+00  0.00000000000E+00  0.67414082630E+03  0.67414082630E+03  0.25500000920E-02 0. -1.
        2   -1    0    0  501    0  0.00000000000E+00  0.00000000000E+00 -0.17241691978E+04  0.17241691978E+04  0.25500000920E-02 0.  1.
    10030    2    1    2    0    0  0.00000000000E+00  0.00000000000E+00 -0.10500283715E+04  0.23983100241E+04  0.21562308297E+04 0.  0.
        1    1    3    3  502    0  0.57564379099E+03  0.78543274783E+03 -0.10396266961E+04  0.14244627207E+04  0.50400001928E-02 0.  1.
       -1    1    3    3    0  502 -0.57564379099E+03 -0.78543274783E+03 -0.10401675432E+02  0.97384730340E+03  0.50400001928E-02 0. -1.
</event>
<event>
 5   0  0.1810875E-04  0.2181743E+04  0.7818609E-02  0.8526066E-01
       -2   -1    0    0    0  501  0.00000000000E+00  0.00000000000E+00  0.85780941184E+03  0.85780941185E+03  0.25500000920E-02 0. -1.
        2   -1    0    0  501    0  0.00000000000E+00  0.00000000000E+00 -0.13872552297E+04  0.13872552297E+04  0.25500000920E-02 0.  1.
    10030    2    1    2    0    0  0.00000000000E+00  0.00000000000E+00 -0.52944581790E+03  0.22450646416E+04  0.21817429663E+04 0.  0.
        1    1    3    3  502    0 -0.10823112349E+04 -0.13452688966E+03 -0.24158705253E+03  0.11170762719E+04  0.50400001928E-02 0.  1.
       -1    1    3    3    0  502  0.10823112349E+04  0.13452688966E+03 -0.28785876537E+03  0.11279883697E+04  0.50400001928E-02 0. -1.
</event>
<event>
 5   0  0.1815400E-04  0.1332793E+04  0.7818609E-02  0.9003957E-01
       -2   -1    0    0    0  501  0.00000000000E+00  0.00000000000E+00  0.33732028441E+03  0.33732028442E+03  0.25500000920E-02 0. -1.
        2   -1    0    0  501    0  0.00000000000E+00  0.00000000000E+00 -0.13165065606E+04  0.13165065606E+04  0.25500000920E-02 0.  1.
    10030    2    1    2    0    0  0.00000000000E+00  0.00000000000E+00 -0.97918627620E+03  0.16538268450E+04  0.13327931084E+04 0.  0.
        3    1    3    3  502    0 -0.58122225218E+03  0.13141495572E+03 -0.11941523294E+03  0.60774106746E+03  0.10100000352E+00 0. -1.
       -3    1    3    3    0  502  0.58122225218E+03 -0.13141495572E+03 -0.85977104325E+03  0.10460857776E+04  0.10100000352E+00 0.  1.
</event>
<event>
 5   0  0.8525278E-05  0.1578679E+04  0.7818609E-02  0.8833754E-01
       -1   -1    0    0    0  501  0.00000000000E+00  0.00000000000E+00  0.50966123148E+03  0.50966123150E+03  0.50400001928E-02 0. -1.
        1   -1    0    0  501    0  0.00000000000E+00  0.00000000000E+00 -0.12224927579E+04  0.12224927579E+04  0.50400001928E-02 0.  1.
    10030    2    1    2    0    0  0.00000000000E+00  0.00000000000E+00 -0.71283152643E+03  0.17321539894E+04  0.15786794032E+04 0.  0.
        4    1    3    3  502    0  0.67963081361E+03  0.34772789988E+03 -0.13630730110E+03  0.77549598864E+03  0.12699999809E+01 0. -1.
       -4    1    3    3    0  502 -0.67963081361E+03 -0.34772789988E+03 -0.57652422534E+03  0.95665800078E+03  0.12699999809E+01 0.  1.
</event>
<event>
 5   0  0.1815400E-04  0.2180615E+04  0.7818609E-02  0.8526540E-01
        2   -1    0    0  501    0  0.00000000000E+00  0.00000000000E+00  0.76730301207E+03  0.76730301207E+03  0.25500000920E-02 0.  1.
       -2   -1    0    0    0  501  0.00000000000E+00  0.00000000000E+00 -0.15492848833E+04  0.15492848833E+04  0.25500000920E-02 0. -1.
    10030    2    1    2    0    0  0.00000000000E+00  0.00000000000E+00 -0.78198187119E+03  0.23165878953E+04  0.21806154704E+04 0.  0.
        3    1    3    3  502    0 -0.95679919209E+03  0.23082365381E+03 -0.88930986022E+03  0.13265052924E+04  0.10100000352E+00 0. -1.
       -3    1    3    3    0  502  0.95679919209E+03 -0.23082365381E+03  0.10732798903E+03  0.99008260291E+03  0.10100000352E+00 0.  1.
</event>
<event>
 5   0  0.8271069E-05  0.2058145E+04  0.7818609E-02  0.8579908E-01
       -1   -1    0    0    0  501  0.00000000000E+00  0.00000000000E+00  0.65834107629E+03  0.65834107631E+03  0.50400001928E-02 0.  1.
        1   -1    0    0  501    0  0.00000000000E+00  0.00000000000E+00 -0.16085736245E+04  0.16085736245E+04  0.50400001928E-02 0. -1.
    10030    2    1    2    0    0  0.00000000000E+00  0.00000000000E+00 -0.95023254823E+03  0.22669147008E+04  0.20581448844E+04 0.  0.
        2    1    3    3  502    0 -0.99567901398E+02  0.92286177860E+03 -0.96448421780E+03  0.13385878513E+04  0.25500000920E-02 0. -1.
       -2    1    3    3    0  502  0.99567901398E+02 -0.92286177860E+03  0.14251669573E+02  0.92832684949E+03  0.25500000920E-02 0.  1.
</event>
<event>
 5   0  0.6441125E-05  0.1814771E+04  0.7818609E-02  0.8698483E-01
       -4   -1    0    0    0  501  0.00000000000E+00  0.00000000000E+00  0.50002939724E+03  0.50003101004E+03  0.12699999809E+01 0.  1.
        4   -1    0    0  501    0  0.00000000000E+00  0.00000000000E+00 -0.16465963292E+04  0.16465968190E+04  0.12699999809E+01 0. -1.
    10030    2    1    2    0    0  0.00000000000E+00  0.00000000000E+00 -0.11465669320E+04  0.21466278290E+04  0.18147714200E+04 0.  0.
        1    1    3    3  502    0 -0.53756889978E+03  0.66748508086E+03 -0.22073407934E+03  0.88500858130E+03  0.50400001928E-02 0.  1.
       -1    1    3    3    0  502  0.53756889978E+03 -0.66748508086E+03 -0.92583285261E+03  0.12616192477E+04  0.50400001928E-02 0. -1.
</event>
<event>
 5   0  0.1815400E-04  0.2003395E+04  0.7818609E-02  0.8605035E-01
       -2   -1    0    0    0  501  0.00000000000E+00  0.00000000000E+00  0.10939696370E+04  0.10939696370E+04  0.25500000920E-02 0. -1.
        2   -1    0    0  501    0  0.00000000000E+00  0.00000000000E+00 -0.91720813612E+03  0.91720813612E+03  0.25500000920E-02 0.  1.
    10030    2    1    2    0    0  0.00000000000E+00  0.00000000000E+00  0.17676150087E+03  0.20111777731E+04  0.20033949703E+04 0.  0.
        3    1    3    3  502    0  0.68534017842E+03  0.20497492974E+03  0.79231230732E+03  0.10674571113E+04  0.10100000352E+00 0. -1.
       -3    1    3    3    0  502 -0.68534017842E+03 -0.20497492974E+03 -0.61555080644E+03  0.94372066180E+03  0.10100000352E+00 0.  1.
</event>
<event>
 5   0  0.8271069E-05  0.2063609E+04  0.7818609E-02  0.8577445E-01
       -1   -1    0    0    0  501  0.00000000000E+00  0.00000000000E+00  0.88659933083E+03  0.88659933085E+03  0.50400001928E-02 0.  1.
        1   -1    0    0  501    0  0.00000000000E+00  0.00000000000E+00 -0.12007911185E+04  0.12007911185E+04  0.50400001928E-02 0. -1.
    10030    2    1    2    0    0  0.00000000000E+00  0.00000000000E+00 -0.31419178766E+03  0.20873904494E+04  0.20636090736E+04 0.  0.
        2    1    3    3  502    0  0.66261551914E+02  0.53963789739E+03 -0.10441402734E+04  0.11772122001E+04  0.25500000920E-02 0. -1.
       -2    1    3    3    0  502 -0.66261551914E+02 -0.53963789739E+03  0.72994848573E+03  0.91017824924E+03  0.25500000920E-02 0.  1.
</event>
<event>
 5   0  0.8271069E-05  0.2026162E+04  0.7818609E-02  0.8594486E-01
       -1   -1    0    0    0  501  0.00000000000E+00  0.00000000000E+00  0.77676862475E+03  0.77676862476E+03  0.50400001928E-02 0.  1.
        1   -1    0    0  501    0  0.00000000000E+00  0.00000000000E+00 -0.13212856360E+04  0.13212856360E+04  0.50400001928E-02 0. -1.
    10030    2    1    2    0    0  0.00000000000E+00  0.00000000000E+00 -0.54451701124E+03  0.20980542608E+04  0.20261621124E+04 0.  0.
        2    1    3    3  502    0 -0.19206482970E+02 -0.42754824540E+02  0.77564530319E+03  0.77706016522E+03  0.25500000920E-02 0.  1.
       -2    1    3    3    0  502  0.19206482970E+02  0.42754824540E+02 -0.13201623144E+04  0.13209940955E+04  0.25500000920E-02 0. -1.
</event>
<event>
 5   0  0.8486612E-05  0.2108605E+04  0.7818609E-02  0.8557462E-01
       -1   -1    0    0    0  501  0.00000000000E+00  0.00000000000E+00  0.80976041203E+03  0.80976041204E+03  0.50400001928E-02 0.  1.
        1   -1    0    0  501    0  0.00000000000E+00  0.00000000000E+00 -0.13726941162E+04  0.13726941162E+04  0.50400001928E-02 0. -1.
    10030    2    1    2    0    0  0.00000000000E+00  0.00000000000E+00 -0.56293370412E+03  0.21824545282E+04  0.21086046126E+04 0.  0.
        5    1    3    3  502    0 -0.46710285810E+03 -0.54215970129E+03 -0.10827973951E+04  0.12979193005E+04  0.46999998093E+01 0. -1.
       -5    1    3    3    0  502  0.46710285810E+03  0.54215970129E+03  0.51986369102E+03  0.88453522767E+03  0.46999998093E+01 0.  1.
</event>
<event>
 5   0  0.1886323E-04  0.2112539E+04  0.7818609E-02  0.8555740E-01
        2   -1    0    0  501    0  0.00000000000E+00  0.00000000000E+00  0.10538365303E+04  0.10538365303E+04  0.25500000920E-02 0.  1.
       -2   -1    0    0    0  501  0.00000000000E+00  0.00000000000E+00 -0.10587076610E+04  0.10587076610E+04  0.25500000920E-02 0. -1.
    10030    2    1    2    0    0  0.00000000000E+00  0.00000000000E+00 -0.48711307234E+01  0.21125441913E+04  0.21125385753E+04 0.  0.
        2    1    3    3  502    0  0.10467261664E+04 -0.99730690019E+02  0.98177474964E+02  0.10560401008E+04  0.25500000920E-02 0. -1.
       -2    1    3    3    0  502 -0.10467261664E+04  0.99730690019E+02 -0.10304860569E+03  0.10565040905E+04  0.25500000920E-02 0.  1.
</event>
<event>
 5   0  0.1886323E-04  0.2169285E+04  0.7818609E-02  0.8531322E-01
        2   -1    0    0  501    0  0.00000000000E+00  0.00000000000E+00  0.18816538899E+04  0.18816538899E+04  0.25500000920E-02 0. -1.
       -2   -1    0    0    0  501  0.00000000000E+00  0.00000000000E+00 -0.62522095476E+03  0.62522095477E+03  0.25500000920E-02 0.  1.
    10030    2    1    2    0    0  0.00000000000E+00  0.00000000000E+00  0.12564329351E+04  0.25068748446E+04  0.21692850818E+04 0.  0.
        2    1    3    3  502    0  0.43336486608E+03 -0.91731194595E+03  0.18486817793E+03  0.10312335121E+04  0.25500000920E-02 0.  1.
       -2    1    3    3    0  502 -0.43336486608E+03  0.91731194595E+03  0.10715647572E+04  0.14756413325E+04  0.25500000920E-02 0. -1.
</event>
<event>
 5   0  0.8755004E-05  0.2039716E+04  0.7818609E-02  0.8588274E-01
       -1   -1    0    0    0  501  0.00000000000E+00  0.00000000000E+00  0.53456207602E+03  0.53456207604E+03  0.50400001928E-02 0.  1.
        1   -1    0    0  501    0  0.00000000000E+00  0.00000000000E+00 -0.19457236147E+04  0.19457236147E+04  0.50400001928E-02 0. -1.
    10030    2    1    2    0    0  0.00000000000E+00  0.00000000000E+00 -0.14111615387E+04  0.24802856907E+04  0.20397157203E+04 0.  0.
        3    1    3    3  502    0  0.14958758444E+03 -0.22511554119E+03  0.49021774527E+03  0.55979183657E+03  0.10100000352E+00 0.  1.
       -3    1    3    3    0  502 -0.14958758444E+03  0.22511554119E+03 -0.19013792840E+04  0.19204938542E+04  0.10100000352E+00 0. -1.
</event>
<event>
 5   0  0.1777590E-04  0.2006086E+04  0.7818609E-02  0.8603781E-01
        2   -1    0    0  501    0  0.00000000000E+00  0.00000000000E+00  0.11938296551E+04  0.11938296551E+04  0.25500000920E-02 0.  1.
       -2   -1    0    0    0  501  0.00000000000E+00  0.00000000000E+00 -0.84274583129E+03  0.84274583130E+03  0.25500000920E-02 0. -1.
    10030    2    1    2    0    0  0.00000000000E+00  0.00000000000E+00  0.35108382383E+03  0.20365754864E+04  0.20060857062E+04 0.  0.
        4    1    3    3  502    0  0.89959093532E+03 -0.35957417573E+03  0.43936841296E+03  0.10637686092E+04  0.12699999809E+01 0. -1.
       -4    1    3    3    0  502 -0.89959093532E+03  0.35957417573E+03 -0.88284589132E+02  0.97280687720E+03  0.12699999809E+01 0.  1.
</event>
<event>
 5   0  0.8237966E-05  0.2088041E+04  0.7818609E-02  0.8566530E-01
        1   -1    0    0  501    0  0.00000000000E+00  0.00000000000E+00  0.23931732888E+04  0.23931732888E+04  0.50400001928E-02 0.  1.
       -1   -1    0    0    0  501  0.00000000000E+00  0.00000000000E+00 -0.45545342400E+03  0.45545342402E+03  0.50400001928E-02 0. -1.
    10030    2    1    2    0    0  0.00000000000E+00  0.00000000000E+00  0.19377198648E+04  0.28486267128E+04  0.20880411573E+04 0.  0.
        1    1    3    3  502    0  0.14480205820E+03  0.82089252680E+03  0.18264420530E+04  0.20076659955E+04  0.50400001928E-02 0.  1.
       -1    1    3    3    0  502 -0.14480205820E+03 -0.82089252680E+03  0.11127781180E+03  0.84096071730E+03  0.50400001928E-02 0. -1.
</event>
<event>
 5   0  0.1886323E-04  0.2015683E+04  0.7818609E-02  0.8599323E-01
        2   -1    0    0  501    0  0.00000000000E+00  0.00000000000E+00  0.82414342374E+03  0.82414342374E+03  0.25500000920E-02 0. -1.
       -2   -1    0    0    0  501  0.00000000000E+00  0.00000000000E+00 -0.12324849423E+04  0.12324849423E+04  0.25500000920E-02 0.  1.
    10030    2    1    2    0    0  0.00000000000E+00  0.00000000000E+00 -0.40834151854E+03  0.20566283660E+04  0.20156828719E+04 0.  0.
        2    1    3    3  502    0 -0.51606841402E+03  0.14596398930E+02 -0.10873195159E+04  0.12036624911E+04  0.25500000920E-02 0.  1.
       -2    1    3    3    0  502  0.51606841402E+03 -0.14596398930E+02  0.67897799738E+03  0.85296587490E+03  0.25500000920E-02 0. -1.
</event>
<event>
 5   0  0.8486612E-05  0.2118368E+04  0.7818609E-02  0.8553195E-01
       -1   -1    0    0    0  501  0.00000000000E+00  0.00000000000E+00  0.79293192661E+03  0.79293192662E+03  0.50400001928E-02 0.  1.
        1   -1    0    0  501    0  0.00000000000E+00  0.00000000000E+00 -0.14148386653E+04  0.14148386653E+04  0.50400001928E-02 0. -1.
    10030    2    1    2    0    0  0.00000000000E+00  0.00000000000E+00 -0.62190673866E+03  0.22077705919E+04  0.21183680027E+04 0.  0.
        5    1    3    3  502    0 -0.44954913832E+03 -0.93425821455E+03 -0.85211462339E+02  0.10402960745E+04  0.46999998093E+01 0. -1.
       -5    1    3    3    0  502  0.44954913832E+03  0.93425821455E+03 -0.53669527632E+03  0.11674745174E+04  0.46999998093E+01 0.  1.
</event>
<event>
 5   0  0.1810875E-04  0.2059894E+04  0.7818609E-02  0.8579119E-01
        2   -1    0    0  501    0  0.00000000000E+00  0.00000000000E+00  0.11408660699E+04  0.11408660699E+04  0.25500000920E-02 0.  1.
       -2   -1    0    0    0  501  0.00000000000E+00  0.00000000000E+00 -0.92981232721E+03  0.92981232721E+03  0.25500000920E-02 0. -1.
    10030    2    1    2    0    0  0.00000000000E+00  0.00000000000E+00  0.21105374265E+03  0.20706783971E+04  0.20598944977E+04 0.  0.
        1    1    3    3  502    0 -0.16002318979E+02 -0.92448530363E+03  0.56162255648E+03  0.10818267176E+04  0.50400001928E-02 0.  1.
       -1    1    3    3    0  502  0.16002318979E+02  0.92448530363E+03 -0.35056881383E+03  0.98885167952E+03  0.50400001928E-02 0. -1.
</event>
<event>
 5   0  0.6441125E-05  0.2092335E+04  0.7818609E-02  0.8564627E-01
       -4   -1    0    0    0  501  0.00000000000E+00  0.00000000000E+00  0.14120277434E+04  0.14120283146E+04  0.12699999809E+01 0.  1.
        4   -1    0    0  501    0  0.00000000000E+00  0.00000000000E+00 -0.77510157959E+03  0.77510262003E+03  0.12699999809E+01 0. -1.
    10030    2    1    2    0    0  0.00000000000E+00  0.00000000000E+00  0.63692616384E+03  0.21871309346E+04  0.20923352472E+04 0.  0.
        3    1    3    3  502    0  0.39461772959E+03  0.59230877225E+03 -0.48303107132E+03  0.86015804377E+03  0.10100000352E+00 0. -1.
       -3    1    3    3    0  502 -0.39461772959E+03 -0.59230877225E+03  0.11199572352E+04  0.13269728908E+04  0.10100000352E+00 0.  1.
</event>
<event>
 5   0  0.8237966E-05  0.2107245E+04  0.7818609E-02  0.8558058E-01
       -1   -1    0    0    0  501  0.00000000000E+00  0.00000000000E+00  0.98843323058E+03  0.98843323059E+03  0.50400001928E-02 0.  1.
        1   -1    0    0  501    0  0.00000000000E+00  0.00000000000E+00 -0.11231116522E+04  0.11231116522E+04  0.50400001928E-02 0. -1.
    10030    2    1    2    0    0  0.00000000000E+00  0.00000000000E+00 -0.13467842158E+03  0.21115448828E+04  0.21072454804E+04 0.  0.
        1    1    3    3  502    0 -0.92376100408E+02  0.24603047127E+03  0.95506433013E+03  0.99056156368E+03  0.50400001928E-02 0.  1.
       -1    1    3    3    0  502  0.92376100408E+02 -0.24603047127E+03 -0.10897427517E+04  0.11209833191E+04  0.50400001928E-02 0. -1.
</event>
<event>
 5   0  0.8525278E-05  0.2066948E+04  0.7818609E-02  0.8575945E-01
        1   -1    0    0  501    0  0.00000000000E+00  0.00000000000E+00  0.16875738144E+04  0.16875738144E+04  0.50400001928E-02 0.  1.
       -1   -1    0    0    0  501  0.00000000000E+00  0.00000000000E+00 -0.63290169718E+03  0.63290169720E+03  0.50400001928E-02 0. -1.
    10030    2    1    2    0    0  0.00000000000E+00  0.00000000000E+00  0.10546721172E+04  0.23204755116E+04  0.20669478283E+04 0.  0.
        4    1    3    3  502    0  0.47132191974E+03 -0.38389334594E+03  0.14656446310E+04  0.15867054706E+04  0.12699999809E+01 0.  1.
       -4    1    3    3    0  502 -0.47132191974E+03  0.38389334594E+03 -0.41097251380E+03  0.73377004101E+03  0.12699999809E+01 0. -1.
</event>
<event>
 5   0  0.8525278E-05  0.1925515E+04  0.7818609E-02  0.8642259E-01
        1   -1    0    0  501    0  0.00000000000E+00  0.00000000000E+00  0.11615068951E+04  0.11615068951E+04  0.50400001928E-02 0.  1.
       -1   -1    0    0    0  501  0.00000000000E+00  0.00000000000E+00 -0.79801694375E+03  0.79801694376E+03  0.50400001928E-02 0. -1.
    10030    2    1    2    0    0  0.00000000000E+00  0.00000000000E+00  0.36348995138E+03  0.19595238389E+04  0.19255151857E+04 0.  0.
        4    1    3    3  502    0  0.68174902513E+03 -0.32160974898E+03 -0.42773693411E+03  0.86670356039E+03  0.12699999809E+01 0. -1.
       -4    1    3    3    0  502 -0.68174902513E+03  0.32160974898E+03  0.79122688549E+03  0.10928202785E+04  0.12699999809E+01 0.  1.
</event>
<event>
 5   0  0.1886323E-04  0.2140226E+04  0.7818609E-02  0.8543727E-01
        2   -1    0    0  501    0  0.00000000000E+00  0.00000000000E+00  0.21504088436E+04  0.21504088436E+04  0.25500000920E-02 0. -1.
       -2   -1    0    0    0  501  0.00000000000E+00  0.00000000000E+00 -0.53252299523E+03  0.53252299524E+03  0.25500000920E-02 0.  1.
    10030    2    1    2    0    0  0.00000000000E+00  0.00000000000E+00  0.16178858484E+04  0.26829318389E+04  0.21402263043E+04 0.  0.
        2    1    3    3  502    0  0.61299497156E+03  0.90284855762E+00 -0.29061969519E+03  0.67839771339E+03  0.25500000920E-02 0.  1.
       -2    1    3    3    0  502 -0.61299497156E+03 -0.90284855762E+00  0.19085055436E+04  0.20045341255E+04  0.25500000920E-02 0. -1.
</event>
<event>
 5   0  0.1886323E-04  0.2124369E+04  0.7818609E-02  0.8550584E-01
        2   -1    0    0  501    0  0.00000000000E+00  0.00000000000E+00  0.14176632033E+04  0.14176632033E+04  0.25500000920E-02 0.  1.
       -2   -1    0    0    0  501  0.00000000000E+00  0.00000000000E+00 -0.79584188821E+03  0.79584188821E+03  0.25500000920E-02 0. -1.
    10030    2    1    2    0    0  0.00000000000E+00  0.00000000000E+00  0.62182131509E+03  0.22135050915E+04  0.21243688574E+04 0.  0.
        2    1    3    3  502    0  0.33351037309E+03 -0.84741404333E+03 -0.25874271516E+03  0.94672462862E+03  0.25500000920E-02 0. -1.
       -2    1    3    3    0  502 -0.33351037309E+03  0.84741404333E+03  0.88056403025E+03  0.12667804629E+04  0.25500000920E-02 0.  1.
</event>
<event>
 5   0  0.1777590E-04  0.2089239E+04  0.7818609E-02  0.8565999E-01
        2   -1    0    0  501    0  0.00000000000E+00  0.00000000000E+00  0.11381803638E+04  0.11381803638E+04  0.25500000920E-02 0.  1.
       -2   -1    0    0    0  501  0.00000000000E+00  0.00000000000E+00 -0.95874961197E+03  0.95874961197E+03  0.25500000920E-02 0. -1.
    10030    2    1    2    0    0  0.00000000000E+00  0.00000000000E+00  0.17943075188E+03  0.20969299758E+04  0.20892390789E+04 0.  0.
        4    1    3    3  502    0 -0.89101849625E+03  0.29236518856E+03 -0.37223646413E+03  0.10089365502E+04  0.12699999809E+01 0. -1.
       -4    1    3    3    0  502  0.89101849625E+03 -0.29236518856E+03  0.55166721601E+03  0.10879934257E+04  0.12699999809E+01 0.  1.
</event>
<event>
 5   0  0.1921687E-04  0.2204064E+04  0.7818609E-02  0.8516738E-01
       -2   -1    0    0    0  501  0.00000000000E+00  0.00000000000E+00  0.14993004352E+04  0.14993004352E+04  0.25500000920E-02 0. -1.
        2   -1    0    0  501    0  0.00000000000E+00  0.00000000000E+00 -0.81002748394E+03  0.81002748395E+03  0.25500000920E-02 0.  1.
    10030    2    1    2    0    0  0.00000000000E+00  0.00000000000E+00  0.68927295127E+03  0.23093279192E+04  0.22040640274E+04 0.  0.
        5    1    3    3  502    0 -0.28568026353E+03 -0.29781738719E+03  0.14152719045E+04  0.14742201541E+04  0.46999998093E+01 0. -1.
       -5    1    3    3    0  502  0.28568026353E+03  0.29781738719E+03 -0.72599895326E+03  0.83510776503E+03  0.46999998093E+01 0.  1.
</event>
<event>
 5   0  0.1886323E-04  0.2088150E+04  0.7818609E-02  0.8566482E-01
        2   -1    0    0  501    0  0.00000000000E+00  0.00000000000E+00  0.75457408008E+03  0.75457408008E+03  0.25500000920E-02 0.  1.
       -2   -1    0    0    0  501  0.00000000000E+00  0.00000000000E+00 -0.14446455989E+04  0.14446455989E+04  0.25500000920E-02 0. -1.
    10030    2    1    2    0    0  0.00000000000E+00  0.00000000000E+00 -0.69007151885E+03  0.21992196790E+04  0.20881495386E+04 0.  0.
        2    1    3    3  502    0  0.77215115674E+03 -0.57092093082E+03 -0.77661784486E+03  0.12350317385E+04  0.25500000920E-02 0. -1.
       -2    1    3    3    0  502 -0.77215115674E+03  0.57092093082E+03  0.86546326013E+02  0.96418794053E+03  0.25500000920E-02 0.  1.
</event>
<event>
 5   0  0.1810875E-04  0.2027419E+04  0.7818609E-02  0.8593908E-01
        2   -1    0    0  501    0  0.00000000000E+00  0.00000000000E+00  0.16604690206E+04  0.16604690206E+04  0.25500000920E-02 0.  1.
       -2   -1    0    0    0  501  0.00000000000E+00  0.00000000000E+00 -0.61886523040E+03  0.61886523041E+03  0.25500000920E-02 0. -1.
    10030    2    1    2    0    0  0.00000000000E+00  0.00000000000E+00  0.10416037902E+04  0.22793342510E+04  0.20274185981E+04 0.  0.
        1    1    3    3  502    0 -0.19387110583E+03  0.53293733147E+02 -0.59622295260E+03  0.62921223518E+03  0.50400001928E-02 0. -1.
       -1    1    3    3    0  502  0.19387110583E+03 -0.53293733147E+02  0.16378267428E+04  0.16501220158E+04  0.50400001928E-02 0.  1.
</event>
<event>
 5   0  0.1777590E-04  0.2091133E+04  0.7818609E-02  0.8565159E-01
       -2   -1    0    0    0  501  0.00000000000E+00  0.00000000000E+00  0.40471061774E+03  0.40471061775E+03  0.25500000920E-02 0.  1.
        2   -1    0    0  501    0  0.00000000000E+00  0.00000000000E+00 -0.27012128396E+04  0.27012128396E+04  0.25500000920E-02 0. -1.
    10030    2    1    2    0    0  0.00000000000E+00  0.00000000000E+00 -0.22965022218E+04  0.31059234573E+04  0.20911332018E+04 0.  0.
        4    1    3    3  502    0 -0.57737166356E+03 -0.84707621954E+03 -0.14537710204E+04  0.17788614202E+04  0.12699999809E+01 0. -1.
       -4    1    3    3    0  502  0.57737166356E+03  0.84707621954E+03 -0.84273120140E+03  0.13270620371E+04  0.12699999809E+01 0.  1.
</event>
<event>
 5   0  0.1777590E-04  0.2233009E+04  0.7818609E-02  0.8504813E-01
        2   -1    0    0  501    0  0.00000000000E+00  0.00000000000E+00  0.10680858014E+04  0.10680858014E+04  0.25500000920E-02 0.  1.
       -2   -1    0    0    0  501  0.00000000000E+00  0.00000000000E+00 -0.11671178485E+04  0.11671178485E+04  0.25500000920E-02 0. -1.
    10030    2    1    2    0    0  0.00000000000E+00  0.00000000000E+00 -0.99032047183E+02  0.22352036499E+04  0.22330087349E+04 0.  0.
        4    1    3    3  502    0  0.46256618387E+03  0.10219084473E+02  0.96760701329E+03  0.10725375747E+04  0.12699999809E+01 0.  1.
       -4    1    3    3    0  502 -0.46256618387E+03 -0.10219084473E+02 -0.10666390605E+04  0.11626660752E+04  0.12699999809E+01 0. -1.
</event>
<event>
 5   0  0.1921687E-04  0.1430641E+04  0.7818609E-02  0.8931933E-01
       -2   -1    0    0    0  501  0.00000000000E+00  0.00000000000E+00  0.50467549705E+03  0.50467549706E+03  0.25500000920E-02 0.  1.
        2   -1    0    0  501    0  0.00000000000E+00  0.00000000000E+00 -0.10138853477E+04  0.10138853477E+04  0.25500000920E-02 0. -1.
    10030    2    1    2    0    0  0.00000000000E+00  0.00000000000E+00 -0.50920985066E+03  0.15185608448E+04  0.14306405444E+04 0.  0.
        5    1    3    3  502    0 -0.69297967142E+02 -0.57542874269E+03  0.19037217994E+03  0.61006893304E+03  0.46999998093E+01 0.  1.
       -5    1    3    3    0  502  0.69297967142E+02  0.57542874269E+03 -0.69958203060E+03  0.90849191174E+03  0.46999998093E+01 0. -1.
</event>
<event>
 5   0  0.8525278E-05  0.2060169E+04  0.7818609E-02  0.8578995E-01
       -1   -1    0    0    0  501  0.00000000000E+00  0.00000000000E+00  0.60571947377E+03  0.60571947379E+03  0.50400001928E-02 0. -1.
        1   -1    0    0  501    0  0.00000000000E+00  0.00000000000E+00 -0.17517588487E+04  0.17517588487E+04  0.50400001928E-02 0.  1.
    10030    2    1    2    0    0  0.00000000000E+00  0.00000000000E+00 -0.11460393749E+04  0.23574783225E+04  0.20601693601E+04 0.  0.
        4    1    3    3  502    0  0.10067344267E+03  0.99968349257E+03 -0.31315581322E+03  0.10524117082E+04  0.12699999809E+01 0. -1.
       -4    1    3    3    0  502 -0.10067344267E+03 -0.99968349257E+03 -0.83288356171E+03  0.13050666143E+04  0.12699999809E+01 0.  1.
</event>
<event>
 5   0  0.1921687E-04  0.2141163E+04  0.7818609E-02  0.8543325E-01
        2   -1    0    0  501    0  0.00000000000E+00  0.00000000000E+00  0.14288306803E+04  0.14288306803E+04  0.25500000920E-02 0. -1.
       -2   -1    0    0    0  501  0.00000000000E+00  0.00000000000E+00 -0.80215550682E+03  0.80215550682E+03  0.25500000920E-02 0.  1.
    10030    2    1    2    0    0  0.00000000000E+00  0.00000000000E+00  0.62667517347E+03  0.22309861871E+04  0.21411626734E+04 0.  0.
        5    1    3    3  502    0  0.10176630792E+04 -0.31742776061E+03  0.21059160736E+03  0.10866321554E+04  0.46999998093E+01 0.  1.
       -5    1    3    3    0  502 -0.10176630792E+04  0.31742776061E+03  0.41608356612E+03  0.11443540318E+04  0.46999998093E+01 0. -1.
</event>
<event>
 5   0  0.1815400E-04  0.2090306E+04  0.7818609E-02  0.8565526E-01
       -2   -1    0    0    0  501  0.00000000000E+00  0.00000000000E+00  0.68293527721E+03  0.68293527721E+03  0.25500000920E-02 0. -1.
        2   -1    0    0  501    0  0.00000000000E+00  0.00000000000E+00 -0.15994843777E+04  0.15994843777E+04  0.25500000920E-02 0.  1.
    10030    2    1    2    0    0  0.00000000000E+00  0.00000000000E+00 -0.91654910051E+03  0.22824196549E+04  0.20903055345E+04 0.  0.
        3    1    3    3  502    0  0.79458256693E+03 -0.21328337244E+03  0.24555517850E+03  0.85857358947E+03  0.10100000352E+00 0. -1.
       -3    1    3    3    0  502 -0.79458256693E+03  0.21328337244E+03 -0.11621042790E+04  0.14238460655E+04  0.10100000352E+00 0.  1.
</event>
<event>
 5   0  0.8271069E-05  0.2067188E+04  0.7818609E-02  0.8575837E-01
        1   -1    0    0  501    0  0.00000000000E+00  0.00000000000E+00  0.11663619378E+04  0.11663619378E+04  0.50400001928E-02 0. -1.
       -1   -1    0    0    0  501  0.00000000000E+00  0.00000000000E+00 -0.91593873021E+03  0.91593873022E+03  0.50400001928E-02 0.  1.
    10030    2    1    2    0    0  0.00000000000E+00  0.00000000000E+00  0.25042320760E+03  0.20823006680E+04  0.20671875312E+04 0.  0.
        2    1    3    3  502    0 -0.95785551314E+03 -0.37198142117E+03  0.12776970064E+02  0.10276286356E+04  0.25500000920E-02 0. -1.
       -2    1    3    3    0  502  0.95785551314E+03  0.37198142117E+03  0.23764623753E+03  0.10546720324E+04  0.25500000920E-02 0.  1.
</event>
<event>
 5   0  0.8237966E-05  0.2103988E+04  0.7818609E-02  0.8559489E-01
        1   -1    0    0  501    0  0.00000000000E+00  0.00000000000E+00  0.10269350931E+04  0.10269350931E+04  0.50400001928E-02 0.  1.
       -1   -1    0    0    0  501  0.00000000000E+00  0.00000000000E+00 -0.10776640989E+04  0.10776640989E+04  0.50400001928E-02 0. -1.
    10030    2    1    2    0    0  0.00000000000E+00  0.00000000000E+00 -0.50729005849E+02  0.21045991920E+04  0.21039877202E+04 0.  0.
        1    1    3    3  502    0  0.21775514409E+03  0.76491522920E+03 -0.71417080913E+03  0.10689025004E+04  0.50400001928E-02 0. -1.
       -1    1    3    3    0  502 -0.21775514409E+03 -0.76491522920E+03  0.66344180329E+03  0.10356966916E+04  0.50400001928E-02 0.  1.
</event>
<event>
 5   0  0.8486612E-05  0.2039944E+04  0.7818609E-02  0.8588170E-01
        1   -1    0    0  501    0  0.00000000000E+00  0.00000000000E+00  0.70773287038E+03  0.70773287040E+03  0.50400001928E-02 0. -1.
       -1   -1    0    0    0  501  0.00000000000E+00  0.00000000000E+00 -0.14699648826E+04  0.14699648826E+04  0.50400001928E-02 0.  1.
    10030    2    1    2    0    0  0.00000000000E+00  0.00000000000E+00 -0.76223201221E+03  0.21776977530E+04  0.20399435931E+04 0.  0.
        5    1    3    3  502    0  0.52688926068E+03  0.93376364758E+02 -0.13080780063E+04  0.14133016660E+04  0.46999998093E+01 0.  1.
       -5    1    3    3    0  502 -0.52688926068E+03 -0.93376364758E+02  0.54584599411E+03  0.76439608699E+03  0.46999998093E+01 0. -1.
</event>
<event>
 5   0  0.8486612E-05  0.2306024E+04  0.7818609E-02  0.8475550E-01
       -1   -1    0    0    0  501  0.00000000000E+00  0.00000000000E+00  0.53966649376E+03  0.53966649378E+03  0.50400001928E-02 0. -1.
        1   -1    0    0  501    0  0.00000000000E+00  0.00000000000E+00 -0.24634414004E+04  0.24634414004E+04  0.50400001928E-02 0.  1.
    10030    2    1    2    0    0  0.00000000000E+00  0.00000000000E+00 -0.19237749067E+04  0.30031078942E+04  0.23060240963E+04 0.  0.
        5    1    3    3  502    0  0.56783529878E+03  0.10007150075E+04 -0.10588816133E+04  0.15636878889E+04  0.46999998093E+01 0.  1.
       -5    1    3    3    0  502 -0.56783529878E+03 -0.10007150075E+04 -0.86489329339E+03  0.14394200054E+04  0.46999998093E+01 0. -1.
</event>
<event>
 5   0  0.1810875E-04  0.2049559E+04  0.7818609E-02  0.8583795E-01
        2   -1    0    0  501    0  0.00000000000E+00  0.00000000000E+00  0.44642547090E+03  0.44642547090E+03  0.25500000920E-02 0. -1.
       -2   -1    0    0    0  501  0.00000000000E+00  0.00000000000E+00 -0.23524033990E+04  0.23524033990E+04  0.25500000920E-02 0.  1.
    10030    2    1    2    0    0  0.00000000000E+00  0.00000000000E+00 -0.19059779281E+04  0.27988288699E+04  0.20495587770E+04 0.  0.
        1    1    3    3  502    0  0.20251670391E+03 -0.86504983254E+03 -0.25554359474E+03  0.92446025170E+03  0.50400001928E-02 0. -1.
       -1    1    3    3    0  502 -0.20251670391E+03  0.86504983254E+03 -0.16504343333E+04  0.18743686182E+04  0.50400001928E-02 0.  1.
</event>
<event>
 5   0  0.1810875E-04  0.2072726E+04  0.7818609E-02  0.8573354E-01
       -2   -1    0    0    0  501  0.00000000000E+00  0.00000000000E+00  0.70541982397E+03  0.70541982397E+03  0.25500000920E-02 0.  1.
        2   -1    0    0  501    0  0.00000000000E+00  0.00000000000E+00 -0.15225661881E+04  0.15225661881E+04  0.25500000920E-02 0. -1.
    10030    2    1    2    0    0  0.00000000000E+00  0.00000000000E+00 -0.81714636417E+03  0.22279860121E+04  0.20727261010E+04 0.  0.
        1    1    3    3  502    0 -0.76877291596E+03  0.69266187403E+03 -0.34723658177E+03  0.10914969133E+04  0.50400001928E-02 0.  1.
       -1    1    3    3    0  502  0.76877291596E+03 -0.69266187403E+03 -0.46990978240E+03  0.11364890988E+04  0.50400001928E-02 0. -1.
</event>
<event>
 5   0  0.8525278E-05  0.2108208E+04  0.7818609E-02  0.8557636E-01
       -1   -1    0    0    0  501  0.00000000000E+00  0.00000000000E+00  0.94611024100E+03  0.94611024102E+03  0.50400001928E-02 0.  1.
        1   -1    0    0  501    0  0.00000000000E+00  0.00000000000E+00 -0.11744243611E+04  0.11744243611E+04  0.50400001928E-02 0. -1.
    10030    2    1    2    0    0  0.00000000000E+00  0.00000000000E+00 -0.22831412005E+03  0.21205346021E+04  0.21082076893E+04 0.  0.
        4    1    3    3  502    0 -0.81118668702E+03 -0.15185330474E+03 -0.77377348926E+03  0.11312870073E+04  0.12699999809E+01 0. -1.
       -4    1    3    3    0  502  0.81118668702E+03  0.15185330474E+03  0.54545936921E+03  0.98924759475E+03  0.12699999809E+01 0.  1.
</event>
<event>
 5   0  0.1886323E-04  0.1995238E+04  0.7818609E-02  0.8608850E-01
        2   -1    0    0  501    0  0.00000000000E+00  0.00000000000E+00  0.13316816409E+04  0.13316816409E+04  0.25500000920E-02 0.  1.
       -2   -1    0    0    0  501  0.00000000000E+00  0.00000000000E+00 -0.74735863152E+03  0.74735863153E+03  0.25500000920E-02 0. -1.
    10030    2    1    2    0    0  0.00000000000E+00  0.00000000000E+00  0.58432300933E+03  0.20790402724E+04  0.19952380998E+04 0.  0.
        2    1    3    3  502    0 -0.11886675938E+03  0.64043273401E+03 -0.49519452447E+03  0.81823041397E+03  0.25500000920E-02 0. -1.
       -2    1    3    3    0  502  0.11886675938E+03 -0.64043273401E+03  0.10795175338E+04  0.12608098584E+04  0.25500000920E-02 0.  1.
</event>
<event>
 5   0  0.6441125E-05  0.2041240E+04  0.7818609E-02  0.8587579E-01
        3   -1    0    0  501    0  0.00000000000E+00  0.00000000000E+00  0.11825538287E+04  0.11825538330E+04  0.10100000352E+00 0.  1.
       -3   -1    0    0    0  501  0.00000000000E+00  0.00000000000E+00 -0.88086048203E+03  0.88086048782E+03  0.10100000352E+00 0. -1.
    10030    2    1    2    0    0  0.00000000000E+00  0.00000000000E+00  0.30169334668E+03  0.20634143208E+04  0.20412397664E+04 0.  0.
        5    1    3    3  502    0 -0.34844487951E+03  0.44474615598E+03  0.10100387624E+04  0.11573302765E+04  0.46999998093E+01 0.  1.
       -5    1    3    3    0  502  0.34844487951E+03 -0.44474615598E+03 -0.70834541577E+03  0.90608404431E+03  0.46999998093E+01 0. -1.
</event>
<event>
 5   0  0.1921687E-04  0.2022558E+04  0.7818609E-02  0.8596146E-01
        2   -1    0    0  501    0  0.00000000000E+00  0.00000000000E+00  0.13287107979E+04  0.13287107979E+04  0.25500000920E-02 0. -1.
       -2   -1    0    0    0  501  0.00000000000E+00  0.00000000000E+00 -0.76968239095E+03  0.76968239096E+03  0.25500000920E-02 0.  1.
    10030    2    1    2    0    0  0.00000000000E+00  0.00000000000E+00  0.55902840694E+03  0.20983931889E+04  0.20225580870E+04 0.  0.
        5    1    3    3  502    0  0.91912924062E+02  0.67253624339E+03 -0.49819875246E+03  0.84200776198E+03  0.46999998093E+01 0.  1.
       -5    1    3    3    0  502 -0.91912924062E+02 -0.67253624339E+03  0.10572271594E+04  0.12563854269E+04  0.46999998093E+01 0. -1.
</event>
<event>
 5   0  0.1921687E-04  0.2012785E+04  0.7818609E-02  0.8600667E-01
        2   -1    0    0  501    0  0.00000000000E+00  0.00000000000E+00  0.18338098930E+04  0.18338098930E+04  0.25500000920E-02 0. -1.
       -2   -1    0    0    0  501  0.00000000000E+00  0.00000000000E+00 -0.55230683655E+03  0.55230683655E+03  0.25500000920E-02 0.  1.
    10030    2    1    2    0    0  0.00000000000E+00  0.00000000000E+00  0.12815030565E+04  0.23861167296E+04  0.20127848776E+04 0.  0.
        5    1    3    3  502    0  0.39167612570E+03 -0.16653521607E+03 -0.44035153371E+03  0.61243426494E+03  0.46999998093E+01 0.  1.
       -5    1    3    3    0  502 -0.39167612570E+03  0.16653521607E+03  0.17218545902E+04  0.17736824646E+04  0.46999998093E+01 0. -1.
</event>
<event>
 5   0  0.8237966E-05  0.1667956E+04  0.7818609E-02  0.8779854E-01
       -1   -1    0    0    0  501  0.00000000000E+00  0.00000000000E+00  0.10321634460E+04  0.10321634460E+04  0.50400001928E-02 0. -1.
        1   -1    0    0  501    0  0.00000000000E+00  0.00000000000E+00 -0.67384571210E+03  0.67384571212E+03  0.50400001928E-02 0.  1.
    10030    2    1    2    0    0  0.00000000000E+00  0.00000000000E+00  0.35831773392E+03  0.17060091582E+04  0.16679555298E+04 0.  0.
        1    1    3    3  502    0 -0.54201808597E+03  0.52581877017E+03  0.54113974791E+03  0.92903240599E+03  0.50400001928E-02 0. -1.
       -1    1    3    3    0  502  0.54201808597E+03 -0.52581877017E+03 -0.18282201399E+03  0.77697675216E+03  0.50400001928E-02 0.  1.
</event>
<event>
 5   0  0.8525278E-05  0.1918987E+04  0.7818609E-02  0.8645463E-01
       -1   -1    0    0    0  501  0.00000000000E+00  0.00000000000E+00  0.80377063488E+03  0.80377063490E+03  0.50400001928E-02 0. -1.
        1   -1    0    0  501    0  0.00000000000E+00  0.00000000000E+00 -0.11453858796E+04  0.11453858796E+04  0.50400001928E-02 0.  1.
    10030    2    1    2    0    0  0.00000000000E+00  0.00000000000E+00 -0.34161524468E+03  0.19491565145E+04  0.19189867489E+04 0.  0.
        4    1    3    3  502    0  0.16256290485E+03  0.91922271501E+02  0.78513142339E+03  0.80703740119E+03  0.12699999809E+01 0. -1.
       -4    1    3    3    0  502 -0.16256290485E+03 -0.91922271501E+02 -0.11267466681E+04  0.11421191133E+04  0.12699999809E+01 0.  1.
</event>
<event>
 5   0  0.1815400E-04  0.2118769E+04  0.7818609E-02  0.8553020E-01
        2   -1    0    0  501    0  0.00000000000E+00  0.00000000000E+00  0.98428277086E+03  0.98428277086E+03  0.25500000920E-02 0. -1.
       -2   -1    0    0    0  501  0.00000000000E+00  0.00000000000E+00 -0.11402169144E+04  0.11402169144E+04  0.25500000920E-02 0.  1.
    10030    2    1    2    0    0  0.00000000000E+00  0.00000000000E+00 -0.15593414356E+03  0.21244996853E+04  0.21187693257E+04 0.  0.
        3    1    3    3  502    0  0.71471891554E+03  0.39340645364E+03 -0.75559366848E+03  0.11119863165E+04  0.10100000352E+00 0.  1.
       -3    1    3    3    0  502 -0.71471891554E+03 -0.39340645364E+03  0.59965952491E+03  0.10125133688E+04  0.10100000352E+00 0. -1.
</event>
<event>
 5   0  0.1810875E-04  0.1928066E+04  0.7818609E-02  0.8641011E-01
       -2   -1    0    0    0  501  0.00000000000E+00  0.00000000000E+00  0.11397009198E+04  0.11397009198E+04  0.25500000920E-02 0. -1.
        2   -1    0    0  501    0  0.00000000000E+00  0.00000000000E+00 -0.81544192481E+03  0.81544192481E+03  0.25500000920E-02 0.  1.
    10030    2    1    2    0    0  0.00000000000E+00  0.00000000000E+00  0.32425899498E+03  0.19551428446E+04  0.19280662974E+04 0.  0.
        1    1    3    3  502    0  0.87696649178E+03 -0.37586046705E+03  0.22284889550E+02  0.95437829749E+03  0.50400001928E-02 0. -1.
       -1    1    3    3    0  502 -0.87696649178E+03  0.37586046705E+03  0.30197410543E+03  0.10007645471E+04  0.50400001928E-02 0.  1.
</event>
<event>
 5   0  0.1921687E-04  0.2088123E+04  0.7818609E-02  0.8566493E-01
       -2   -1    0    0    0  501  0.00000000000E+00  0.00000000000E+00  0.22728101060E+04  0.22728101060E+04  0.25500000920E-02 0. -1.
        2   -1    0    0  501    0  0.00000000000E+00  0.00000000000E+00 -0.47961091117E+03  0.47961091118E+03  0.25500000920E-02 0.  1.
    10030    2    1    2    0    0  0.00000000000E+00  0.00000000000E+00  0.17931991948E+04  0.27524210171E+04  0.20881231054E+04 0.  0.
        5    1    3    3  502    0 -0.27152315746E+02  0.39058954987E+03 -0.37916179800E+03  0.54505339535E+03  0.46999998093E+01 0.  1.
       -5    1    3    3    0  502  0.27152315746E+02 -0.39058954987E+03  0.21723609928E+04  0.22073676218E+04  0.46999998093E+01 0. -1.
</event>
<event>
 5   0  0.8271069E-05  0.2084573E+04  0.7818609E-02  0.8568070E-01
       -1   -1    0    0    0  501  0.00000000000E+00  0.00000000000E+00  0.63802919805E+03  0.63802919807E+03  0.50400001928E-02 0.  1.
        1   -1    0    0  501    0  0.00000000000E+00  0.00000000000E+00 -0.17026822640E+04  0.17026822640E+04  0.50400001928E-02 0. -1.
    10030    2    1    2    0    0  0.00000000000E+00  0.00000000000E+00 -0.10646530659E+04  0.23407114620E+04  0.20845728574E+04 0.  0.
        2    1    3    3  502    0  0.97595605364E+03 -0.26130766389E+02 -0.12253470552E+03  0.98396533966E+03  0.25500000920E-02 0.  1.
       -2    1    3    3    0  502 -0.97595605364E+03  0.26130766389E+02 -0.94211836039E+03  0.13567461224E+04  0.25500000920E-02 0. -1.
</event>
<event>
 5   0  0.1815400E-04  0.2111478E+04  0.7818609E-02  0.8556204E-01
       -2   -1    0    0    0  501  0.00000000000E+00  0.00000000000E+00  0.12596953847E+04  0.12596953847E+04  0.25500000920E-02 0.  1.
        2   -1    0    0  501    0  0.00000000000E+00  0.00000000000E+00 -0.88480493867E+03  0.88480493867E+03  0.25500000920E-02 0. -1.
    10030    2    1    2    0    0  0.00000000000E+00  0.00000000000E+00  0.37489044599E+03  0.21445003233E+04  0.21114778688E+04 0.  0.
        3    1    3    3  502    0 -0.56699847185E+03  0.88366758681E+03  0.75130848027E+02  0.10526159440E+04  0.10100000352E+00 0. -1.
       -3    1    3    3    0  502  0.56699847185E+03 -0.88366758681E+03  0.29975959797E+03  0.10918843793E+04  0.10100000352E+00 0.  1.
</event>
<event>
 5   0  0.1777590E-04  0.2084088E+04  0.7818609E-02  0.8568285E-01
        2   -1    0    0  501    0  0.00000000000E+00  0.00000000000E+00  0.16159768860E+04  0.16159768860E+04  0.25500000920E-02 0.  1.
       -2   -1    0    0    0  501  0.00000000000E+00  0.00000000000E+00 -0.67194989960E+03  0.67194989961E+03  0.25500000920E-02 0. -1.
    10030    2    1    2    0    0  0.00000000000E+00  0.00000000000E+00  0.94402698638E+03  0.22879267856E+04  0.20840878161E+04 0.  0.
        4    1    3    3  502    0  0.77234328112E+03  0.27458847924E+03 -0.23429639548E+03  0.85253116697E+03  0.12699999809E+01 0. -1.
       -4    1    3    3    0  502 -0.77234328112E+03 -0.27458847924E+03  0.11783233819E+04  0.14353956186E+04  0.12699999809E+01 0.  1.
</event>
<event>
 5   0  0.6441125E-05  0.1498669E+04  0.7818609E-02  0.8885338E-01
       -3   -1    0    0    0  501  0.00000000000E+00  0.00000000000E+00  0.63540084240E+03  0.63540085042E+03  0.10100000352E+00 0.  1.
        3   -1    0    0  501    0  0.00000000000E+00  0.00000000000E+00 -0.88369807696E+03  0.88369808273E+03  0.10100000352E+00 0. -1.
    10030    2    1    2    0    0  0.00000000000E+00  0.00000000000E+00 -0.24829723456E+03  0.15190989332E+04  0.14986694272E+04 0.  0.
        4    1    3    3  502    0  0.47582310751E+03  0.30055299576E+03 -0.62562613644E+03  0.84151613674E+03  0.12699999809E+01 0. -1.
       -4    1    3    3    0  502 -0.47582310751E+03 -0.30055299576E+03  0.37732890188E+03  0.67758279641E+03  0.12699999809E+01 0.  1.
</event>
<event>
 5   0  0.1815400E-04  0.2115278E+04  0.7818609E-02  0.8554543E-01
        2   -1    0    0  501    0  0.00000000000E+00  0.00000000000E+00  0.17881185509E+04  0.17881185509E+04  0.25500000920E-02 0.  1.
       -2   -1    0    0    0  501  0.00000000000E+00  0.00000000000E+00 -0.62557361453E+03  0.62557361453E+03  0.25500000920E-02 0. -1.
    10030    2    1    2    0    0  0.00000000000E+00  0.00000000000E+00  0.11625449364E+04  0.24136921655E+04  0.21152775564E+04 0.  0.
        3    1    3    3  502    0 -0.55311910416E+03 -0.85734309134E+03  0.89918418083E+03  0.13599669558E+04  0.10100000352E+00 0.  1.
       -3    1    3    3    0  502  0.55311910416E+03  0.85734309134E+03  0.26336075557E+03  0.10537252096E+04  0.10100000352E+00 0. -1.
</event>
<event>
 5   0  0.1777590E-04  0.2172119E+04  0.7818609E-02  0.8530123E-01
        2   -1    0    0  501    0  0.00000000000E+00  0.00000000000E+00  0.23356590812E+04  0.23356590812E+04  0.25500000920E-02 0.  1.
       -2   -1    0    0    0  501  0.00000000000E+00  0.00000000000E+00 -0.50500724245E+03  0.50500724245E+03  0.25500000920E-02 0. -1.
    10030    2    1    2    0    0  0.00000000000E+00  0.00000000000E+00  0.18306518387E+04  0.28406663236E+04  0.21721185528E+04 0.  0.
        4    1    3    3  502    0 -0.37477785198E+03  0.88960685035E+03  0.15661572450E+04  0.18397578415E+04  0.12699999809E+01 0.  1.
       -4    1    3    3    0  502  0.37477785198E+03 -0.88960685035E+03  0.26449459375E+03  0.10009084821E+04  0.12699999809E+01 0. -1.
</event>
<event>
 5   0  0.1810875E-04  0.2144665E+04  0.7818609E-02  0.8541820E-01
        2   -1    0    0  501    0  0.00000000000E+00  0.00000000000E+00  0.18188872499E+04  0.18188872499E+04  0.25500000920E-02 0.  1.
       -2   -1    0    0    0  501  0.00000000000E+00  0.00000000000E+00 -0.63219778370E+03  0.63219778371E+03  0.25500000920E-02 0. -1.
    10030    2    1    2    0    0  0.00000000000E+00  0.00000000000E+00  0.11866894662E+04  0.24510850337E+04  0.21446645316E+04 0.  0.
        1    1    3    3  502    0  0.22435544759E+03  0.40013417826E+03  0.17010818640E+04  0.17618519335E+04  0.50400001928E-02 0.  1.
       -1    1    3    3    0  502 -0.22435544759E+03 -0.40013417826E+03 -0.51439239776E+03  0.68923310017E+03  0.50400001928E-02 0. -1.
</event>
<event>
 5   0  0.8525278E-05  0.2113633E+04  0.7818609E-02  0.8555262E-01
       -1   -1    0    0    0  501  0.00000000000E+00  0.00000000000E+00  0.51755294041E+03  0.51755294043E+03  0.50400001928E-02 0.  1.
        1   -1    0    0  501    0  0.00000000000E+00  0.00000000000E+00 -0.21579649005E+04  0.21579649005E+04  0.50400001928E-02 0. -1.
    10030    2    1    2    0    0  0.00000000000E+00  0.00000000000E+00 -0.16404119601E+04  0.26755178409E+04  0.21136329668E+04 0.  0.
        4    1    3    3  502    0 -0.53848130806E+03  0.90596842376E+03 -0.72119052574E+03  0.12770506221E+04  0.12699999809E+01 0.  1.
       -4    1    3    3    0  502  0.53848130806E+03 -0.90596842376E+03 -0.91922143431E+03  0.13984672188E+04  0.12699999809E+01 0. -1.
</event>
<event>
 5   0  0.1815400E-04  0.2002559E+04  0.7818609E-02  0.8605425E-01
        2   -1    0    0  501    0  0.00000000000E+00  0.00000000000E+00  0.14955496775E+04  0.14955496775E+04  0.25500000920E-02 0.  1.
       -2   -1    0    0    0  501  0.00000000000E+00  0.00000000000E+00 -0.67036265811E+03  0.67036265812E+03  0.25500000920E-02 0. -1.
    10030    2    1    2    0    0  0.00000000000E+00  0.00000000000E+00  0.82518701935E+03  0.21659123356E+04  0.20025590200E+04 0.  0.
        3    1    3    3  502    0  0.28785066105E+03 -0.95860634868E+03  0.38245445183E+03  0.10714735427E+04  0.10100000352E+00 0.  1.
       -3    1    3    3    0  502 -0.28785066105E+03  0.95860634868E+03  0.44273256752E+03  0.10944387929E+04  0.10100000352E+00 0. -1.
</event>
<event>
 5   0  0.1921687E-04  0.1966627E+04  0.7818609E-02  0.8622385E-01
        2   -1    0    0  501    0  0.00000000000E+00  0.00000000000E+00  0.20450607358E+04  0.20450607358E+04  0.25500000920E-02 0. -1.
       -2   -1    0    0    0  501  0.00000000000E+00  0.00000000000E+00 -0.47280035701E+03  0.47280035702E+03  0.25500000920E-02 0.  1.
    10030    2    1    2    0    0  0.00000000000E+00  0.00000000000E+00  0.15722603788E+04  0.25178610928E+04  0.19666270068E+04 0.  0.
        5    1    3    3  502    0  0.53304068173E+03 -0.82109112802E+02  0.18387851300E+04  0.19162534068E+04  0.46999998093E+01 0. -1.
       -5    1    3    3    0  502 -0.53304068173E+03  0.82109112802E+02 -0.26652475126E+03  0.60160768597E+03  0.46999998093E+01 0.  1.
</event>
<event>
 5   0  0.8755004E-05  0.2165274E+04  0.7818609E-02  0.8533022E-01
       -1   -1    0    0    0  501  0.00000000000E+00  0.00000000000E+00  0.16082412582E+04  0.16082412582E+04  0.50400001928E-02 0.  1.
        1   -1    0    0  501    0  0.00000000000E+00  0.00000000000E+00 -0.72881043553E+03  0.72881043554E+03  0.50400001928E-02 0. -1.
    10030    2    1    2    0    0  0.00000000000E+00  0.00000000000E+00  0.87943082268E+03  0.23370516938E+04  0.21652741275E+04 0.  0.
        3    1    3    3  502    0  0.45411084276E+03  0.67659970551E+03  0.12090755482E+04  0.14580354970E+04  0.10100000352E+00 0.  1.
       -3    1    3    3    0  502 -0.45411084276E+03 -0.67659970551E+03 -0.32964472549E+03  0.87901619681E+03  0.10100000352E+00 0. -1.
</event>
<event>
 5   0  0.8525278E-05  0.2143933E+04  0.7818609E-02  0.8542134E-01
        1   -1    0    0  501    0  0.00000000000E+00  0.00000000000E+00  0.14953937398E+04  0.14953937398E+04  0.50400001928E-02 0. -1.
       -1   -1    0    0    0  501  0.00000000000E+00  0.00000000000E+00 -0.76843433538E+03  0.76843433540E+03  0.50400001928E-02 0.  1.
    10030    2    1    2    0    0  0.00000000000E+00  0.00000000000E+00  0.72695940446E+03  0.22638280752E+04  0.21439327365E+04 0.  0.
        4    1    3    3  502    0  0.41215477613E+03  0.58293120657E+03  0.12078418703E+04  0.14030552191E+04  0.12699999809E+01 0. -1.
       -4    1    3    3    0  502 -0.41215477613E+03 -0.58293120657E+03 -0.48088246587E+03  0.86077285620E+03  0.12699999809E+01 0.  1.
</event>
<event>
 5   0  0.1777590E-04  0.2099774E+04  0.7818609E-02  0.8561343E-01
       -2   -1    0    0    0  501  0.00000000000E+00  0.00000000000E+00  0.75182994535E+03  0.75182994535E+03  0.25500000920E-02 0. -1.
        2   -1    0    0  501    0  0.00000000000E+00  0.00000000000E+00 -0.14661064587E+04  0.14661064587E+04  0.25500000920E-02 0.  1.
    10030    2    1    2    0    0  0.00000000000E+00  0.00000000000E+00 -0.71427651335E+03  0.22179364041E+04  0.20997740247E+04 0.  0.
        4    1    3    3  502    0 -0.57068116251E+03  0.51607045450E+03  0.39738102855E+03  0.86597863600E+03  0.12699999809E+01 0. -1.
       -4    1    3    3    0  502  0.57068116251E+03 -0.51607045450E+03 -0.11116575419E+04  0.13519577681E+04  0.12699999809E+01 0.  1.
</event>
<event>
 5   0  0.8755004E-05  0.2055713E+04  0.7818609E-02  0.8581007E-01
        1   -1    0    0  501    0  0.00000000000E+00  0.00000000000E+00  0.15111571625E+04  0.15111571625E+04  0.50400001928E-02 0.  1.
       -1   -1    0    0    0  501  0.00000000000E+00  0.00000000000E+00 -0.69912606190E+03  0.69912606192E+03  0.50400001928E-02 0. -1.
    10030    2    1    2    0    0  0.00000000000E+00  0.00000000000E+00  0.81203110055E+03  0.22102832244E+04  0.20557133613E+04 0.  0.
        3    1    3    3  502    0 -0.55697671215E+03  0.13844678641E+03 -0.51080022074E+03  0.76831467919E+03  0.10100000352E+00 0. -1.
       -3    1    3    3    0  502  0.55697671215E+03 -0.13844678641E+03  0.13228313213E+04  0.14419685452E+04  0.10100000352E+00 0.  1.
</event>
<event>
 5   0  0.1921687E-04  0.1903006E+04  0.7818609E-02  0.8653362E-01
        2   -1    0    0  501    0  0.00000000000E+00  0.00000000000E+00  0.19743342763E+04  0.19743342763E+04  0.25500000920E-02 0.  1.
       -2   -1    0    0    0  501  0.00000000000E+00  0.00000000000E+00 -0.45856344282E+03  0.45856344283E+03  0.25500000920E-02 0. -1.
    10030    2    1    2    0    0  0.00000000000E+00  0.00000000000E+00  0.15157708334E+04  0.24328977191E+04  0.19030055418E+04 0.  0.
        5    1    3    3  502    0  0.66454922731E+03  0.60444733993E+03  0.35694671392E+03  0.96665159641E+03  0.46999998093E+01 0. -1.
       -5    1    3    3    0  502 -0.66454922731E+03 -0.60444733993E+03  0.11588241195E+04  0.14662461227E+04  0.46999998093E+01 0.  1.
</event>
<event>
 5   0  0.1886323E-04  0.2111347E+04  0.7818609E-02  0.8556261E-01
        2   -1    0    0  501    0  0.00000000000E+00  0.00000000000E+00  0.13416267404E+04  0.13416267404E+04  0.25500000920E-02 0.  1.
       -2   -1    0    0    0  501  0.00000000000E+00  0.00000000000E+00 -0.83066836388E+03  0.83066836389E+03  0.25500000920E-02 0. -1.
    10030    2    1    2    0    0  0.00000000000E+00  0.00000000000E+00  0.51095837647E+03  0.21722951042E+04  0.21113473323E+04 0.  0.
        2    1    3    3  502    0 -0.23515191765E+03 -0.99819780946E+03 -0.22547055712E+01  0.10255244390E+04  0.25500000920E-02 0. -1.
       -2    1    3    3    0  502  0.23515191765E+03  0.99819780946E+03  0.51321308204E+03  0.11467706653E+04  0.25500000920E-02 0.  1.
</event>
<event>
 5   0  0.1921687E-04  0.2165834E+04  0.7818609E-02  0.8532785E-01
       -2   -1    0    0    0  501  0.00000000000E+00  0.00000000000E+00  0.58312501320E+03  0.58312501320E+03  0.25500000920E-02 0. -1.
        2   -1    0    0  501    0  0.00000000000E+00  0.00000000000E+00 -0.20110775692E+04  0.20110775692E+04  0.25500000920E-02 0.  1.
    10030    2    1    2    0    0  0.00000000000E+00  0.00000000000E+00 -0.14279525560E+04  0.25942025824E+04  0.21658343742E+04 0.  0.
        5    1    3    3  502    0  0.48189466356E+03  0.27296472296E+03  0.40064259362E+03  0.68357061418E+03  0.46999998093E+01 0. -1.
       -5    1    3    3    0  502 -0.48189466356E+03 -0.27296472296E+03 -0.18285951496E+04  0.19106319682E+04  0.46999998093E+01 0.  1.
</event>
<event>
 5   0  0.8486612E-05  0.2134250E+04  0.7818609E-02  0.8546304E-01
       -1   -1    0    0    0  501  0.00000000000E+00  0.00000000000E+00  0.54024596087E+03  0.54024596090E+03  0.50400001928E-02 0. -1.
        1   -1    0    0  501    0  0.00000000000E+00  0.00000000000E+00 -0.21078473822E+04  0.21078473822E+04  0.50400001928E-02 0.  1.
    10030    2    1    2    0    0  0.00000000000E+00  0.00000000000E+00 -0.15676014213E+04  0.26480933431E+04  0.21342502519E+04 0.  0.
        5    1    3    3  502    0 -0.28273762473E+03 -0.10756761577E+03 -0.20535192148E+04  0.20756865399E+04  0.46999998093E+01 0.  1.
       -5    1    3    3    0  502  0.28273762473E+03  0.10756761577E+03  0.48591779344E+03  0.57240680323E+03  0.46999998093E+01 0. -1.
</event>
<event>
 5   0  0.8525278E-05  0.2063647E+04  0.7818609E-02  0.8577428E-01
       -1   -1    0    0    0  501  0.00000000000E+00  0.00000000000E+00  0.98348463731E+03  0.98348463732E+03  0.50400001928E-02 0. -1.
        1   -1    0    0  501    0  0.00000000000E+00  0.00000000000E+00 -0.10825381178E+04  0.10825381178E+04  0.50400001928E-02 0.  1.
    10030    2    1    2    0    0  0.00000000000E+00  0.00000000000E+00 -0.99053480485E+02  0.20660227551E+04  0.20636468769E+04 0.  0.
        4    1    3    3  502    0 -0.40218878729E+03  0.71343145064E+03  0.57882451312E+03  0.10028856791E+04  0.12699999809E+01 0. -1.
       -4    1    3    3    0  502  0.40218878729E+03 -0.71343145064E+03 -0.67787799361E+03  0.10631370761E+04  0.12699999809E+01 0.  1.
</event>
<event>
 5   0  0.1815400E-04  0.2014109E+04  0.7818609E-02  0.8600053E-01
       -2   -1    0    0    0  501  0.00000000000E+00  0.00000000000E+00  0.46599381579E+03  0.46599381580E+03  0.25500000920E-02 0. -1.
        2   -1    0    0  501    0  0.00000000000E+00  0.00000000000E+00 -0.21763343413E+04  0.21763343413E+04  0.25500000920E-02 0.  1.
    10030    2    1    2    0    0  0.00000000000E+00  0.00000000000E+00 -0.17103405255E+04  0.26423281571E+04  0.20141085811E+04 0.  0.
        3    1    3    3  502    0  0.68376983705E+03  0.47220448372E+03 -0.16015073371E+04  0.18042571949E+04  0.10100000352E+00 0.  1.
       -3    1    3    3    0  502 -0.68376983705E+03 -0.47220448372E+03 -0.10883318840E+03  0.83807096215E+03  0.10100000352E+00 0. -1.
</event>
<event>
 5   0  0.8271069E-05  0.2090444E+04  0.7818609E-02  0.8565464E-01
        1   -1    0    0  501    0  0.00000000000E+00  0.00000000000E+00  0.10016148126E+04  0.10016148126E+04  0.50400001928E-02 0. -1.
       -1   -1    0    0    0  501  0.00000000000E+00  0.00000000000E+00 -0.10907279868E+04  0.10907279868E+04  0.50400001928E-02 0.  1.
    10030    2    1    2    0    0  0.00000000000E+00  0.00000000000E+00 -0.89113174220E+02  0.20923427994E+04  0.20904442667E+04 0.  0.
        2    1    3    3  502    0 -0.12471377376E+03 -0.79202729344E+03  0.62659587060E+03  0.10175869221E+04  0.25500000920E-02 0. -1.
       -2    1    3    3    0  502  0.12471377376E+03  0.79202729344E+03 -0.71570904482E+03  0.10747558773E+04  0.25500000920E-02 0.  1.
</event>
<event>
 5   0  0.1777590E-04  0.2083950E+04  0.7818609E-02  0.8568347E-01
       -2   -1    0    0    0  501  0.00000000000E+00  0.00000000000E+00  0.63977478501E+03  0.63977478502E+03  0.25500000920E-02 0. -1.
        2   -1    0    0  501    0  0.00000000000E+00  0.00000000000E+00 -0.16970218270E+04  0.16970218270E+04  0.25500000920E-02 0.  1.
    10030    2    1    2    0    0  0.00000000000E+00  0.00000000000E+00 -0.10572470420E+04  0.23367966120E+04  0.20839498790E+04 0.  0.
        4    1    3    3  502    0  0.82459974029E+03 -0.40653416044E+03 -0.10785048560E+04  0.14171835071E+04  0.12699999809E+01 0.  1.
       -4    1    3    3    0  502 -0.82459974029E+03  0.40653416044E+03  0.21257814025E+02  0.91961310498E+03  0.12699999809E+01 0. -1.
</event>
<event>
 5   0  0.8525278E-05  0.2254841E+04  0.7818609E-02  0.8495943E-01
       -1   -1    0    0    0  501  0.00000000000E+00  0.00000000000E+00  0.12021568651E+04  0.12021568651E+04  0.50400001928E-02 0. -1.
        1   -1    0    0  501    0  0.00000000000E+00  0.00000000000E+00 -0.10573304721E+04  0.10573304721E+04  0.50400001928E-02 0.  1.
    10030    2    1    2    0    0  0.00000000000E+00  0.00000000000E+00  0.14482639299E+03  0.22594873372E+04  0.22548410904E+04 0.  0.
        4    1    3    3  502    0  0.52110880125E+03 -0.99885746615E+03  0.29842101907E+02  0.11270149885E+04  0.12699999809E+01 0.  1.
       -4    1    3    3    0  502 -0.52110880125E+03  0.99885746615E+03  0.11498429108E+03  0.11324723487E+04  0.12699999809E+01 0. -1.
</event>
<event>
 5   0  0.8237966E-05  0.2104340E+04  0.7818609E-02  0.8559334E-01
        1   -1    0    0  501    0  0.00000000000E+00  0.00000000000E+00  0.11594171894E+04  0.11594171894E+04  0.50400001928E-02 0.  1.
       -1   -1    0    0    0  501  0.00000000000E+00  0.00000000000E+00 -0.95484303636E+03  0.95484303638E+03  0.50400001928E-02 0. -1.
    10030    2    1    2    0    0  0.00000000000E+00  0.00000000000E+00  0.20457415307E+03  0.21142602258E+04  0.21043397345E+04 0.  0.
        1    1    3    3  502    0  0.40622548890E+03  0.78366115324E+03 -0.47305331835E+03  0.10014606298E+04  0.50400001928E-02 0. -1.
       -1    1    3    3    0  502 -0.40622548890E+03 -0.78366115324E+03  0.67762747142E+03  0.11127995961E+04  0.50400001928E-02 0.  1.
</event>
<event>
 5   0  0.8486612E-05  0.2092000E+04  0.7818609E-02  0.8564776E-01
        1   -1    0    0  501    0  0.00000000000E+00  0.00000000000E+00  0.13508007672E+04  0.13508007672E+04  0.50400001928E-02 0. -1.
       -1   -1    0    0    0  501  0.00000000000E+00  0.00000000000E+00 -0.80997598463E+03  0.80997598464E+03  0.50400001928E-02 0.  1.
    10030    2    1    2    0    0  0.00000000000E+00  0.00000000000E+00  0.54082478254E+03  0.21607767518E+04  0.20920001735E+04 0.  0.
        5    1    3    3  502    0 -0.30346865972E+03 -0.17618711820E+03 -0.74735520574E+03  0.82564945443E+03  0.46999998093E+01 0.  1.
       -5    1    3    3    0  502  0.30346865972E+03  0.17618711820E+03  0.12881799883E+04  0.13351272974E+04  0.46999998093E+01 0. -1.
</event>
<event>
 5   0  0.8755004E-05  0.2077095E+04  0.7818609E-02  0.8571401E-01
       -1   -1    0    0    0  501  0.00000000000E+00  0.00000000000E+00  0.66102628991E+03  0.66102628993E+03  0.50400001928E-02 0. -1.
        1   -1    0    0  501    0  0.00000000000E+00  0.00000000000E+00 -0.16316770146E+04  0.16316770146E+04  0.50400001928E-02 0.  1.
    10030    2    1    2    0    0  0.00000000000E+00  0.00000000000E+00 -0.97065072467E+03  0.22927033045E+04  0.20770954752E+04 0.  0.
        3    1    3    3  502    0 -0.72702768283E+02  0.58986638657E+03  0.45475765421E+03  0.74835324599E+03  0.10100000352E+00 0. -1.
       -3    1    3    3    0  502  0.72702768283E+02 -0.58986638657E+03 -0.14254083789E+04  0.15443500585E+04  0.10100000352E+00 0.  1.
</event>
<event>
 5   0  0.1886323E-04  0.2112011E+04  0.7818609E-02  0.8555971E-01
       -2   -1    0    0    0  501  0.00000000000E+00  0.00000000000E+00  0.85184012925E+03  0.85184012925E+03  0.25500000920E-02 0.  1.
        2   -1    0    0  501    0  0.00000000000E+00  0.00000000000E+00 -0.13091043267E+04  0.13091043267E+04  0.25500000920E-02 0. -1.
    10030    2    1    2    0    0  0.00000000000E+00  0.00000000000E+00 -0.45726419747E+03  0.21609444560E+04  0.21120109838E+04 0.  0.
        2    1    3    3  502    0  0.60746359698E+03  0.80469490494E+02  0.65132919223E+03  0.89426901837E+03  0.25500000920E-02 0.  1.
       -2    1    3    3    0  502 -0.60746359698E+03 -0.80469490494E+02 -0.11085933897E+04  0.12666754376E+04  0.25500000920E-02 0. -1.
</event>
<event>
 5   0  0.8525278E-05  0.2075984E+04  0.7818609E-02  0.8571897E-01
       -1   -1    0    0    0  501  0.00000000000E+00  0.00000000000E+00  0.16888905926E+04  0.16888905926E+04  0.50400001928E-02 0.  1.
        1   -1    0    0  501    0  0.00000000000E+00  0.00000000000E+00 -0.63794973105E+03  0.63794973107E+03  0.50400001928E-02 0. -1.
    10030    2    1    2    0    0  0.00000000000E+00  0.00000000000E+00  0.10509408615E+04  0.23268403236E+04  0.20759839107E+04 0.  0.
        4    1    3    3  502    0 -0.42150444304E+03  0.36890454380E+03  0.15049496251E+04  0.16058118025E+04  0.12699999809E+01 0.  1.
       -4    1    3    3    0  502  0.42150444304E+03 -0.36890454380E+03 -0.45400876363E+03  0.72102852114E+03  0.12699999809E+01 0. -1.
</event>
<event>
 5   0  0.1921687E-04  0.2040041E+04  0.7818609E-02  0.8588126E-01
       -2   -1    0    0    0  501  0.00000000000E+00  0.00000000000E+00  0.73390073843E+03  0.73390073844E+03  0.25500000920E-02 0. -1.
        2   -1    0    0  501    0  0.00000000000E+00  0.00000000000E+00 -0.14176877022E+04  0.14176877022E+04  0.25500000920E-02 0.  1.
    10030    2    1    2    0    0  0.00000000000E+00  0.00000000000E+00 -0.68378696374E+03  0.21515884406E+04  0.20400412265E+04 0.  0.
        5    1    3    3  502    0  0.87133757617E+03  0.47694832580E+03 -0.58632219344E+03  0.11534750460E+04  0.46999998093E+01 0.  1.
       -5    1    3    3    0  502 -0.87133757617E+03 -0.47694832580E+03 -0.97464770299E+02  0.99811339465E+03  0.46999998093E+01 0. -1.
</event>
<event>
 5   0  0.1777590E-04  0.2108671E+04  0.7818609E-02  0.8557434E-01
        2   -1    0    0  501    0  0.00000000000E+00  0.00000000000E+00  0.15503869339E+04  0.15503869339E+04  0.25500000920E-02 0. -1.
       -2   -1    0    0    0  501  0.00000000000E+00  0.00000000000E+00 -0.71699707309E+03  0.71699707309E+03  0.25500000920E-02 0.  1.
    10030    2    1    2    0    0  0.00000000000E+00  0.00000000000E+00  0.83338986077E+03  0.22673840070E+04  0.21086705705E+04 0.  0.
        4    1    3    3  502    0 -0.16963446555E+03 -0.32743205982E+03 -0.64539118941E+03  0.74331622205E+03  0.12699999809E+01 0.  1.
       -4    1    3    3    0  502  0.16963446555E+03  0.32743205982E+03  0.14787810502E+04  0.15240677849E+04  0.12699999809E+01 0. -1.
</event>
<event>
 5   0  0.8237966E-05  0.2067049E+04  0.7818609E-02  0.8575899E-01
       -1   -1    0    0    0  501  0.00000000000E+00  0.00000000000E+00  0.65431330281E+03  0.65431330283E+03  0.50400001928E-02 0. -1.
        1   -1    0    0  501    0  0.00000000000E+00  0.00000000000E+00 -0.16325097968E+04  0.16325097968E+04  0.50400001928E-02 0.  1.
    10030    2    1    2    0    0  0.00000000000E+00  0.00000000000E+00 -0.97819649398E+03  0.22868230996E+04  0.20670489854E+04 0.  0.
        1    1    3    3  502    0  0.84869416758E+03 -0.55317699708E+03 -0.26267668365E+03  0.10465589426E+04  0.50400001928E-02 0. -1.
       -1    1    3    3    0  502 -0.84869416758E+03  0.55317699708E+03 -0.71551981033E+03  0.12402641570E+04  0.50400001928E-02 0.  1.
</event>
<event>
 5   0  0.1921687E-04  0.2099016E+04  0.7818609E-02  0.8561677E-01
       -2   -1    0    0    0  501  0.00000000000E+00  0.00000000000E+00  0.98073007579E+03  0.98073007579E+03  0.25500000920E-02 0. -1.
        2   -1    0    0  501    0  0.00000000000E+00  0.00000000000E+00 -0.11231088313E+04  0.11231088313E+04  0.25500000920E-02 0.  1.
    10030    2    1    2    0    0  0.00000000000E+00  0.00000000000E+00 -0.14237875555E+03  0.21038389071E+04  0.20990155876E+04 0.  0.
        5    1    3    3  502    0  0.37311467676E+03  0.52404958946E+03  0.75993377285E+03  0.99567261855E+03  0.46999998093E+01 0. -1.
       -5    1    3    3    0  502 -0.37311467676E+03 -0.52404958946E+03 -0.90231252840E+03  0.11081662886E+04  0.46999998093E+01 0.  1.
</event>
<event>
 5   0  0.1810875E-04  0.2091307E+04  0.7818609E-02  0.8565082E-01
       -2   -1    0    0    0  501  0.00000000000E+00  0.00000000000E+00  0.61653564760E+03  0.61653564760E+03  0.25500000920E-02 0. -1.
        2   -1    0    0  501    0  0.00000000000E+00  0.00000000000E+00 -0.17734443156E+04  0.17734443156E+04  0.25500000920E-02 0.  1.
    10030    2    1    2    0    0  0.00000000000E+00  0.00000000000E+00 -0.11569086680E+04  0.23899799632E+04  0.20913073802E+04 0.  0.
        1    1    3    3  502    0 -0.90823902854E+03  0.47510035702E+03 -0.81480783774E+03  0.13094007388E+04  0.50400001928E-02 0.  1.
       -1    1    3    3    0  502  0.90823902854E+03 -0.47510035702E+03 -0.34210083027E+03  0.10805792244E+04  0.50400001928E-02 0. -1.
</event>
<event>
 5   0  0.1815400E-04  0.2121756E+04  0.7818609E-02  0.8551720E-01
       -2   -1    0    0    0  501  0.00000000000E+00  0.00000000000E+00  0.10679390761E+04  0.10679390761E+04  0.25500000920E-02 0.  1.
        2   -1    0    0  501    0  0.00000000000E+00  0.00000000000E+00 -0.10538639191E+04  0.10538639191E+04  0.25500000920E-02 0. -1.
    10030    2    1    2    0    0  0.00000000000E+00  0.00000000000E+00  0.14075156960E+02  0.21218029951E+04  0.21217563103E+04 0.  0.
        3    1    3    3  502    0  0.13569774999E+03 -0.72707799838E+03 -0.75350933547E+03  0.10558563463E+04  0.10100000352E+00 0.  1.
       -3    1    3    3    0  502 -0.13569774999E+03  0.72707799838E+03  0.76758449243E+03  0.10659466489E+04  0.10100000352E+00 0. -1.
</event>
<event>
 5   0  0.8237966E-05  0.1978933E+04  0.7818609E-02  0.8616534E-01
        1   -1    0    0  501    0  0.00000000000E+00  0.00000000000E+00  0.13056155218E+04  0.13056155218E+04  0.50400001928E-02 0.  1.
       -1   -1    0    0    0  501  0.00000000000E+00  0.00000000000E+00 -0.74987140560E+03  0.74987140561E+03  0.50400001928E-02 0. -1.
    10030    2    1    2    0    0  0.00000000000E+00  0.00000000000E+00  0.55574411622E+03  0.20554869274E+04  0.19789327897E+04 0.  0.
        1    1    3    3  502    0  0.19819644251E+03  0.65154512259E+03 -0.46770586755E+03  0.82616079256E+03  0.50400001928E-02 0. -1.
       -1    1    3    3    0  502 -0.19819644251E+03 -0.65154512259E+03  0.10234499838E+04  0.12293261349E+04  0.50400001928E-02 0.  1.
</event>
<event>
 5   0  0.8271069E-05  0.2076438E+04  0.7818609E-02  0.8571694E-01
       -1   -1    0    0    0  501  0.00000000000E+00  0.00000000000E+00  0.11952395432E+04  0.11952395432E+04  0.50400001928E-02 0. -1.
        1   -1    0    0  501    0  0.00000000000E+00  0.00000000000E+00 -0.90182626330E+03  0.90182626332E+03  0.50400001928E-02 0.  1.
    10030    2    1    2    0    0  0.00000000000E+00  0.00000000000E+00  0.29341327985E+03  0.20970658065E+04  0.20764377294E+04 0.  0.
        2    1    3    3  502    0  0.58454047336E+03  0.23590277828E+03 -0.68644986360E+03  0.93196089030E+03  0.25500000920E-02 0.  1.
       -2    1    3    3    0  502 -0.58454047336E+03 -0.23590277828E+03  0.97986314346E+03  0.11651049162E+04  0.25500000920E-02 0. -1.
</event>
<event>
 5   0  0.1810875E-04  0.2142745E+04  0.7818609E-02  0.8542644E-01
       -2   -1    0    0    0  501  0.00000000000E+00  0.00000000000E+00  0.71856477967E+03  0.71856477967E+03  0.25500000920E-02 0. -1.
        2   -1    0    0  501    0  0.00000000000E+00  0.00000000000E+00 -0.15974046571E+04  0.15974046571E+04  0.25500000920E-02 0.  1.
    10030    2    1    2    0    0  0.00000000000E+00  0.00000000000E+00 -0.87883987744E+03  0.23159694368E+04  0.21427447123E+04 0.  0.
        1    1    3    3  502    0  0.19906242075E+01  0.88855651397E+03 -0.10863942830E+04  0.14034917810E+04  0.50400001928E-02 0.  1.
       -1    1    3    3    0  502 -0.19906242075E+01 -0.88855651397E+03  0.20755440554E+03  0.91247765583E+03  0.50400001928E-02 0. -1.
</event>
<event>
 5   0  0.1815400E-04  0.2071421E+04  0.7818609E-02  0.8573938E-01
        2   -1    0    0  501    0  0.00000000000E+00  0.00000000000E+00  0.23346553086E+04  0.23346553086E+04  0.25500000920E-02 0.  1.
       -2   -1    0    0    0  501  0.00000000000E+00  0.00000000000E+00 -0.45946665840E+03  0.45946665840E+03  0.25500000920E-02 0. -1.
    10030    2    1    2    0    0  0.00000000000E+00  0.00000000000E+00  0.18751886502E+04  0.27941219670E+04  0.20714210322E+04 0.  0.
        3    1    3    3  502    0 -0.76655280881E+03  0.51489065557E+03  0.30493598799E+03  0.97247188281E+03  0.10100000352E+00 0. -1.
       -3    1    3    3    0  502  0.76655280881E+03 -0.51489065557E+03  0.15702526622E+04  0.18216500842E+04  0.10100000352E+00 0.  1.
</event>
<event>
 5   0  0.8486612E-05  0.2123474E+04  0.7818609E-02  0.8550973E-01
       -1   -1    0    0    0  501  0.00000000000E+00  0.00000000000E+00  0.62771232384E+03  0.62771232386E+03  0.50400001928E-02 0.  1.
        1   -1    0    0  501    0  0.00000000000E+00  0.00000000000E+00 -0.17958623898E+04  0.17958623898E+04  0.50400001928E-02 0. -1.
    10030    2    1    2    0    0  0.00000000000E+00  0.00000000000E+00 -0.11681500659E+04  0.24235747137E+04  0.21234735261E+04 0.  0.
        5    1    3    3  502    0  0.98265639763E+03 -0.37648446211E+03 -0.42303597943E+03  0.11341673932E+04  0.46999998093E+01 0. -1.
       -5    1    3    3    0  502 -0.98265639763E+03  0.37648446211E+03 -0.74511408651E+03  0.12894073204E+04  0.46999998093E+01 0.  1.
</event>
<event>
 5   0  0.1815400E-04  0.2146720E+04  0.7818609E-02  0.8540938E-01
       -2   -1    0    0    0  501  0.00000000000E+00  0.00000000000E+00  0.52743905345E+03  0.52743905345E+03  0.25500000920E-02 0. -1.
        2   -1    0    0  501    0  0.00000000000E+00  0.00000000000E+00 -0.21843310463E+04  0.21843310463E+04  0.25500000920E-02 0.  1.
    10030    2    1    2    0    0  0.00000000000E+00  0.00000000000E+00 -0.16568919929E+04  0.27117700998E+04  0.21467198229E+04 0.  0.
        3    1    3    3  502    0 -0.81512487159E+03 -0.67568990531E+03 -0.10512741057E+04  0.14920330626E+04  0.10100000352E+00 0.  1.
       -3    1    3    3    0  502  0.81512487159E+03  0.67568990531E+03 -0.60561788724E+03  0.12197370372E+04  0.10100000352E+00 0. -1.
</event>
<event>
 5   0  0.8525278E-05  0.2056920E+04  0.7818609E-02  0.8580461E-01
       -1   -1    0    0    0  501  0.00000000000E+00  0.00000000000E+00  0.77196694249E+03  0.77196694251E+03  0.50400001928E-02 0. -1.
        1   -1    0    0  501    0  0.00000000000E+00  0.00000000000E+00 -0.13701758677E+04  0.13701758677E+04  0.50400001928E-02 0.  1.
    10030    2    1    2    0    0  0.00000000000E+00  0.00000000000E+00 -0.59820892519E+03  0.21421428102E+04  0.20569204897E+04 0.  0.
        4    1    3    3  502    0  0.32828247309E+03  0.82178075414E+03  0.24666539693E+03  0.91866121119E+03  0.12699999809E+01 0. -1.
       -4    1    3    3    0  502 -0.32828247309E+03 -0.82178075414E+03 -0.84487432213E+03  0.12234815990E+04  0.12699999809E+01 0.  1.
</event>
<event>
 5   0  0.8525278E-05  0.2097230E+04  0.7818609E-02  0.8562465E-01
       -1   -1    0    0    0  501  0.00000000000E+00  0.00000000000E+00  0.95913545162E+03  0.95913545163E+03  0.50400001928E-02 0. -1.
        1   -1    0    0  501    0  0.00000000000E+00  0.00000000000E+00 -0.11464423824E+04  0.11464423824E+04  0.50400001928E-02 0.  1.
    10030    2    1    2    0    0  0.00000000000E+00  0.00000000000E+00 -0.18730693080E+03  0.21055778341E+04  0.20972301087E+04 0.  0.
        4    1    3    3  502    0 -0.72328849177E+03  0.73306682732E+03 -0.29207286391E+03  0.10704398098E+04  0.12699999809E+01 0.  1.
       -4    1    3    3    0  502  0.72328849177E+03 -0.73306682732E+03  0.10476593312E+03  0.10351380243E+04  0.12699999809E+01 0. -1.
</event>
<event>
 5   0  0.1815400E-04  0.2187847E+04  0.7818609E-02  0.8523504E-01
        2   -1    0    0  501    0  0.00000000000E+00  0.00000000000E+00  0.25522859369E+04  0.25522859369E+04  0.25500000920E-02 0.  1.
       -2   -1    0    0    0  501  0.00000000000E+00  0.00000000000E+00 -0.46886147271E+03  0.46886147272E+03  0.25500000920E-02 0. -1.
    10030    2    1    2    0    0  0.00000000000E+00  0.00000000000E+00  0.20834244642E+04  0.30211474096E+04  0.21878469262E+04 0.  0.
        3    1    3    3  502    0  0.79623435038E+03  0.74701702317E+03  0.94760002872E+03  0.14456726456E+04  0.10100000352E+00 0. -1.
       -3    1    3    3    0  502 -0.79623435038E+03 -0.74701702317E+03  0.11358244355E+04  0.15754747640E+04  0.10100000352E+00 0.  1.
</event>
<event>
 5   0  0.8486612E-05  0.2029885E+04  0.7818609E-02  0.8592775E-01
       -1   -1    0    0    0  501  0.00000000000E+00  0.00000000000E+00  0.12470598364E+04  0.12470598365E+04  0.50400001928E-02 0. -1.
        1   -1    0    0  501    0  0.00000000000E+00  0.00000000000E+00 -0.82602945335E+03  0.82602945337E+03  0.50400001928E-02 0.  1.
    10030    2    1    2    0    0  0.00000000000E+00  0.00000000000E+00  0.42103038309E+03  0.20730892898E+04  0.20298848785E+04 0.  0.
        5    1    3    3  502    0  0.31765945633E+03 -0.41314440766E+03 -0.67893492443E+03  0.85590335517E+03  0.46999998093E+01 0.  1.
       -5    1    3    3    0  502 -0.31765945633E+03  0.41314440766E+03  0.10999653075E+04  0.12171859347E+04  0.46999998093E+01 0. -1.
</event>
<event>
 5   0  0.8237966E-05  0.1430240E+04  0.7818609E-02  0.8932215E-01
        1   -1    0    0  501    0  0.00000000000E+00  0.00000000000E+00  0.10529866903E+04  0.10529866903E+04  0.50400001928E-02 0. -1.
       -1   -1    0    0    0  501  0.00000000000E+00  0.00000000000E+00 -0.48566325434E+03  0.48566325437E+03  0.50400001928E-02 0.  1.
    10030    2    1    2    0    0  0.00000000000E+00  0.00000000000E+00  0.56732343594E+03  0.15386499447E+04  0.14302404592E+04 0.  0.
        1    1    3    3  502    0  0.68157650746E+03  0.50087396687E+02  0.51019746340E+03  0.85285211761E+03  0.50400001928E-02 0. -1.
       -1    1    3    3    0  502 -0.68157650746E+03 -0.50087396687E+02  0.57125972545E+02  0.68579782705E+03  0.50400001928E-02 0.  1.
</event>
<event>
 5   0  0.8525278E-05  0.2085960E+04  0.7818609E-02  0.8567454E-01
       -1   -1    0    0    0  501  0.00000000000E+00  0.00000000000E+00  0.49754945035E+03  0.49754945038E+03  0.50400001928E-02 0.  1.
        1   -1    0    0  501    0  0.00000000000E+00  0.00000000000E+00 -0.21863291204E+04  0.21863291204E+04  0.50400001928E-02 0. -1.
    10030    2    1    2    0    0  0.00000000000E+00  0.00000000000E+00 -0.16887796701E+04  0.26838785708E+04  0.20859595894E+04 0.  0.
        4    1    3    3  502    0 -0.47766230724E+03 -0.11263464353E+03 -0.20284881268E+04  0.20870106699E+04  0.12699999809E+01 0. -1.
       -4    1    3    3    0  502  0.47766230724E+03  0.11263464353E+03  0.33970845673E+03  0.59686790093E+03  0.12699999809E+01 0.  1.
</event>
<event>
 5   0  0.1886323E-04  0.2067370E+04  0.7818609E-02  0.8575755E-01
        2   -1    0    0  501    0  0.00000000000E+00  0.00000000000E+00  0.19767480645E+04  0.19767480645E+04  0.25500000920E-02 0.  1.
       -2   -1    0    0    0  501  0.00000000000E+00  0.00000000000E+00 -0.54053679940E+03  0.54053679940E+03  0.25500000920E-02 0. -1.
    10030    2    1    2    0    0  0.00000000000E+00  0.00000000000E+00  0.14362112651E+04  0.25172848639E+04  0.20673703800E+04 0.  0.
        2    1    3    3  502    0 -0.16080352922E+03 -0.94846242504E+03  0.11786619945E+04  0.15214081780E+04  0.25500000920E-02 0.  1.
       -2    1    3    3    0  502  0.16080352922E+03  0.94846242504E+03  0.25754927056E+03  0.99587668589E+03  0.25500000920E-02 0. -1.
</event>
<event>
 5   0  0.1886323E-04  0.2080847E+04  0.7818609E-02  0.8569728E-01
        2   -1    0    0  501    0  0.00000000000E+00  0.00000000000E+00  0.19285223190E+04  0.19285223190E+04  0.25500000920E-02 0. -1.
       -2   -1    0    0    0  501  0.00000000000E+00  0.00000000000E+00 -0.56130074389E+03  0.56130074389E+03  0.25500000920E-02 0.  1.
    10030    2    1    2    0    0  0.00000000000E+00  0.00000000000E+00  0.13672215751E+04  0.24898230629E+04  0.20808469547E+04 0.  0.
        2    1    3    3  502    0 -0.63165829036E+03 -0.25931443839E+03  0.16229122393E+04  0.17607044926E+04  0.25500000920E-02 0. -1.
       -2    1    3    3    0  502  0.63165829036E+03  0.25931443839E+03 -0.25569066423E+03  0.72911857027E+03  0.25500000920E-02 0.  1.
</event>
<event>
 5   0  0.1886323E-04  0.2161177E+04  0.7818609E-02  0.8534763E-01
       -2   -1    0    0    0  501  0.00000000000E+00  0.00000000000E+00  0.69940125748E+03  0.69940125749E+03  0.25500000920E-02 0. -1.
        2   -1    0    0  501    0  0.00000000000E+00  0.00000000000E+00 -0.16695302584E+04  0.16695302584E+04  0.25500000920E-02 0.  1.
    10030    2    1    2    0    0  0.00000000000E+00  0.00000000000E+00 -0.97012900090E+03  0.23689315159E+04  0.21611770516E+04 0.  0.
        2    1    3    3  502    0  0.67458588641E+03 -0.38387137621E+03 -0.13091679964E+04  0.15219540710E+04  0.25500000920E-02 0.  1.
       -2    1    3    3    0  502 -0.67458588641E+03  0.38387137621E+03  0.33903899547E+03  0.84697744484E+03  0.25500000920E-02 0. -1.
</event>
<event>
 5   0  0.8271069E-05  0.2167525E+04  0.7818609E-02  0.8532068E-01
       -1   -1    0    0    0  501  0.00000000000E+00  0.00000000000E+00  0.58709080190E+03  0.58709080192E+03  0.50400001928E-02 0.  1.
        1   -1    0    0  501    0  0.00000000000E+00  0.00000000000E+00 -0.20006118222E+04  0.20006118222E+04  0.50400001928E-02 0. -1.
    10030    2    1    2    0    0  0.00000000000E+00  0.00000000000E+00 -0.14135210203E+04  0.25877026242E+04  0.21675246703E+04 0.  0.
        2    1    3    3  502    0 -0.76530225020E+03 -0.26788870211E+03 -0.15652459386E+04  0.17627951495E+04  0.25500000920E-02 0. -1.
       -2    1    3    3    0  502  0.76530225020E+03  0.26788870211E+03  0.15172491826E+03  0.82490747464E+03  0.25500000920E-02 0.  1.
</event>
<event>
 5   0  0.8525278E-05  0.2138385E+04  0.7818609E-02  0.8544521E-01
       -1   -1    0    0    0  501  0.00000000000E+00  0.00000000000E+00  0.72333318810E+03  0.72333318812E+03  0.50400001928E-02 0. -1.
        1   -1    0    0  501    0  0.00000000000E+00  0.00000000000E+00 -0.15804229853E+04  0.15804229853E+04  0.50400001928E-02 0.  1.
    10030    2    1    2    0    0  0.00000000000E+00  0.00000000000E+00 -0.85708979721E+03  0.23037561734E+04  0.21383848078E+04 0.  0.
        4    1    3    3  502    0 -0.64509143994E+03  0.71767724874E+03 -0.92454865690E+03  0.13364114004E+04  0.12699999809E+01 0.  1.
       -4    1    3    3    0  502  0.64509143994E+03 -0.71767724874E+03  0.67458859695E+02  0.96734477302E+03  0.12699999809E+01 0. -1.
</event>
<event>
 5   0  0.8755004E-05  0.1755004E+04  0.7818609E-02  0.8730601E-01
       -1   -1    0    0    0  501  0.00000000000E+00  0.00000000000E+00  0.39634597788E+03  0.39634597792E+03  0.50400001928E-02 0. -1.
        1   -1    0    0  501    0  0.00000000000E+00  0.00000000000E+00 -0.19427709132E+04  0.19427709132E+04  0.50400001928E-02 0.  1.
    10030    2    1    2    0    0  0.00000000000E+00  0.00000000000E+00 -0.15464249353E+04  0.23391168911E+04  0.17550036324E+04 0.  0.
        3    1    3    3  502    0 -0.78268935767E+03  0.51080055878E+01 -0.13019615765E+04  0.15191223385E+04  0.10100000352E+00 0.  1.
       -3    1    3    3    0  502  0.78268935767E+03 -0.51080055878E+01 -0.24446335875E+03  0.81999455260E+03  0.10100000352E+00 0. -1.
</event>
<event>
 5   0  0.1921687E-04  0.2109758E+04  0.7818609E-02  0.8556957E-01
       -2   -1    0    0    0  501  0.00000000000E+00  0.00000000000E+00  0.68078807096E+03  0.68078807097E+03  0.25500000920E-02 0. -1.
        2   -1    0    0  501    0  0.00000000000E+00  0.00000000000E+00 -0.16345318395E+04  0.16345318395E+04  0.25500000920E-02 0.  1.
    10030    2    1    2    0    0  0.00000000000E+00  0.00000000000E+00 -0.95374376850E+03  0.23153199104E+04  0.21097580695E+04 0.  0.
        5    1    3    3  502    0  0.19387547853E+03  0.70312664498E+02 -0.16121809167E+04  0.16253248814E+04  0.46999998093E+01 0.  1.
       -5    1    3    3    0  502 -0.19387547853E+03 -0.70312664498E+02  0.65843714819E+03  0.68999502903E+03  0.46999998093E+01 0. -1.
</event>
<event>
 5   0  0.8525278E-05  0.2230744E+04  0.7818609E-02  0.8505740E-01
       -1   -1    0    0    0  501  0.00000000000E+00  0.00000000000E+00  0.10597164745E+04  0.10597164745E+04  0.50400001928E-02 0.  1.
        1   -1    0    0  501    0  0.00000000000E+00  0.00000000000E+00 -0.11739509013E+04  0.11739509013E+04  0.50400001928E-02 0. -1.
    10030    2    1    2    0    0  0.00000000000E+00  0.00000000000E+00 -0.11423442680E+03  0.22336673759E+04  0.22307443695E+04 0.  0.
        4    1    3    3  502    0 -0.57466709877E+03 -0.75185884197E+03 -0.64824617811E+03  0.11470652610E+04  0.12699999809E+01 0.  1.
       -4    1    3    3    0  502  0.57466709877E+03  0.75185884197E+03  0.53401175131E+03  0.10866021149E+04  0.12699999809E+01 0. -1.
</event>
<event>
 5   0  0.1921687E-04  0.2092175E+04  0.7818609E-02  0.8564698E-01
        2   -1    0    0  501    0  0.00000000000E+00  0.00000000000E+00  0.11972266176E+04  0.11972266176E+04  0.25500000920E-02 0.  1.
       -2   -1    0    0    0  501  0.00000000000E+00  0.00000000000E+00 -0.91402825217E+03  0.91402825217E+03  0.25500000920E-02 0. -1.
    10030    2    1    2    0    0  0.00000000000E+00  0.00000000000E+00  0.28319836547E+03  0.21112548698E+04  0.20921748997E+04 0.  0.
        5    1    3    3  502    0  0.72726293755E+03  0.10828731654E+03  0.89245430494E+03  0.11563452338E+04  0.46999998093E+01 0.  1.
       -5    1    3    3    0  502 -0.72726293755E+03 -0.10828731654E+03 -0.60925593946E+03  0.95490963605E+03  0.46999998093E+01 0. -1.
</event>
<event>
 5   0  0.8525278E-05  0.1373114E+04  0.7818609E-02  0.8973513E-01
       -1   -1    0    0    0  501  0.00000000000E+00  0.00000000000E+00  0.48184718024E+03  0.48184718027E+03  0.50400001928E-02 0.  1.
        1   -1    0    0  501    0  0.00000000000E+00  0.00000000000E+00 -0.97823623698E+03  0.97823623699E+03  0.50400001928E-02 0. -1.
    10030    2    1    2    0    0  0.00000000000E+00  0.00000000000E+00 -0.49638905674E+03  0.14600834173E+04  0.13731137934E+04 0.  0.
        4    1    3    3  502    0 -0.23777309009E+03 -0.55837968122E+03 -0.58951568424E+03  0.84608171333E+03  0.12699999809E+01 0. -1.
       -4    1    3    3    0  502  0.23777309009E+03  0.55837968122E+03  0.93126627504E+02  0.61400170392E+03  0.12699999809E+01 0.  1.
</event>
<event>
 5   0  0.8486612E-05  0.2091515E+04  0.7818609E-02  0.8564990E-01
        1   -1    0    0  501    0  0.00000000000E+00  0.00000000000E+00  0.95438724768E+03  0.95438724770E+03  0.50400001928E-02 0.  1.
       -1   -1    0    0    0  501  0.00000000000E+00  0.00000000000E+00 -0.11458754995E+04  0.11458754995E+04  0.50400001928E-02 0. -1.
    10030    2    1    2    0    0  0.00000000000E+00  0.00000000000E+00 -0.19148825182E+03  0.21002627472E+04  0.20915152060E+04 0.  0.
        5    1    3    3  502    0 -0.14918270075E+03  0.14344160738E+03  0.93360694758E+03  0.95628185986E+03  0.46999998093E+01 0.  1.
       -5    1    3    3    0  502  0.14918270075E+03 -0.14344160738E+03 -0.11250951994E+04  0.11439808874E+04  0.46999998093E+01 0. -1.
</event>
<event>
 5   0  0.8755004E-05  0.2100946E+04  0.7818609E-02  0.8560827E-01
        1   -1    0    0  501    0  0.00000000000E+00  0.00000000000E+00  0.12751831106E+04  0.12751831107E+04  0.50400001928E-02 0. -1.
       -1   -1    0    0    0  501  0.00000000000E+00  0.00000000000E+00 -0.86536045979E+03  0.86536045981E+03  0.50400001928E-02 0.  1.
    10030    2    1    2    0    0  0.00000000000E+00  0.00000000000E+00  0.40982265086E+03  0.21405435705E+04  0.21009455423E+04 0.  0.
        3    1    3    3  502    0  0.49995323442E+00  0.31434509547E+03  0.12261403351E+04  0.12657935142E+04  0.10100000352E+00 0. -1.
       -3    1    3    3    0  502 -0.49995323442E+00 -0.31434509547E+03 -0.81631768429E+03  0.87475005623E+03  0.10100000352E+00 0.  1.
</event>
<event>
 5   0  0.8755004E-05  0.2132404E+04  0.7818609E-02  0.8547102E-01
       -1   -1    0    0    0  501  0.00000000000E+00  0.00000000000E+00  0.95050196156E+03  0.95050196158E+03  0.50400001928E-02 0.  1.
        1   -1    0    0  501    0  0.00000000000E+00  0.00000000000E+00 -0.11959857235E+04  0.11959857235E+04  0.50400001928E-02 0. -1.
    10030    2    1    2    0    0  0.00000000000E+00  0.00000000000E+00 -0.24548376195E+03  0.21464876851E+04  0.21324040670E+04 0.  0.
        3    1    3    3  502    0 -0.13403655333E+03 -0.10533233506E+04 -0.25507382798E+02  0.10621235876E+04  0.10100000352E+00 0.  1.
       -3    1    3    3    0  502  0.13403655333E+03  0.10533233506E+04 -0.21997637916E+03  0.10843640975E+04  0.10100000352E+00 0. -1.
</event>
<event>
 5   0  0.1777590E-04  0.2104317E+04  0.7818609E-02  0.8559344E-01
       -2   -1    0    0    0  501  0.00000000000E+00  0.00000000000E+00  0.89655623612E+03  0.89655623613E+03  0.25500000920E-02 0. -1.
        2   -1    0    0  501    0  0.00000000000E+00  0.00000000000E+00 -0.12347668414E+04  0.12347668414E+04  0.25500000920E-02 0.  1.
    10030    2    1    2    0    0  0.00000000000E+00  0.00000000000E+00 -0.33821060530E+03  0.21313230776E+04  0.21043173828E+04 0.  0.
        4    1    3    3  502    0  0.64281319401E+03  0.53364255372E+03  0.47867524187E+03  0.96286799594E+03  0.12699999809E+01 0. -1.
       -4    1    3    3    0  502 -0.64281319401E+03 -0.53364255372E+03 -0.81688584717E+03  0.11684550816E+04  0.12699999809E+01 0.  1.
</event>
<event>
 5   0  0.1886323E-04  0.2215902E+04  0.7818609E-02  0.8511839E-01
        2   -1    0    0  501    0  0.00000000000E+00  0.00000000000E+00  0.22153665221E+04  0.22153665221E+04  0.25500000920E-02 0. -1.
       -2   -1    0    0    0  501  0.00000000000E+00  0.00000000000E+00 -0.55410922216E+03  0.55410922217E+03  0.25500000920E-02 0.  1.
    10030    2    1    2    0    0  0.00000000000E+00  0.00000000000E+00  0.16612572999E+04  0.27694757443E+04  0.22159016407E+04 0.  0.
        2    1    3    3  502    0 -0.98910998176E+03  0.41467163749E+03  0.48322418772E+03  0.11763489017E+04  0.25500000920E-02 0.  1.
       -2    1    3    3    0  502  0.98910998176E+03 -0.41467163749E+03  0.11780331122E+04  0.15931268425E+04  0.25500000920E-02 0. -1.
</event>
<event>
 5   0  0.8755004E-05  0.2290370E+04  0.7818609E-02  0.8481728E-01
        1   -1    0    0  501    0  0.00000000000E+00  0.00000000000E+00  0.13928266153E+04  0.13928266153E+04  0.50400001928E-02 0. -1.
       -1   -1    0    0    0  501  0.00000000000E+00  0.00000000000E+00 -0.94157344697E+03  0.94157344699E+03  0.50400001928E-02 0.  1.
    10030    2    1    2    0    0  0.00000000000E+00  0.00000000000E+00  0.45125316832E+03  0.23344000623E+04  0.22903698891E+04 0.  0.
        3    1    3    3  502    0 -0.10763116088E+03  0.76355863221E+03  0.10885683152E+04  0.13340117086E+04  0.10100000352E+00 0. -1.
       -3    1    3    3    0  502  0.10763116088E+03 -0.76355863221E+03 -0.63731514686E+03  0.10003883537E+04  0.10100000352E+00 0.  1.
</event>
<event>
 5   0  0.1815400E-04  0.2199870E+04  0.7818609E-02  0.8518482E-01
       -2   -1    0    0    0  501  0.00000000000E+00  0.00000000000E+00  0.10367894945E+04  0.10367894945E+04  0.25500000920E-02 0.  1.
        2   -1    0    0  501    0  0.00000000000E+00  0.00000000000E+00 -0.11669267920E+04  0.11669267920E+04  0.25500000920E-02 0. -1.
    10030    2    1    2    0    0  0.00000000000E+00  0.00000000000E+00 -0.13013729753E+03  0.22037162865E+04  0.21998703951E+04 0.  0.
        3    1    3    3  502    0  0.85762853765E+03  0.65114941565E+03 -0.28981585739E+03  0.11151302666E+04  0.10100000352E+00 0. -1.
       -3    1    3    3    0  502 -0.85762853765E+03 -0.65114941565E+03  0.15967855986E+03  0.10885860199E+04  0.10100000352E+00 0.  1.
</event>
<event>
 5   0  0.8237966E-05  0.2120710E+04  0.7818609E-02  0.8552175E-01
       -1   -1    0    0    0  501  0.00000000000E+00  0.00000000000E+00  0.65889156150E+03  0.65889156152E+03  0.50400001928E-02 0. -1.
        1   -1    0    0  501    0  0.00000000000E+00  0.00000000000E+00 -0.17064304577E+04  0.17064304577E+04  0.50400001928E-02 0.  1.
    10030    2    1    2    0    0  0.00000000000E+00  0.00000000000E+00 -0.10475388962E+04  0.23653220192E+04  0.21207099084E+04 0.  0.
        1    1    3    3  502    0  0.55508404334E+03 -0.89277594437E+03 -0.67825752562E+03  0.12510797149E+04  0.50400001928E-02 0.  1.
       -1    1    3    3    0  502 -0.55508404334E+03  0.89277594437E+03 -0.36928137060E+03  0.11142423043E+04  0.50400001928E-02 0. -1.
</event>
<event>
 5   0  0.8525278E-05  0.2112197E+04  0.7818609E-02  0.8555889E-01
        1   -1    0    0  501    0  0.00000000000E+00  0.00000000000E+00  0.11497085808E+04  0.11497085809E+04  0.50400001928E-02 0.  1.
       -1   -1    0    0    0  501  0.00000000000E+00  0.00000000000E+00 -0.97011041070E+03  0.97011041072E+03  0.50400001928E-02 0. -1.
    10030    2    1    2    0    0  0.00000000000E+00  0.00000000000E+00  0.17959817014E+03  0.21198189916E+04  0.21121972101E+04 0.  0.
        4    1    3    3  502    0 -0.75429052216E+02  0.96359221741E+03 -0.33734585750E+03  0.10237203446E+04  0.12699999809E+01 0. -1.
       -4    1    3    3    0  502  0.75429052216E+02 -0.96359221741E+03  0.51694402765E+03  0.10960986470E+04  0.12699999809E+01 0.  1.
</event>
<event>
 5   0  0.8486612E-05  0.2075718E+04  0.7818609E-02  0.8572016E-01
       -1   -1    0    0    0  501  0.00000000000E+00  0.00000000000E+00  0.22052807174E+04  0.22052807174E+04  0.50400001928E-02 0. -1.
        1   -1    0    0  501    0  0.00000000000E+00  0.00000000000E+00 -0.48844201441E+03  0.48844201444E+03  0.50400001928E-02 0.  1.
    10030    2    1    2    0    0  0.00000000000E+00  0.00000000000E+00  0.17168387030E+04  0.26937227318E+04  0.20757184356E+04 0.  0.
        5    1    3    3  502    0  0.81868263041E+03  0.50977634128E+03  0.36083411507E+03  0.10297264278E+04  0.46999998093E+01 0.  1.
       -5    1    3    3    0  502 -0.81868263041E+03 -0.50977634128E+03  0.13560045879E+04  0.16639963040E+04  0.46999998093E+01 0. -1.
</event>
<event>
 5   0  0.1815400E-04  0.2104913E+04  0.7818609E-02  0.8559082E-01
        2   -1    0    0  501    0  0.00000000000E+00  0.00000000000E+00  0.15090626249E+04  0.15090626249E+04  0.25500000920E-02 0.  1.
       -2   -1    0    0    0  501  0.00000000000E+00  0.00000000000E+00 -0.73400843268E+03  0.73400843269E+03  0.25500000920E-02 0. -1.
    10030    2    1    2    0    0  0.00000000000E+00  0.00000000000E+00  0.77505419224E+03  0.22430710576E+04  0.21049130074E+04 0.  0.
        3    1    3    3  502    0  0.37277381831E+03 -0.97240483897E+03  0.22544813054E+03  0.10655319611E+04  0.10100000352E+00 0.  1.
       -3    1    3    3    0  502 -0.37277381831E+03  0.97240483897E+03  0.54960606170E+03  0.11775390965E+04  0.10100000352E+00 0. -1.
</event>
<event>
 5   0  0.8237966E-05  0.2113252E+04  0.7818609E-02  0.8555428E-01
       -1   -1    0    0    0  501  0.00000000000E+00  0.00000000000E+00  0.75021145477E+03  0.75021145479E+03  0.50400001928E-02 0.  1.
        1   -1    0    0  501    0  0.00000000000E+00  0.00000000000E+00 -0.14881923595E+04  0.14881923595E+04  0.50400001928E-02 0. -1.
    10030    2    1    2    0    0  0.00000000000E+00  0.00000000000E+00 -0.73798090472E+03  0.22384038143E+04  0.21132524270E+04 0.  0.
        1    1    3    3  502    0 -0.53369909603E+03  0.90020662492E+03 -0.21457539574E+03  0.10682927001E+04  0.50400001928E-02 0.  1.
       -1    1    3    3    0  502  0.53369909603E+03 -0.90020662492E+03 -0.52340550898E+03  0.11701111142E+04  0.50400001928E-02 0. -1.
</event>
<event>
 5   0  0.1810875E-04  0.2110040E+04  0.7818609E-02  0.8556834E-01
       -2   -1    0    0    0  501  0.00000000000E+00  0.00000000000E+00  0.66001378827E+03  0.66001378828E+03  0.25500000920E-02 0. -1.
        2   -1    0    0  501    0  0.00000000000E+00  0.00000000000E+00 -0.16864298453E+04  0.16864298453E+04  0.25500000920E-02 0.  1.
    10030    2    1    2    0    0  0.00000000000E+00  0.00000000000E+00 -0.10264160570E+04  0.23464436336E+04  0.21100397635E+04 0.  0.
        1    1    3    3  502    0  0.10056459150E+04 -0.21964615149E+03 -0.25599583207E+03  0.10607082560E+04  0.50400001928E-02 0.  1.
       -1    1    3    3    0  502 -0.10056459150E+04  0.21964615149E+03 -0.77042022497E+03  0.12857353776E+04  0.50400001928E-02 0. -1.
</event>
<event>
 5   0  0.8525278E-05  0.2072893E+04  0.7818609E-02  0.8573279E-01
        1   -1    0    0  501    0  0.00000000000E+00  0.00000000000E+00  0.13172987767E+04  0.13172987767E+04  0.50400001928E-02 0.  1.
       -1   -1    0    0    0  501  0.00000000000E+00  0.00000000000E+00 -0.81547279898E+03  0.81547279899E+03  0.50400001928E-02 0. -1.
    10030    2    1    2    0    0  0.00000000000E+00  0.00000000000E+00  0.50182597772E+03  0.21327715757E+04  0.20728929741E+04 0.  0.
        4    1    3    3  502    0 -0.88423284002E+03  0.24924389007E+02 -0.30481027987E+03  0.93562805652E+03  0.12699999809E+01 0. -1.
       -4    1    3    3    0  502  0.88423284002E+03 -0.24924389007E+02  0.80663625759E+03  0.11971435192E+04  0.12699999809E+01 0.  1.
</event>
<event>
 5   0  0.8486612E-05  0.2133233E+04  0.7818609E-02  0.8546744E-01
       -1   -1    0    0    0  501  0.00000000000E+00  0.00000000000E+00  0.93457203736E+03  0.93457203738E+03  0.50400001928E-02 0. -1.
        1   -1    0    0  501    0  0.00000000000E+00  0.00000000000E+00 -0.12173174500E+04  0.12173174500E+04  0.50400001928E-02 0.  1.
    10030    2    1    2    0    0  0.00000000000E+00  0.00000000000E+00 -0.28274541263E+03  0.21518894874E+04  0.21332330856E+04 0.  0.
        5    1    3    3  502    0  0.18405876051E+03  0.29494071987E+03  0.87580161162E+03  0.94229411994E+03  0.46999998093E+01 0. -1.
       -5    1    3    3    0  502 -0.18405876051E+03 -0.29494071987E+03 -0.11585470242E+04  0.12095953674E+04  0.46999998093E+01 0.  1.
</event>
<event>
 5   0  0.8271069E-05  0.2235048E+04  0.7818609E-02  0.8503980E-01
        1   -1    0    0  501    0  0.00000000000E+00  0.00000000000E+00  0.12993864510E+04  0.12993864510E+04  0.50400001928E-02 0.  1.
       -1   -1    0    0    0  501  0.00000000000E+00  0.00000000000E+00 -0.96111515215E+03  0.96111515216E+03  0.50400001928E-02 0. -1.
    10030    2    1    2    0    0  0.00000000000E+00  0.00000000000E+00  0.33827129884E+03  0.22605016032E+04  0.22350481038E+04 0.  0.
        2    1    3    3  502    0  0.69112374351E+02  0.56035167486E+03  0.11445301719E+04  0.12762130834E+04  0.25500000920E-02 0.  1.
       -2    1    3    3    0  502 -0.69112374351E+02 -0.56035167486E+03 -0.80625887305E+03  0.98428851978E+03  0.25500000920E-02 0. -1.
</event>
<event>
 5   0  0.8525278E-05  0.2043557E+04  0.7818609E-02  0.8586523E-01
        1   -1    0    0  501    0  0.00000000000E+00  0.00000000000E+00  0.89529934081E+03  0.89529934082E+03  0.50400001928E-02 0. -1.
       -1   -1    0    0    0  501  0.00000000000E+00  0.00000000000E+00 -0.11661253062E+04  0.11661253062E+04  0.50400001928E-02 0.  1.
    10030    2    1    2    0    0  0.00000000000E+00  0.00000000000E+00 -0.27082596541E+03  0.20614246471E+04  0.20435569167E+04 0.  0.
        4    1    3    3  502    0  0.18499530510E+03 -0.68522762514E+03 -0.87686991348E+03  0.11281234947E+04  0.12699999809E+01 0.  1.
       -4    1    3    3    0  502 -0.18499530510E+03  0.68522762514E+03  0.60604394806E+03  0.93330115239E+03  0.12699999809E+01 0. -1.
</event>
<event>
 5   0  0.8486612E-05  0.2148742E+04  0.7818609E-02  0.8540071E-01
        1   -1    0    0  501    0  0.00000000000E+00  0.00000000000E+00  0.14138333886E+04  0.14138333886E+04  0.50400001928E-02 0.  1.
       -1   -1    0    0    0  501  0.00000000000E+00  0.00000000000E+00 -0.81641346081E+03  0.81641346083E+03  0.50400001928E-02 0. -1.
    10030    2    1    2    0    0  0.00000000000E+00  0.00000000000E+00  0.59741992781E+03  0.22302468495E+04  0.21487415944E+04 0.  0.
        5    1    3    3  502    0 -0.35001824381E+03  0.89371937246E+03  0.79972401142E+03  0.12493308898E+04  0.46999998093E+01 0.  1.
       -5    1    3    3    0  502  0.35001824381E+03 -0.89371937246E+03 -0.20230408361E+03  0.98091595968E+03  0.46999998093E+01 0. -1.
</event>
<event>
 5   0  0.1886323E-04  0.1404093E+04  0.7818609E-02  0.8950861E-01
       -2   -1    0    0    0  501  0.00000000000E+00  0.00000000000E+00  0.34101858414E+03  0.34101858415E+03  0.25500000920E-02 0. -1.
        2   -1    0    0  501    0  0.00000000000E+00  0.00000000000E+00 -0.14452854054E+04  0.14452854054E+04  0.25500000920E-02 0.  1.
    10030    2    1    2    0    0  0.00000000000E+00  0.00000000000E+00 -0.11042668213E+04  0.17863039896E+04  0.14040928497E+04 0.  0.
        2    1    3    3  502    0  0.56771389921E+03 -0.47789921189E+02 -0.30237568132E+02  0.57052367037E+03  0.25500000920E-02 0.  1.
       -2    1    3    3    0  502 -0.56771389921E+03  0.47789921189E+02 -0.10740292531E+04  0.12157803192E+04  0.25500000920E-02 0. -1.
</event>
<event>
 5   0  0.8237966E-05  0.2106959E+04  0.7818609E-02  0.8558184E-01
       -1   -1    0    0    0  501  0.00000000000E+00  0.00000000000E+00  0.19145738551E+04  0.19145738551E+04  0.50400001928E-02 0.  1.
        1   -1    0    0  501    0  0.00000000000E+00  0.00000000000E+00 -0.57966888972E+03  0.57966888974E+03  0.50400001928E-02 0. -1.
    10030    2    1    2    0    0  0.00000000000E+00  0.00000000000E+00  0.13349049654E+04  0.24942427448E+04  0.21069588519E+04 0.  0.
        1    1    3    3  502    0  0.30917855088E+03  0.92288030610E+03  0.11446908549E+04  0.15025367180E+04  0.50400001928E-02 0.  1.
       -1    1    3    3    0  502 -0.30917855088E+03 -0.92288030610E+03  0.19021411045E+03  0.99170602678E+03  0.50400001928E-02 0. -1.
</event>
<event>
 5   0  0.8237966E-05  0.2140726E+04  0.7818609E-02  0.8543513E-01
       -1   -1    0    0    0  501  0.00000000000E+00  0.00000000000E+00  0.97736545336E+03  0.97736545337E+03  0.50400001928E-02 0. -1.
        1   -1    0    0  501    0  0.00000000000E+00  0.00000000000E+00 -0.11722090307E+04  0.11722090307E+04  0.50400001928E-02 0.  1.
    10030    2    1    2    0    0  0.00000000000E+00  0.00000000000E+00 -0.19484357730E+03  0.21495744840E+04  0.21407256814E+04 0.  0.
        1    1    3    3  502    0  0.98020083566E+03 -0.38018955133E+03 -0.29909730073E+03  0.10930676871E+04  0.50400001928E-02 0.  1.
       -1    1    3    3    0  502 -0.98020083566E+03  0.38018955133E+03  0.10425372343E+03  0.10565067970E+04  0.50400001928E-02 0. -1.
</event>
<event>
 5   0  0.8237966E-05  0.2117119E+04  0.7818609E-02  0.8553740E-01
        1   -1    0    0  501    0  0.00000000000E+00  0.00000000000E+00  0.81933738119E+03  0.81933738121E+03  0.50400001928E-02 0.  1.
       -1   -1    0    0    0  501  0.00000000000E+00  0.00000000000E+00 -0.13676271301E+04  0.13676271301E+04  0.50400001928E-02 0. -1.
    10030    2    1    2    0    0  0.00000000000E+00  0.00000000000E+00 -0.54828974892E+03  0.21869645113E+04  0.21171188264E+04 0.  0.
        1    1    3    3  502    0  0.84669017811E+03  0.63065484125E+03 -0.35374716179E+03  0.11134391950E+04  0.50400001928E-02 0. -1.
       -1    1    3    3    0  502 -0.84669017811E+03 -0.63065484125E+03 -0.19454258713E+03  0.10735253163E+04  0.50400001928E-02 0.  1.
</event>
<event>
 5   0  0.1777590E-04  0.1813221E+04  0.7818609E-02  0.8699300E-01
       -2   -1    0    0    0  501  0.00000000000E+00  0.00000000000E+00  0.21970089177E+04  0.21970089177E+04  0.25500000920E-02 0.  1.
        2   -1    0    0  501    0  0.00000000000E+00  0.00000000000E+00 -0.37411905961E+03  0.37411905962E+03  0.25500000920E-02 0. -1.
    10030    2    1    2    0    0  0.00000000000E+00  0.00000000000E+00  0.18228898581E+04  0.25711279773E+04  0.18132213436E+04 0.  0.
        4    1    3    3  502    0  0.58027385965E+03  0.61639043111E+03  0.45133779010E+03  0.95935516334E+03  0.12699999809E+01 0. -1.
       -4    1    3    3    0  502 -0.58027385965E+03 -0.61639043111E+03  0.13715520680E+04  0.16117728140E+04  0.12699999809E+01 0.  1.
</event>
<event>
 5   0  0.8755004E-05  0.1934034E+04  0.7818609E-02  0.8638099E-01
       -1   -1    0    0    0  501  0.00000000000E+00  0.00000000000E+00  0.37377409583E+03  0.37377409586E+03  0.50400001928E-02 0.  1.
        1   -1    0    0  501    0  0.00000000000E+00  0.00000000000E+00 -0.25018369851E+04  0.25018369851E+04  0.50400001928E-02 0. -1.
    10030    2    1    2    0    0  0.00000000000E+00  0.00000000000E+00 -0.21280628893E+04  0.28756110810E+04  0.19340339781E+04 0.  0.
        3    1    3    3  502    0  0.21254734135E+02  0.47224846279E+03 -0.23183265425E+04  0.23660321938E+04  0.10100000352E+00 0. -1.
       -3    1    3    3    0  502 -0.21254734135E+02 -0.47224846279E+03  0.19026365319E+03  0.50957888718E+03  0.10100000352E+00 0.  1.
</event>
<event>
 5   0  0.1777590E-04  0.2070058E+04  0.7818609E-02  0.8574549E-01
        2   -1    0    0  501    0  0.00000000000E+00  0.00000000000E+00  0.94394944130E+03  0.94394944131E+03  0.25500000920E-02 0.  1.
       -2   -1    0    0    0  501  0.00000000000E+00  0.00000000000E+00 -0.11348971108E+04  0.11348971108E+04  0.25500000920E-02 0. -1.
    10030    2    1    2    0    0  0.00000000000E+00  0.00000000000E+00 -0.19094766946E+03  0.20788465521E+04  0.20700584471E+04 0.  0.
        4    1    3    3  502    0 -0.47958263629E+03 -0.65429818785E+03  0.55004446039E+03  0.98013067749E+03  0.12699999809E+01 0.  1.
       -4    1    3    3    0  502  0.47958263629E+03  0.65429818785E+03 -0.74099212985E+03  0.10987158746E+04  0.12699999809E+01 0. -1.
</event>
<event>
 5   0  0.1815400E-04  0.2014101E+04  0.7818609E-02  0.8600056E-01
        2   -1    0    0  501    0  0.00000000000E+00  0.00000000000E+00  0.59765932291E+03  0.59765932291E+03  0.25500000920E-02 0.  1.
       -2   -1    0    0    0  501  0.00000000000E+00  0.00000000000E+00 -0.16968710421E+04  0.16968710421E+04  0.25500000920E-02 0. -1.
    10030    2    1    2    0    0  0.00000000000E+00  0.00000000000E+00 -0.10992117192E+04  0.22945303650E+04  0.20141010879E+04 0.  0.
        3    1    3    3  502    0  0.55434225055E+03  0.80627596482E+03 -0.27815619917E+03  0.10172252177E+04  0.10100000352E+00 0. -1.
       -3    1    3    3    0  502 -0.55434225055E+03 -0.80627596482E+03 -0.82105552003E+03  0.12773051473E+04  0.10100000352E+00 0.  1.
</event>
<event>
 5   0  0.1810875E-04  0.1394162E+04  0.7818609E-02  0.8958055E-01
        2   -1    0    0  501    0  0.00000000000E+00  0.00000000000E+00  0.46322503961E+03  0.46322503961E+03  0.25500000920E-02 0.  1.
       -2   -1    0    0    0  501  0.00000000000E+00  0.00000000000E+00 -0.10489979200E+04  0.10489979200E+04  0.25500000920E-02 0. -1.
    10030    2    1    2    0    0  0.00000000000E+00  0.00000000000E+00 -0.58577288036E+03  0.15122229596E+04  0.13941622618E+04 0.  0.
        1    1    3    3  502    0 -0.44183546229E+03  0.19450742851E+03 -0.83833210184E+03  0.96739466015E+03  0.50400001928E-02 0. -1.
       -1    1    3    3    0  502  0.44183546229E+03 -0.19450742851E+03  0.25255922148E+03  0.54482829943E+03  0.50400001928E-02 0.  1.
</event>
<event>
 5   0  0.1777590E-04  0.2033653E+04  0.7818609E-02  0.8591046E-01
        2   -1    0    0  501    0  0.00000000000E+00  0.00000000000E+00  0.12487028133E+04  0.12487028133E+04  0.25500000920E-02 0. -1.
       -2   -1    0    0    0  501  0.00000000000E+00  0.00000000000E+00 -0.82800842701E+03  0.82800842701E+03  0.25500000920E-02 0.  1.
    10030    2    1    2    0    0  0.00000000000E+00  0.00000000000E+00  0.42069438628E+03  0.20767112403E+04  0.20336533158E+04 0.  0.
        4    1    3    3  502    0  0.92418333615E+03  0.19600352147E+03  0.59434427388E+03  0.11161446806E+04  0.12699999809E+01 0.  1.
       -4    1    3    3    0  502 -0.92418333615E+03 -0.19600352147E+03 -0.17364988760E+03  0.96056655970E+03  0.12699999809E+01 0. -1.
</event>
<event>
 5   0  0.8755004E-05  0.2176025E+04  0.7818609E-02  0.8528474E-01
        1   -1    0    0  501    0  0.00000000000E+00  0.00000000000E+00  0.15799336992E+04  0.15799336993E+04  0.50400001928E-02 0. -1.
       -1   -1    0    0    0  501  0.00000000000E+00  0.00000000000E+00 -0.74925357615E+03  0.74925357617E+03  0.50400001928E-02 0.  1.
    10030    2    1    2    0    0  0.00000000000E+00  0.00000000000E+00  0.83068012310E+03  0.23291872754E+04  0.21760247924E+04 0.  0.
        3    1    3    3  502    0  0.47796940567E+03 -0.97622376439E+03  0.36396850556E+03  0.11462725130E+04  0.10100000352E+00 0.  1.
       -3    1    3    3    0  502 -0.47796940567E+03  0.97622376439E+03  0.46671161753E+03  0.11829147624E+04  0.10100000352E+00 0. -1.
</event>
<event>
 5   0  0.1815400E-04  0.2104733E+04  0.7818609E-02  0.8559162E-01
        2   -1    0    0  501    0  0.00000000000E+00  0.00000000000E+00  0.22382457812E+04  0.22382457812E+04  0.25500000920E-02 0. -1.
       -2   -1    0    0    0  501  0.00000000000E+00  0.00000000000E+00 -0.49479586835E+03  0.49479586836E+03  0.25500000920E-02 0.  1.
    10030    2    1    2    0    0  0.00000000000E+00  0.00000000000E+00  0.17434499128E+04  0.27330416495E+04  0.21047325387E+04 0.  0.
        3    1    3    3  502    0  0.10234442173E+04 -0.20487140968E+03  0.10462513181E+04  0.14778539141E+04  0.10100000352E+00 0. -1.
       -3    1    3    3    0  502 -0.10234442173E+04  0.20487140968E+03  0.69719859467E+03  0.12551877354E+04  0.10100000352E+00 0.  1.
</event>
<event>
 5   0  0.8755004E-05  0.2120603E+04  0.7818609E-02  0.8552222E-01
        1   -1    0    0  501    0  0.00000000000E+00  0.00000000000E+00  0.11459080490E+04  0.11459080490E+04  0.50400001928E-02 0. -1.
       -1   -1    0    0    0  501  0.00000000000E+00  0.00000000000E+00 -0.98108998772E+03  0.98108998773E+03  0.50400001928E-02 0.  1.
    10030    2    1    2    0    0  0.00000000000E+00  0.00000000000E+00  0.16481806127E+03  0.21269980367E+04  0.21206026632E+04 0.  0.
        3    1    3    3  502    0 -0.20246257489E+03 -0.98365449321E+03 -0.25872201607E+03  0.10370652574E+04  0.10100000352E+00 0.  1.
       -3    1    3    3    0  502  0.20246257489E+03  0.98365449321E+03  0.42354007734E+03  0.10899327794E+04  0.10100000352E+00 0. -1.
</event>
<event>
 5   0  0.1777590E-04  0.2084184E+04  0.7818609E-02  0.8568243E-01
       -2   -1    0    0    0  501  0.00000000000E+00  0.00000000000E+00  0.85910381557E+03  0.85910381558E+03  0.25500000920E-02 0.  1.
        2   -1    0    0  501    0  0.00000000000E+00  0.00000000000E+00 -0.12640563625E+04  0.12640563625E+04  0.25500000920E-02 0. -1.
    10030    2    1    2    0    0  0.00000000000E+00  0.00000000000E+00 -0.40495254691E+03  0.21231601781E+04  0.20841839114E+04 0.  0.
        4    1    3    3  502    0  0.92646072097E+03 -0.33899557932E+03 -0.54447250449E+03  0.11268093855E+04  0.12699999809E+01 0. -1.
       -4    1    3    3    0  502 -0.92646072097E+03  0.33899557932E+03  0.13951995758E+03  0.99635079252E+03  0.12699999809E+01 0.  1.
</event>
<event>
 5   0  0.1886323E-04  0.2066606E+04  0.7818609E-02  0.8576098E-01
       -2   -1    0    0    0  501  0.00000000000E+00  0.00000000000E+00  0.63755313642E+03  0.63755313642E+03  0.25500000920E-02 0.  1.
        2   -1    0    0  501    0  0.00000000000E+00  0.00000000000E+00 -0.16747083149E+04  0.16747083149E+04  0.25500000920E-02 0. -1.
    10030    2    1    2    0    0  0.00000000000E+00  0.00000000000E+00 -0.10371551785E+04  0.23122614513E+04  0.20666064345E+04 0.  0.
        2    1    3    3  502    0  0.80835842941E+03  0.42416029758E+03  0.23075369441E+02  0.91317456224E+03  0.25500000920E-02 0.  1.
       -2    1    3    3    0  502 -0.80835842941E+03 -0.42416029758E+03 -0.10602305479E+04  0.13990868891E+04  0.25500000920E-02 0. -1.
</event>
<event>
 5   0  0.1810875E-04  0.2064747E+04  0.7818609E-02  0.8576934E-01
       -2   -1    0    0    0  501  0.00000000000E+00  0.00000000000E+00  0.93833107405E+03  0.93833107405E+03  0.25500000920E-02 0.  1.
        2   -1    0    0  501    0  0.00000000000E+00  0.00000000000E+00 -0.11358412976E+04  0.11358412976E+04  0.25500000920E-02 0. -1.
    10030    2    1    2    0    0  0.00000000000E+00  0.00000000000E+00 -0.19751022353E+03  0.20741723716E+04  0.20647471368E+04 0.  0.
        1    1    3    3  502    0  0.89124705622E+03 -0.51700255015E+03 -0.33789719618E+02  0.10308999453E+04  0.50400001928E-02 0.  1.
       -1    1    3    3    0  502 -0.89124705622E+03  0.51700255015E+03 -0.16372050391E+03  0.10432724263E+04  0.50400001928E-02 0. -1.
</event>
<event>
 5   0  0.1815400E-04  0.2100993E+04  0.7818609E-02  0.8560806E-01
       -2   -1    0    0    0  501  0.00000000000E+00  0.00000000000E+00  0.10693836867E+04  0.10693836867E+04  0.25500000920E-02 0.  1.
        2   -1    0    0  501    0  0.00000000000E+00  0.00000000000E+00 -0.10319431881E+04  0.10319431881E+04  0.25500000920E-02 0. -1.
    10030    2    1    2    0    0  0.00000000000E+00  0.00000000000E+00  0.37440498547E+02  0.21013268748E+04  0.21009932994E+04 0.  0.
        3    1    3    3  502    0  0.72019844703E+03 -0.76209292049E+03  0.82540867227E+02  0.10518005645E+04  0.10100000352E+00 0.  1.
       -3    1    3    3    0  502 -0.72019844703E+03  0.76209292049E+03 -0.45100368680E+02  0.10495263103E+04  0.10100000352E+00 0. -1.
</event>
<event>
 5   0  0.1886323E-04  0.2134851E+04  0.7818609E-02  0.8546045E-01
        2   -1    0    0  501    0  0.00000000000E+00  0.00000000000E+00  0.18784818661E+04  0.18784818661E+04  0.25500000920E-02 0.  1.
       -2   -1    0    0    0  501  0.00000000000E+00  0.00000000000E+00 -0.60655188564E+03  0.60655188564E+03  0.25500000920E-02 0. -1.
    10030    2    1    2    0    0  0.00000000000E+00  0.00000000000E+00  0.12719299804E+04  0.24850337517E+04  0.21348505503E+04 0.  0.
        2    1    3    3  502    0 -0.16079315246E+03 -0.10181110428E+04  0.95895429022E+03  0.14078344591E+04  0.25500000920E-02 0. -1.
       -2    1    3    3    0  502  0.16079315246E+03  0.10181110428E+04  0.31297569023E+03  0.10771992927E+04  0.25500000920E-02 0.  1.
</event>
<event>
 5   0  0.8271069E-05  0.2123814E+04  0.7818609E-02  0.8550825E-01
        1   -1    0    0  501    0  0.00000000000E+00  0.00000000000E+00  0.18034381772E+04  0.18034381772E+04  0.50400001928E-02 0.  1.
       -1   -1    0    0    0  501  0.00000000000E+00  0.00000000000E+00 -0.62527572064E+03  0.62527572066E+03  0.50400001928E-02 0. -1.
    10030    2    1    2    0    0  0.00000000000E+00  0.00000000000E+00  0.11781624565E+04  0.24287138978E+04  0.21238136509E+04 0.  0.
        2    1    3    3  502    0 -0.39127762417E+03  0.71567428009E+03 -0.18850624649E+03  0.83715139571E+03  0.25500000920E-02 0. -1.
       -2    1    3    3    0  502  0.39127762417E+03 -0.71567428009E+03  0.13666687030E+04  0.15915625021E+04  0.25500000920E-02 0.  1.
</event>
<event>
 5   0  0.8271069E-05  0.2183006E+04  0.7818609E-02  0.8525535E-01
        1   -1    0    0  501    0  0.00000000000E+00  0.00000000000E+00  0.97737131630E+03  0.97737131631E+03  0.50400001928E-02 0.  1.
       -1   -1    0    0    0  501  0.00000000000E+00  0.00000000000E+00 -0.12189626061E+04  0.12189626061E+04  0.50400001928E-02 0. -1.
    10030    2    1    2    0    0  0.00000000000E+00  0.00000000000E+00 -0.24159128979E+03  0.21963339224E+04  0.21830062637E+04 0.  0.
        2    1    3    3  502    0 -0.26716687897E+03 -0.86403889774E+03  0.49403072202E+03  0.10305375841E+04  0.25500000920E-02 0.  1.
       -2    1    3    3    0  502  0.26716687897E+03  0.86403889774E+03 -0.73562201181E+03  0.11657963383E+04  0.25500000920E-02 0. -1.
</event>
<event>
 5   0  0.8525278E-05  0.2040841E+04  0.7818609E-02  0.8587761E-01
       -1   -1    0    0    0  501  0.00000000000E+00  0.00000000000E+00  0.43106176370E+03  0.43106176373E+03  0.50400001928E-02 0. -1.
        1   -1    0    0  501    0  0.00000000000E+00  0.00000000000E+00 -0.24155664229E+04  0.24155664229E+04  0.50400001928E-02 0.  1.
    10030    2    1    2    0    0  0.00000000000E+00  0.00000000000E+00 -0.19845046592E+04  0.28466281866E+04  0.20408413193E+04 0.  0.
        4    1    3    3  502    0 -0.39230263497E+03 -0.72998062143E+02 -0.23022253670E+04  0.23365515889E+04  0.12699999809E+01 0.  1.
       -4    1    3    3    0  502  0.39230263497E+03  0.72998062143E+02  0.31772070778E+03  0.51007659771E+03  0.12699999809E+01 0. -1.
</event>
<event>
 5   0  0.8486612E-05  0.2031884E+04  0.7818609E-02  0.8591857E-01
        1   -1    0    0  501    0  0.00000000000E+00  0.00000000000E+00  0.22541608682E+04  0.22541608682E+04  0.50400001928E-02 0.  1.
       -1   -1    0    0    0  501  0.00000000000E+00  0.00000000000E+00 -0.45788123252E+03  0.45788123255E+03  0.50400001928E-02 0. -1.
    10030    2    1    2    0    0  0.00000000000E+00  0.00000000000E+00  0.17962796357E+04  0.27120421008E+04  0.20318838123E+04 0.  0.
        5    1    3    3  502    0  0.41293831417E+03 -0.38392554973E+03 -0.22985517499E+03  0.60891080670E+03  0.46999998093E+01 0. -1.
       -5    1    3    3    0  502 -0.41293831417E+03  0.38392554973E+03  0.20261348107E+04  0.21031312941E+04  0.46999998093E+01 0.  1.
</event>
<event>
 5   0  0.8486612E-05  0.2079115E+04  0.7818609E-02  0.8570499E-01
        1   -1    0    0  501    0  0.00000000000E+00  0.00000000000E+00  0.14863003346E+04  0.14863003346E+04  0.50400001928E-02 0. -1.
       -1   -1    0    0    0  501  0.00000000000E+00  0.00000000000E+00 -0.72709411590E+03  0.72709411592E+03  0.50400001928E-02 0.  1.
    10030    2    1    2    0    0  0.00000000000E+00  0.00000000000E+00  0.75920621867E+03  0.22133944505E+04  0.20791154155E+04 0.  0.
        5    1    3    3  502    0  0.87340911093E+03 -0.52407173532E+03  0.60077933306E+03  0.11825618613E+04  0.46999998093E+01 0. -1.
       -5    1    3    3    0  502 -0.87340911093E+03  0.52407173532E+03  0.15842688561E+03  0.10308325892E+04  0.46999998093E+01 0.  1.
</event>
<event>
 5   0  0.1815400E-04  0.2038442E+04  0.7818609E-02  0.8588856E-01
        2   -1    0    0  501    0  0.00000000000E+00  0.00000000000E+00  0.10168346637E+04  0.10168346637E+04  0.25500000920E-02 0. -1.
       -2   -1    0    0    0  501  0.00000000000E+00  0.00000000000E+00 -0.10216128438E+04  0.10216128438E+04  0.25500000920E-02 0.  1.
    10030    2    1    2    0    0  0.00000000000E+00  0.00000000000E+00 -0.47781801013E+01  0.20384475075E+04  0.20384419074E+04 0.  0.
        3    1    3    3  502    0  0.48230862112E+03  0.84522009473E+03 -0.30536306930E+03  0.10199339336E+04  0.10100000352E+00 0.  1.
       -3    1    3    3    0  502 -0.48230862112E+03 -0.84522009473E+03  0.30058488920E+03  0.10185135740E+04  0.10100000352E+00 0. -1.
</event>
<event>
 5   0  0.1815400E-04  0.2327126E+04  0.7818609E-02  0.8467302E-01
       -2   -1    0    0    0  501  0.00000000000E+00  0.00000000000E+00  0.47810845317E+03  0.47810845318E+03  0.25500000920E-02 0. -1.
        2   -1    0    0  501    0  0.00000000000E+00  0.00000000000E+00 -0.28317400880E+04  0.28317400880E+04  0.25500000920E-02 0.  1.
    10030    2    1    2    0    0  0.00000000000E+00  0.00000000000E+00 -0.23536316348E+04  0.33098485412E+04  0.23271260157E+04 0.  0.
        3    1    3    3  502    0  0.43378327025E+03  0.21746184658E+03  0.32733343083E+03  0.58532449582E+03  0.10100000352E+00 0. -1.
       -3    1    3    3    0  502 -0.43378327025E+03 -0.21746184658E+03 -0.26809650657E+04  0.27245240454E+04  0.10100000352E+00 0.  1.
</event>
<event>
 5   0  0.8486612E-05  0.2201167E+04  0.7818609E-02  0.8517943E-01
        1   -1    0    0  501    0  0.00000000000E+00  0.00000000000E+00  0.13037447279E+04  0.13037447279E+04  0.50400001928E-02 0.  1.
       -1   -1    0    0    0  501  0.00000000000E+00  0.00000000000E+00 -0.92908073954E+03  0.92908073955E+03  0.50400001928E-02 0. -1.
    10030    2    1    2    0    0  0.00000000000E+00  0.00000000000E+00  0.37466398840E+03  0.22328254675E+04  0.22011670686E+04 0.  0.
        5    1    3    3  502    0  0.87803709697E+03  0.33256677711E+02  0.85959054579E+03  0.12292164767E+04  0.46999998093E+01 0.  1.
       -5    1    3    3    0  502 -0.87803709697E+03 -0.33256677711E+02 -0.48492655739E+03  0.10036089908E+04  0.46999998093E+01 0. -1.
</event>
<event>
 5   0  0.1810875E-04  0.2111324E+04  0.7818609E-02  0.8556272E-01
        2   -1    0    0  501    0  0.00000000000E+00  0.00000000000E+00  0.13221658463E+04  0.13221658463E+04  0.25500000920E-02 0.  1.
       -2   -1    0    0    0  501  0.00000000000E+00  0.00000000000E+00 -0.84287608777E+03  0.84287608777E+03  0.25500000920E-02 0. -1.
    10030    2    1    2    0    0  0.00000000000E+00  0.00000000000E+00  0.47928975854E+03  0.21650419341E+04  0.21113237326E+04 0.  0.
        1    1    3    3  502    0 -0.32848705617E+03  0.15555718561E+03 -0.77669278102E+03  0.85752752736E+03  0.50400001928E-02 0. -1.
       -1    1    3    3    0  502  0.32848705617E+03 -0.15555718561E+03  0.12559825396E+04  0.13075144067E+04  0.50400001928E-02 0.  1.
</event>
<event>
 5   0  0.8271069E-05  0.2080408E+04  0.7818609E-02  0.8569923E-01
        1   -1    0    0  501    0  0.00000000000E+00  0.00000000000E+00  0.14098126745E+04  0.14098126745E+04  0.50400001928E-02 0. -1.
       -1   -1    0    0    0  501  0.00000000000E+00  0.00000000000E+00 -0.76749505589E+03  0.76749505591E+03  0.50400001928E-02 0.  1.
    10030    2    1    2    0    0  0.00000000000E+00  0.00000000000E+00  0.64231761862E+03  0.21773077304E+04  0.20804078999E+04 0.  0.
        2    1    3    3  502    0 -0.75754058267E+03 -0.99966929989E+01 -0.42482150053E+03  0.86858561787E+03  0.25500000920E-02 0.  1.
       -2    1    3    3    0  502  0.75754058267E+03  0.99966929989E+01  0.10671391191E+04  0.13087221126E+04  0.25500000920E-02 0. -1.
</event>
<event>
 5   0  0.1815400E-04  0.2126040E+04  0.7818609E-02  0.8549858E-01
        2   -1    0    0  501    0  0.00000000000E+00  0.00000000000E+00  0.80571738113E+03  0.80571738113E+03  0.25500000920E-02 0.  1.
       -2   -1    0    0    0  501  0.00000000000E+00  0.00000000000E+00 -0.14024912806E+04  0.14024912806E+04  0.25500000920E-02 0. -1.
    10030    2    1    2    0    0  0.00000000000E+00  0.00000000000E+00 -0.59677389943E+03  0.22082086617E+04  0.21260400764E+04 0.  0.
        3    1    3    3  502    0 -0.98942716921E+03  0.66238417977E+01 -0.70199463446E+03  0.12131803145E+04  0.10100000352E+00 0. -1.
       -3    1    3    3    0  502  0.98942716921E+03 -0.66238417977E+01  0.10522073503E+03  0.99502834720E+03  0.10100000352E+00 0.  1.
</event>
<event>
 5   0  0.1777590E-04  0.1984033E+04  0.7818609E-02  0.8614123E-01
       -2   -1    0    0    0  501  0.00000000000E+00  0.00000000000E+00  0.61102273181E+03  0.61102273182E+03  0.25500000920E-02 0.  1.
        2   -1    0    0  501    0  0.00000000000E+00  0.00000000000E+00 -0.16105722644E+04  0.16105722644E+04  0.25500000920E-02 0. -1.
    10030    2    1    2    0    0  0.00000000000E+00  0.00000000000E+00 -0.99954953256E+03  0.22215949962E+04  0.19840325247E+04 0.  0.
        4    1    3    3  502    0  0.29712267706E+03  0.31733845348E+03 -0.14982319723E+04  0.15600276392E+04  0.12699999809E+01 0. -1.
       -4    1    3    3    0  502 -0.29712267706E+03 -0.31733845348E+03  0.49868243974E+03  0.66156735702E+03  0.12699999809E+01 0.  1.
</event>
<event>
 5   0  0.1921687E-04  0.2088942E+04  0.7818609E-02  0.8566130E-01
       -2   -1    0    0    0  501  0.00000000000E+00  0.00000000000E+00  0.71324462688E+03  0.71324462688E+03  0.25500000920E-02 0. -1.
        2   -1    0    0  501    0  0.00000000000E+00  0.00000000000E+00 -0.15295165594E+04  0.15295165594E+04  0.25500000920E-02 0.  1.
    10030    2    1    2    0    0  0.00000000000E+00  0.00000000000E+00 -0.81627193252E+03  0.22427611863E+04  0.20889418065E+04 0.  0.
        5    1    3    3  502    0 -0.89210775273E+02  0.39441894596E+03 -0.14420484972E+04  0.14976818172E+04  0.46999998093E+01 0.  1.
       -5    1    3    3    0  502  0.89210775273E+02 -0.39441894596E+03  0.62577656466E+03  0.74507936908E+03  0.46999998093E+01 0. -1.
</event>
<event>
 5   0  0.8237966E-05  0.2113533E+04  0.7818609E-02  0.8555305E-01
       -1   -1    0    0    0  501  0.00000000000E+00  0.00000000000E+00  0.12882715449E+04  0.12882715450E+04  0.50400001928E-02 0.  1.
        1   -1    0    0  501    0  0.00000000000E+00  0.00000000000E+00 -0.86686332158E+03  0.86686332160E+03  0.50400001928E-02 0. -1.
    10030    2    1    2    0    0  0.00000000000E+00  0.00000000000E+00  0.42140822336E+03  0.21551348666E+04  0.21135329196E+04 0.  0.
        1    1    3    3  502    0  0.12445266227E+03  0.27924568093E+03 -0.82078472723E+03  0.87587338351E+03  0.50400001928E-02 0. -1.
       -1    1    3    3    0  502 -0.12445266227E+03 -0.27924568093E+03  0.12421929506E+04  0.12792614830E+04  0.50400001928E-02 0.  1.
</event>
<event>
 5   0  0.8755004E-05  0.2134492E+04  0.7818609E-02  0.8546200E-01
        1   -1    0    0  501    0  0.00000000000E+00  0.00000000000E+00  0.18927991374E+04  0.18927991374E+04  0.50400001928E-02 0. -1.
       -1   -1    0    0    0  501  0.00000000000E+00  0.00000000000E+00 -0.60176183022E+03  0.60176183024E+03  0.50400001928E-02 0.  1.
    10030    2    1    2    0    0  0.00000000000E+00  0.00000000000E+00  0.12910373072E+04  0.24945609676E+04  0.21344922330E+04 0.  0.
        3    1    3    3  502    0 -0.15263044897E+03 -0.17850678965E+03 -0.57118508649E+03  0.61758654546E+03  0.10100000352E+00 0.  1.
       -3    1    3    3    0  502  0.15263044897E+03  0.17850678965E+03  0.18622223937E+04  0.18769744222E+04  0.10100000352E+00 0. -1.
</event>
<event>
 5   0  0.8525278E-05  0.2102962E+04  0.7818609E-02  0.8559940E-01
        1   -1    0    0  501    0  0.00000000000E+00  0.00000000000E+00  0.16018959340E+04  0.16018959340E+04  0.50400001928E-02 0.  1.
       -1   -1    0    0    0  501  0.00000000000E+00  0.00000000000E+00 -0.69018960298E+03  0.69018960299E+03  0.50400001928E-02 0. -1.
    10030    2    1    2    0    0  0.00000000000E+00  0.00000000000E+00  0.91170633103E+03  0.22920855370E+04  0.21029616437E+04 0.  0.
        4    1    3    3  502    0  0.10125053151E+04  0.26978288809E+03  0.36045772245E+03  0.11080980112E+04  0.12699999809E+01 0. -1.
       -4    1    3    3    0  502 -0.10125053151E+04 -0.26978288809E+03  0.55124860858E+03  0.11839875258E+04  0.12699999809E+01 0.  1.
</event>
<event>
 5   0  0.8486612E-05  0.1841174E+04  0.7818609E-02  0.8684705E-01
        1   -1    0    0  501    0  0.00000000000E+00  0.00000000000E+00  0.90539452645E+03  0.90539452646E+03  0.50400001928E-02 0.  1.
       -1   -1    0    0    0  501  0.00000000000E+00  0.00000000000E+00 -0.93603441849E+03  0.93603441850E+03  0.50400001928E-02 0. -1.
    10030    2    1    2    0    0  0.00000000000E+00  0.00000000000E+00 -0.30639892041E+02  0.18414289450E+04  0.18411740158E+04 0.  0.
        5    1    3    3  502    0  0.16961318248E+03  0.22933733374E+02  0.88932934685E+03  0.90566183809E+03  0.46999998093E+01 0.  1.
       -5    1    3    3    0  502 -0.16961318248E+03 -0.22933733374E+02 -0.91996923889E+03  0.93576710687E+03  0.46999998093E+01 0. -1.
</event>
<event>
 5   0  0.1815400E-04  0.2069864E+04  0.7818609E-02  0.8574636E-01
       -2   -1    0    0    0  501  0.00000000000E+00  0.00000000000E+00  0.95356061326E+03  0.95356061326E+03  0.25500000920E-02 0. -1.
        2   -1    0    0  501    0  0.00000000000E+00  0.00000000000E+00 -0.11232475391E+04  0.11232475391E+04  0.25500000920E-02 0.  1.
    10030    2    1    2    0    0  0.00000000000E+00  0.00000000000E+00 -0.16968692584E+03  0.20768081524E+04  0.20698643552E+04 0.  0.
        3    1    3    3  502    0  0.24650661325E-02  0.35625890571E+03 -0.10597842900E+04  0.11180622341E+04  0.10100000352E+00 0.  1.
       -3    1    3    3    0  502 -0.24650661325E-02 -0.35625890571E+03  0.89009736413E+03  0.95874591824E+03  0.10100000352E+00 0. -1.
</event>
<event>
 5   0  0.8271069E-05  0.2164479E+04  0.7818609E-02  0.8533360E-01
       -1   -1    0    0    0  501  0.00000000000E+00  0.00000000000E+00  0.10861612444E+04  0.10861612444E+04  0.50400001928E-02 0. -1.
        1   -1    0    0  501    0  0.00000000000E+00  0.00000000000E+00 -0.10783315326E+04  0.10783315326E+04  0.50400001928E-02 0.  1.
    10030    2    1    2    0    0  0.00000000000E+00  0.00000000000E+00  0.78297117822E+01  0.21644927771E+04  0.21644786156E+04 0.  0.
        2    1    3    3  502    0 -0.78094336906E+03 -0.37859892210E+03  0.65047320591E+03  0.10845852115E+04  0.25500000920E-02 0. -1.
       -2    1    3    3    0  502  0.78094336906E+03  0.37859892210E+03 -0.64264349413E+03  0.10799075655E+04  0.25500000920E-02 0.  1.
</event>
<event>
 5   0  0.8525278E-05  0.2122674E+04  0.7818609E-02  0.8551320E-01
       -1   -1    0    0    0  501  0.00000000000E+00  0.00000000000E+00  0.85163378352E+03  0.85163378354E+03  0.50400001928E-02 0. -1.
        1   -1    0    0  501    0  0.00000000000E+00  0.00000000000E+00 -0.13226773836E+04  0.13226773836E+04  0.50400001928E-02 0.  1.
    10030    2    1    2    0    0  0.00000000000E+00  0.00000000000E+00 -0.47104360004E+03  0.21743111671E+04  0.21226744871E+04 0.  0.
        4    1    3    3  502    0 -0.47696675158E+03  0.41475990597E+03  0.63780992411E+03  0.89795666594E+03  0.12699999809E+01 0. -1.
       -4    1    3    3    0  502  0.47696675158E+03 -0.41475990597E+03 -0.11088535242E+04  0.12763545012E+04  0.12699999809E+01 0.  1.
</event>
<event>
 5   0  0.8755004E-05  0.1824603E+04  0.7818609E-02  0.8693324E-01
       -1   -1    0    0    0  501  0.00000000000E+00  0.00000000000E+00  0.51224237930E+03  0.51224237933E+03  0.50400001928E-02 0. -1.
        1   -1    0    0  501    0  0.00000000000E+00  0.00000000000E+00 -0.16248056795E+04  0.16248056795E+04  0.50400001928E-02 0.  1.
    10030    2    1    2    0    0  0.00000000000E+00  0.00000000000E+00 -0.11125633002E+04  0.21370480588E+04  0.18246033291E+04 0.  0.
        3    1    3    3  502    0  0.63376218489E+03  0.59651793112E+03 -0.87662412722E+03  0.12352967335E+04  0.10100000352E+00 0.  1.
       -3    1    3    3    0  502 -0.63376218489E+03 -0.59651793112E+03 -0.23593917293E+03  0.90175132529E+03  0.10100000352E+00 0. -1.
</event>
<event>
 5   0  0.8525278E-05  0.1984928E+04  0.7818609E-02  0.8613700E-01
        1   -1    0    0  501    0  0.00000000000E+00  0.00000000000E+00  0.10900712526E+04  0.10900712526E+04  0.50400001928E-02 0. -1.
       -1   -1    0    0    0  501  0.00000000000E+00  0.00000000000E+00 -0.90359661666E+03  0.90359661667E+03  0.50400001928E-02 0.  1.
    10030    2    1    2    0    0  0.00000000000E+00  0.00000000000E+00  0.18647463595E+03  0.19936678693E+04  0.19849279038E+04 0.  0.
        4    1    3    3  502    0  0.51574803504E+03 -0.73083006069E+03  0.52510086080E+03  0.10372276222E+04  0.12699999809E+01 0. -1.
       -4    1    3    3    0  502 -0.51574803504E+03  0.73083006069E+03 -0.33862622486E+03  0.95644024713E+03  0.12699999809E+01 0.  1.
</event>
<event>
 5   0  0.1886323E-04  0.2102815E+04  0.7818609E-02  0.8560004E-01
        2   -1    0    0  501    0  0.00000000000E+00  0.00000000000E+00  0.12274873983E+04  0.12274873983E+04  0.25500000920E-02 0.  1.
       -2   -1    0    0    0  501  0.00000000000E+00  0.00000000000E+00 -0.90058583125E+03  0.90058583125E+03  0.25500000920E-02 0. -1.
    10030    2    1    2    0    0  0.00000000000E+00  0.00000000000E+00  0.32690156705E+03  0.21280732296E+04  0.21028150265E+04 0.  0.
        2    1    3    3  502    0 -0.39477367485E+03  0.86128783985E+03 -0.29786975902E+03  0.99317138036E+03  0.25500000920E-02 0. -1.
       -2    1    3    3    0  502  0.39477367485E+03 -0.86128783985E+03  0.62477132607E+03  0.11349018492E+04  0.25500000920E-02 0.  1.
</event>
<event>
 5   0  0.1921687E-04  0.2100125E+04  0.7818609E-02  0.8561188E-01
       -2   -1    0    0    0  501  0.00000000000E+00  0.00000000000E+00  0.62549900523E+03  0.62549900524E+03  0.25500000920E-02 0.  1.
        2   -1    0    0  501    0  0.00000000000E+00  0.00000000000E+00 -0.17628023151E+04  0.17628023151E+04  0.25500000920E-02 0. -1.
    10030    2    1    2    0    0  0.00000000000E+00  0.00000000000E+00 -0.11373033099E+04  0.23883013203E+04  0.21001248482E+04 0.  0.
        5    1    3    3  502    0 -0.79928038728E+03 -0.28603397850E+03  0.13416831958E+03  0.85946948889E+03  0.46999998093E+01 0.  1.
       -5    1    3    3    0  502  0.79928038728E+03  0.28603397850E+03 -0.12714716295E+04  0.15288318315E+04  0.46999998093E+01 0. -1.
</event>
<event>
 5   0  0.1815400E-04  0.2389644E+04  0.7818609E-02  0.8443391E-01
       -2   -1    0    0    0  501  0.00000000000E+00  0.00000000000E+00  0.89902790061E+03  0.89902790062E+03  0.25500000920E-02 0. -1.
        2   -1    0    0  501    0  0.00000000000E+00  0.00000000000E+00 -0.15879367293E+04  0.15879367293E+04  0.25500000920E-02 0.  1.
    10030    2    1    2    0    0  0.00000000000E+00  0.00000000000E+00 -0.68890882867E+03  0.24869646299E+04  0.23896438430E+04 0.  0.
        3    1    3    3  502    0 -0.92112511079E+02 -0.11874879625E+04 -0.24579359434E+03  0.12161524892E+04  0.10100000352E+00 0.  1.
       -3    1    3    3    0  502  0.92112511079E+02  0.11874879625E+04 -0.44311523433E+03  0.12708121407E+04  0.10100000352E+00 0. -1.
</event>
<event>
 5   0  0.1921687E-04  0.2120345E+04  0.7818609E-02  0.8552334E-01
       -2   -1    0    0    0  501  0.00000000000E+00  0.00000000000E+00  0.69716928076E+03  0.69716928076E+03  0.25500000920E-02 0. -1.
        2   -1    0    0  501    0  0.00000000000E+00  0.00000000000E+00 -0.16121841637E+04  0.16121841638E+04  0.25500000920E-02 0.  1.
    10030    2    1    2    0    0  0.00000000000E+00  0.00000000000E+00 -0.91501488299E+03  0.23093534445E+04  0.21203445700E+04 0.  0.
        5    1    3    3  502    0  0.94099252958E+03 -0.48387510730E+03 -0.52926787358E+03  0.11831097296E+04  0.46999998093E+01 0.  1.
       -5    1    3    3    0  502 -0.94099252958E+03  0.48387510730E+03 -0.38574700941E+03  0.11262437149E+04  0.46999998093E+01 0. -1.
</event>
<event>
 5   0  0.8525278E-05  0.2142213E+04  0.7818609E-02  0.8542873E-01
        1   -1    0    0  501    0  0.00000000000E+00  0.00000000000E+00  0.67930005690E+03  0.67930005692E+03  0.50400001928E-02 0. -1.
       -1   -1    0    0    0  501  0.00000000000E+00  0.00000000000E+00 -0.16888996641E+04  0.16888996641E+04  0.50400001928E-02 0.  1.
    10030    2    1    2    0    0  0.00000000000E+00  0.00000000000E+00 -0.10095996072E+04  0.23681997210E+04  0.21422134702E+04 0.  0.
        4    1    3    3  502    0  0.20081950146E+03 -0.43405672368E+03  0.55470583469E+03  0.73241647133E+03  0.12699999809E+01 0. -1.
       -4    1    3    3    0  502 -0.20081950146E+03  0.43405672368E+03 -0.15643054419E+04  0.16357832497E+04  0.12699999809E+01 0.  1.
</event>
<event>
 5   0  0.8486612E-05  0.2092488E+04  0.7818609E-02  0.8564560E-01
       -1   -1    0    0    0  501  0.00000000000E+00  0.00000000000E+00  0.78082896169E+03  0.78082896170E+03  0.50400001928E-02 0. -1.
        1   -1    0    0  501    0  0.00000000000E+00  0.00000000000E+00 -0.14018777029E+04  0.14018777029E+04  0.50400001928E-02 0.  1.
    10030    2    1    2    0    0  0.00000000000E+00  0.00000000000E+00 -0.62104874122E+03  0.21827066646E+04  0.20924881947E+04 0.  0.
        5    1    3    3  502    0  0.50093485978E+03  0.17999136237E+03 -0.12500650765E+04  0.13586822328E+04  0.46999998093E+01 0.  1.
       -5    1    3    3    0  502 -0.50093485978E+03 -0.17999136237E+03  0.62901633524E+03  0.82402443184E+03  0.46999998093E+01 0. -1.
</event>
<event>
 5   0  0.8755004E-05  0.2021159E+04  0.7818609E-02  0.8596792E-01
        1   -1    0    0  501    0  0.00000000000E+00  0.00000000000E+00  0.69316997541E+03  0.69316997543E+03  0.50400001928E-02 0.  1.
       -1   -1    0    0    0  501  0.00000000000E+00  0.00000000000E+00 -0.14733341744E+04  0.14733341744E+04  0.50400001928E-02 0. -1.
    10030    2    1    2    0    0  0.00000000000E+00  0.00000000000E+00 -0.78016419894E+03  0.21665041498E+04  0.20211590867E+04 0.  0.
        3    1    3    3  502    0  0.73762202540E+02  0.25387856824E+02  0.68993778302E+03  0.69433389694E+03  0.10100000352E+00 0.  1.
       -3    1    3    3    0  502 -0.73762202540E+02 -0.25387856824E+02 -0.14701019820E+04  0.14721702528E+04  0.10100000352E+00 0. -1.
</event>
<event>
 5   0  0.8486612E-05  0.1394012E+04  0.7818609E-02  0.8958164E-01
        1   -1    0    0  501    0  0.00000000000E+00  0.00000000000E+00  0.16729037532E+04  0.16729037532E+04  0.50400001928E-02 0. -1.
       -1   -1    0    0    0  501  0.00000000000E+00  0.00000000000E+00 -0.29040378792E+03  0.29040378797E+03  0.50400001928E-02 0.  1.
    10030    2    1    2    0    0  0.00000000000E+00  0.00000000000E+00  0.13824999653E+04  0.19633075412E+04  0.13940123196E+04 0.  0.
        5    1    3    3  502    0  0.56650854594E+03 -0.16579603524E+03  0.12132565336E+04  0.13492345104E+04  0.46999998093E+01 0. -1.
       -5    1    3    3    0  502 -0.56650854594E+03  0.16579603524E+03  0.16924343174E+03  0.61407303077E+03  0.46999998093E+01 0.  1.
</event>
<event>
 5   0  0.1886323E-04  0.2059575E+04  0.7818609E-02  0.8579263E-01
       -2   -1    0    0    0  501  0.00000000000E+00  0.00000000000E+00  0.78124121400E+03  0.78124121400E+03  0.25500000920E-02 0.  1.
        2   -1    0    0  501    0  0.00000000000E+00  0.00000000000E+00 -0.13574065550E+04  0.13574065550E+04  0.25500000920E-02 0. -1.
    10030    2    1    2    0    0  0.00000000000E+00  0.00000000000E+00 -0.57616534095E+03  0.21386477690E+04  0.20595746599E+04 0.  0.
        2    1    3    3  502    0 -0.47569056189E+03 -0.37614610335E+03  0.57615383377E+03  0.83649306148E+03  0.25500000920E-02 0.  1.
       -2    1    3    3    0  502  0.47569056189E+03  0.37614610335E+03 -0.11523191747E+04  0.13021547075E+04  0.25500000920E-02 0. -1.
</event>
<event>
 5   0  0.1815400E-04  0.2093395E+04  0.7818609E-02  0.8564158E-01
        2   -1    0    0  501    0  0.00000000000E+00  0.00000000000E+00  0.16098229924E+04  0.16098229924E+04  0.25500000920E-02 0. -1.
       -2   -1    0    0    0  501  0.00000000000E+00  0.00000000000E+00 -0.68055663979E+03  0.68055663979E+03  0.25500000920E-02 0.  1.
    10030    2    1    2    0    0  0.00000000000E+00  0.00000000000E+00  0.92926635257E+03  0.22903796322E+04  0.20933950667E+04 0.  0.
        3    1    3    3  502    0 -0.38292422277E+02 -0.94685804140E+03 -0.21679912798E+02  0.94787999715E+03  0.10100000352E+00 0. -1.
       -3    1    3    3    0  502  0.38292422277E+02  0.94685804140E+03  0.95094626537E+03  0.13424996350E+04  0.10100000352E+00 0.  1.
</event>
<event>
 5   0  0.1815400E-04  0.2108988E+04  0.7818609E-02  0.8557294E-01
       -2   -1    0    0    0  501  0.00000000000E+00  0.00000000000E+00  0.75453243296E+03  0.75453243296E+03  0.25500000920E-02 0.  1.
        2   -1    0    0  501    0  0.00000000000E+00  0.00000000000E+00 -0.14737046187E+04  0.14737046187E+04  0.25500000920E-02 0. -1.
    10030    2    1    2    0    0  0.00000000000E+00  0.00000000000E+00 -0.71917218577E+03  0.22282370517E+04  0.21089883181E+04 0.  0.
        3    1    3    3  502    0 -0.99064431652E+03 -0.34684988103E+03 -0.46669329944E+03  0.11486877939E+04  0.10100000352E+00 0. -1.
       -3    1    3    3    0  502  0.99064431652E+03  0.34684988103E+03 -0.25247888633E+03  0.10795492578E+04  0.10100000352E+00 0.  1.
</event>
<event>
 5   0  0.8271069E-05  0.2129320E+04  0.7818609E-02  0.8548437E-01
        1   -1    0    0  501    0  0.00000000000E+00  0.00000000000E+00  0.99353765638E+03  0.99353765639E+03  0.50400001928E-02 0. -1.
       -1   -1    0    0    0  501  0.00000000000E+00  0.00000000000E+00 -0.11408735978E+04  0.11408735978E+04  0.50400001928E-02 0.  1.
    10030    2    1    2    0    0  0.00000000000E+00  0.00000000000E+00 -0.14733594138E+03  0.21344112542E+04  0.21293199671E+04 0.  0.
        2    1    3    3  502    0  0.26793146633E+03  0.80242733406E+03 -0.72160657817E+03  0.11119320801E+04  0.25500000920E-02 0.  1.
       -2    1    3    3    0  502 -0.26793146633E+03 -0.80242733406E+03  0.57427063679E+03  0.10224791741E+04  0.25500000920E-02 0. -1.
</event>
<event>
 5   0  0.1777590E-04  0.2023125E+04  0.7818609E-02  0.8595885E-01
       -2   -1    0    0    0  501  0.00000000000E+00  0.00000000000E+00  0.74957624729E+03  0.74957624729E+03  0.25500000920E-02 0. -1.
        2   -1    0    0  501    0  0.00000000000E+00  0.00000000000E+00 -0.13651160645E+04  0.13651160645E+04  0.25500000920E-02 0.  1.
    10030    2    1    2    0    0  0.00000000000E+00  0.00000000000E+00 -0.61553981721E+03  0.21146923118E+04  0.20231248866E+04 0.  0.
        4    1    3    3  502    0  0.13048355764E+03 -0.58164653181E+02  0.73897781218E+03  0.75266121562E+03  0.12699999809E+01 0. -1.
       -4    1    3    3    0  502 -0.13048355764E+03  0.58164653181E+02 -0.13545176294E+04  0.13620310962E+04  0.12699999809E+01 0.  1.
</event>
<event>
 5   0  0.1815400E-04  0.2051854E+04  0.7818609E-02  0.8582754E-01
        2   -1    0    0  501    0  0.00000000000E+00  0.00000000000E+00  0.16151645450E+04  0.16151645450E+04  0.25500000920E-02 0.  1.
       -2   -1    0    0    0  501  0.00000000000E+00  0.00000000000E+00 -0.65165241811E+03  0.65165241812E+03  0.25500000920E-02 0. -1.
    10030    2    1    2    0    0  0.00000000000E+00  0.00000000000E+00  0.96351212686E+03  0.22668169631E+04  0.20518536803E+04 0.  0.
        3    1    3    3  502    0  0.30473971313E+03 -0.94128351243E+03  0.18194925839E+03  0.10059753905E+04  0.10100000352E+00 0. -1.
       -3    1    3    3    0  502 -0.30473971313E+03  0.94128351243E+03  0.78156286846E+03  0.12608415726E+04  0.10100000352E+00 0.  1.
</event>
<event>
 5   0  0.1815400E-04  0.2073700E+04  0.7818609E-02  0.8572918E-01
        2   -1    0    0  501    0  0.00000000000E+00  0.00000000000E+00  0.27728040454E+04  0.27728040454E+04  0.25500000920E-02 0.  1.
       -2   -1    0    0    0  501  0.00000000000E+00  0.00000000000E+00 -0.38771491066E+03  0.38771491067E+03  0.25500000920E-02 0. -1.
    10030    2    1    2    0    0  0.00000000000E+00  0.00000000000E+00  0.23850891348E+04  0.31605189561E+04  0.20736995663E+04 0.  0.
        3    1    3    3  502    0 -0.66614155763E+03  0.21812302761E+03  0.23569936849E+04  0.24590122958E+04  0.10100000352E+00 0.  1.
       -3    1    3    3    0  502  0.66614155763E+03 -0.21812302761E+03  0.28095449887E+02  0.70150666033E+03  0.10100000352E+00 0. -1.
</event>
<event>
 5   0  0.1815400E-04  0.2081718E+04  0.7818609E-02  0.8569340E-01
        2   -1    0    0  501    0  0.00000000000E+00  0.00000000000E+00  0.16254728464E+04  0.16254728464E+04  0.25500000920E-02 0.  1.
       -2   -1    0    0    0  501  0.00000000000E+00  0.00000000000E+00 -0.66650602233E+03  0.66650602234E+03  0.25500000920E-02 0. -1.
    10030    2    1    2    0    0  0.00000000000E+00  0.00000000000E+00  0.95896682408E+03  0.22919788687E+04  0.20817179840E+04 0.  0.
        3    1    3    3  502    0 -0.98721507258E+03  0.27542528357E+03  0.27967403498E+03  0.10623889412E+04  0.10100000352E+00 0. -1.
       -3    1    3    3    0  502  0.98721507258E+03 -0.27542528357E+03  0.67929278910E+03  0.12295899275E+04  0.10100000352E+00 0.  1.
</event>
<event>
 5   0  0.1921687E-04  0.2098177E+04  0.7818609E-02  0.8562047E-01
       -2   -1    0    0    0  501  0.00000000000E+00  0.00000000000E+00  0.12383537232E+04  0.12383537232E+04  0.25500000920E-02 0. -1.
        2   -1    0    0  501    0  0.00000000000E+00  0.00000000000E+00 -0.88874989699E+03  0.88874989699E+03  0.25500000920E-02 0.  1.
    10030    2    1    2    0    0  0.00000000000E+00  0.00000000000E+00  0.34960382620E+03  0.21271036202E+04  0.20981770601E+04 0.  0.
        5    1    3    3  502    0  0.26058008929E+03 -0.57153896469E+03 -0.67702365621E+03  0.92354853265E+03  0.46999998093E+01 0.  1.
       -5    1    3    3    0  502 -0.26058008929E+03  0.57153896469E+03  0.10266274824E+04  0.12035550875E+04  0.46999998093E+01 0. -1.
</event>
<event>
 5   0  0.8755004E-05  0.2088794E+04  0.7818609E-02  0.8566196E-01
        1   -1    0    0  501    0  0.00000000000E+00  0.00000000000E+00  0.21897302540E+04  0.21897302540E+04  0.50400001928E-02 0.  1.
       -1   -1    0    0    0  501  0.00000000000E+00  0.00000000000E+00 -0.49812763805E+03  0.49812763808E+03  0.50400001928E-02 0. -1.
    10030    2    1    2    0    0  0.00000000000E+00  0.00000000000E+00  0.16916026160E+04  0.26878578921E+04  0.20887940630E+04 0.  0.
        3    1    3    3  502    0 -0.52066207509E+03  0.96827621903E+02  0.20041351635E+04  0.20729260355E+04  0.10100000352E+00 0.  1.
       -3    1    3    3    0  502  0.52066207509E+03 -0.96827621903E+02 -0.31253254754E+03  0.61493185661E+03  0.10100000352E+00 0. -1.
</event>
<event>
 5   0  0.8271069E-05  0.2128104E+04  0.7818609E-02  0.8548964E-01
       -1   -1    0    0    0  501  0.00000000000E+00  0.00000000000E+00  0.61712018647E+03  0.61712018649E+03  0.50400001928E-02 0. -1.
        1   -1    0    0  501    0  0.00000000000E+00  0.00000000000E+00 -0.18346607175E+04  0.18346607175E+04  0.50400001928E-02 0.  1.
    10030    2    1    2    0    0  0.00000000000E+00  0.00000000000E+00 -0.12175405310E+04  0.24517809040E+04  0.21281035352E+04 0.  0.
        2    1    3    3  502    0 -0.63268281901E+03  0.70788637488E+02  0.37349436188E+03  0.73810339318E+03  0.25500000920E-02 0. -1.
       -2    1    3    3    0  502  0.63268281901E+03 -0.70788637488E+02 -0.15910348929E+04  0.17136775108E+04  0.25500000920E-02 0.  1.
</event>
<event>
 5   0  0.8525278E-05  0.2081216E+04  0.7818609E-02  0.8569563E-01
        1   -1    0    0  501    0  0.00000000000E+00  0.00000000000E+00  0.73623200550E+03  0.73623200552E+03  0.50400001928E-02 0.  1.
       -1   -1    0    0    0  501  0.00000000000E+00  0.00000000000E+00 -0.14708200369E+04  0.14708200369E+04  0.50400001928E-02 0. -1.
    10030    2    1    2    0    0  0.00000000000E+00  0.00000000000E+00 -0.73458803141E+03  0.22070520424E+04  0.20812157846E+04 0.  0.
        4    1    3    3  502    0 -0.23491012959E+03  0.78182505276E+03 -0.10516254074E+04  0.13312966583E+04  0.12699999809E+01 0. -1.
       -4    1    3    3    0  502  0.23491012959E+03 -0.78182505276E+03  0.31703737599E+03  0.87575538410E+03  0.12699999809E+01 0.  1.
</event>
<event>
 5   0  0.1815400E-04  0.2095459E+04  0.7818609E-02  0.8563247E-01
        2   -1    0    0  501    0  0.00000000000E+00  0.00000000000E+00  0.13608431800E+04  0.13608431800E+04  0.25500000920E-02 0.  1.
       -2   -1    0    0    0  501  0.00000000000E+00  0.00000000000E+00 -0.80665926920E+03  0.80665926920E+03  0.25500000920E-02 0. -1.
    10030    2    1    2    0    0  0.00000000000E+00  0.00000000000E+00  0.55418391083E+03  0.21675024492E+04  0.20954586754E+04 0.  0.
        3    1    3    3  502    0  0.64260769992E+03 -0.51162820189E+03  0.94986007507E+03  0.12557636105E+04  0.10100000352E+00 0.  1.
       -3    1    3    3    0  502 -0.64260769992E+03  0.51162820189E+03 -0.39567616423E+03  0.91173883876E+03  0.10100000352E+00 0. -1.
</event>
<event>
 5   0  0.1815400E-04  0.2028880E+04  0.7818609E-02  0.8593236E-01
        2   -1    0    0  501    0  0.00000000000E+00  0.00000000000E+00  0.17161888022E+04  0.17161888022E+04  0.25500000920E-02 0.  1.
       -2   -1    0    0    0  501  0.00000000000E+00  0.00000000000E+00 -0.59963617684E+03  0.59963617685E+03  0.25500000920E-02 0. -1.
    10030    2    1    2    0    0  0.00000000000E+00  0.00000000000E+00  0.11165526254E+04  0.23158249790E+04  0.20288803731E+04 0.  0.
        3    1    3    3  502    0  0.30049346732E+03 -0.48701565549E+03 -0.39780901848E+03  0.69694519008E+03  0.10100000352E+00 0. -1.
       -3    1    3    3    0  502 -0.30049346732E+03  0.48701565549E+03  0.15143616438E+04  0.16188797890E+04  0.10100000352E+00 0.  1.
</event>
<event>
 5   0  0.1810875E-04  0.1923984E+04  0.7818609E-02  0.8643009E-01
        2   -1    0    0  501    0  0.00000000000E+00  0.00000000000E+00  0.16562937001E+04  0.16562937001E+04  0.25500000920E-02 0. -1.
       -2   -1    0    0    0  501  0.00000000000E+00  0.00000000000E+00 -0.55873453818E+03  0.55873453818E+03  0.25500000920E-02 0.  1.
    10030    2    1    2    0    0  0.00000000000E+00  0.00000000000E+00  0.10975591619E+04  0.22150282383E+04  0.19239838831E+04 0.  0.
        1    1    3    3  502    0  0.64079348281E+03  0.12836599676E+03 -0.26393539396E+03  0.70480920038E+03  0.50400001928E-02 0.  1.
       -1    1    3    3    0  502 -0.64079348281E+03 -0.12836599676E+03  0.13614945559E+04  0.15102190379E+04  0.50400001928E-02 0. -1.
</event>
<event>
 5   0  0.8237966E-05  0.2128197E+04  0.7818609E-02  0.8548923E-01
       -1   -1    0    0    0  501  0.00000000000E+00  0.00000000000E+00  0.93129224244E+03  0.93129224246E+03  0.50400001928E-02 0. -1.
        1   -1    0    0  501    0  0.00000000000E+00  0.00000000000E+00 -0.12158433399E+04  0.12158433399E+04  0.50400001928E-02 0.  1.
    10030    2    1    2    0    0  0.00000000000E+00  0.00000000000E+00 -0.28455109744E+03  0.21471355823E+04  0.21281968616E+04 0.  0.
        1    1    3    3  502    0 -0.45564208299E+03 -0.40214943601E+03  0.73897998118E+03  0.95677859993E+03  0.50400001928E-02 0. -1.
       -1    1    3    3    0  502  0.45564208299E+03  0.40214943601E+03 -0.10235310786E+04  0.11903569824E+04  0.50400001928E-02 0.  1.
</event>
<event>
 5   0  0.1886323E-04  0.2055638E+04  0.7818609E-02  0.8581041E-01
       -2   -1    0    0    0  501  0.00000000000E+00  0.00000000000E+00  0.69218516331E+03  0.69218516331E+03  0.25500000920E-02 0. -1.
        2   -1    0    0  501    0  0.00000000000E+00  0.00000000000E+00 -0.15261981062E+04  0.15261981062E+04  0.25500000920E-02 0.  1.
    10030    2    1    2    0    0  0.00000000000E+00  0.00000000000E+00 -0.83401294285E+03  0.22183832695E+04  0.20556377943E+04 0.  0.
        2    1    3    3  502    0  0.29787531219E+03 -0.59111217235E+03  0.43154561679E+03  0.79017398166E+03  0.25500000920E-02 0. -1.
       -2    1    3    3    0  502 -0.29787531219E+03  0.59111217235E+03 -0.12655585596E+04  0.14282092878E+04  0.25500000920E-02 0.  1.
</event>
<event>
 5   0  0.1815400E-04  0.2059313E+04  0.7818609E-02  0.8579381E-01
       -2   -1    0    0    0  501  0.00000000000E+00  0.00000000000E+00  0.12678661514E+04  0.12678661514E+04  0.25500000920E-02 0.  1.
        2   -1    0    0  501    0  0.00000000000E+00  0.00000000000E+00 -0.83620205732E+03  0.83620205733E+03  0.25500000920E-02 0. -1.
    10030    2    1    2    0    0  0.00000000000E+00  0.00000000000E+00  0.43166409409E+03  0.21040682087E+04  0.20593127827E+04 0.  0.
        3    1    3    3  502    0 -0.78777429658E+02  0.60707428044E+03 -0.63007862736E+03  0.87848969957E+03  0.10100000352E+00 0. -1.
       -3    1    3    3    0  502  0.78777429658E+02 -0.60707428044E+03  0.10617427214E+04  0.12255785092E+04  0.10100000352E+00 0.  1.
</event>
<event>
 5   0  0.8237966E-05  0.2118252E+04  0.7818609E-02  0.8553246E-01
       -1   -1    0    0    0  501  0.00000000000E+00  0.00000000000E+00  0.74104122347E+03  0.74104122349E+03  0.50400001928E-02 0.  1.
        1   -1    0    0  501    0  0.00000000000E+00  0.00000000000E+00 -0.15137451377E+04  0.15137451378E+04  0.50400001928E-02 0. -1.
    10030    2    1    2    0    0  0.00000000000E+00  0.00000000000E+00 -0.77270391428E+03  0.22547863612E+04  0.21182516837E+04 0.  0.
        1    1    3    3  502    0  0.88709010003E+03  0.32828620500E+02  0.22858785465E+03  0.91665640849E+03  0.50400001928E-02 0.  1.
       -1    1    3    3    0  502 -0.88709010003E+03 -0.32828620500E+02 -0.10012917689E+04  0.13381299528E+04  0.50400001928E-02 0. -1.
</event>
<event>
 5   0  0.1777590E-04  0.1574135E+04  0.7818609E-02  0.8836597E-01
        2   -1    0    0  501    0  0.00000000000E+00  0.00000000000E+00  0.10515890091E+04  0.10515890091E+04  0.25500000920E-02 0.  1.
       -2   -1    0    0    0  501  0.00000000000E+00  0.00000000000E+00 -0.58908489372E+03  0.58908489373E+03  0.25500000920E-02 0. -1.
    10030    2    1    2    0    0  0.00000000000E+00  0.00000000000E+00  0.46250411534E+03  0.16406739028E+04  0.15741349366E+04 0.  0.
        4    1    3    3  502    0  0.41159309034E+03  0.57886603127E+02 -0.46536647471E+03  0.62396097595E+03  0.12699999809E+01 0. -1.
       -4    1    3    3    0  502 -0.41159309034E+03 -0.57886603127E+02  0.92787059005E+03  0.10167129268E+04  0.12699999809E+01 0.  1.
</event>
<event>
 5   0  0.6441125E-05  0.2115136E+04  0.7818609E-02  0.8554605E-01
        3   -1    0    0  501    0  0.00000000000E+00  0.00000000000E+00  0.14804432367E+04  0.14804432401E+04  0.10100000352E+00 0. -1.
       -3   -1    0    0    0  501  0.00000000000E+00  0.00000000000E+00 -0.75548356644E+03  0.75548357319E+03  0.10100000352E+00 0.  1.
    10030    2    1    2    0    0  0.00000000000E+00  0.00000000000E+00  0.72495967022E+03  0.22359268133E+04  0.21151364474E+04 0.  0.
        2    1    3    3  502    0  0.88404786122E+03  0.17316166411E+03 -0.22316632827E+03  0.92807801015E+03  0.25500000920E-02 0.  1.
       -2    1    3    3    0  502 -0.88404786122E+03 -0.17316166411E+03  0.94812599848E+03  0.13078488031E+04  0.25500000920E-02 0. -1.
</event>
<event>
 5   0  0.1921687E-04  0.1344284E+04  0.7818609E-02  0.8995166E-01
        2   -1    0    0  501    0  0.00000000000E+00  0.00000000000E+00  0.11691034402E+04  0.11691034402E+04  0.25500000920E-02 0. -1.
       -2   -1    0    0    0  501  0.00000000000E+00  0.00000000000E+00 -0.38642864561E+03  0.38642864561E+03  0.25500000920E-02 0.  1.
    10030    2    1    2    0    0  0.00000000000E+00  0.00000000000E+00  0.78267479463E+03  0.15555320859E+04  0.13442842839E+04 0.  0.
        5    1    3    3  502    0  0.23315424724E+03  0.62025549775E+03  0.26106122796E+03  0.71221684917E+03  0.46999998093E+01 0.  1.
       -5    1    3    3    0  502 -0.23315424724E+03 -0.62025549775E+03  0.52161356668E+03  0.84331523669E+03  0.46999998093E+01 0. -1.
</event>
<event>
 5   0  0.1777590E-04  0.2108182E+04  0.7818609E-02  0.8557648E-01
       -2   -1    0    0    0  501  0.00000000000E+00  0.00000000000E+00  0.65702441707E+03  0.65702441707E+03  0.25500000920E-02 0.  1.
        2   -1    0    0  501    0  0.00000000000E+00  0.00000000000E+00 -0.16911213007E+04  0.16911213007E+04  0.25500000920E-02 0. -1.
    10030    2    1    2    0    0  0.00000000000E+00  0.00000000000E+00 -0.10340968836E+04  0.23481457177E+04  0.21081821428E+04 0.  0.
        4    1    3    3  502    0 -0.79118322727E+03  0.33313650855E+03  0.16425879926E+03  0.87403283604E+03  0.12699999809E+01 0.  1.
       -4    1    3    3    0  502  0.79118322727E+03 -0.33313650855E+03 -0.11983556829E+04  0.14741128817E+04  0.12699999809E+01 0. -1.
</event>
<event>
 5   0  0.1815400E-04  0.2099706E+04  0.7818609E-02  0.8561373E-01
        2   -1    0    0  501    0  0.00000000000E+00  0.00000000000E+00  0.12449550536E+04  0.12449550536E+04  0.25500000920E-02 0.  1.
       -2   -1    0    0    0  501  0.00000000000E+00  0.00000000000E+00 -0.88532619806E+03  0.88532619806E+03  0.25500000920E-02 0. -1.
    10030    2    1    2    0    0  0.00000000000E+00  0.00000000000E+00  0.35962885557E+03  0.21302812517E+04  0.20997060026E+04 0.  0.
        3    1    3    3  502    0 -0.44970486330E+02 -0.10220240899E+04  0.41912139778E+03  0.11055398415E+04  0.10100000352E+00 0.  1.
       -3    1    3    3    0  502  0.44970486330E+02  0.10220240899E+04 -0.59492542210E+02  0.10247414102E+04  0.10100000352E+00 0. -1.
</event>
<event>
 5   0  0.1815400E-04  0.2101923E+04  0.7818609E-02  0.8560397E-01
       -2   -1    0    0    0  501  0.00000000000E+00  0.00000000000E+00  0.88245707870E+03  0.88245707870E+03  0.25500000920E-02 0.  1.
        2   -1    0    0  501    0  0.00000000000E+00  0.00000000000E+00 -0.12516417627E+04  0.12516417627E+04  0.25500000920E-02 0. -1.
    10030    2    1    2    0    0  0.00000000000E+00  0.00000000000E+00 -0.36918468395E+03  0.21340988414E+04  0.21019230561E+04 0.  0.
        3    1    3    3  502    0  0.55298060536E+01  0.65696623572E+03  0.64826018999E+03  0.92297155848E+03  0.10100000352E+00 0.  1.
       -3    1    3    3    0  502 -0.55298060536E+01 -0.65696623572E+03 -0.10174448739E+04  0.12111272829E+04  0.10100000352E+00 0. -1.
</event>
<event>
 5   0  0.1777590E-04  0.2126033E+04  0.7818609E-02  0.8549862E-01
        2   -1    0    0  501    0  0.00000000000E+00  0.00000000000E+00  0.15926755078E+04  0.15926755078E+04  0.25500000920E-02 0.  1.
       -2   -1    0    0    0  501  0.00000000000E+00  0.00000000000E+00 -0.70950042951E+03  0.70950042951E+03  0.25500000920E-02 0. -1.
    10030    2    1    2    0    0  0.00000000000E+00  0.00000000000E+00  0.88317507830E+03  0.23021759373E+04  0.21260328849E+04 0.  0.
        4    1    3    3  502    0 -0.10245793368E+04 -0.23954795621E+03  0.27787892665E+03  0.10882850506E+04  0.12699999809E+01 0. -1.
       -4    1    3    3    0  502  0.10245793368E+04  0.23954795621E+03  0.60529615165E+03  0.12138908867E+04  0.12699999809E+01 0.  1.
</event>
<event>
 5   0  0.1815400E-04  0.2098079E+04  0.7818609E-02  0.8562090E-01
       -2   -1    0    0    0  501  0.00000000000E+00  0.00000000000E+00  0.79852803321E+03  0.79852803321E+03  0.25500000920E-02 0. -1.
        2   -1    0    0  501    0  0.00000000000E+00  0.00000000000E+00 -0.13781399485E+04  0.13781399485E+04  0.25500000920E-02 0.  1.
    10030    2    1    2    0    0  0.00000000000E+00  0.00000000000E+00 -0.57961191530E+03  0.21766679817E+04  0.20980785329E+04 0.  0.
        3    1    3    3  502    0  0.49653734417E+03  0.74400295544E+03 -0.85841768930E+03  0.12397462125E+04  0.10100000352E+00 0.  1.
       -3    1    3    3    0  502 -0.49653734417E+03 -0.74400295544E+03  0.27880577400E+03  0.93692176924E+03  0.10100000352E+00 0. -1.
</event>
<event>
 5   0  0.8486612E-05  0.2091186E+04  0.7818609E-02  0.8565136E-01
       -1   -1    0    0    0  501  0.00000000000E+00  0.00000000000E+00  0.11355918952E+04  0.11355918952E+04  0.50400001928E-02 0. -1.
        1   -1    0    0  501    0  0.00000000000E+00  0.00000000000E+00 -0.96272673459E+03  0.96272673461E+03  0.50400001928E-02 0.  1.
    10030    2    1    2    0    0  0.00000000000E+00  0.00000000000E+00  0.17286516060E+03  0.20983186298E+04  0.20911859574E+04 0.  0.
        5    1    3    3  502    0  0.34961447127E+02  0.67392373447E+02  0.11328118638E+04  0.11353628687E+04  0.46999998093E+01 0. -1.
       -5    1    3    3    0  502 -0.34961447127E+02 -0.67392373447E+02 -0.95994670324E+03  0.96295576111E+03  0.46999998093E+01 0.  1.
</event>
<event>
 5   0  0.1810875E-04  0.1735032E+04  0.7818609E-02  0.8741633E-01
       -2   -1    0    0    0  501  0.00000000000E+00  0.00000000000E+00  0.60533413841E+03  0.60533413842E+03  0.25500000920E-02 0.  1.
        2   -1    0    0  501    0  0.00000000000E+00  0.00000000000E+00 -0.12432540829E+04  0.12432540829E+04  0.25500000920E-02 0. -1.
    10030    2    1    2    0    0  0.00000000000E+00  0.00000000000E+00 -0.63791994453E+03  0.18485882214E+04  0.17350321486E+04 0.  0.
        1    1    3    3  502    0 -0.64625441600E+02  0.36785556020E+03  0.51528723940E+03  0.63640796663E+03  0.50400001928E-02 0.  1.
       -1    1    3    3    0  502  0.64625441600E+02 -0.36785556020E+03 -0.11532071839E+04  0.12121802547E+04  0.50400001928E-02 0. -1.
</event>
<event>
 5   0  0.8755004E-05  0.2043138E+04  0.7818609E-02  0.8586714E-01
        1   -1    0    0  501    0  0.00000000000E+00  0.00000000000E+00  0.94754652873E+03  0.94754652874E+03  0.50400001928E-02 0. -1.
       -1   -1    0    0    0  501  0.00000000000E+00  0.00000000000E+00 -0.11013743969E+04  0.11013743970E+04  0.50400001928E-02 0.  1.
    10030    2    1    2    0    0  0.00000000000E+00  0.00000000000E+00 -0.15382786821E+03  0.20489209257E+04  0.20431382593E+04 0.  0.
        3    1    3    3  502    0  0.54429296406E+03  0.20118603754E+03  0.76622294180E+03  0.96115985100E+03  0.10100000352E+00 0. -1.
       -3    1    3    3    0  502 -0.54429296406E+03 -0.20118603754E+03 -0.92005081002E+03  0.10877610747E+04  0.10100000352E+00 0.  1.
</event>
<event>
 5   0  0.1777590E-04  0.2029646E+04  0.7818609E-02  0.8592884E-01
       -2   -1    0    0    0  501  0.00000000000E+00  0.00000000000E+00  0.72272835653E+03  0.72272835653E+03  0.25500000920E-02 0. -1.
        2   -1    0    0  501    0  0.00000000000E+00  0.00000000000E+00 -0.14249690511E+04  0.14249690511E+04  0.25500000920E-02 0.  1.
    10030    2    1    2    0    0  0.00000000000E+00  0.00000000000E+00 -0.70224069454E+03  0.21476974076E+04  0.20296458217E+04 0.  0.
        4    1    3    3  502    0 -0.13705469182E+03  0.97744342149E+03 -0.60082072734E+03  0.11554941757E+04  0.12699999809E+01 0.  1.
       -4    1    3    3    0  502  0.13705469182E+03 -0.97744342149E+03 -0.10141996720E+03  0.99220323191E+03  0.12699999809E+01 0. -1.
</event>
<event>
 5   0  0.1777590E-04  0.2071414E+04  0.7818609E-02  0.8573941E-01
        2   -1    0    0  501    0  0.00000000000E+00  0.00000000000E+00  0.12083544033E+04  0.12083544033E+04  0.25500000920E-02 0.  1.
       -2   -1    0    0    0  501  0.00000000000E+00  0.00000000000E+00 -0.88772746796E+03  0.88772746797E+03  0.25500000920E-02 0. -1.
    10030    2    1    2    0    0  0.00000000000E+00  0.00000000000E+00  0.32062693535E+03  0.20960818713E+04  0.20714143911E+04 0.  0.
        4    1    3    3  502    0 -0.31707432719E+03  0.63840971848E+03  0.92064989717E+03  0.11643457148E+04  0.12699999809E+01 0.  1.
       -4    1    3    3    0  502  0.31707432719E+03 -0.63840971848E+03 -0.60002296182E+03  0.93173615644E+03  0.12699999809E+01 0. -1.
</event>
<event>
 5   0  0.6441125E-05  0.2098414E+04  0.7818609E-02  0.8561942E-01
        3   -1    0    0  501    0  0.00000000000E+00  0.00000000000E+00  0.10245854436E+04  0.10245854486E+04  0.10100000352E+00 0.  1.
       -3   -1    0    0    0  501  0.00000000000E+00  0.00000000000E+00 -0.10744200503E+04  0.10744200551E+04  0.10100000352E+00 0. -1.
    10030    2    1    2    0    0  0.00000000000E+00  0.00000000000E+00 -0.49834606695E+02  0.20990055036E+04  0.20984138334E+04 0.  0.
        5    1    3    3  502    0 -0.37372003850E+03 -0.79011184508E+03  0.55565109397E+03  0.10357188919E+04  0.46999998093E+01 0.  1.
       -5    1    3    3    0  502  0.37372003850E+03  0.79011184508E+03 -0.60548570066E+03  0.10632866117E+04  0.46999998093E+01 0. -1.
</event>
<event>
 5   0  0.1777590E-04  0.2107573E+04  0.7818609E-02  0.8557915E-01
        2   -1    0    0  501    0  0.00000000000E+00  0.00000000000E+00  0.28851968231E+04  0.28851968231E+04  0.25500000920E-02 0.  1.
       -2   -1    0    0    0  501  0.00000000000E+00  0.00000000000E+00 -0.38488403385E+03  0.38488403386E+03  0.25500000920E-02 0. -1.
    10030    2    1    2    0    0  0.00000000000E+00  0.00000000000E+00  0.25003127892E+04  0.32700808570E+04  0.21075731937E+04 0.  0.
        4    1    3    3  502    0  0.14157089395E+03  0.12984955945E+03  0.28577980832E+04  0.28642476715E+04  0.12699999809E+01 0.  1.
       -4    1    3    3    0  502 -0.14157089395E+03 -0.12984955945E+03 -0.35748529400E+03  0.40583318548E+03  0.12699999809E+01 0. -1.
</event>
<event>
 5   0  0.1810875E-04  0.2270067E+04  0.7818609E-02  0.8489818E-01
        2   -1    0    0  501    0  0.00000000000E+00  0.00000000000E+00  0.13654482945E+04  0.13654482945E+04  0.25500000920E-02 0. -1.
       -2   -1    0    0    0  501  0.00000000000E+00  0.00000000000E+00 -0.94350003227E+03  0.94350003227E+03  0.25500000920E-02 0.  1.
    10030    2    1    2    0    0  0.00000000000E+00  0.00000000000E+00  0.42194826219E+03  0.23089483267E+04  0.22700665276E+04 0.  0.
        1    1    3    3  502    0 -0.44008565227E+03  0.24034966161E+03  0.12466768016E+04  0.13437434237E+04  0.50400001928E-02 0. -1.
       -1    1    3    3    0  502  0.44008565227E+03 -0.24034966161E+03 -0.82472853937E+03  0.96520490303E+03  0.50400001928E-02 0.  1.
</event>
<event>
 5   0  0.8525278E-05  0.2121745E+04  0.7818609E-02  0.8551725E-01
       -1   -1    0    0    0  501  0.00000000000E+00  0.00000000000E+00  0.10109856596E+04  0.10109856596E+04  0.50400001928E-02 0.  1.
        1   -1    0    0  501    0  0.00000000000E+00  0.00000000000E+00 -0.11132209090E+04  0.11132209090E+04  0.50400001928E-02 0. -1.
    10030    2    1    2    0    0  0.00000000000E+00  0.00000000000E+00 -0.10223524938E+03  0.21242065687E+04  0.21217449187E+04 0.  0.
        4    1    3    3  502    0  0.67203156696E+03  0.42579552502E+02 -0.87183045680E+03  0.11016031062E+04  0.12699999809E+01 0. -1.
       -4    1    3    3    0  502 -0.67203156696E+03 -0.42579552502E+02  0.76959520742E+03  0.10226034625E+04  0.12699999809E+01 0.  1.
</event>
<event>
 5   0  0.8486612E-05  0.2098804E+04  0.7818609E-02  0.8561771E-01
        1   -1    0    0  501    0  0.00000000000E+00  0.00000000000E+00  0.10962795891E+04  0.10962795891E+04  0.50400001928E-02 0.  1.
       -1   -1    0    0    0  501  0.00000000000E+00  0.00000000000E+00 -0.10045285747E+04  0.10045285747E+04  0.50400001928E-02 0. -1.
    10030    2    1    2    0    0  0.00000000000E+00  0.00000000000E+00  0.91751014460E+02  0.21008081638E+04  0.20988036336E+04 0.  0.
        5    1    3    3  502    0  0.35814005604E+03  0.94047002426E+03 -0.25185423149E+03  0.10374009881E+04  0.46999998093E+01 0.  1.
       -5    1    3    3    0  502 -0.35814005604E+03 -0.94047002426E+03  0.34360524595E+03  0.10634071757E+04  0.46999998093E+01 0. -1.
</event>
<event>
 5   0  0.1777590E-04  0.2087961E+04  0.7818609E-02  0.8566565E-01
       -2   -1    0    0    0  501  0.00000000000E+00  0.00000000000E+00  0.87507362156E+03  0.87507362156E+03  0.25500000920E-02 0.  1.
        2   -1    0    0  501    0  0.00000000000E+00  0.00000000000E+00 -0.12454901447E+04  0.12454901447E+04  0.25500000920E-02 0. -1.
    10030    2    1    2    0    0  0.00000000000E+00  0.00000000000E+00 -0.37041652314E+03  0.21205637663E+04  0.20879612751E+04 0.  0.
        4    1    3    3  502    0  0.17056693674E+03 -0.55016222754E+03  0.69908957348E+03  0.90581422001E+03  0.12699999809E+01 0.  1.
       -4    1    3    3    0  502 -0.17056693674E+03  0.55016222754E+03 -0.10695060966E+04  0.12147495463E+04  0.12699999809E+01 0. -1.
</event>
<event>
 5   0  0.1810875E-04  0.2009454E+04  0.7818609E-02  0.8602213E-01
       -2   -1    0    0    0  501  0.00000000000E+00  0.00000000000E+00  0.84845759830E+03  0.84845759830E+03  0.25500000920E-02 0. -1.
        2   -1    0    0  501    0  0.00000000000E+00  0.00000000000E+00 -0.11897787057E+04  0.11897787057E+04  0.25500000920E-02 0.  1.
    10030    2    1    2    0    0  0.00000000000E+00  0.00000000000E+00 -0.34132110736E+03  0.20382363040E+04  0.20094544365E+04 0.  0.
        1    1    3    3  502    0 -0.24016424446E+03  0.97496010109E+03 -0.13478848465E+03  0.10131110495E+04  0.50400001928E-02 0. -1.
       -1    1    3    3    0  502  0.24016424446E+03 -0.97496010109E+03 -0.20653262271E+03  0.10251252544E+04  0.50400001928E-02 0.  1.
</event>
<event>
 5   0  0.1777590E-04  0.2113448E+04  0.7818609E-02  0.8555342E-01
        2   -1    0    0  501    0  0.00000000000E+00  0.00000000000E+00  0.83550967901E+03  0.83550967901E+03  0.25500000920E-02 0. -1.
       -2   -1    0    0    0  501  0.00000000000E+00  0.00000000000E+00 -0.13365082381E+04  0.13365082382E+04  0.25500000920E-02 0.  1.
    10030    2    1    2    0    0  0.00000000000E+00  0.00000000000E+00 -0.50099855914E+03  0.21720179172E+04  0.21134479592E+04 0.  0.
        4    1    3    3  502    0 -0.99243934430E+03  0.36288829902E+03 -0.24398431751E+03  0.10845062147E+04  0.12699999809E+01 0.  1.
       -4    1    3    3    0  502  0.99243934430E+03 -0.36288829902E+03 -0.25701424163E+03  0.10875117025E+04  0.12699999809E+01 0. -1.
</event>
<event>
 5   0  0.1921687E-04  0.2108551E+04  0.7818609E-02  0.8557486E-01
       -2   -1    0    0    0  501  0.00000000000E+00  0.00000000000E+00  0.18693773697E+04  0.18693773697E+04  0.25500000920E-02 0.  1.
        2   -1    0    0  501    0  0.00000000000E+00  0.00000000000E+00 -0.59458138748E+03  0.59458138749E+03  0.25500000920E-02 0. -1.
    10030    2    1    2    0    0  0.00000000000E+00  0.00000000000E+00  0.12747959822E+04  0.24639587572E+04  0.21085511520E+04 0.  0.
        5    1    3    3  502    0 -0.76699634040E+03 -0.56886315805E+03  0.11594509613E+04  0.15020776613E+04  0.46999998093E+01 0.  1.
       -5    1    3    3    0  502  0.76699634040E+03  0.56886315805E+03  0.11534502084E+03  0.96188109587E+03  0.46999998093E+01 0. -1.
</event>
<event>
 5   0  0.1886323E-04  0.2149410E+04  0.7818609E-02  0.8539785E-01
       -2   -1    0    0    0  501  0.00000000000E+00  0.00000000000E+00  0.12738247874E+04  0.12738247874E+04  0.25500000920E-02 0.  1.
        2   -1    0    0  501    0  0.00000000000E+00  0.00000000000E+00 -0.90671094330E+03  0.90671094330E+03  0.25500000920E-02 0. -1.
    10030    2    1    2    0    0  0.00000000000E+00  0.00000000000E+00  0.36711384409E+03  0.21805357307E+04  0.21494100349E+04 0.  0.
        2    1    3    3  502    0  0.35613977484E+03 -0.45625405930E+03 -0.73508776905E+03  0.93560533029E+03  0.25500000920E-02 0. -1.
       -2    1    3    3    0  502 -0.35613977484E+03  0.45625405930E+03  0.11022016131E+04  0.12449304004E+04  0.25500000920E-02 0.  1.
</event>
<event>
 5   0  0.8755004E-05  0.1950974E+04  0.7818609E-02  0.8629891E-01
       -1   -1    0    0    0  501  0.00000000000E+00  0.00000000000E+00  0.13638717515E+04  0.13638717515E+04  0.50400001928E-02 0. -1.
        1   -1    0    0  501    0  0.00000000000E+00  0.00000000000E+00 -0.69770113068E+03  0.69770113070E+03  0.50400001928E-02 0.  1.
    10030    2    1    2    0    0  0.00000000000E+00  0.00000000000E+00  0.66617062079E+03  0.20615728822E+04  0.19509739754E+04 0.  0.
        3    1    3    3  502    0 -0.12769052806E+03 -0.71212139849E+03  0.10245129892E+04  0.12542123553E+04  0.10100000352E+00 0. -1.
       -3    1    3    3    0  502  0.12769052806E+03  0.71212139849E+03 -0.35834236836E+03  0.80736052684E+03  0.10100000352E+00 0.  1.
</event>
<event>
 5   0  0.1810875E-04  0.2104408E+04  0.7818609E-02  0.8559304E-01
        2   -1    0    0  501    0  0.00000000000E+00  0.00000000000E+00  0.11044782681E+04  0.11044782681E+04  0.25500000920E-02 0. -1.
       -2   -1    0    0    0  501  0.00000000000E+00  0.00000000000E+00 -0.10024040891E+04  0.10024040891E+04  0.25500000920E-02 0.  1.
    10030    2    1    2    0    0  0.00000000000E+00  0.00000000000E+00  0.10207417902E+03  0.21068823571E+04  0.21044082610E+04 0.  0.
        1    1    3    3  502    0 -0.22659099931E+03  0.36375045919E+03 -0.91106911151E+03  0.10068290836E+04  0.50400001928E-02 0.  1.
       -1    1    3    3    0  502  0.22659099931E+03 -0.36375045919E+03  0.10131432905E+04  0.11000532736E+04  0.50400001928E-02 0. -1.
</event>
<event>
 5   0  0.8271069E-05  0.2110419E+04  0.7818609E-02  0.8556668E-01
       -1   -1    0    0    0  501  0.00000000000E+00  0.00000000000E+00  0.53058164617E+03  0.53058164619E+03  0.50400001928E-02 0.  1.
        1   -1    0    0  501    0  0.00000000000E+00  0.00000000000E+00 -0.20985778679E+04  0.20985778679E+04  0.50400001928E-02 0. -1.
    10030    2    1    2    0    0  0.00000000000E+00  0.00000000000E+00 -0.15679962217E+04  0.26291595141E+04  0.21104188208E+04 0.  0.
        2    1    3    3  502    0 -0.17165487879E+03 -0.69540152157E+03  0.18133058919E+03  0.73887039202E+03  0.25500000920E-02 0.  1.
       -2    1    3    3    0  502  0.17165487879E+03  0.69540152157E+03 -0.17493268109E+04  0.18902891221E+04  0.25500000920E-02 0. -1.
</event>
<event>
 5   0  0.8525278E-05  0.2389607E+04  0.7818609E-02  0.8443405E-01
       -1   -1    0    0    0  501  0.00000000000E+00  0.00000000000E+00  0.69684591501E+03  0.69684591503E+03  0.50400001928E-02 0. -1.
        1   -1    0    0  501    0  0.00000000000E+00  0.00000000000E+00 -0.20485951981E+04  0.20485951981E+04  0.50400001928E-02 0.  1.
    10030    2    1    2    0    0  0.00000000000E+00  0.00000000000E+00 -0.13517492831E+04  0.27454411132E+04  0.23896068257E+04 0.  0.
        4    1    3    3  502    0 -0.20223577298E+03 -0.46984480695E+03  0.56468131568E+03  0.76191866473E+03  0.12699999809E+01 0. -1.
       -4    1    3    3    0  502  0.20223577298E+03  0.46984480695E+03 -0.19164305988E+04  0.19835224484E+04  0.12699999809E+01 0.  1.
</event>
<event>
 5   0  0.1815400E-04  0.2083070E+04  0.7818609E-02  0.8568738E-01
        2   -1    0    0  501    0  0.00000000000E+00  0.00000000000E+00  0.20929290105E+04  0.20929290105E+04  0.25500000920E-02 0.  1.
       -2   -1    0    0    0  501  0.00000000000E+00  0.00000000000E+00 -0.51831412739E+03  0.51831412740E+03  0.25500000920E-02 0. -1.
    10030    2    1    2    0    0  0.00000000000E+00  0.00000000000E+00  0.15746148831E+04  0.26112431379E+04  0.20830695368E+04 0.  0.
        3    1    3    3  502    0 -0.56994774217E+03  0.47893689821E+03  0.17004033486E+04  0.18562307344E+04  0.10100000352E+00 0.  1.
       -3    1    3    3    0  502  0.56994774217E+03 -0.47893689821E+03 -0.12578846543E+03  0.75501240354E+03  0.10100000352E+00 0. -1.
</event>
<event>
 5   0  0.1921687E-04  0.2104374E+04  0.7818609E-02  0.8559319E-01
        2   -1    0    0  501    0  0.00000000000E+00  0.00000000000E+00  0.15765318371E+04  0.15765318371E+04  0.25500000920E-02 0. -1.
       -2   -1    0    0    0  501  0.00000000000E+00  0.00000000000E+00 -0.70223616479E+03  0.70223616479E+03  0.25500000920E-02 0.  1.
    10030    2    1    2    0    0  0.00000000000E+00  0.00000000000E+00  0.87429567236E+03  0.22787680019E+04  0.21043741787E+04 0.  0.
        5    1    3    3  502    0 -0.93976539296E+03 -0.12918676964E+03  0.93009537368E+03  0.13285133456E+04  0.46999998093E+01 0. -1.
       -5    1    3    3    0  502  0.93976539296E+03  0.12918676964E+03 -0.55799701321E+02  0.95025465635E+03  0.46999998093E+01 0.  1.
</event>
<event>
 5   0  0.1921687E-04  0.2110005E+04  0.7818609E-02  0.8556849E-01
       -2   -1    0    0    0  501  0.00000000000E+00  0.00000000000E+00  0.80937380044E+03  0.80937380044E+03  0.25500000920E-02 0. -1.
        2   -1    0    0  501    0  0.00000000000E+00  0.00000000000E+00 -0.13751744868E+04  0.13751744868E+04  0.25500000920E-02 0.  1.
    10030    2    1    2    0    0  0.00000000000E+00  0.00000000000E+00 -0.56580068636E+03  0.21845482872E+04  0.21100049295E+04 0.  0.
        5    1    3    3  502    0  0.31273461202E+03  0.39884231184E+03  0.67506110633E+03  0.84416095299E+03  0.46999998093E+01 0. -1.
       -5    1    3    3    0  502 -0.31273461202E+03 -0.39884231184E+03 -0.12408617927E+04  0.13403873343E+04  0.46999998093E+01 0.  1.
</event>
<event>
 5   0  0.1810875E-04  0.1981699E+04  0.7818609E-02  0.8615225E-01
        2   -1    0    0  501    0  0.00000000000E+00  0.00000000000E+00  0.11885621274E+04  0.11885621274E+04  0.25500000920E-02 0.  1.
       -2   -1    0    0    0  501  0.00000000000E+00  0.00000000000E+00 -0.82602599818E+03  0.82602599819E+03  0.25500000920E-02 0. -1.
    10030    2    1    2    0    0  0.00000000000E+00  0.00000000000E+00  0.36253612921E+03  0.20145881256E+04  0.19816994905E+04 0.  0.
        1    1    3    3  502    0  0.14951372034E+03  0.93260084524E+03 -0.12317580743E+03  0.95250772631E+03  0.50400001928E-02 0.  1.
       -1    1    3    3    0  502 -0.14951372034E+03 -0.93260084524E+03  0.48571193664E+03  0.10620803993E+04  0.50400001928E-02 0. -1.
</event>
<event>
 5   0  0.8525278E-05  0.2244581E+04  0.7818609E-02  0.8500098E-01
       -1   -1    0    0    0  501  0.00000000000E+00  0.00000000000E+00  0.84110025150E+03  0.84110025152E+03  0.50400001928E-02 0. -1.
        1   -1    0    0  501    0  0.00000000000E+00  0.00000000000E+00 -0.14974866426E+04  0.14974866426E+04  0.50400001928E-02 0.  1.
    10030    2    1    2    0    0  0.00000000000E+00  0.00000000000E+00 -0.65638639110E+03  0.23385868941E+04  0.22445813790E+04 0.  0.
        4    1    3    3  502    0  0.86088157471E+03  0.41121375031E+03  0.28759373725E+03  0.99645652425E+03  0.12699999809E+01 0. -1.
       -4    1    3    3    0  502 -0.86088157471E+03 -0.41121375031E+03 -0.94398012836E+03  0.13421303699E+04  0.12699999809E+01 0.  1.
</event>
<event>
 5   0  0.6441125E-05  0.2075411E+04  0.7818609E-02  0.8572153E-01
        3   -1    0    0  501    0  0.00000000000E+00  0.00000000000E+00  0.13388438056E+04  0.13388438095E+04  0.10100000352E+00 0.  1.
       -3   -1    0    0    0  501  0.00000000000E+00  0.00000000000E+00 -0.80430070476E+03  0.80430071110E+03  0.10100000352E+00 0. -1.
    10030    2    1    2    0    0  0.00000000000E+00  0.00000000000E+00  0.53454310089E+03  0.21431445206E+04  0.20754113109E+04 0.  0.
        2    1    3    3  502    0  0.86138419757E+03 -0.50549973786E+03 -0.23558628683E+02  0.99903339774E+03  0.25500000920E-02 0. -1.
       -2    1    3    3    0  502 -0.86138419757E+03  0.50549973786E+03  0.55810172957E+03  0.11441111228E+04  0.25500000920E-02 0.  1.
</event>
<event>
 5   0  0.1921687E-04  0.2101202E+04  0.7818609E-02  0.8560714E-01
        2   -1    0    0  501    0  0.00000000000E+00  0.00000000000E+00  0.15846677683E+04  0.15846677683E+04  0.25500000920E-02 0.  1.
       -2   -1    0    0    0  501  0.00000000000E+00  0.00000000000E+00 -0.69652577180E+03  0.69652577181E+03  0.25500000920E-02 0. -1.
    10030    2    1    2    0    0  0.00000000000E+00  0.00000000000E+00  0.88814199648E+03  0.22811935401E+04  0.21012015042E+04 0.  0.
        5    1    3    3  502    0  0.62612257809E+03  0.81369553222E+03  0.68588353760E+03  0.12347421670E+04  0.46999998093E+01 0.  1.
       -5    1    3    3    0  502 -0.62612257809E+03 -0.81369553222E+03  0.20225845888E+03  0.10464513730E+04  0.46999998093E+01 0. -1.
</event>
<event>
 5   0  0.1886323E-04  0.2080502E+04  0.7818609E-02  0.8569881E-01
        2   -1    0    0  501    0  0.00000000000E+00  0.00000000000E+00  0.20821111207E+04  0.20821111207E+04  0.25500000920E-02 0. -1.
       -2   -1    0    0    0  501  0.00000000000E+00  0.00000000000E+00 -0.51972337063E+03  0.51972337064E+03  0.25500000920E-02 0.  1.
    10030    2    1    2    0    0  0.00000000000E+00  0.00000000000E+00  0.15623877500E+04  0.26018344913E+04  0.20805016796E+04 0.  0.
        2    1    3    3  502    0 -0.83366515427E+03  0.43119864839E+03  0.13421344966E+04  0.16377591003E+04  0.25500000920E-02 0. -1.
       -2    1    3    3    0  502  0.83366515427E+03 -0.43119864839E+03  0.22025325345E+03  0.96407539097E+03  0.25500000920E-02 0.  1.
</event>
<event>
 5   0  0.1815400E-04  0.2172998E+04  0.7818609E-02  0.8529752E-01
        2   -1    0    0  501    0  0.00000000000E+00  0.00000000000E+00  0.11397517267E+04  0.11397517267E+04  0.25500000920E-02 0. -1.
       -2   -1    0    0    0  501  0.00000000000E+00  0.00000000000E+00 -0.10357339445E+04  0.10357339445E+04  0.25500000920E-02 0.  1.
    10030    2    1    2    0    0  0.00000000000E+00  0.00000000000E+00  0.10401778226E+03  0.21754856712E+04  0.21729975165E+04 0.  0.
        3    1    3    3  502    0 -0.71944307433E+03 -0.66532285721E+03 -0.41781163046E+03  0.10652790293E+04  0.10100000352E+00 0.  1.
       -3    1    3    3    0  502  0.71944307433E+03  0.66532285721E+03  0.52182941272E+03  0.11102066419E+04  0.10100000352E+00 0. -1.
</event>
<event>
 5   0  0.8237966E-05  0.2153623E+04  0.7818609E-02  0.8537983E-01
       -1   -1    0    0    0  501  0.00000000000E+00  0.00000000000E+00  0.64353371170E+03  0.64353371172E+03  0.50400001928E-02 0.  1.
        1   -1    0    0  501    0  0.00000000000E+00  0.00000000000E+00 -0.18018054125E+04  0.18018054125E+04  0.50400001928E-02 0. -1.
    10030    2    1    2    0    0  0.00000000000E+00  0.00000000000E+00 -0.11582717008E+04  0.24453391243E+04  0.21536225528E+04 0.  0.
        1    1    3    3  502    0 -0.75077580298E+03  0.74035232723E+03 -0.82721797680E+03  0.13401773972E+04  0.50400001928E-02 0.  1.
       -1    1    3    3    0  502  0.75077580298E+03 -0.74035232723E+03 -0.33105372404E+03  0.11051617271E+04  0.50400001928E-02 0. -1.
</event>
<event>
 5   0  0.1815400E-04  0.2147312E+04  0.7818609E-02  0.8540684E-01
       -2   -1    0    0    0  501  0.00000000000E+00  0.00000000000E+00  0.44182803274E+03  0.44182803274E+03  0.25500000920E-02 0. -1.
        2   -1    0    0  501    0  0.00000000000E+00  0.00000000000E+00 -0.26090184829E+04  0.26090184829E+04  0.25500000920E-02 0.  1.
    10030    2    1    2    0    0  0.00000000000E+00  0.00000000000E+00 -0.21671904502E+04  0.30508465157E+04  0.21473122770E+04 0.  0.
        3    1    3    3  502    0 -0.13931328900E+02 -0.63528202664E+03 -0.23131687687E+04  0.23988595411E+04  0.10100000352E+00 0.  1.
       -3    1    3    3    0  502  0.13931328900E+02  0.63528202664E+03  0.14597831853E+03  0.65198697454E+03  0.10100000352E+00 0. -1.
</event>
<event>
 5   0  0.1921687E-04  0.2161942E+04  0.7818609E-02  0.8534438E-01
        2   -1    0    0  501    0  0.00000000000E+00  0.00000000000E+00  0.24859716774E+04  0.24859716774E+04  0.25500000920E-02 0.  1.
       -2   -1    0    0    0  501  0.00000000000E+00  0.00000000000E+00 -0.47003681954E+03  0.47003681954E+03  0.25500000920E-02 0. -1.
    10030    2    1    2    0    0  0.00000000000E+00  0.00000000000E+00  0.20159348578E+04  0.29560084969E+04  0.21619419240E+04 0.  0.
        5    1    3    3  502    0 -0.37620730536E+02  0.12324473905E+02  0.24849662011E+04  0.24852859640E+04  0.46999998093E+01 0.  1.
       -5    1    3    3    0  502  0.37620730536E+02 -0.12324473905E+02 -0.46903134329E+03  0.47072253293E+03  0.46999998093E+01 0. -1.
</event>
<event>
 5   0  0.8237966E-05  0.2091797E+04  0.7818609E-02  0.8564866E-01
       -1   -1    0    0    0  501  0.00000000000E+00  0.00000000000E+00  0.82901142125E+03  0.82901142126E+03  0.50400001928E-02 0.  1.
        1   -1    0    0  501    0  0.00000000000E+00  0.00000000000E+00 -0.13195276468E+04  0.13195276468E+04  0.50400001928E-02 0. -1.
    10030    2    1    2    0    0  0.00000000000E+00  0.00000000000E+00 -0.49051622555E+03  0.21485390681E+04  0.20917968256E+04 0.  0.
        1    1    3    3  502    0 -0.43575968416E+03 -0.61479620138E+03  0.49970405983E+03  0.90419302088E+03  0.50400001928E-02 0.  1.
       -1    1    3    3    0  502  0.43575968416E+03  0.61479620138E+03 -0.99022028538E+03  0.12443460472E+04  0.50400001928E-02 0. -1.
</event>
<event>
 5   0  0.8271069E-05  0.2092465E+04  0.7818609E-02  0.8564570E-01
        1   -1    0    0  501    0  0.00000000000E+00  0.00000000000E+00  0.96024290857E+03  0.96024290858E+03  0.50400001928E-02 0.  1.
       -1   -1    0    0    0  501  0.00000000000E+00  0.00000000000E+00 -0.11399224623E+04  0.11399224623E+04  0.50400001928E-02 0. -1.
    10030    2    1    2    0    0  0.00000000000E+00  0.00000000000E+00 -0.17967955370E+03  0.21001653709E+04  0.20924650160E+04 0.  0.
        2    1    3    3  502    0 -0.74909389113E+03 -0.46705348108E+03  0.47376195590E+03  0.10018637646E+04  0.25500000920E-02 0.  1.
       -2    1    3    3    0  502  0.74909389113E+03  0.46705348108E+03 -0.65344150960E+03  0.10983016063E+04  0.25500000920E-02 0. -1.
</event>
<event>
 5   0  0.1777590E-04  0.1883028E+04  0.7818609E-02  0.8663351E-01
       -2   -1    0    0    0  501  0.00000000000E+00  0.00000000000E+00  0.34004794307E+03  0.34004794308E+03  0.25500000920E-02 0. -1.
        2   -1    0    0  501    0  0.00000000000E+00  0.00000000000E+00 -0.26068354782E+04  0.26068354782E+04  0.25500000920E-02 0.  1.
    10030    2    1    2    0    0  0.00000000000E+00  0.00000000000E+00 -0.22667875351E+04  0.29468834213E+04  0.18830284568E+04 0.  0.
        4    1    3    3  502    0  0.12023513630E+03  0.23777408366E+03 -0.25466012218E+04  0.25605023723E+04  0.12699999809E+01 0.  1.
       -4    1    3    3    0  502 -0.12023513630E+03 -0.23777408366E+03  0.27981368666E+03  0.38638104897E+03  0.12699999809E+01 0. -1.
</event>
<event>
 5   0  0.1777590E-04  0.2073443E+04  0.7818609E-02  0.8573033E-01
       -2   -1    0    0    0  501  0.00000000000E+00  0.00000000000E+00  0.74123331656E+03  0.74123331656E+03  0.25500000920E-02 0.  1.
        2   -1    0    0  501    0  0.00000000000E+00  0.00000000000E+00 -0.14500048691E+04  0.14500048691E+04  0.25500000920E-02 0. -1.
    10030    2    1    2    0    0  0.00000000000E+00  0.00000000000E+00 -0.70877155254E+03  0.21912381857E+04  0.20734434337E+04 0.  0.
        4    1    3    3  502    0 -0.56419323092E+02  0.54548348310E+03 -0.12841723866E+04  0.13963651750E+04  0.12699999809E+01 0. -1.
       -4    1    3    3    0  502  0.56419323092E+02 -0.54548348310E+03  0.57540083410E+03  0.79487301070E+03  0.12699999809E+01 0.  1.
</event>
<event>
 5   0  0.1886323E-04  0.1629921E+04  0.7818609E-02  0.8802374E-01
        2   -1    0    0  501    0  0.00000000000E+00  0.00000000000E+00  0.12877688037E+04  0.12877688037E+04  0.25500000920E-02 0.  1.
       -2   -1    0    0    0  501  0.00000000000E+00  0.00000000000E+00 -0.51574532543E+03  0.51574532543E+03  0.25500000920E-02 0. -1.
    10030    2    1    2    0    0  0.00000000000E+00  0.00000000000E+00  0.77202347825E+03  0.18035141291E+04  0.16299211524E+04 0.  0.
        2    1    3    3  502    0  0.74130551536E+03 -0.33630119951E+03  0.42926991238E+03  0.92027442732E+03  0.25500000920E-02 0.  1.
       -2    1    3    3    0  502 -0.74130551536E+03  0.33630119951E+03  0.34275356587E+03  0.88323970179E+03  0.25500000920E-02 0. -1.
</event>
<event>
 5   0  0.1810875E-04  0.2119411E+04  0.7818609E-02  0.8552741E-01
       -2   -1    0    0    0  501  0.00000000000E+00  0.00000000000E+00  0.19713921239E+04  0.19713921239E+04  0.25500000920E-02 0.  1.
        2   -1    0    0  501    0  0.00000000000E+00  0.00000000000E+00 -0.56963582864E+03  0.56963582865E+03  0.25500000920E-02 0. -1.
    10030    2    1    2    0    0  0.00000000000E+00  0.00000000000E+00  0.14017562953E+04  0.25410279526E+04  0.21194108484E+04 0.  0.
        1    1    3    3  502    0  0.64161339219E+03  0.15835503408E+03  0.16940619360E+04  0.18184031194E+04  0.50400001928E-02 0.  1.
       -1    1    3    3    0  502 -0.64161339219E+03 -0.15835503408E+03 -0.29230564068E+03  0.72262483313E+03  0.50400001928E-02 0. -1.
</event>
<event>
 5   0  0.1777590E-04  0.2164309E+04  0.7818609E-02  0.8533432E-01
        2   -1    0    0  501    0  0.00000000000E+00  0.00000000000E+00  0.18765956677E+04  0.18765956677E+04  0.25500000920E-02 0.  1.
       -2   -1    0    0    0  501  0.00000000000E+00  0.00000000000E+00 -0.62403340828E+03  0.62403340828E+03  0.25500000920E-02 0. -1.
    10030    2    1    2    0    0  0.00000000000E+00  0.00000000000E+00  0.12525622594E+04  0.25006290760E+04  0.21643090265E+04 0.  0.
        4    1    3    3  502    0  0.90404257966E+03  0.58346297610E+03  0.75970157961E+03  0.13171446896E+04  0.12699999809E+01 0.  1.
       -4    1    3    3    0  502 -0.90404257966E+03 -0.58346297610E+03  0.49286067984E+03  0.11834843864E+04  0.12699999809E+01 0. -1.
</event>
<event>
 5   0  0.1815400E-04  0.2045160E+04  0.7818609E-02  0.8585793E-01
        2   -1    0    0  501    0  0.00000000000E+00  0.00000000000E+00  0.26053959891E+04  0.26053959891E+04  0.25500000920E-02 0. -1.
       -2   -1    0    0    0  501  0.00000000000E+00  0.00000000000E+00 -0.40134777840E+03  0.40134777841E+03  0.25500000920E-02 0.  1.
    10030    2    1    2    0    0  0.00000000000E+00  0.00000000000E+00  0.22040482107E+04  0.30067437675E+04  0.20451600349E+04 0.  0.
        3    1    3    3  502    0 -0.10070523504E+04  0.26581217023E+02  0.13600760327E+04  0.16925329606E+04  0.10100000352E+00 0. -1.
       -3    1    3    3    0  502  0.10070523504E+04 -0.26581217023E+02  0.84397217792E+03  0.13142108069E+04  0.10100000352E+00 0.  1.
</event>
<event>
 5   0  0.8755004E-05  0.2103530E+04  0.7818609E-02  0.8559690E-01
        1   -1    0    0  501    0  0.00000000000E+00  0.00000000000E+00  0.15219352735E+04  0.15219352735E+04  0.50400001928E-02 0.  1.
       -1   -1    0    0    0  501  0.00000000000E+00  0.00000000000E+00 -0.72684392001E+03  0.72684392003E+03  0.50400001928E-02 0. -1.
    10030    2    1    2    0    0  0.00000000000E+00  0.00000000000E+00  0.79509135350E+03  0.22487791935E+04  0.21035297956E+04 0.  0.
        3    1    3    3  502    0  0.16410477094E+03 -0.56688798991E+03 -0.53315274320E+03  0.79532649065E+03  0.10100000352E+00 0. -1.
       -3    1    3    3    0  502 -0.16410477094E+03  0.56688798991E+03  0.13282440967E+04  0.14534527029E+04  0.10100000352E+00 0.  1.
</event>
<event>
 5   0  0.8755004E-05  0.2064953E+04  0.7818609E-02  0.8576841E-01
        1   -1    0    0  501    0  0.00000000000E+00  0.00000000000E+00  0.16646980283E+04  0.16646980283E+04  0.50400001928E-02 0.  1.
       -1   -1    0    0    0  501  0.00000000000E+00  0.00000000000E+00 -0.64036090006E+03  0.64036090008E+03  0.50400001928E-02 0. -1.
    10030    2    1    2    0    0  0.00000000000E+00  0.00000000000E+00  0.10243371282E+04  0.23050589283E+04  0.20649528108E+04 0.  0.
        3    1    3    3  502    0  0.88237822846E+03  0.44598503460E+03  0.18006255961E+03  0.10049460307E+04  0.10100000352E+00 0. -1.
       -3    1    3    3    0  502 -0.88237822846E+03 -0.44598503460E+03  0.84427456859E+03  0.13001128976E+04  0.10100000352E+00 0.  1.
</event>
<event>
 5   0  0.8525278E-05  0.2102293E+04  0.7818609E-02  0.8560234E-01
        1   -1    0    0  501    0  0.00000000000E+00  0.00000000000E+00  0.10130236782E+04  0.10130236782E+04  0.50400001928E-02 0.  1.
       -1   -1    0    0    0  501  0.00000000000E+00  0.00000000000E+00 -0.10907044595E+04  0.10907044595E+04  0.50400001928E-02 0. -1.
    10030    2    1    2    0    0  0.00000000000E+00  0.00000000000E+00 -0.77680781328E+02  0.21037281377E+04  0.21022934556E+04 0.  0.
        4    1    3    3  502    0  0.10016031434E+04 -0.28691438823E+03  0.10046347310E+03  0.10467202326E+04  0.12699999809E+01 0.  1.
       -4    1    3    3    0  502 -0.10016031434E+04  0.28691438823E+03 -0.17814425443E+03  0.10570079051E+04  0.12699999809E+01 0. -1.
</event>
<event>
 5   0  0.8237966E-05  0.2003997E+04  0.7818609E-02  0.8604754E-01
        1   -1    0    0  501    0  0.00000000000E+00  0.00000000000E+00  0.82495575908E+03  0.82495575909E+03  0.50400001928E-02 0.  1.
       -1   -1    0    0    0  501  0.00000000000E+00  0.00000000000E+00 -0.12170367605E+04  0.12170367605E+04  0.50400001928E-02 0. -1.
    10030    2    1    2    0    0  0.00000000000E+00  0.00000000000E+00 -0.39208100137E+03  0.20419925196E+04  0.20039974896E+04 0.  0.
        1    1    3    3  502    0  0.49668737791E+03  0.13409804380E+03 -0.10721803830E+04  0.11892230280E+04  0.50400001928E-02 0. -1.
       -1    1    3    3    0  502 -0.49668737791E+03 -0.13409804380E+03  0.68009938163E+03  0.85276949151E+03  0.50400001928E-02 0.  1.
</event>
<event>
 5   0  0.1810875E-04  0.2099494E+04  0.7818609E-02  0.8561466E-01
       -2   -1    0    0    0  501  0.00000000000E+00  0.00000000000E+00  0.50912047872E+03  0.50912047872E+03  0.25500000920E-02 0. -1.
        2   -1    0    0  501    0  0.00000000000E+00  0.00000000000E+00 -0.21644559007E+04  0.21644559007E+04  0.25500000920E-02 0.  1.
    10030    2    1    2    0    0  0.00000000000E+00  0.00000000000E+00 -0.16553354220E+04  0.26735763794E+04  0.20994940575E+04 0.  0.
        1    1    3    3  502    0  0.34689127195E+03 -0.58802655753E+02  0.43179926434E+03  0.55699363694E+03  0.50400001928E-02 0. -1.
       -1    1    3    3    0  502 -0.34689127195E+03  0.58802655753E+02 -0.20871346864E+04  0.21165827425E+04  0.50400001928E-02 0.  1.
</event>
<event>
 5   0  0.1777590E-04  0.2034553E+04  0.7818609E-02  0.8590634E-01
       -2   -1    0    0    0  501  0.00000000000E+00  0.00000000000E+00  0.92142663918E+03  0.92142663918E+03  0.25500000920E-02 0.  1.
        2   -1    0    0  501    0  0.00000000000E+00  0.00000000000E+00 -0.11230967142E+04  0.11230967142E+04  0.25500000920E-02 0. -1.
    10030    2    1    2    0    0  0.00000000000E+00  0.00000000000E+00 -0.20167007506E+03  0.20445233534E+04  0.20345527576E+04 0.  0.
        4    1    3    3  502    0  0.99186722838E+03 -0.17447253393E+03 -0.24509465430E+03  0.10364913248E+04  0.12699999809E+01 0. -1.
       -4    1    3    3    0  502 -0.99186722838E+03  0.17447253393E+03  0.43424579241E+02  0.10080320287E+04  0.12699999809E+01 0.  1.
</event>
<event>
 5   0  0.1886323E-04  0.2096490E+04  0.7818609E-02  0.8562791E-01
       -2   -1    0    0    0  501  0.00000000000E+00  0.00000000000E+00  0.87010950116E+03  0.87010950116E+03  0.25500000920E-02 0. -1.
        2   -1    0    0  501    0  0.00000000000E+00  0.00000000000E+00 -0.12628499025E+04  0.12628499025E+04  0.25500000920E-02 0.  1.
    10030    2    1    2    0    0  0.00000000000E+00  0.00000000000E+00 -0.39274040134E+03  0.21329594037E+04  0.20964901132E+04 0.  0.
        2    1    3    3  502    0  0.63360961762E+03  0.66612432285E+03  0.31601232394E+03  0.97213504716E+03  0.25500000920E-02 0. -1.
       -2    1    3    3    0  502 -0.63360961762E+03 -0.66612432285E+03 -0.70875272528E+03  0.11608243565E+04  0.25500000920E-02 0.  1.
</event>
<event>
 5   0  0.8486612E-05  0.2024045E+04  0.7818609E-02  0.8595461E-01
       -1   -1    0    0    0  501  0.00000000000E+00  0.00000000000E+00  0.11488958116E+04  0.11488958117E+04  0.50400001928E-02 0.  1.
        1   -1    0    0  501    0  0.00000000000E+00  0.00000000000E+00 -0.89145547273E+03  0.89145547274E+03  0.50400001928E-02 0. -1.
    10030    2    1    2    0    0  0.00000000000E+00  0.00000000000E+00  0.25744033892E+03  0.20403512844E+04  0.20240449194E+04 0.  0.
        5    1    3    3  502    0  0.91223953539E+03  0.24088063618E+03 -0.24023797272E+03  0.97362252662E+03  0.46999998093E+01 0. -1.
       -5    1    3    3    0  502 -0.91223953539E+03 -0.24088063618E+03  0.49767831164E+03  0.10667287578E+04  0.46999998093E+01 0.  1.
</event>
<event>
 5   0  0.8755004E-05  0.2104941E+04  0.7818609E-02  0.8559070E-01
        1   -1    0    0  501    0  0.00000000000E+00  0.00000000000E+00  0.16676186931E+04  0.16676186931E+04  0.50400001928E-02 0. -1.
       -1   -1    0    0    0  501  0.00000000000E+00  0.00000000000E+00 -0.66423730493E+03  0.66423730495E+03  0.50400001928E-02 0.  1.
    10030    2    1    2    0    0  0.00000000000E+00  0.00000000000E+00  0.10033813882E+04  0.23318559980E+04  0.21049413734E+04 0.  0.
        3    1    3    3  502    0 -0.46743038523E+03 -0.92510520225E+03  0.70409940124E+03  0.12530230554E+04  0.10100000352E+00 0.  1.
       -3    1    3    3    0  502  0.46743038523E+03  0.92510520225E+03  0.29928198692E+03  0.10788329427E+04  0.10100000352E+00 0. -1.
</event>
<event>
 5   0  0.1810875E-04  0.2094414E+04  0.7818609E-02  0.8563708E-01
        2   -1    0    0  501    0  0.00000000000E+00  0.00000000000E+00  0.18893628959E+04  0.18893628959E+04  0.25500000920E-02 0. -1.
       -2   -1    0    0    0  501  0.00000000000E+00  0.00000000000E+00 -0.58042963930E+03  0.58042963931E+03  0.25500000920E-02 0.  1.
    10030    2    1    2    0    0  0.00000000000E+00  0.00000000000E+00  0.13089332566E+04  0.24697925353E+04  0.20944137358E+04 0.  0.
        1    1    3    3  502    0 -0.74700506309E+03 -0.54211344905E+03  0.12378436145E+04  0.15440726569E+04  0.50400001928E-02 0.  1.
       -1    1    3    3    0  502  0.74700506309E+03  0.54211344905E+03  0.71089642190E+02  0.92571987835E+03  0.50400001928E-02 0. -1.
</event>
<event>
 5   0  0.8525278E-05  0.2107988E+04  0.7818609E-02  0.8557733E-01
        1   -1    0    0  501    0  0.00000000000E+00  0.00000000000E+00  0.95179114167E+03  0.95179114168E+03  0.50400001928E-02 0.  1.
       -1   -1    0    0    0  501  0.00000000000E+00  0.00000000000E+00 -0.11671716201E+04  0.11671716201E+04  0.50400001928E-02 0. -1.
    10030    2    1    2    0    0  0.00000000000E+00  0.00000000000E+00 -0.21538047847E+03  0.21189627618E+04  0.21079882437E+04 0.  0.
        4    1    3    3  502    0 -0.32037883396E+03  0.65022689806E+03 -0.87683020531E+03  0.11376600714E+04  0.12699999809E+01 0. -1.
       -4    1    3    3    0  502  0.32037883396E+03 -0.65022689806E+03  0.66144972684E+03  0.98130269043E+03  0.12699999809E+01 0.  1.
</event>
<event>
 5   0  0.8755004E-05  0.2062197E+04  0.7818609E-02  0.8578081E-01
        1   -1    0    0  501    0  0.00000000000E+00  0.00000000000E+00  0.14910111421E+04  0.14910111421E+04  0.50400001928E-02 0. -1.
       -1   -1    0    0    0  501  0.00000000000E+00  0.00000000000E+00 -0.71304915500E+03  0.71304915502E+03  0.50400001928E-02 0.  1.
    10030    2    1    2    0    0  0.00000000000E+00  0.00000000000E+00  0.77796198713E+03  0.22040602972E+04  0.20621971148E+04 0.  0.
        3    1    3    3  502    0  0.54146388907E+03  0.21291428573E+03  0.12988042250E+04  0.14231683180E+04  0.10100000352E+00 0. -1.
       -3    1    3    3    0  502 -0.54146388907E+03 -0.21291428573E+03 -0.52084223785E+03  0.78089197919E+03  0.10100000352E+00 0.  1.
</event>
<event>
 5   0  0.8237966E-05  0.2127657E+04  0.7818609E-02  0.8549157E-01
       -1   -1    0    0    0  501  0.00000000000E+00  0.00000000000E+00  0.10713397354E+04  0.10713397354E+04  0.50400001928E-02 0.  1.
        1   -1    0    0  501    0  0.00000000000E+00  0.00000000000E+00 -0.10563703151E+04  0.10563703152E+04  0.50400001928E-02 0. -1.
    10030    2    1    2    0    0  0.00000000000E+00  0.00000000000E+00  0.14969420291E+02  0.21277100506E+04  0.21276573916E+04 0.  0.
        1    1    3    3  502    0  0.70744951290E+03 -0.30118456573E+03  0.74271344636E+03  0.10690276981E+04  0.50400001928E-02 0.  1.
       -1    1    3    3    0  502 -0.70744951290E+03  0.30118456573E+03 -0.72774402607E+03  0.10586823525E+04  0.50400001928E-02 0. -1.
</event>
<event>
 5   0  0.8486612E-05  0.2103963E+04  0.7818609E-02  0.8559500E-01
        1   -1    0    0  501    0  0.00000000000E+00  0.00000000000E+00  0.79479518216E+03  0.79479518218E+03  0.50400001928E-02 0. -1.
       -1   -1    0    0    0  501  0.00000000000E+00  0.00000000000E+00 -0.13923897376E+04  0.13923897376E+04  0.50400001928E-02 0.  1.
    10030    2    1    2    0    0  0.00000000000E+00  0.00000000000E+00 -0.59759455541E+03  0.21871849198E+04  0.21039625996E+04 0.  0.
        5    1    3    3  502    0 -0.40377354180E+02 -0.34533166021E+03 -0.13309232435E+04  0.13755955279E+04  0.46999998093E+01 0.  1.
       -5    1    3    3    0  502  0.40377354180E+02  0.34533166021E+03  0.73332868807E+03  0.81158939188E+03  0.46999998093E+01 0. -1.
</event>
<event>
 5   0  0.8755004E-05  0.2014821E+04  0.7818609E-02  0.8599723E-01
        1   -1    0    0  501    0  0.00000000000E+00  0.00000000000E+00  0.13995273279E+04  0.13995273279E+04  0.50400001928E-02 0. -1.
       -1   -1    0    0    0  501  0.00000000000E+00  0.00000000000E+00 -0.72515601617E+03  0.72515601618E+03  0.50400001928E-02 0.  1.
    10030    2    1    2    0    0  0.00000000000E+00  0.00000000000E+00  0.67437131174E+03  0.21246833441E+04  0.20148207480E+04 0.  0.
        3    1    3    3  502    0 -0.97952950938E+02  0.99042950922E+03  0.17269881597E+03  0.10101337954E+04  0.10100000352E+00 0.  1.
       -3    1    3    3    0  502  0.97952950938E+02 -0.99042950922E+03  0.50167249577E+03  0.11145495487E+04  0.10100000352E+00 0. -1.
</event>
<event>
 5   0  0.1777590E-04  0.1843409E+04  0.7818609E-02  0.8683550E-01
        2   -1    0    0  501    0  0.00000000000E+00  0.00000000000E+00  0.12007028683E+04  0.12007028683E+04  0.25500000920E-02 0. -1.
       -2   -1    0    0    0  501  0.00000000000E+00  0.00000000000E+00 -0.70753494681E+03  0.70753494682E+03  0.25500000920E-02 0.  1.
    10030    2    1    2    0    0  0.00000000000E+00  0.00000000000E+00  0.49316792151E+03  0.19082378151E+04  0.18434090594E+04 0.  0.
        4    1    3    3  502    0  0.42179059582E+03  0.15519122996E+03  0.10795860560E+04  0.11694012527E+04  0.12699999809E+01 0. -1.
       -4    1    3    3    0  502 -0.42179059582E+03 -0.15519122996E+03 -0.58641813453E+03  0.73883656243E+03  0.12699999809E+01 0.  1.
</event>
<event>
 5   0  0.1810875E-04  0.2121971E+04  0.7818609E-02  0.8551626E-01
       -2   -1    0    0    0  501  0.00000000000E+00  0.00000000000E+00  0.83491231828E+03  0.83491231828E+03  0.25500000920E-02 0.  1.
        2   -1    0    0  501    0  0.00000000000E+00  0.00000000000E+00 -0.13482735434E+04  0.13482735434E+04  0.25500000920E-02 0. -1.
    10030    2    1    2    0    0  0.00000000000E+00  0.00000000000E+00 -0.51336122514E+03  0.21831858617E+04  0.21219709610E+04 0.  0.
        1    1    3    3  502    0  0.70841042311E+03 -0.77950219417E+03 -0.38771722272E+03  0.11224052936E+04  0.50400001928E-02 0.  1.
       -1    1    3    3    0  502 -0.70841042311E+03  0.77950219417E+03 -0.12564400242E+03  0.10607805681E+04  0.50400001928E-02 0. -1.
</event>
<event>
 5   0  0.8525278E-05  0.2084759E+04  0.7818609E-02  0.8567987E-01
       -1   -1    0    0    0  501  0.00000000000E+00  0.00000000000E+00  0.10348715469E+04  0.10348715469E+04  0.50400001928E-02 0.  1.
        1   -1    0    0  501    0  0.00000000000E+00  0.00000000000E+00 -0.10499423403E+04  0.10499423403E+04  0.50400001928E-02 0. -1.
    10030    2    1    2    0    0  0.00000000000E+00  0.00000000000E+00 -0.15070793402E+02  0.20848138873E+04  0.20847594144E+04 0.  0.
        4    1    3    3  502    0 -0.37619938089E+03  0.87374580246E+03 -0.43368751691E+03  0.10454875306E+04  0.12699999809E+01 0. -1.
       -4    1    3    3    0  502  0.37619938089E+03 -0.87374580246E+03  0.41861672351E+03  0.10393263566E+04  0.12699999809E+01 0.  1.
</event>
<event>
 5   0  0.1921687E-04  0.2096908E+04  0.7818609E-02  0.8562606E-01
       -2   -1    0    0    0  501  0.00000000000E+00  0.00000000000E+00  0.93020985709E+03  0.93020985709E+03  0.25500000920E-02 0. -1.
        2   -1    0    0  501    0  0.00000000000E+00  0.00000000000E+00 -0.11817293375E+04  0.11817293375E+04  0.25500000920E-02 0.  1.
    10030    2    1    2    0    0  0.00000000000E+00  0.00000000000E+00 -0.25151948036E+03  0.21119391945E+04  0.20969084654E+04 0.  0.
        5    1    3    3  502    0 -0.53424283830E+03  0.60734539567E+03 -0.79758714077E+03  0.11359802714E+04  0.46999998093E+01 0.  1.
       -5    1    3    3    0  502  0.53424283830E+03 -0.60734539567E+03  0.54606766041E+03  0.97595892314E+03  0.46999998093E+01 0. -1.
</event>
<event>
 5   0  0.8525278E-05  0.1621289E+04  0.7818609E-02  0.8807575E-01
        1   -1    0    0  501    0  0.00000000000E+00  0.00000000000E+00  0.50986325320E+03  0.50986325323E+03  0.50400001928E-02 0.  1.
       -1   -1    0    0    0  501  0.00000000000E+00  0.00000000000E+00 -0.12888634624E+04  0.12888634625E+04  0.50400001928E-02 0. -1.
    10030    2    1    2    0    0  0.00000000000E+00  0.00000000000E+00 -0.77900020925E+03  0.17987267157E+04  0.16212885220E+04 0.  0.
        4    1    3    3  502    0  0.13788661999E+03  0.18079748261E+03 -0.12527592130E+04  0.12732272807E+04  0.12699999809E+01 0. -1.
       -4    1    3    3    0  502 -0.13788661999E+03 -0.18079748261E+03  0.47375900372E+03  0.52549943501E+03  0.12699999809E+01 0.  1.
</event>
<event>
 5   0  0.8237966E-05  0.1979657E+04  0.7818609E-02  0.8616191E-01
       -1   -1    0    0    0  501  0.00000000000E+00  0.00000000000E+00  0.20008548256E+04  0.20008548256E+04  0.50400001928E-02 0. -1.
        1   -1    0    0  501    0  0.00000000000E+00  0.00000000000E+00 -0.48967075630E+03  0.48967075632E+03  0.50400001928E-02 0.  1.
    10030    2    1    2    0    0  0.00000000000E+00  0.00000000000E+00  0.15111840693E+04  0.24905255819E+04  0.19796566326E+04 0.  0.
        1    1    3    3  502    0  0.59081457006E+03  0.46189640197E+03 -0.57147381033E+02  0.75211433009E+03  0.50400001928E-02 0.  1.
       -1    1    3    3    0  502 -0.59081457006E+03 -0.46189640197E+03  0.15683314503E+04  0.17384112518E+04  0.50400001928E-02 0. -1.
</event>
<event>
 5   0  0.8237966E-05  0.2128182E+04  0.7818609E-02  0.8548930E-01
       -1   -1    0    0    0  501  0.00000000000E+00  0.00000000000E+00  0.18089188704E+04  0.18089188704E+04  0.50400001928E-02 0.  1.
        1   -1    0    0  501    0  0.00000000000E+00  0.00000000000E+00 -0.62594824917E+03  0.62594824919E+03  0.50400001928E-02 0. -1.
    10030    2    1    2    0    0  0.00000000000E+00  0.00000000000E+00  0.11829706213E+04  0.24348671196E+04  0.21281819470E+04 0.  0.
        1    1    3    3  502    0 -0.22232379098E+03  0.10401227822E+04  0.62777946317E+03  0.12350669312E+04  0.50400001928E-02 0. -1.
       -1    1    3    3    0  502  0.22232379098E+03 -0.10401227822E+04  0.55519115809E+03  0.11998001884E+04  0.50400001928E-02 0.  1.
</event>
<event>
 5   0  0.8755004E-05  0.2093787E+04  0.7818609E-02  0.8563985E-01
        1   -1    0    0  501    0  0.00000000000E+00  0.00000000000E+00  0.15889090671E+04  0.15889090671E+04  0.50400001928E-02 0.  1.
       -1   -1    0    0    0  501  0.00000000000E+00  0.00000000000E+00 -0.68977283946E+03  0.68977283948E+03  0.50400001928E-02 0. -1.
    10030    2    1    2    0    0  0.00000000000E+00  0.00000000000E+00  0.89913622762E+03  0.22786819066E+04  0.20937873043E+04 0.  0.
        3    1    3    3  502    0  0.43443647406E+03  0.60276493781E+03  0.12522083496E+04  0.14560516410E+04  0.10100000352E+00 0.  1.
       -3    1    3    3    0  502 -0.43443647406E+03 -0.60276493781E+03 -0.35307212201E+03  0.82263026554E+03  0.10100000352E+00 0. -1.
</event>
<event>
 5   0  0.1921687E-04  0.2091103E+04  0.7818609E-02  0.8565173E-01
       -2   -1    0    0    0  501  0.00000000000E+00  0.00000000000E+00  0.11270300031E+04  0.11270300031E+04  0.25500000920E-02 0. -1.
        2   -1    0    0  501    0  0.00000000000E+00  0.00000000000E+00 -0.96996373560E+03  0.96996373560E+03  0.25500000920E-02 0.  1.
    10030    2    1    2    0    0  0.00000000000E+00  0.00000000000E+00  0.15706626746E+03  0.20969937387E+04  0.20911032800E+04 0.  0.
        5    1    3    3  502    0  0.13223680825E+03  0.70191606507E+01 -0.96150950733E+03  0.97059696309E+03  0.46999998093E+01 0.  1.
       -5    1    3    3    0  502 -0.13223680825E+03 -0.70191606507E+01  0.11185757748E+04  0.11263967756E+04  0.46999998093E+01 0. -1.
</event>
<event>
 5   0  0.1810875E-04  0.1995273E+04  0.7818609E-02  0.8608834E-01
        2   -1    0    0  501    0  0.00000000000E+00  0.00000000000E+00  0.19650017426E+04  0.19650017426E+04  0.25500000920E-02 0. -1.
       -2   -1    0    0    0  501  0.00000000000E+00  0.00000000000E+00 -0.50650266122E+03  0.50650266123E+03  0.25500000920E-02 0.  1.
    10030    2    1    2    0    0  0.00000000000E+00  0.00000000000E+00  0.14584990814E+04  0.24715044038E+04  0.19952730259E+04 0.  0.
        1    1    3    3  502    0 -0.91350103804E+03  0.10979033512E+03  0.25152918662E+03  0.95383698603E+03  0.50400001928E-02 0.  1.
       -1    1    3    3    0  502  0.91350103804E+03 -0.10979033512E+03  0.12069698948E+04  0.15176674178E+04  0.50400001928E-02 0. -1.
</event>
<event>
 5   0  0.8525278E-05  0.2017485E+04  0.7818609E-02  0.8598489E-01
       -1   -1    0    0    0  501  0.00000000000E+00  0.00000000000E+00  0.46525687357E+03  0.46525687360E+03  0.50400001928E-02 0. -1.
        1   -1    0    0  501    0  0.00000000000E+00  0.00000000000E+00 -0.21870970233E+04  0.21870970233E+04  0.50400001928E-02 0.  1.
    10030    2    1    2    0    0  0.00000000000E+00  0.00000000000E+00 -0.17218401497E+04  0.26523538969E+04  0.20174854877E+04 0.  0.
        4    1    3    3  502    0  0.15956812419E+03  0.74755418462E+03  0.44380638159E+01  0.76440863058E+03  0.12699999809E+01 0. -1.
       -4    1    3    3    0  502 -0.15956812419E+03 -0.74755418462E+03 -0.17262782135E+04  0.18879452663E+04  0.12699999809E+01 0.  1.
</event>
<event>
 5   0  0.8755004E-05  0.2087241E+04  0.7818609E-02  0.8566885E-01
        1   -1    0    0  501    0  0.00000000000E+00  0.00000000000E+00  0.15734484533E+04  0.15734484533E+04  0.50400001928E-02 0.  1.
       -1   -1    0    0    0  501  0.00000000000E+00  0.00000000000E+00 -0.69220186093E+03  0.69220186095E+03  0.50400001928E-02 0. -1.
    10030    2    1    2    0    0  0.00000000000E+00  0.00000000000E+00  0.88124659241E+03  0.22656503143E+04  0.20872411912E+04 0.  0.
        3    1    3    3  502    0  0.24984426351E+03  0.23560553554E+03  0.15103607998E+04  0.15489099006E+04  0.10100000352E+00 0.  1.
       -3    1    3    3    0  502 -0.24984426351E+03 -0.23560553554E+03 -0.62911420743E+03  0.71674041367E+03  0.10100000352E+00 0. -1.
</event>
<event>
 5   0  0.1921687E-04  0.2072131E+04  0.7818609E-02  0.8573620E-01
        2   -1    0    0  501    0  0.00000000000E+00  0.00000000000E+00  0.13296746457E+04  0.13296746457E+04  0.25500000920E-02 0.  1.
       -2   -1    0    0    0  501  0.00000000000E+00  0.00000000000E+00 -0.80728904546E+03  0.80728904547E+03  0.25500000920E-02 0. -1.
    10030    2    1    2    0    0  0.00000000000E+00  0.00000000000E+00  0.52238560027E+03  0.21369636912E+04  0.20721310533E+04 0.  0.
        5    1    3    3  502    0  0.86335973809E+02 -0.13802602141E+02 -0.80346663350E+03  0.80822344271E+03  0.46999998093E+01 0. -1.
       -5    1    3    3    0  502 -0.86335973809E+02  0.13802602141E+02  0.13258522338E+04  0.13287402485E+04  0.46999998093E+01 0.  1.
</event>
<event>
 5   0  0.8755004E-05  0.2074479E+04  0.7818609E-02  0.8572570E-01
        1   -1    0    0  501    0  0.00000000000E+00  0.00000000000E+00  0.94651395234E+03  0.94651395236E+03  0.50400001928E-02 0. -1.
       -1   -1    0    0    0  501  0.00000000000E+00  0.00000000000E+00 -0.11366608638E+04  0.11366608638E+04  0.50400001928E-02 0.  1.
    10030    2    1    2    0    0  0.00000000000E+00  0.00000000000E+00 -0.19014691144E+03  0.20831748162E+04  0.20744786012E+04 0.  0.
        3    1    3    3  502    0  0.60475155202E+03 -0.47354210992E+03  0.60491304510E+03  0.97769441641E+03  0.10100000352E+00 0. -1.
       -3    1    3    3    0  502 -0.60475155202E+03  0.47354210992E+03 -0.79505995655E+03  0.11054803998E+04  0.10100000352E+00 0.  1.
</event>
<event>
 5   0  0.8755004E-05  0.2109587E+04  0.7818609E-02  0.8557032E-01
       -1   -1    0    0    0  501  0.00000000000E+00  0.00000000000E+00  0.57615973228E+03  0.57615973231E+03  0.50400001928E-02 0. -1.
        1   -1    0    0  501    0  0.00000000000E+00  0.00000000000E+00 -0.19310434578E+04  0.19310434578E+04  0.50400001928E-02 0.  1.
    10030    2    1    2    0    0  0.00000000000E+00  0.00000000000E+00 -0.13548837256E+04  0.25072031902E+04  0.21095871461E+04 0.  0.
        3    1    3    3  502    0 -0.55739914658E+03  0.46402591622E+03  0.23279425121E+03  0.76171322237E+03  0.10100000352E+00 0. -1.
       -3    1    3    3    0  502  0.55739914658E+03 -0.46402591622E+03 -0.15876779768E+04  0.17454899678E+04  0.10100000352E+00 0.  1.
</event>
<event>
 5   0  0.1777590E-04  0.1973921E+04  0.7818609E-02  0.8618912E-01
        2   -1    0    0  501    0  0.00000000000E+00  0.00000000000E+00  0.10868612983E+04  0.10868612983E+04  0.25500000920E-02 0.  1.
       -2   -1    0    0    0  501  0.00000000000E+00  0.00000000000E+00 -0.89624187627E+03  0.89624187628E+03  0.25500000920E-02 0. -1.
    10030    2    1    2    0    0  0.00000000000E+00  0.00000000000E+00  0.19061942203E+03  0.19831031746E+04  0.19739205751E+04 0.  0.
        4    1    3    3  502    0  0.21980110470E+03 -0.61676886429E+03  0.83723864586E+03  0.10628671227E+04  0.12699999809E+01 0.  1.
       -4    1    3    3    0  502 -0.21980110470E+03  0.61676886429E+03 -0.64661922383E+03  0.92023605184E+03  0.12699999809E+01 0. -1.
</event>
<event>
 5   0  0.1886323E-04  0.2283401E+04  0.7818609E-02  0.8484495E-01
        2   -1    0    0  501    0  0.00000000000E+00  0.00000000000E+00  0.16491194022E+04  0.16491194022E+04  0.25500000920E-02 0. -1.
       -2   -1    0    0    0  501  0.00000000000E+00  0.00000000000E+00 -0.79040967679E+03  0.79040967680E+03  0.25500000920E-02 0.  1.
    10030    2    1    2    0    0  0.00000000000E+00  0.00000000000E+00  0.85870972536E+03  0.24395290790E+04  0.22834009141E+04 0.  0.
        2    1    3    3  502    0 -0.32336765750E+03  0.77729266638E+03 -0.39456226971E+03  0.92974723221E+03  0.25500000920E-02 0. -1.
       -2    1    3    3    0  502  0.32336765750E+03 -0.77729266638E+03  0.12532719951E+04  0.15097818467E+04  0.25500000920E-02 0.  1.
</event>
<event>
 5   0  0.8271069E-05  0.2052369E+04  0.7818609E-02  0.8582520E-01
        1   -1    0    0  501    0  0.00000000000E+00  0.00000000000E+00  0.13269993372E+04  0.13269993373E+04  0.50400001928E-02 0. -1.
       -1   -1    0    0    0  501  0.00000000000E+00  0.00000000000E+00 -0.79356070044E+03  0.79356070046E+03  0.50400001928E-02 0.  1.
    10030    2    1    2    0    0  0.00000000000E+00  0.00000000000E+00  0.53343863680E+03  0.21205600377E+04  0.20523688982E+04 0.  0.
        2    1    3    3  502    0  0.23135390368E+03  0.72323062129E+03  0.97991996312E+03  0.12396895960E+04  0.25500000920E-02 0. -1.
       -2    1    3    3    0  502 -0.23135390368E+03 -0.72323062129E+03 -0.44648132632E+03  0.88087044171E+03  0.25500000920E-02 0.  1.
</event>
<event>
 5   0  0.1886323E-04  0.2099710E+04  0.7818609E-02  0.8561371E-01
       -2   -1    0    0    0  501  0.00000000000E+00  0.00000000000E+00  0.11312026034E+04  0.11312026034E+04  0.25500000920E-02 0. -1.
        2   -1    0    0  501    0  0.00000000000E+00  0.00000000000E+00 -0.97435705252E+03  0.97435705252E+03  0.25500000920E-02 0.  1.
    10030    2    1    2    0    0  0.00000000000E+00  0.00000000000E+00  0.15684555090E+03  0.21055596559E+04  0.20997097270E+04 0.  0.
        2    1    3    3  502    0  0.96339512322E+03 -0.38785570154E+03 -0.75735894632E+02  0.10412963720E+04  0.25500000920E-02 0. -1.
       -2    1    3    3    0  502 -0.96339512322E+03  0.38785570154E+03  0.23258144553E+03  0.10642632839E+04  0.25500000920E-02 0.  1.
</event>
<event>
 5   0  0.8271069E-05  0.2171755E+04  0.7818609E-02  0.8530277E-01
        1   -1    0    0  501    0  0.00000000000E+00  0.00000000000E+00  0.96548084306E+03  0.96548084307E+03  0.50400001928E-02 0. -1.
       -1   -1    0    0    0  501  0.00000000000E+00  0.00000000000E+00 -0.12212874853E+04  0.12212874853E+04  0.50400001928E-02 0.  1.
    10030    2    1    2    0    0  0.00000000000E+00  0.00000000000E+00 -0.25580664220E+03  0.21867683283E+04  0.21717547476E+04 0.  0.
        2    1    3    3  502    0 -0.61315771529E+03  0.11290876821E+03 -0.10231045156E+04  0.11981041790E+04  0.25500000920E-02 0.  1.
       -2    1    3    3    0  502  0.61315771529E+03 -0.11290876821E+03  0.76729787340E+03  0.98866414939E+03  0.25500000920E-02 0. -1.
</event>
<event>
 5   0  0.6441125E-05  0.2200933E+04  0.7818609E-02  0.8518040E-01
       -3   -1    0    0    0  501  0.00000000000E+00  0.00000000000E+00  0.11611675448E+04  0.11611675491E+04  0.10100000352E+00 0. -1.
        3   -1    0    0  501    0  0.00000000000E+00  0.00000000000E+00 -0.10429385418E+04  0.10429385467E+04  0.10100000352E+00 0.  1.
    10030    2    1    2    0    0  0.00000000000E+00  0.00000000000E+00  0.11822900299E+03  0.22041060958E+04  0.22009328896E+04 0.  0.
        5    1    3    3  502    0 -0.89895909264E+02 -0.69993094892E+02  0.11552353904E+04  0.11608493464E+04  0.46999998093E+01 0. -1.
       -5    1    3    3    0  502  0.89895909264E+02  0.69993094892E+02 -0.10370063874E+04  0.10432567494E+04  0.46999998093E+01 0.  1.
</event>
<event>
 5   0  0.8237966E-05  0.2032691E+04  0.7818609E-02  0.8591487E-01
        1   -1    0    0  501    0  0.00000000000E+00  0.00000000000E+00  0.57396420639E+03  0.57396420642E+03  0.50400001928E-02 0. -1.
       -1   -1    0    0    0  501  0.00000000000E+00  0.00000000000E+00 -0.17996910387E+04  0.17996910387E+04  0.50400001928E-02 0.  1.
    10030    2    1    2    0    0  0.00000000000E+00  0.00000000000E+00 -0.12257268323E+04  0.23736552451E+04  0.20326910624E+04 0.  0.
        1    1    3    3  502    0  0.72408758454E+03  0.33818312732E+03 -0.13461146675E+04  0.15654696918E+04  0.50400001928E-02 0.  1.
       -1    1    3    3    0  502 -0.72408758454E+03 -0.33818312732E+03  0.12038783525E+03  0.80818555332E+03  0.50400001928E-02 0. -1.
</event>
<event>
 5   0  0.1886323E-04  0.2245228E+04  0.7818609E-02  0.8499836E-01
       -2   -1    0    0    0  501  0.00000000000E+00  0.00000000000E+00  0.60601126368E+03  0.60601126368E+03  0.25500000920E-02 0. -1.
        2   -1    0    0  501    0  0.00000000000E+00  0.00000000000E+00 -0.20796017557E+04  0.20796017557E+04  0.25500000920E-02 0.  1.
    10030    2    1    2    0    0  0.00000000000E+00  0.00000000000E+00 -0.14735904920E+04  0.26856130194E+04  0.22452279064E+04 0.  0.
        2    1    3    3  502    0 -0.10047709302E+04 -0.42176667163E+03 -0.10595551166E+04  0.15199042051E+04  0.25500000920E-02 0.  1.
       -2    1    3    3    0  502  0.10047709302E+04  0.42176667163E+03 -0.41403537540E+03  0.11657088143E+04  0.25500000920E-02 0. -1.
</event>
<event>
 5   0  0.1777590E-04  0.2107743E+04  0.7818609E-02  0.8557840E-01
        2   -1    0    0  501    0  0.00000000000E+00  0.00000000000E+00  0.90802160231E+03  0.90802160231E+03  0.25500000920E-02 0. -1.
       -2   -1    0    0    0  501  0.00000000000E+00  0.00000000000E+00 -0.12231484242E+04  0.12231484242E+04  0.25500000920E-02 0.  1.
    10030    2    1    2    0    0  0.00000000000E+00  0.00000000000E+00 -0.31512682189E+03  0.21311700265E+04  0.21077430508E+04 0.  0.
        4    1    3    3  502    0  0.38861801310E+03 -0.48124151482E+03  0.70516469118E+03  0.93801716950E+03  0.12699999809E+01 0. -1.
       -4    1    3    3    0  502 -0.38861801310E+03  0.48124151482E+03 -0.10202915131E+04  0.11931528570E+04  0.12699999809E+01 0.  1.
</event>
<event>
 5   0  0.1810875E-04  0.2134825E+04  0.7818609E-02  0.8546056E-01
        2   -1    0    0  501    0  0.00000000000E+00  0.00000000000E+00  0.13565941738E+04  0.13565941738E+04  0.25500000920E-02 0.  1.
       -2   -1    0    0    0  501  0.00000000000E+00  0.00000000000E+00 -0.83987482538E+03  0.83987482538E+03  0.25500000920E-02 0. -1.
    10030    2    1    2    0    0  0.00000000000E+00  0.00000000000E+00  0.51671934840E+03  0.21964689992E+04  0.21348248592E+04 0.  0.
        1    1    3    3  502    0  0.74176427714E+02  0.39581213877E+03 -0.75871896739E+03  0.85896674158E+03  0.50400001928E-02 0. -1.
       -1    1    3    3    0  502 -0.74176427714E+02 -0.39581213877E+03  0.12754383158E+04  0.13375022576E+04  0.50400001928E-02 0.  1.
</event>
<event>
 5   0  0.1810875E-04  0.2085538E+04  0.7818609E-02  0.8567641E-01
        2   -1    0    0  501    0  0.00000000000E+00  0.00000000000E+00  0.14106769664E+04  0.14106769664E+04  0.25500000920E-02 0. -1.
       -2   -1    0    0    0  501  0.00000000000E+00  0.00000000000E+00 -0.77081234857E+03  0.77081234858E+03  0.25500000920E-02 0.  1.
    10030    2    1    2    0    0  0.00000000000E+00  0.00000000000E+00  0.63986461780E+03  0.21814893149E+04  0.20855380366E+04 0.  0.
        1    1    3    3  502    0  0.13251953896E+03 -0.44825099692E+03 -0.65508895228E+03  0.80475581382E+03  0.50400001928E-02 0.  1.
       -1    1    3    3    0  502 -0.13251953896E+03  0.44825099692E+03  0.12949535701E+04  0.13767335011E+04  0.50400001928E-02 0. -1.
</event>
<event>
 5   0  0.8271069E-05  0.2367892E+04  0.7818609E-02  0.8451623E-01
       -1   -1    0    0    0  501  0.00000000000E+00  0.00000000000E+00  0.11235993584E+04  0.11235993584E+04  0.50400001928E-02 0.  1.
        1   -1    0    0  501    0  0.00000000000E+00  0.00000000000E+00 -0.12475340544E+04  0.12475340544E+04  0.50400001928E-02 0. -1.
    10030    2    1    2    0    0  0.00000000000E+00  0.00000000000E+00 -0.12393469605E+03  0.23711334128E+04  0.23678922806E+04 0.  0.
        2    1    3    3  502    0  0.99672405878E+03  0.20462280429E+03  0.54417030172E+03  0.11538850284E+04  0.25500000920E-02 0.  1.
       -2    1    3    3    0  502 -0.99672405878E+03 -0.20462280429E+03 -0.66810499776E+03  0.12172483844E+04  0.25500000920E-02 0. -1.
</event>
<event>
 5   0  0.8271069E-05  0.2289985E+04  0.7818609E-02  0.8481880E-01
       -1   -1    0    0    0  501  0.00000000000E+00  0.00000000000E+00  0.10639333245E+04  0.10639333245E+04  0.50400001928E-02 0. -1.
        1   -1    0    0  501    0  0.00000000000E+00  0.00000000000E+00 -0.12322272282E+04  0.12322272282E+04  0.50400001928E-02 0.  1.
    10030    2    1    2    0    0  0.00000000000E+00  0.00000000000E+00 -0.16829390368E+03  0.22961605528E+04  0.22899848135E+04 0.  0.
        2    1    3    3  502    0 -0.32958831177E+03 -0.24468694250E+03  0.98761706232E+03  0.10695268192E+04  0.25500000920E-02 0. -1.
       -2    1    3    3    0  502  0.32958831177E+03  0.24468694250E+03 -0.11559109660E+04  0.12266337336E+04  0.25500000920E-02 0.  1.
</event>
<event>
 5   0  0.1810875E-04  0.2197871E+04  0.7818609E-02  0.8519315E-01
       -2   -1    0    0    0  501  0.00000000000E+00  0.00000000000E+00  0.40140922661E+03  0.40140922662E+03  0.25500000920E-02 0.  1.
        2   -1    0    0  501    0  0.00000000000E+00  0.00000000000E+00 -0.30085479999E+04  0.30085479999E+04  0.25500000920E-02 0. -1.
    10030    2    1    2    0    0  0.00000000000E+00  0.00000000000E+00 -0.26071387733E+04  0.34099572265E+04  0.21978707204E+04 0.  0.
        1    1    3    3  502    0  0.23796684514E+03 -0.69751324247E+03 -0.25682947718E+04  0.26719451674E+04  0.50400001928E-02 0. -1.
       -1    1    3    3    0  502 -0.23796684514E+03  0.69751324247E+03 -0.38844001423E+02  0.73801205903E+03  0.50400001928E-02 0.  1.
</event>
<event>
 5   0  0.1921687E-04  0.2404515E+04  0.7818609E-02  0.8437815E-01
       -2   -1    0    0    0  501  0.00000000000E+00  0.00000000000E+00  0.93024088888E+03  0.93024088888E+03  0.25500000920E-02 0.  1.
        2   -1    0    0  501    0  0.00000000000E+00  0.00000000000E+00 -0.15538158874E+04  0.15538158874E+04  0.25500000920E-02 0. -1.
    10030    2    1    2    0    0  0.00000000000E+00  0.00000000000E+00 -0.62357499848E+03  0.24840567762E+04  0.24045149800E+04 0.  0.
        5    1    3    3  502    0 -0.57147475062E+03 -0.43679131510E+01  0.78093521595E+03  0.96772122575E+03  0.46999998093E+01 0.  1.
       -5    1    3    3    0  502  0.57147475062E+03  0.43679131510E+01 -0.14045102144E+04  0.15163355505E+04  0.46999998093E+01 0. -1.
</event>
<event>
 5   0  0.1777590E-04  0.2062010E+04  0.7818609E-02  0.8578166E-01
        2   -1    0    0  501    0  0.00000000000E+00  0.00000000000E+00  0.16280543937E+04  0.16280543937E+04  0.25500000920E-02 0.  1.
       -2   -1    0    0    0  501  0.00000000000E+00  0.00000000000E+00 -0.65290867694E+03  0.65290867694E+03  0.25500000920E-02 0. -1.
    10030    2    1    2    0    0  0.00000000000E+00  0.00000000000E+00  0.97514571678E+03  0.22809630707E+04  0.20620095443E+04 0.  0.
        4    1    3    3  502    0  0.13508924945E+03  0.31946158839E+02  0.16176688489E+04  0.16236144185E+04  0.12699999809E+01 0.  1.
       -4    1    3    3    0  502 -0.13508924945E+03 -0.31946158839E+02 -0.64252313208E+03  0.65734865219E+03  0.12699999809E+01 0. -1.
</event>
<event>
 5   0  0.8237966E-05  0.2031736E+04  0.7818609E-02  0.8591925E-01
        1   -1    0    0  501    0  0.00000000000E+00  0.00000000000E+00  0.12825792858E+04  0.12825792858E+04  0.50400001928E-02 0.  1.
       -1   -1    0    0    0  501  0.00000000000E+00  0.00000000000E+00 -0.80461879422E+03  0.80461879424E+03  0.50400001928E-02 0. -1.
    10030    2    1    2    0    0  0.00000000000E+00  0.00000000000E+00  0.47796049157E+03  0.20871980800E+04  0.20317356112E+04 0.  0.
        1    1    3    3  502    0  0.28194642914E+03 -0.47184740304E+03 -0.63865561874E+03  0.84262373574E+03  0.50400001928E-02 0. -1.
       -1    1    3    3    0  502 -0.28194642914E+03  0.47184740304E+03  0.11166161103E+04  0.12445743443E+04  0.50400001928E-02 0.  1.
</event>
<event>
 5   0  0.1815400E-04  0.2088379E+04  0.7818609E-02  0.8566380E-01
        2   -1    0    0  501    0  0.00000000000E+00  0.00000000000E+00  0.15309007637E+04  0.15309007637E+04  0.25500000920E-02 0. -1.
       -2   -1    0    0    0  501  0.00000000000E+00  0.00000000000E+00 -0.71221613566E+03  0.71221613566E+03  0.25500000920E-02 0.  1.
    10030    2    1    2    0    0  0.00000000000E+00  0.00000000000E+00  0.81868462807E+03  0.22431168994E+04  0.20883794924E+04 0.  0.
        3    1    3    3  502    0 -0.96744550317E+03  0.18230071682E+03  0.35489747793E+02  0.98511110305E+03  0.10100000352E+00 0.  1.
       -3    1    3    3    0  502  0.96744550317E+03 -0.18230071682E+03  0.78319488027E+03  0.12580057963E+04  0.10100000352E+00 0. -1.
</event>
<event>
 5   0  0.1810875E-04  0.2063204E+04  0.7818609E-02  0.8577628E-01
        2   -1    0    0  501    0  0.00000000000E+00  0.00000000000E+00  0.23591921885E+04  0.23591921885E+04  0.25500000920E-02 0. -1.
       -2   -1    0    0    0  501  0.00000000000E+00  0.00000000000E+00 -0.45108789644E+03  0.45108789645E+03  0.25500000920E-02 0.  1.
    10030    2    1    2    0    0  0.00000000000E+00  0.00000000000E+00  0.19081042921E+04  0.28102800849E+04  0.20632043443E+04 0.  0.
        1    1    3    3  502    0 -0.50431299858E+03  0.69311507927E+03  0.17358791002E+04  0.19359794328E+04  0.50400001928E-02 0. -1.
       -1    1    3    3    0  502  0.50431299858E+03 -0.69311507927E+03  0.17222519187E+03  0.87430065217E+03  0.50400001928E-02 0.  1.
</event>
<event>
 5   0  0.8525278E-05  0.2006536E+04  0.7818609E-02  0.8603571E-01
       -1   -1    0    0    0  501  0.00000000000E+00  0.00000000000E+00  0.71762302333E+03  0.71762302335E+03  0.50400001928E-02 0. -1.
        1   -1    0    0  501    0  0.00000000000E+00  0.00000000000E+00 -0.14026117139E+04  0.14026117139E+04  0.50400001928E-02 0.  1.
    10030    2    1    2    0    0  0.00000000000E+00  0.00000000000E+00 -0.68498869052E+03  0.21202347372E+04  0.20065357796E+04 0.  0.
        4    1    3    3  502    0 -0.86872947953E+03  0.25983521459E+03 -0.79617092049E+03  0.12066876128E+04  0.12699999809E+01 0.  1.
       -4    1    3    3    0  502  0.86872947953E+03 -0.25983521459E+03  0.11118222997E+03  0.91354712441E+03  0.12699999809E+01 0. -1.
</event>
<event>
 5   0  0.1815400E-04  0.2096957E+04  0.7818609E-02  0.8562585E-01
        2   -1    0    0  501    0  0.00000000000E+00  0.00000000000E+00  0.20396384846E+04  0.20396384846E+04  0.25500000920E-02 0. -1.
       -2   -1    0    0    0  501  0.00000000000E+00  0.00000000000E+00 -0.53897133461E+03  0.53897133461E+03  0.25500000920E-02 0.  1.
    10030    2    1    2    0    0  0.00000000000E+00  0.00000000000E+00  0.15006671500E+04  0.25786098192E+04  0.20969565338E+04 0.  0.
        3    1    3    3  502    0  0.77284352957E+03  0.70241621338E+03  0.63609126876E+03  0.12228195985E+04  0.10100000352E+00 0. -1.
       -3    1    3    3    0  502 -0.77284352957E+03 -0.70241621338E+03  0.86457588120E+03  0.13557902207E+04  0.10100000352E+00 0.  1.
</event>
<event>
 5   0  0.1810875E-04  0.1971255E+04  0.7818609E-02  0.8620179E-01
       -2   -1    0    0    0  501  0.00000000000E+00  0.00000000000E+00  0.58530958323E+03  0.58530958324E+03  0.25500000920E-02 0. -1.
        2   -1    0    0  501    0  0.00000000000E+00  0.00000000000E+00 -0.16597389627E+04  0.16597389627E+04  0.25500000920E-02 0.  1.
    10030    2    1    2    0    0  0.00000000000E+00  0.00000000000E+00 -0.10744293794E+04  0.22450485459E+04  0.19712545452E+04 0.  0.
        1    1    3    3  502    0  0.73257273448E+03  0.24900044728E+03  0.15816064737E+03  0.78973338820E+03  0.50400001928E-02 0.  1.
       -1    1    3    3    0  502 -0.73257273448E+03 -0.24900044728E+03 -0.12325900268E+04  0.14553151577E+04  0.50400001928E-02 0. -1.
</event>
<event>
 5   0  0.8271069E-05  0.2149715E+04  0.7818609E-02  0.8539654E-01
       -1   -1    0    0    0  501  0.00000000000E+00  0.00000000000E+00  0.11904776373E+04  0.11904776373E+04  0.50400001928E-02 0. -1.
        1   -1    0    0  501    0  0.00000000000E+00  0.00000000000E+00 -0.97046667506E+03  0.97046667507E+03  0.50400001928E-02 0.  1.
    10030    2    1    2    0    0  0.00000000000E+00  0.00000000000E+00  0.22001096220E+03  0.21609443123E+04  0.21497152131E+04 0.  0.
        2    1    3    3  502    0  0.29784629223E+03  0.95850628678E+03 -0.27654467408E+03  0.10411165508E+04  0.25500000920E-02 0. -1.
       -2    1    3    3    0  502 -0.29784629223E+03 -0.95850628678E+03  0.49655563628E+03  0.11198277615E+04  0.25500000920E-02 0.  1.
</event>
<event>
 5   0  0.1921687E-04  0.2170305E+04  0.7818609E-02  0.8530890E-01
       -2   -1    0    0    0  501  0.00000000000E+00  0.00000000000E+00  0.86059188343E+03  0.86059188344E+03  0.25500000920E-02 0. -1.
        2   -1    0    0  501    0  0.00000000000E+00  0.00000000000E+00 -0.13683097889E+04  0.13683097890E+04  0.25500000920E-02 0.  1.
    10030    2    1    2    0    0  0.00000000000E+00  0.00000000000E+00 -0.50771790552E+03  0.22289016724E+04  0.21703053227E+04 0.  0.
        5    1    3    3  502    0 -0.48303989410E+03  0.64843695650E+03 -0.99709431339E+03  0.12837512164E+04  0.46999998093E+01 0.  1.
       -5    1    3    3    0  502  0.48303989410E+03 -0.64843695650E+03  0.48937640787E+03  0.94515045598E+03  0.46999998093E+01 0. -1.
</event>
<event>
 5   0  0.8237966E-05  0.2111660E+04  0.7818609E-02  0.8556124E-01
        1   -1    0    0  501    0  0.00000000000E+00  0.00000000000E+00  0.14819935609E+04  0.14819935609E+04  0.50400001928E-02 0.  1.
       -1   -1    0    0    0  501  0.00000000000E+00  0.00000000000E+00 -0.75221465267E+03  0.75221465269E+03  0.50400001928E-02 0. -1.
    10030    2    1    2    0    0  0.00000000000E+00  0.00000000000E+00  0.72977890819E+03  0.22342082136E+04  0.21116602678E+04 0.  0.
        1    1    3    3  502    0 -0.18990416056E+03 -0.77330730600E+03  0.10984584106E+04  0.13567161308E+04  0.50400001928E-02 0.  1.
       -1    1    3    3    0  502  0.18990416056E+03  0.77330730600E+03 -0.36867950245E+03  0.87749208273E+03  0.50400001928E-02 0. -1.
</event>
<event>
 5   0  0.1810875E-04  0.2023520E+04  0.7818609E-02  0.8595703E-01
       -2   -1    0    0    0  501  0.00000000000E+00  0.00000000000E+00  0.92946103223E+03  0.92946103224E+03  0.25500000920E-02 0.  1.
        2   -1    0    0  501    0  0.00000000000E+00  0.00000000000E+00 -0.11013457966E+04  0.11013457966E+04  0.25500000920E-02 0. -1.
    10030    2    1    2    0    0  0.00000000000E+00  0.00000000000E+00 -0.17188476437E+03  0.20308068288E+04  0.20235197068E+04 0.  0.
        1    1    3    3  502    0  0.23303683940E+02 -0.96916594583E+03 -0.37652316546E+03  0.10399977819E+04  0.50400001928E-02 0.  1.
       -1    1    3    3    0  502 -0.23303683940E+02  0.96916594583E+03  0.20463840109E+03  0.99080904693E+03  0.50400001928E-02 0. -1.
</event>
<event>
 5   0  0.1886323E-04  0.1844426E+04  0.7818609E-02  0.8683025E-01
       -2   -1    0    0    0  501  0.00000000000E+00  0.00000000000E+00  0.54227977526E+03  0.54227977527E+03  0.25500000920E-02 0. -1.
        2   -1    0    0  501    0  0.00000000000E+00  0.00000000000E+00 -0.15683354083E+04  0.15683354083E+04  0.25500000920E-02 0.  1.
    10030    2    1    2    0    0  0.00000000000E+00  0.00000000000E+00 -0.10260556330E+04  0.21106151836E+04  0.18444257348E+04 0.  0.
        2    1    3    3  502    0  0.42226846844E+03  0.37712471397E+03  0.32000557270E+03  0.65033627908E+03  0.25500000920E-02 0. -1.
       -2    1    3    3    0  502 -0.42226846844E+03 -0.37712471397E+03 -0.13460612057E+04  0.14602789045E+04  0.25500000920E-02 0.  1.
</event>
<event>
 5   0  0.8486612E-05  0.2084150E+04  0.7818609E-02  0.8568258E-01
        1   -1    0    0  501    0  0.00000000000E+00  0.00000000000E+00  0.75552849192E+03  0.75552849193E+03  0.50400001928E-02 0.  1.
       -1   -1    0    0    0  501  0.00000000000E+00  0.00000000000E+00 -0.14372984977E+04  0.14372984977E+04  0.50400001928E-02 0. -1.
    10030    2    1    2    0    0  0.00000000000E+00  0.00000000000E+00 -0.68177000576E+03  0.21928269896E+04  0.20841496745E+04 0.  0.
        5    1    3    3  502    0  0.57820646260E+03  0.50585147580E+03 -0.10816497391E+04  0.13267240396E+04  0.46999998093E+01 0. -1.
       -5    1    3    3    0  502 -0.57820646260E+03 -0.50585147580E+03  0.39987973337E+03  0.86610295007E+03  0.46999998093E+01 0.  1.
</event>
<event>
 5   0  0.8755004E-05  0.2198678E+04  0.7818609E-02  0.8518979E-01
        1   -1    0    0  501    0  0.00000000000E+00  0.00000000000E+00  0.13261905378E+04  0.13261905378E+04  0.50400001928E-02 0. -1.
       -1   -1    0    0    0  501  0.00000000000E+00  0.00000000000E+00 -0.91129123506E+03  0.91129123507E+03  0.50400001928E-02 0.  1.
    10030    2    1    2    0    0  0.00000000000E+00  0.00000000000E+00  0.41489930276E+03  0.22374817729E+04  0.21986776145E+04 0.  0.
        3    1    3    3  502    0 -0.10473503415E+04 -0.96849688444E+01  0.54727316884E+03  0.11817548257E+04  0.10100000352E+00 0. -1.
       -3    1    3    3    0  502  0.10473503415E+04  0.96849688444E+01 -0.13237386607E+03  0.10557269472E+04  0.10100000352E+00 0.  1.
</event>
<event>
 5   0  0.1815400E-04  0.2130966E+04  0.7818609E-02  0.8547724E-01
        2   -1    0    0  501    0  0.00000000000E+00  0.00000000000E+00  0.15395837172E+04  0.15395837172E+04  0.25500000920E-02 0. -1.
       -2   -1    0    0    0  501  0.00000000000E+00  0.00000000000E+00 -0.73737695022E+03  0.73737695022E+03  0.25500000920E-02 0.  1.
    10030    2    1    2    0    0  0.00000000000E+00  0.00000000000E+00  0.80220676701E+03  0.22769606675E+04  0.21309655521E+04 0.  0.
        3    1    3    3  502    0 -0.86176974415E+03 -0.48735157751E+03  0.82190542224E+03  0.12867350875E+04  0.10100000352E+00 0. -1.
       -3    1    3    3    0  502  0.86176974415E+03  0.48735157751E+03 -0.19698655231E+02  0.99022557998E+03  0.10100000352E+00 0.  1.
</event>
<event>
 5   0  0.1921687E-04  0.2053312E+04  0.7818609E-02  0.8582093E-01
       -2   -1    0    0    0  501  0.00000000000E+00  0.00000000000E+00  0.12549568102E+04  0.12549568102E+04  0.25500000920E-02 0. -1.
        2   -1    0    0  501    0  0.00000000000E+00  0.00000000000E+00 -0.83988730638E+03  0.83988730639E+03  0.25500000920E-02 0.  1.
    10030    2    1    2    0    0  0.00000000000E+00  0.00000000000E+00  0.41506950384E+03  0.20948441166E+04  0.20533117591E+04 0.  0.
        5    1    3    3  502    0  0.22306466481E+03  0.83479090242E+03  0.77315518465E+03  0.11594933053E+04  0.46999998093E+01 0. -1.
       -5    1    3    3    0  502 -0.22306466481E+03 -0.83479090242E+03 -0.35808568081E+03  0.93535081133E+03  0.46999998093E+01 0.  1.
</event>
<event>
 5   0  0.8486612E-05  0.2082068E+04  0.7818609E-02  0.8569184E-01
       -1   -1    0    0    0  501  0.00000000000E+00  0.00000000000E+00  0.10895215405E+04  0.10895215406E+04  0.50400001928E-02 0.  1.
        1   -1    0    0  501    0  0.00000000000E+00  0.00000000000E+00 -0.99470422015E+03  0.99470422016E+03  0.50400001928E-02 0. -1.
    10030    2    1    2    0    0  0.00000000000E+00  0.00000000000E+00  0.94817320394E+02  0.20842257607E+04  0.20820678897E+04 0.  0.
        5    1    3    3  502    0  0.64740591768E+03  0.71771387531E+03 -0.33962100832E+03  0.10245058069E+04  0.46999998093E+01 0. -1.
       -5    1    3    3    0  502 -0.64740591768E+03 -0.71771387531E+03  0.43443832872E+03  0.10597199538E+04  0.46999998093E+01 0.  1.
</event>
<event>
 5   0  0.1810875E-04  0.2135895E+04  0.7818609E-02  0.8545594E-01
       -2   -1    0    0    0  501  0.00000000000E+00  0.00000000000E+00  0.60994691759E+03  0.60994691759E+03  0.25500000920E-02 0.  1.
        2   -1    0    0  501    0  0.00000000000E+00  0.00000000000E+00 -0.18698540019E+04  0.18698540019E+04  0.25500000920E-02 0. -1.
    10030    2    1    2    0    0  0.00000000000E+00  0.00000000000E+00 -0.12599070843E+04  0.24798009195E+04  0.21358948334E+04 0.  0.
        1    1    3    3  502    0  0.79766173567E+03 -0.66823693221E+03 -0.35105219753E+03  0.10981996574E+04  0.50400001928E-02 0.  1.
       -1    1    3    3    0  502 -0.79766173567E+03  0.66823693221E+03 -0.90885488676E+03  0.13816012621E+04  0.50400001928E-02 0. -1.
</event>
<event>
 5   0  0.8237966E-05  0.1489243E+04  0.7818609E-02  0.8891638E-01
        1   -1    0    0  501    0  0.00000000000E+00  0.00000000000E+00  0.79010092723E+03  0.79010092724E+03  0.50400001928E-02 0. -1.
       -1   -1    0    0    0  501  0.00000000000E+00  0.00000000000E+00 -0.70175988710E+03  0.70175988712E+03  0.50400001928E-02 0.  1.
    10030    2    1    2    0    0  0.00000000000E+00  0.00000000000E+00  0.88341040129E+02  0.14918608144E+04  0.14892429453E+04 0.  0.
        1    1    3    3  502    0 -0.70275386253E+03  0.11993686740E+03  0.25952118551E+03  0.75868246930E+03  0.50400001928E-02 0.  1.
       -1    1    3    3    0  502  0.70275386253E+03 -0.11993686740E+03 -0.17118014538E+03  0.73317834506E+03  0.50400001928E-02 0. -1.
</event>
<event>
 5   0  0.1815400E-04  0.2098718E+04  0.7818609E-02  0.8561808E-01
       -2   -1    0    0    0  501  0.00000000000E+00  0.00000000000E+00  0.65617672826E+03  0.65617672827E+03  0.25500000920E-02 0. -1.
        2   -1    0    0  501    0  0.00000000000E+00  0.00000000000E+00 -0.16781372171E+04  0.16781372171E+04  0.25500000920E-02 0.  1.
    10030    2    1    2    0    0  0.00000000000E+00  0.00000000000E+00 -0.10219604888E+04  0.23343139454E+04  0.20987182647E+04 0.  0.
        3    1    3    3  502    0 -0.67123316897E+02 -0.10397310806E+04 -0.64993812683E+03  0.12279926052E+04  0.10100000352E+00 0.  1.
       -3    1    3    3    0  502  0.67123316897E+02  0.10397310806E+04 -0.37202236201E+03  0.11063213401E+04  0.10100000352E+00 0. -1.
</event>
<event>
 5   0  0.1777590E-04  0.2033063E+04  0.7818609E-02  0.8591317E-01
        2   -1    0    0  501    0  0.00000000000E+00  0.00000000000E+00  0.10485956927E+04  0.10485956927E+04  0.25500000920E-02 0.  1.
       -2   -1    0    0    0  501  0.00000000000E+00  0.00000000000E+00 -0.98544764800E+03  0.98544764800E+03  0.25500000920E-02 0. -1.
    10030    2    1    2    0    0  0.00000000000E+00  0.00000000000E+00  0.63148044703E+02  0.20340433407E+04  0.20330628707E+04 0.  0.
        4    1    3    3  502    0  0.13365662551E+03 -0.37315165920E+03 -0.90494807549E+03  0.98794680350E+03  0.12699999809E+01 0. -1.
       -4    1    3    3    0  502 -0.13365662551E+03  0.37315165920E+03  0.96809612020E+03  0.10460965372E+04  0.12699999809E+01 0.  1.
</event>
<event>
 5   0  0.1886323E-04  0.2076199E+04  0.7818609E-02  0.8571801E-01
        2   -1    0    0  501    0  0.00000000000E+00  0.00000000000E+00  0.11383728938E+04  0.11383728938E+04  0.25500000920E-02 0. -1.
       -2   -1    0    0    0  501  0.00000000000E+00  0.00000000000E+00 -0.94665871307E+03  0.94665871307E+03  0.25500000920E-02 0.  1.
    10030    2    1    2    0    0  0.00000000000E+00  0.00000000000E+00  0.19171418075E+03  0.20850316069E+04  0.20761990451E+04 0.  0.
        2    1    3    3  502    0 -0.78168549847E+03  0.49225293277E+03 -0.37976669945E+03  0.99878321690E+03  0.25500000920E-02 0.  1.
       -2    1    3    3    0  502  0.78168549847E+03 -0.49225293277E+03  0.57148088021E+03  0.10862483900E+04  0.25500000920E-02 0. -1.
</event>
<event>
 5   0  0.1777590E-04  0.2137935E+04  0.7818609E-02  0.8544714E-01
       -2   -1    0    0    0  501  0.00000000000E+00  0.00000000000E+00  0.73527559559E+03  0.73527559559E+03  0.25500000920E-02 0. -1.
        2   -1    0    0  501    0  0.00000000000E+00  0.00000000000E+00 -0.15540995867E+04  0.15540995867E+04  0.25500000920E-02 0.  1.
    10030    2    1    2    0    0  0.00000000000E+00  0.00000000000E+00 -0.81882399114E+03  0.22893751823E+04  0.21379349843E+04 0.  0.
        4    1    3    3  502    0 -0.10445933251E+04  0.17689918277E+03 -0.25713736451E+03  0.10902246433E+04  0.12699999809E+01 0.  1.
       -4    1    3    3    0  502  0.10445933251E+04 -0.17689918277E+03 -0.56168662663E+03  0.11991505390E+04  0.12699999809E+01 0. -1.
</event>
<event>
 5   0  0.1810875E-04  0.1727656E+04  0.7818609E-02  0.8745746E-01
       -2   -1    0    0    0  501  0.00000000000E+00  0.00000000000E+00  0.98820881303E+03  0.98820881303E+03  0.25500000920E-02 0. -1.
        2   -1    0    0  501    0  0.00000000000E+00  0.00000000000E+00 -0.75510240703E+03  0.75510240703E+03  0.25500000920E-02 0.  1.
    10030    2    1    2    0    0  0.00000000000E+00  0.00000000000E+00  0.23310640600E+03  0.17433112201E+04  0.17276560461E+04 0.  0.
        1    1    3    3  502    0  0.72069295699E+02 -0.84384048421E+02 -0.74787994167E+03  0.75606815711E+03  0.50400001928E-02 0.  1.
       -1    1    3    3    0  502 -0.72069295699E+02  0.84384048421E+02  0.98098634767E+03  0.98724306296E+03  0.50400001928E-02 0. -1.
</event>
<event>
 5   0  0.8486612E-05  0.1286541E+04  0.7818609E-02  0.9040307E-01
        1   -1    0    0  501    0  0.00000000000E+00  0.00000000000E+00  0.13581159535E+04  0.13581159535E+04  0.50400001928E-02 0.  1.
       -1   -1    0    0    0  501  0.00000000000E+00  0.00000000000E+00 -0.30468451003E+03  0.30468451007E+03  0.50400001928E-02 0. -1.
    10030    2    1    2    0    0  0.00000000000E+00  0.00000000000E+00  0.10534314434E+04  0.16628004636E+04  0.12865409343E+04 0.  0.
        5    1    3    3  502    0 -0.53555468454E+03  0.50733963482E+02  0.98253782526E+03  0.11201765143E+04  0.46999998093E+01 0.  1.
       -5    1    3    3    0  502  0.53555468454E+03 -0.50733963482E+02  0.70893618190E+02  0.54262394923E+03  0.46999998093E+01 0. -1.
</event>
<event>
 5   0  0.8237966E-05  0.2165317E+04  0.7818609E-02  0.8533004E-01
       -1   -1    0    0    0  501  0.00000000000E+00  0.00000000000E+00  0.97530382281E+03  0.97530382282E+03  0.50400001928E-02 0.  1.
        1   -1    0    0  501    0  0.00000000000E+00  0.00000000000E+00 -0.12018295171E+04  0.12018295171E+04  0.50400001928E-02 0. -1.
    10030    2    1    2    0    0  0.00000000000E+00  0.00000000000E+00 -0.22652569433E+03  0.21771333400E+04  0.21653165334E+04 0.  0.
        1    1    3    3  502    0  0.83320411894E+03  0.41628501016E+03  0.44167910107E+03  0.10308262423E+04  0.50400001928E-02 0.  1.
       -1    1    3    3    0  502 -0.83320411894E+03 -0.41628501016E+03 -0.66820479539E+03  0.11463070976E+04  0.50400001928E-02 0. -1.
</event>
<event>
 5   0  0.1810875E-04  0.2125403E+04  0.7818609E-02  0.8550135E-01
        2   -1    0    0  501    0  0.00000000000E+00  0.00000000000E+00  0.22873193004E+04  0.22873193004E+04  0.25500000920E-02 0.  1.
       -2   -1    0    0    0  501  0.00000000000E+00  0.00000000000E+00 -0.49373719190E+03  0.49373719191E+03  0.25500000920E-02 0. -1.
    10030    2    1    2    0    0  0.00000000000E+00  0.00000000000E+00  0.17935821085E+04  0.27810564923E+04  0.21254031226E+04 0.  0.
        1    1    3    3  502    0  0.22981431925E+02  0.10187791697E+04  0.12912843305E+04  0.16449481345E+04  0.50400001928E-02 0.  1.
       -1    1    3    3    0  502 -0.22981431925E+02 -0.10187791697E+04  0.50229777794E+03  0.11361083578E+04  0.50400001928E-02 0. -1.
</event>
<event>
 5   0  0.8271069E-05  0.2079111E+04  0.7818609E-02  0.8570501E-01
       -1   -1    0    0    0  501  0.00000000000E+00  0.00000000000E+00  0.77478263096E+03  0.77478263098E+03  0.50400001928E-02 0. -1.
        1   -1    0    0  501    0  0.00000000000E+00  0.00000000000E+00 -0.13948116360E+04  0.13948116360E+04  0.50400001928E-02 0.  1.
    10030    2    1    2    0    0  0.00000000000E+00  0.00000000000E+00 -0.62002900500E+03  0.21695942670E+04  0.20791111842E+04 0.  0.
        2    1    3    3  502    0 -0.17586253831E+02 -0.61684597455E+03  0.56297446062E+03  0.83531339985E+03  0.25500000920E-02 0. -1.
       -2    1    3    3    0  502  0.17586253831E+02  0.61684597455E+03 -0.11830034656E+04  0.13342808671E+04  0.25500000920E-02 0.  1.
</event>
<event>
 5   0  0.8755004E-05  0.2112094E+04  0.7818609E-02  0.8555934E-01
       -1   -1    0    0    0  501  0.00000000000E+00  0.00000000000E+00  0.15140345371E+04  0.15140345371E+04  0.50400001928E-02 0.  1.
        1   -1    0    0  501    0  0.00000000000E+00  0.00000000000E+00 -0.73659860049E+03  0.73659860050E+03  0.50400001928E-02 0. -1.
    10030    2    1    2    0    0  0.00000000000E+00  0.00000000000E+00  0.77743593657E+03  0.22506331376E+04  0.21120944308E+04 0.  0.
        3    1    3    3  502    0  0.83477562107E+03  0.58154871023E+03  0.69046425052E+03  0.12295487511E+04  0.10100000352E+00 0.  1.
       -3    1    3    3    0  502 -0.83477562107E+03 -0.58154871023E+03  0.86971686048E+02  0.10210843865E+04  0.10100000352E+00 0. -1.
</event>
<event>
 5   0  0.8525278E-05  0.2089721E+04  0.7818609E-02  0.8565785E-01
       -1   -1    0    0    0  501  0.00000000000E+00  0.00000000000E+00  0.10055661622E+04  0.10055661622E+04  0.50400001928E-02 0.  1.
        1   -1    0    0  501    0  0.00000000000E+00  0.00000000000E+00 -0.10856898869E+04  0.10856898869E+04  0.50400001928E-02 0. -1.
    10030    2    1    2    0    0  0.00000000000E+00  0.00000000000E+00 -0.80123724657E+02  0.20912560492E+04  0.20897205679E+04 0.  0.
        4    1    3    3  502    0  0.18819933571E+03  0.10156731136E+04 -0.19740504754E+03  0.10516564217E+04  0.12699999809E+01 0. -1.
       -4    1    3    3    0  502 -0.18819933571E+03 -0.10156731136E+04  0.11728132288E+03  0.10395996274E+04  0.12699999809E+01 0.  1.
</event>
<event>
 5   0  0.1810875E-04  0.1878658E+04  0.7818609E-02  0.8665553E-01
        2   -1    0    0  501    0  0.00000000000E+00  0.00000000000E+00  0.17471838791E+04  0.17471838791E+04  0.25500000920E-02 0.  1.
       -2   -1    0    0    0  501  0.00000000000E+00  0.00000000000E+00 -0.50500637757E+03  0.50500637758E+03  0.25500000920E-02 0. -1.
    10030    2    1    2    0    0  0.00000000000E+00  0.00000000000E+00  0.12421775016E+04  0.22521902567E+04  0.18786580336E+04 0.  0.
        1    1    3    3  502    0  0.93258540132E+03  0.65195667643E+02  0.73078651616E+03  0.11865980524E+04  0.50400001928E-02 0.  1.
       -1    1    3    3    0  502 -0.93258540132E+03 -0.65195667643E+02  0.51139098541E+03  0.10655922043E+04  0.50400001928E-02 0. -1.
</event>
<event>
 5   0  0.8271069E-05  0.2103860E+04  0.7818609E-02  0.8559545E-01
       -1   -1    0    0    0  501  0.00000000000E+00  0.00000000000E+00  0.87967832614E+03  0.87967832616E+03  0.50400001928E-02 0. -1.
        1   -1    0    0  501    0  0.00000000000E+00  0.00000000000E+00 -0.12579102702E+04  0.12579102702E+04  0.50400001928E-02 0.  1.
    10030    2    1    2    0    0  0.00000000000E+00  0.00000000000E+00 -0.37823194406E+03  0.21375885964E+04  0.21038596920E+04 0.  0.
        2    1    3    3  502    0 -0.65136510416E+03  0.50483826510E+03  0.47513755745E+03  0.95125909790E+03  0.25500000920E-02 0. -1.
       -2    1    3    3    0  502  0.65136510416E+03 -0.50483826510E+03 -0.85336950151E+03  0.11863294985E+04  0.25500000920E-02 0.  1.
</event>
<event>
 5   0  0.8486612E-05  0.2086200E+04  0.7818609E-02  0.8567347E-01
       -1   -1    0    0    0  501  0.00000000000E+00  0.00000000000E+00  0.73931249100E+03  0.73931249102E+03  0.50400001928E-02 0. -1.
        1   -1    0    0  501    0  0.00000000000E+00  0.00000000000E+00 -0.14717152742E+04  0.14717152742E+04  0.50400001928E-02 0.  1.
    10030    2    1    2    0    0  0.00000000000E+00  0.00000000000E+00 -0.73240278316E+03  0.22110277652E+04  0.20861998806E+04 0.  0.
        5    1    3    3  502    0 -0.74587841250E+02 -0.10239869109E+04 -0.56140348988E+03  0.11701745632E+04  0.46999998093E+01 0. -1.
       -5    1    3    3    0  502  0.74587841250E+02  0.10239869109E+04 -0.17099929327E+03  0.10408532020E+04  0.46999998093E+01 0.  1.
</event>
<event>
 5   0  0.8486612E-05  0.1771343E+04  0.7818609E-02  0.8721689E-01
        1   -1    0    0  501    0  0.00000000000E+00  0.00000000000E+00  0.10889530452E+04  0.10889530452E+04  0.50400001928E-02 0. -1.
       -1   -1    0    0    0  501  0.00000000000E+00  0.00000000000E+00 -0.72033755139E+03  0.72033755141E+03  0.50400001928E-02 0.  1.
    10030    2    1    2    0    0  0.00000000000E+00  0.00000000000E+00  0.36861549378E+03  0.18092905966E+04  0.17713427338E+04 0.  0.
        5    1    3    3  502    0 -0.34842950746E+03 -0.14764620034E+03 -0.63358962177E+03  0.73801112522E+03  0.46999998093E+01 0.  1.
       -5    1    3    3    0  502  0.34842950746E+03  0.14764620034E+03  0.10022051155E+04  0.10712794714E+04  0.46999998093E+01 0. -1.
</event>
<event>
 5   0  0.1810875E-04  0.2150860E+04  0.7818609E-02  0.8539164E-01
       -2   -1    0    0    0  501  0.00000000000E+00  0.00000000000E+00  0.51436316282E+03  0.51436316283E+03  0.25500000920E-02 0. -1.
        2   -1    0    0  501    0  0.00000000000E+00  0.00000000000E+00 -0.22485079570E+04  0.22485079570E+04  0.25500000920E-02 0.  1.
    10030    2    1    2    0    0  0.00000000000E+00  0.00000000000E+00 -0.17341447942E+04  0.27628711199E+04  0.21508599810E+04 0.  0.
        1    1    3    3  502    0  0.16169952074E+03  0.98937482899E+03 -0.36702327457E+03  0.10675745273E+04  0.50400001928E-02 0. -1.
       -1    1    3    3    0  502 -0.16169952074E+03 -0.98937482899E+03 -0.13671215196E+04  0.16952965926E+04  0.50400001928E-02 0.  1.
</event>
<event>
 5   0  0.8486612E-05  0.2180144E+04  0.7818609E-02  0.8526739E-01
        1   -1    0    0  501    0  0.00000000000E+00  0.00000000000E+00  0.14757172896E+04  0.14757172896E+04  0.50400001928E-02 0. -1.
       -1   -1    0    0    0  501  0.00000000000E+00  0.00000000000E+00 -0.80520600692E+03  0.80520600693E+03  0.50400001928E-02 0.  1.
    10030    2    1    2    0    0  0.00000000000E+00  0.00000000000E+00  0.67051128268E+03  0.22809232965E+04  0.21801435055E+04 0.  0.
        5    1    3    3  502    0  0.19232629329E+02 -0.59799757667E+03  0.12885642848E+04  0.14207008840E+04  0.46999998093E+01 0. -1.
       -5    1    3    3    0  502 -0.19232629329E+02  0.59799757667E+03 -0.61805300207E+03  0.86022241258E+03  0.46999998093E+01 0.  1.
</event>
<event>
 5   0  0.1886323E-04  0.1989585E+04  0.7818609E-02  0.8611505E-01
       -2   -1    0    0    0  501  0.00000000000E+00  0.00000000000E+00  0.59664815727E+03  0.59664815728E+03  0.25500000920E-02 0.  1.
        2   -1    0    0  501    0  0.00000000000E+00  0.00000000000E+00 -0.16586196452E+04  0.16586196452E+04  0.25500000920E-02 0. -1.
    10030    2    1    2    0    0  0.00000000000E+00  0.00000000000E+00 -0.10619714879E+04  0.22552678024E+04  0.19895852381E+04 0.  0.
        2    1    3    3  502    0 -0.15611326881E+03  0.91725316806E+02  0.57781213619E+03  0.60551775463E+03  0.25500000920E-02 0.  1.
       -2    1    3    3    0  502  0.15611326881E+03 -0.91725316806E+02 -0.16397836241E+04  0.16497500478E+04  0.25500000920E-02 0. -1.
</event>
<event>
 5   0  0.8271069E-05  0.2077875E+04  0.7818609E-02  0.8571053E-01
       -1   -1    0    0    0  501  0.00000000000E+00  0.00000000000E+00  0.53783245780E+03  0.53783245783E+03  0.50400001928E-02 0. -1.
        1   -1    0    0  501    0  0.00000000000E+00  0.00000000000E+00 -0.20069276576E+04  0.20069276576E+04  0.50400001928E-02 0.  1.
    10030    2    1    2    0    0  0.00000000000E+00  0.00000000000E+00 -0.14690951998E+04  0.25447601154E+04  0.20778747168E+04 0.  0.
        2    1    3    3  502    0  0.68016251233E+03 -0.24478385213E+03 -0.16484437734E+04  0.17999741808E+04  0.25500000920E-02 0.  1.
       -2    1    3    3    0  502 -0.68016251233E+03  0.24478385213E+03  0.17934857368E+03  0.74478593457E+03  0.25500000920E-02 0. -1.
</event>
<event>
 5   0  0.1921687E-04  0.2191162E+04  0.7818609E-02  0.8522116E-01
        2   -1    0    0  501    0  0.00000000000E+00  0.00000000000E+00  0.30381476339E+04  0.30381476339E+04  0.25500000920E-02 0. -1.
       -2   -1    0    0    0  501  0.00000000000E+00  0.00000000000E+00 -0.39507557415E+03  0.39507557416E+03  0.25500000920E-02 0.  1.
    10030    2    1    2    0    0  0.00000000000E+00  0.00000000000E+00  0.26430720597E+04  0.34332232080E+04  0.21911621764E+04 0.  0.
        5    1    3    3  502    0 -0.41356829547E+00  0.10304604803E+04  0.73857745039E+03  0.12678200632E+04  0.46999998093E+01 0.  1.
       -5    1    3    3    0  502  0.41356829547E+00 -0.10304604803E+04  0.19044946093E+04  0.21654031448E+04  0.46999998093E+01 0. -1.
</event>
<event>
 5   0  0.1777590E-04  0.2085354E+04  0.7818609E-02  0.8567723E-01
        2   -1    0    0  501    0  0.00000000000E+00  0.00000000000E+00  0.13396347013E+04  0.13396347014E+04  0.25500000920E-02 0. -1.
       -2   -1    0    0    0  501  0.00000000000E+00  0.00000000000E+00 -0.81154619202E+03  0.81154619203E+03  0.25500000920E-02 0.  1.
    10030    2    1    2    0    0  0.00000000000E+00  0.00000000000E+00  0.52808850933E+03  0.21511808934E+04  0.20853541096E+04 0.  0.
        4    1    3    3  502    0 -0.69665762852E+03 -0.17126870797E+03  0.10445718842E+04  0.12672004009E+04  0.12699999809E+01 0. -1.
       -4    1    3    3    0  502  0.69665762852E+03  0.17126870797E+03 -0.51648337490E+03  0.88398049252E+03  0.12699999809E+01 0.  1.
</event>
<event>
 5   0  0.1777590E-04  0.2091402E+04  0.7818609E-02  0.8565040E-01
        2   -1    0    0  501    0  0.00000000000E+00  0.00000000000E+00  0.10083703112E+04  0.10083703113E+04  0.25500000920E-02 0.  1.
       -2   -1    0    0    0  501  0.00000000000E+00  0.00000000000E+00 -0.10844135204E+04  0.10844135204E+04  0.25500000920E-02 0. -1.
    10030    2    1    2    0    0  0.00000000000E+00  0.00000000000E+00 -0.76043209118E+02  0.20927838316E+04  0.20914018256E+04 0.  0.
        4    1    3    3  502    0 -0.67048203515E+03  0.46415828359E+03  0.61700985266E+03  0.10225907504E+04  0.12699999809E+01 0.  1.
       -4    1    3    3    0  502  0.67048203515E+03 -0.46415828359E+03 -0.69305306178E+03  0.10701930812E+04  0.12699999809E+01 0. -1.
</event>
<event>
 5   0  0.8486612E-05  0.2108777E+04  0.7818609E-02  0.8557387E-01
       -1   -1    0    0    0  501  0.00000000000E+00  0.00000000000E+00  0.13887204429E+04  0.13887204429E+04  0.50400001928E-02 0. -1.
        1   -1    0    0  501    0  0.00000000000E+00  0.00000000000E+00 -0.80054610329E+03  0.80054610331E+03  0.50400001928E-02 0.  1.
    10030    2    1    2    0    0  0.00000000000E+00  0.00000000000E+00  0.58817433963E+03  0.21892665462E+04  0.21087766493E+04 0.  0.
        5    1    3    3  502    0  0.72776476015E+03 -0.41736081497E+03 -0.36894533929E+03  0.91650114532E+03  0.46999998093E+01 0. -1.
       -5    1    3    3    0  502 -0.72776476015E+03  0.41736081497E+03  0.95711967892E+03  0.12727654009E+04  0.46999998093E+01 0.  1.
</event>
<event>
 5   0  0.6441125E-05  0.2082040E+04  0.7818609E-02  0.8569196E-01
        3   -1    0    0  501    0  0.00000000000E+00  0.00000000000E+00  0.11169817645E+04  0.11169817691E+04  0.10100000352E+00 0. -1.
       -3   -1    0    0    0  501  0.00000000000E+00  0.00000000000E+00 -0.97022449869E+03  0.97022450395E+03  0.10100000352E+00 0.  1.
    10030    2    1    2    0    0  0.00000000000E+00  0.00000000000E+00  0.14675726582E+03  0.20872062730E+04  0.20820404249E+04 0.  0.
        4    1    3    3  502    0  0.20424889307E+03  0.17787296676E+03  0.10810417787E+04  0.11144547289E+04  0.12699999809E+01 0. -1.
       -4    1    3    3    0  502 -0.20424889307E+03 -0.17787296676E+03 -0.93428451289E+03  0.97275154410E+03  0.12699999809E+01 0.  1.
</event>
<event>
 5   0  0.8486612E-05  0.1995335E+04  0.7818609E-02  0.8608805E-01
        1   -1    0    0  501    0  0.00000000000E+00  0.00000000000E+00  0.20133127720E+04  0.20133127720E+04  0.50400001928E-02 0.  1.
       -1   -1    0    0    0  501  0.00000000000E+00  0.00000000000E+00 -0.49437925378E+03  0.49437925381E+03  0.50400001928E-02 0. -1.
    10030    2    1    2    0    0  0.00000000000E+00  0.00000000000E+00  0.15189335182E+04  0.25076920258E+04  0.19953346245E+04 0.  0.
        5    1    3    3  502    0 -0.49575189666E+03  0.67706633357E+03  0.14375786395E+04  0.16645849927E+04  0.46999998093E+01 0.  1.
       -5    1    3    3    0  502  0.49575189666E+03 -0.67706633357E+03  0.81354878754E+02  0.84310703317E+03  0.46999998093E+01 0. -1.
</event>
<event>
 5   0  0.1777590E-04  0.2082953E+04  0.7818609E-02  0.8568790E-01
        2   -1    0    0  501    0  0.00000000000E+00  0.00000000000E+00  0.19688992839E+04  0.19688992839E+04  0.25500000920E-02 0. -1.
       -2   -1    0    0    0  501  0.00000000000E+00  0.00000000000E+00 -0.55090356014E+03  0.55090356015E+03  0.25500000920E-02 0.  1.
    10030    2    1    2    0    0  0.00000000000E+00  0.00000000000E+00  0.14179957237E+04  0.25198028440E+04  0.20829533121E+04 0.  0.
        4    1    3    3  502    0 -0.36248185924E+03  0.63464699767E+03  0.16065641181E+04  0.17649985236E+04  0.12699999809E+01 0. -1.
       -4    1    3    3    0  502  0.36248185924E+03 -0.63464699767E+03 -0.18856839432E+03  0.75480432044E+03  0.12699999809E+01 0.  1.
</event>
<event>
 5   0  0.1921687E-04  0.1425517E+04  0.7818609E-02  0.8935552E-01
        2   -1    0    0  501    0  0.00000000000E+00  0.00000000000E+00  0.13437707991E+04  0.13437707991E+04  0.25500000920E-02 0.  1.
       -2   -1    0    0    0  501  0.00000000000E+00  0.00000000000E+00 -0.37805927362E+03  0.37805927363E+03  0.25500000920E-02 0. -1.
    10030    2    1    2    0    0  0.00000000000E+00  0.00000000000E+00  0.96571152550E+03  0.17218300728E+04  0.14255174671E+04 0.  0.
        5    1    3    3  502    0 -0.61835961619E+03 -0.33726036055E+03  0.35115016741E+03  0.78704618404E+03  0.46999998093E+01 0. -1.
       -5    1    3    3    0  502  0.61835961619E+03  0.33726036055E+03  0.61456135809E+03  0.93478388871E+03  0.46999998093E+01 0.  1.
</event>
<event>
 5   0  0.8755004E-05  0.2075451E+04  0.7818609E-02  0.8572135E-01
       -1   -1    0    0    0  501  0.00000000000E+00  0.00000000000E+00  0.58626589467E+03  0.58626589469E+03  0.50400001928E-02 0.  1.
        1   -1    0    0  501    0  0.00000000000E+00  0.00000000000E+00 -0.18368366398E+04  0.18368366398E+04  0.50400001928E-02 0. -1.
    10030    2    1    2    0    0  0.00000000000E+00  0.00000000000E+00 -0.12505707451E+04  0.24231025345E+04  0.20754514459E+04 0.  0.
        3    1    3    3  502    0 -0.64714552402E+03  0.68242631597E+03 -0.11321486894E+03  0.94727008965E+03  0.10100000352E+00 0.  1.
       -3    1    3    3    0  502  0.64714552402E+03 -0.68242631597E+03 -0.11373558762E+04  0.14758324449E+04  0.10100000352E+00 0. -1.
</event>
<event>
 5   0  0.1777590E-04  0.2024148E+04  0.7818609E-02  0.8595413E-01
       -2   -1    0    0    0  501  0.00000000000E+00  0.00000000000E+00  0.55883183851E+03  0.55883183851E+03  0.25500000920E-02 0.  1.
        2   -1    0    0  501    0  0.00000000000E+00  0.00000000000E+00 -0.18329191975E+04  0.18329191975E+04  0.25500000920E-02 0. -1.
    10030    2    1    2    0    0  0.00000000000E+00  0.00000000000E+00 -0.12740873590E+04  0.23917510360E+04  0.20241478256E+04 0.  0.
        4    1    3    3  502    0  0.60402484007E+03 -0.21641787239E+01 -0.15965808792E+04  0.17070216190E+04  0.12699999809E+01 0. -1.
       -4    1    3    3    0  502 -0.60402484007E+03  0.21641787239E+01  0.32249352017E+03  0.68472941703E+03  0.12699999809E+01 0.  1.
</event>
<event>
 5   0  0.1810875E-04  0.2055184E+04  0.7818609E-02  0.8581246E-01
        2   -1    0    0  501    0  0.00000000000E+00  0.00000000000E+00  0.14704995295E+04  0.14704995295E+04  0.25500000920E-02 0.  1.
       -2   -1    0    0    0  501  0.00000000000E+00  0.00000000000E+00 -0.71808633711E+03  0.71808633712E+03  0.25500000920E-02 0. -1.
    10030    2    1    2    0    0  0.00000000000E+00  0.00000000000E+00  0.75241319242E+03  0.21885858666E+04  0.20551842943E+04 0.  0.
        1    1    3    3  502    0  0.66143563230E+03 -0.78324199331E+03  0.45136014836E+03  0.11201299475E+04  0.50400001928E-02 0.  1.
       -1    1    3    3    0  502 -0.66143563230E+03  0.78324199331E+03  0.30105304406E+03  0.10684559191E+04  0.50400001928E-02 0. -1.
</event>
<event>
 5   0  0.8755004E-05  0.2094371E+04  0.7818609E-02  0.8563727E-01
       -1   -1    0    0    0  501  0.00000000000E+00  0.00000000000E+00  0.72691736748E+03  0.72691736749E+03  0.50400001928E-02 0. -1.
        1   -1    0    0  501    0  0.00000000000E+00  0.00000000000E+00 -0.15085579257E+04  0.15085579257E+04  0.50400001928E-02 0.  1.
    10030    2    1    2    0    0  0.00000000000E+00  0.00000000000E+00 -0.78164055819E+03  0.22354752932E+04  0.20943705079E+04 0.  0.
        3    1    3    3  502    0  0.81835774268E+03 -0.73992417824E+02 -0.10837196333E+04  0.13600119583E+04  0.10100000352E+00 0. -1.
       -3    1    3    3    0  502 -0.81835774268E+03  0.73992417824E+02  0.30207907511E+03  0.87546333488E+03  0.10100000352E+00 0.  1.
</event>
<event>
 5   0  0.1815400E-04  0.2101386E+04  0.7818609E-02  0.8560633E-01
       -2   -1    0    0    0  501  0.00000000000E+00  0.00000000000E+00  0.92119260660E+03  0.92119260660E+03  0.25500000920E-02 0.  1.
        2   -1    0    0  501    0  0.00000000000E+00  0.00000000000E+00 -0.11983987344E+04  0.11983987344E+04  0.25500000920E-02 0. -1.
    10030    2    1    2    0    0  0.00000000000E+00  0.00000000000E+00 -0.27720612783E+03  0.21195913410E+04  0.21013862605E+04 0.  0.
        3    1    3    3  502    0  0.22503249286E+03  0.10247229167E+04 -0.19618851083E+03  0.10673268575E+04  0.10100000352E+00 0.  1.
       -3    1    3    3    0  502 -0.22503249286E+03 -0.10247229167E+04 -0.81017617002E+02  0.10522644835E+04  0.10100000352E+00 0. -1.
</event>
<event>
 5   0  0.8755004E-05  0.2081583E+04  0.7818609E-02  0.8569400E-01
       -1   -1    0    0    0  501  0.00000000000E+00  0.00000000000E+00  0.11381971100E+04  0.11381971100E+04  0.50400001928E-02 0. -1.
        1   -1    0    0  501    0  0.00000000000E+00  0.00000000000E+00 -0.95172140438E+03  0.95172140440E+03  0.50400001928E-02 0.  1.
    10030    2    1    2    0    0  0.00000000000E+00  0.00000000000E+00  0.18647570560E+03  0.20899185144E+04  0.20815826210E+04 0.  0.
        3    1    3    3  502    0  0.51335006139E+03  0.22215003700E+03 -0.78798288613E+03  0.96633118728E+03  0.10100000352E+00 0.  1.
       -3    1    3    3    0  502 -0.51335006139E+03 -0.22215003700E+03  0.97445859173E+03  0.11235873271E+04  0.10100000352E+00 0. -1.
</event>
<event>
 5   0  0.8486612E-05  0.2066002E+04  0.7818609E-02  0.8576369E-01
        1   -1    0    0  501    0  0.00000000000E+00  0.00000000000E+00  0.12805061341E+04  0.12805061341E+04  0.50400001928E-02 0. -1.
       -1   -1    0    0    0  501  0.00000000000E+00  0.00000000000E+00 -0.83333539827E+03  0.83333539829E+03  0.50400001928E-02 0.  1.
    10030    2    1    2    0    0  0.00000000000E+00  0.00000000000E+00  0.44717073585E+03  0.21138415324E+04  0.20660020226E+04 0.  0.
        5    1    3    3  502    0 -0.16292174138E+03  0.20262800374E+03 -0.79929772504E+03  0.84053586774E+03  0.46999998093E+01 0.  1.
       -5    1    3    3    0  502  0.16292174138E+03 -0.20262800374E+03  0.12464684609E+04  0.12733056647E+04  0.46999998093E+01 0. -1.
</event>
<event>
 5   0  0.8237966E-05  0.2092681E+04  0.7818609E-02  0.8564474E-01
        1   -1    0    0  501    0  0.00000000000E+00  0.00000000000E+00  0.15578992659E+04  0.15578992659E+04  0.50400001928E-02 0. -1.
       -1   -1    0    0    0  501  0.00000000000E+00  0.00000000000E+00 -0.70275929540E+03  0.70275929541E+03  0.50400001928E-02 0.  1.
    10030    2    1    2    0    0  0.00000000000E+00  0.00000000000E+00  0.85513997051E+03  0.22606585613E+04  0.20926807596E+04 0.  0.
        1    1    3    3  502    0  0.59359075892E+03 -0.62946500690E+03  0.10632347539E+04  0.13707823773E+04  0.50400001928E-02 0. -1.
       -1    1    3    3    0  502 -0.59359075892E+03  0.62946500690E+03 -0.20809478340E+03  0.88987618402E+03  0.50400001928E-02 0.  1.
</event>
<event>
 5   0  0.8237966E-05  0.2100025E+04  0.7818609E-02  0.8561232E-01
        1   -1    0    0  501    0  0.00000000000E+00  0.00000000000E+00  0.12047260845E+04  0.12047260845E+04  0.50400001928E-02 0.  1.
       -1   -1    0    0    0  501  0.00000000000E+00  0.00000000000E+00 -0.91516798647E+03  0.91516798648E+03  0.50400001928E-02 0. -1.
    10030    2    1    2    0    0  0.00000000000E+00  0.00000000000E+00  0.28955809807E+03  0.21198940710E+04  0.21000254713E+04 0.  0.
        1    1    3    3  502    0  0.17039167599E+03  0.77713544896E+03 -0.54694413386E+03  0.96546398942E+03  0.50400001928E-02 0. -1.
       -1    1    3    3    0  502 -0.17039167599E+03 -0.77713544896E+03  0.83650223193E+03  0.11544300816E+04  0.50400001928E-02 0.  1.
</event>
<event>
 5   0  0.1815400E-04  0.2232193E+04  0.7818609E-02  0.8505147E-01
       -2   -1    0    0    0  501  0.00000000000E+00  0.00000000000E+00  0.92138215079E+03  0.92138215080E+03  0.25500000920E-02 0.  1.
        2   -1    0    0  501    0  0.00000000000E+00  0.00000000000E+00 -0.13519591864E+04  0.13519591864E+04  0.25500000920E-02 0. -1.
    10030    2    1    2    0    0  0.00000000000E+00  0.00000000000E+00 -0.43057703557E+03  0.22733413372E+04  0.22321927004E+04 0.  0.
        3    1    3    3  502    0  0.49158685096E+03  0.15767845285E+03 -0.12230500691E+04  0.13275434488E+04  0.10100000352E+00 0. -1.
       -3    1    3    3    0  502 -0.49158685096E+03 -0.15767845285E+03  0.79247303358E+03  0.94579788839E+03  0.10100000352E+00 0.  1.
</event>
<event>
 5   0  0.8237966E-05  0.2105712E+04  0.7818609E-02  0.8558731E-01
        1   -1    0    0  501    0  0.00000000000E+00  0.00000000000E+00  0.12946441134E+04  0.12946441134E+04  0.50400001928E-02 0.  1.
       -1   -1    0    0    0  501  0.00000000000E+00  0.00000000000E+00 -0.85622464231E+03  0.85622464232E+03  0.50400001928E-02 0. -1.
    10030    2    1    2    0    0  0.00000000000E+00  0.00000000000E+00  0.43841947108E+03  0.21508687557E+04  0.21057124143E+04 0.  0.
        1    1    3    3  502    0 -0.21971339581E+03 -0.57231786191E+03  0.10935356483E+04  0.12536514370E+04  0.50400001928E-02 0.  1.
       -1    1    3    3    0  502  0.21971339581E+03  0.57231786191E+03 -0.65511617722E+03  0.89721731873E+03  0.50400001928E-02 0. -1.
</event>
<event>
 5   0  0.8271069E-05  0.2080117E+04  0.7818609E-02  0.8570053E-01
        1   -1    0    0  501    0  0.00000000000E+00  0.00000000000E+00  0.12942818451E+04  0.12942818452E+04  0.50400001928E-02 0.  1.
       -1   -1    0    0    0  501  0.00000000000E+00  0.00000000000E+00 -0.83577005234E+03  0.83577005235E+03  0.50400001928E-02 0. -1.
    10030    2    1    2    0    0  0.00000000000E+00  0.00000000000E+00  0.45851179281E+03  0.21300518975E+04  0.20801173097E+04 0.  0.
        2    1    3    3  502    0 -0.50813269685E+03 -0.86659104274E+03 -0.46548071192E+02  0.10056567983E+04  0.25500000920E-02 0.  1.
       -2    1    3    3    0  502  0.50813269685E+03  0.86659104274E+03  0.50505986400E+03  0.11243950992E+04  0.25500000920E-02 0. -1.
</event>
<event>
 5   0  0.8486612E-05  0.2139842E+04  0.7818609E-02  0.8543893E-01
       -1   -1    0    0    0  501  0.00000000000E+00  0.00000000000E+00  0.49423861310E+03  0.49423861313E+03  0.50400001928E-02 0.  1.
        1   -1    0    0  501    0  0.00000000000E+00  0.00000000000E+00 -0.23161509012E+04  0.23161509012E+04  0.50400001928E-02 0. -1.
    10030    2    1    2    0    0  0.00000000000E+00  0.00000000000E+00 -0.18219122881E+04  0.28103895144E+04  0.21398422458E+04 0.  0.
        5    1    3    3  502    0  0.14444971286E+02 -0.73951455397E+02 -0.23126483354E+04  0.23138802666E+04  0.46999998093E+01 0. -1.
       -5    1    3    3    0  502 -0.14444971286E+02  0.73951455397E+02  0.49073604731E+03  0.49650924773E+03  0.46999998093E+01 0.  1.
</event>
<event>
 5   0  0.1810875E-04  0.2129453E+04  0.7818609E-02  0.8548379E-01
        2   -1    0    0  501    0  0.00000000000E+00  0.00000000000E+00  0.17789862442E+04  0.17789862442E+04  0.25500000920E-02 0.  1.
       -2   -1    0    0    0  501  0.00000000000E+00  0.00000000000E+00 -0.63724103318E+03  0.63724103318E+03  0.25500000920E-02 0. -1.
    10030    2    1    2    0    0  0.00000000000E+00  0.00000000000E+00  0.11417452110E+04  0.24162272773E+04  0.21294534813E+04 0.  0.
        1    1    3    3  502    0 -0.44992097848E+03  0.60050491084E+03  0.14279865343E+04  0.16131275762E+04  0.50400001928E-02 0.  1.
       -1    1    3    3    0  502  0.44992097848E+03 -0.60050491084E+03 -0.28624132333E+03  0.80309970117E+03  0.50400001928E-02 0. -1.
</event>
<event>
 5   0  0.1815400E-04  0.2068906E+04  0.7818609E-02  0.8575065E-01
       -2   -1    0    0    0  501  0.00000000000E+00  0.00000000000E+00  0.18494707095E+04  0.18494707095E+04  0.25500000920E-02 0.  1.
        2   -1    0    0  501    0  0.00000000000E+00  0.00000000000E+00 -0.57859433968E+03  0.57859433969E+03  0.25500000920E-02 0. -1.
    10030    2    1    2    0    0  0.00000000000E+00  0.00000000000E+00  0.12708763698E+04  0.24280650492E+04  0.20689062656E+04 0.  0.
        3    1    3    3  502    0  0.27378382896E+03 -0.50993443105E+03  0.16416594046E+04  0.17406999511E+04  0.10100000352E+00 0.  1.
       -3    1    3    3    0  502 -0.27378382896E+03  0.50993443105E+03 -0.37078303477E+03  0.68736509807E+03  0.10100000352E+00 0. -1.
</event>
<event>
 5   0  0.8237966E-05  0.2075019E+04  0.7818609E-02  0.8572328E-01
        1   -1    0    0  501    0  0.00000000000E+00  0.00000000000E+00  0.13529507910E+04  0.13529507910E+04  0.50400001928E-02 0.  1.
       -1   -1    0    0    0  501  0.00000000000E+00  0.00000000000E+00 -0.79561334328E+03  0.79561334330E+03  0.50400001928E-02 0. -1.
    10030    2    1    2    0    0  0.00000000000E+00  0.00000000000E+00  0.55733744775E+03  0.21485641343E+04  0.20750187490E+04 0.  0.
        1    1    3    3  502    0 -0.73789917407E+03  0.62462157588E+03  0.66854905757E+03  0.11754170096E+04  0.50400001928E-02 0.  1.
       -1    1    3    3    0  502  0.73789917407E+03 -0.62462157588E+03 -0.11121160982E+03  0.97314712470E+03  0.50400001928E-02 0. -1.
</event>
<event>
 5   0  0.8271069E-05  0.2112071E+04  0.7818609E-02  0.8555945E-01
       -1   -1    0    0    0  501  0.00000000000E+00  0.00000000000E+00  0.10911845500E+04  0.10911845500E+04  0.50400001928E-02 0.  1.
        1   -1    0    0  501    0  0.00000000000E+00  0.00000000000E+00 -0.10220184758E+04  0.10220184759E+04  0.50400001928E-02 0. -1.
    10030    2    1    2    0    0  0.00000000000E+00  0.00000000000E+00  0.69166074146E+02  0.21132030259E+04  0.21120708044E+04 0.  0.
        2    1    3    3  502    0  0.82419837859E+03  0.45496198389E+03 -0.44412657709E+03  0.10409331345E+04  0.25500000920E-02 0. -1.
       -2    1    3    3    0  502 -0.82419837859E+03 -0.45496198389E+03  0.51329265124E+03  0.10722698913E+04  0.25500000920E-02 0.  1.
</event>
<event>
 5   0  0.8525278E-05  0.2120531E+04  0.7818609E-02  0.8552253E-01
       -1   -1    0    0    0  501  0.00000000000E+00  0.00000000000E+00  0.12964660841E+04  0.12964660841E+04  0.50400001928E-02 0.  1.
        1   -1    0    0  501    0  0.00000000000E+00  0.00000000000E+00 -0.86709818619E+03  0.86709818621E+03  0.50400001928E-02 0. -1.
    10030    2    1    2    0    0  0.00000000000E+00  0.00000000000E+00  0.42936789786E+03  0.21635642703E+04  0.21205314334E+04 0.  0.
        4    1    3    3  502    0  0.56246991283E+02 -0.30518506443E+03 -0.81972458851E+03  0.87649966428E+03  0.12699999809E+01 0. -1.
       -4    1    3    3    0  502 -0.56246991283E+02  0.30518506443E+03  0.12490924864E+04  0.12870646060E+04  0.12699999809E+01 0.  1.
</event>
<event>
 5   0  0.8237966E-05  0.2140233E+04  0.7818609E-02  0.8543724E-01
        1   -1    0    0  501    0  0.00000000000E+00  0.00000000000E+00  0.11466822205E+04  0.11466822205E+04  0.50400001928E-02 0.  1.
       -1   -1    0    0    0  501  0.00000000000E+00  0.00000000000E+00 -0.99866353028E+03  0.99866353030E+03  0.50400001928E-02 0. -1.
    10030    2    1    2    0    0  0.00000000000E+00  0.00000000000E+00  0.14801869022E+03  0.21453457508E+04  0.21402333653E+04 0.  0.
        1    1    3    3  502    0  0.78132636551E+03  0.29204327764E+03 -0.59795719500E+03  0.10263103685E+04  0.50400001928E-02 0. -1.
       -1    1    3    3    0  502 -0.78132636551E+03 -0.29204327764E+03  0.74597588522E+03  0.11190353823E+04  0.50400001928E-02 0.  1.
</event>
<event>
 5   0  0.6441125E-05  0.1358560E+04  0.7818609E-02  0.8984374E-01
        3   -1    0    0  501    0  0.00000000000E+00  0.00000000000E+00  0.33518553353E+04  0.33518553368E+04  0.10100000352E+00 0.  1.
       -3   -1    0    0    0  501  0.00000000000E+00  0.00000000000E+00 -0.13766141051E+03  0.13766144756E+03  0.10100000352E+00 0. -1.
    10030    2    1    2    0    0  0.00000000000E+00  0.00000000000E+00  0.32141939248E+04  0.34895167844E+04  0.13585598265E+04 0.  0.
        5    1    3    3  502    0  0.60782530280E+02 -0.31415082228E+03  0.31461093955E+04  0.31623427508E+04  0.46999998093E+01 0.  1.
       -5    1    3    3    0  502 -0.60782530280E+02  0.31415082228E+03  0.68084529316E+02  0.32717403359E+03  0.46999998093E+01 0. -1.
</event>
<event>
 5   0  0.8237966E-05  0.2081570E+04  0.7818609E-02  0.8569406E-01
       -1   -1    0    0    0  501  0.00000000000E+00  0.00000000000E+00  0.14789207249E+04  0.14789207249E+04  0.50400001928E-02 0. -1.
        1   -1    0    0  501    0  0.00000000000E+00  0.00000000000E+00 -0.73244883092E+03  0.73244883094E+03  0.50400001928E-02 0.  1.
    10030    2    1    2    0    0  0.00000000000E+00  0.00000000000E+00  0.74647189393E+03  0.22113695558E+04  0.20815703264E+04 0.  0.
        1    1    3    3  502    0 -0.58891596930E+03  0.69041676397E+03 -0.16818701547E+03  0.92292155629E+03  0.50400001928E-02 0.  1.
       -1    1    3    3    0  502  0.58891596930E+03 -0.69041676397E+03  0.91465890940E+03  0.12884479995E+04  0.50400001928E-02 0. -1.
</event>
<event>
 5   0  0.1777590E-04  0.2121292E+04  0.7818609E-02  0.8551922E-01
        2   -1    0    0  501    0  0.00000000000E+00  0.00000000000E+00  0.13808833132E+04  0.13808833133E+04  0.25500000920E-02 0.  1.
       -2   -1    0    0    0  501  0.00000000000E+00  0.00000000000E+00 -0.81467426572E+03  0.81467426573E+03  0.25500000920E-02 0. -1.
    10030    2    1    2    0    0  0.00000000000E+00  0.00000000000E+00  0.56620904752E+03  0.21955575790E+04  0.21212921527E+04 0.  0.
        4    1    3    3  502    0  0.98151960587E+03 -0.61130001488E+02 -0.12810942618E+03  0.99173144135E+03  0.12699999809E+01 0. -1.
       -4    1    3    3    0  502 -0.98151960587E+03  0.61130001488E+02  0.69431847371E+03  0.12038261376E+04  0.12699999809E+01 0.  1.
</event>
<event>
 5   0  0.1777590E-04  0.1983084E+04  0.7818609E-02  0.8614570E-01
        2   -1    0    0  501    0  0.00000000000E+00  0.00000000000E+00  0.11173999984E+04  0.11173999984E+04  0.25500000920E-02 0.  1.
       -2   -1    0    0    0  501  0.00000000000E+00  0.00000000000E+00 -0.87986002943E+03  0.87986002943E+03  0.25500000920E-02 0. -1.
    10030    2    1    2    0    0  0.00000000000E+00  0.00000000000E+00  0.23753996900E+03  0.19972600279E+04  0.19830840582E+04 0.  0.
        4    1    3    3  502    0 -0.92002824947E+03  0.31142954087E+03 -0.81937401828E+02  0.97475929822E+03  0.12699999809E+01 0.  1.
       -4    1    3    3    0  502  0.92002824947E+03 -0.31142954087E+03  0.31947737083E+03  0.10225007296E+04  0.12699999809E+01 0. -1.
</event>
<event>
 5   0  0.8237966E-05  0.2096327E+04  0.7818609E-02  0.8562863E-01
        1   -1    0    0  501    0  0.00000000000E+00  0.00000000000E+00  0.13520832352E+04  0.13520832352E+04  0.50400001928E-02 0. -1.
       -1   -1    0    0    0  501  0.00000000000E+00  0.00000000000E+00 -0.81255854232E+03  0.81255854234E+03  0.50400001928E-02 0.  1.
    10030    2    1    2    0    0  0.00000000000E+00  0.00000000000E+00  0.53952469284E+03  0.21646417775E+04  0.20963270572E+04 0.  0.
        1    1    3    3  502    0  0.88089541651E+03 -0.17643836203E+02 -0.31650637319E+03  0.93619673364E+03  0.50400001928E-02 0.  1.
       -1    1    3    3    0  502 -0.88089541651E+03  0.17643836203E+02  0.85603106604E+03  0.12284450439E+04  0.50400001928E-02 0. -1.
</event>
<event>
 5   0  0.8525278E-05  0.2199922E+04  0.7818609E-02  0.8518461E-01
        1   -1    0    0  501    0  0.00000000000E+00  0.00000000000E+00  0.13248656724E+04  0.13248656724E+04  0.50400001928E-02 0.  1.
       -1   -1    0    0    0  501  0.00000000000E+00  0.00000000000E+00 -0.91323519957E+03  0.91323519958E+03  0.50400001928E-02 0. -1.
    10030    2    1    2    0    0  0.00000000000E+00  0.00000000000E+00  0.41163047287E+03  0.22381008720E+04  0.21999217866E+04 0.  0.
        4    1    3    3  502    0 -0.29528836882E+03  0.99297274494E+03 -0.17036158416E+03  0.10498641699E+04  0.12699999809E+01 0.  1.
       -4    1    3    3    0  502  0.29528836882E+03 -0.99297274494E+03  0.58199205703E+03  0.11882367021E+04  0.12699999809E+01 0. -1.
</event>
<event>
 5   0  0.1777590E-04  0.2122820E+04  0.7818609E-02  0.8551257E-01
        2   -1    0    0  501    0  0.00000000000E+00  0.00000000000E+00  0.91493091079E+03  0.91493091079E+03  0.25500000920E-02 0.  1.
       -2   -1    0    0    0  501  0.00000000000E+00  0.00000000000E+00 -0.12313396305E+04  0.12313396305E+04  0.25500000920E-02 0. -1.
    10030    2    1    2    0    0  0.00000000000E+00  0.00000000000E+00 -0.31640871974E+03  0.21462705413E+04  0.21228195304E+04 0.  0.
        4    1    3    3  502    0 -0.76299825514E+01  0.17323095680E+03  0.90051302423E+03  0.91705643269E+03  0.12699999809E+01 0.  1.
       -4    1    3    3    0  502  0.76299825514E+01 -0.17323095680E+03 -0.12169217440E+04  0.12292141086E+04  0.12699999809E+01 0. -1.
</event>
<event>
 5   0  0.1777590E-04  0.2101945E+04  0.7818609E-02  0.8560387E-01
       -2   -1    0    0    0  501  0.00000000000E+00  0.00000000000E+00  0.60727208199E+03  0.60727208200E+03  0.25500000920E-02 0.  1.
        2   -1    0    0  501    0  0.00000000000E+00  0.00000000000E+00 -0.18188603828E+04  0.18188603828E+04  0.25500000920E-02 0. -1.
    10030    2    1    2    0    0  0.00000000000E+00  0.00000000000E+00 -0.12115883008E+04  0.24261324648E+04  0.21019449389E+04 0.  0.
        4    1    3    3  502    0 -0.28174703401E+03 -0.10116574628E+04 -0.65351443411E+03  0.12368973044E+04  0.12699999809E+01 0. -1.
       -4    1    3    3    0  502  0.28174703401E+03  0.10116574628E+04 -0.55807386671E+03  0.11892351604E+04  0.12699999809E+01 0.  1.
</event>
<event>
 5   0  0.1921687E-04  0.1964858E+04  0.7818609E-02  0.8623229E-01
        2   -1    0    0  501    0  0.00000000000E+00  0.00000000000E+00  0.20588390106E+04  0.20588390106E+04  0.25500000920E-02 0. -1.
       -2   -1    0    0    0  501  0.00000000000E+00  0.00000000000E+00 -0.46879163522E+03  0.46879163522E+03  0.25500000920E-02 0.  1.
    10030    2    1    2    0    0  0.00000000000E+00  0.00000000000E+00  0.15900473753E+04  0.25276306458E+04  0.19648577622E+04 0.  0.
        5    1    3    3  502    0  0.35756531360E+03 -0.16501506895E+03 -0.36279748897E+03  0.53546898554E+03  0.46999998093E+01 0.  1.
       -5    1    3    3    0  502 -0.35756531360E+03  0.16501506895E+03  0.19528448643E+04  0.19921616602E+04  0.46999998093E+01 0. -1.
</event>
<event>
 5   0  0.1810875E-04  0.2093922E+04  0.7818609E-02  0.8563925E-01
       -2   -1    0    0    0  501  0.00000000000E+00  0.00000000000E+00  0.87417753550E+03  0.87417753551E+03  0.25500000920E-02 0. -1.
        2   -1    0    0  501    0  0.00000000000E+00  0.00000000000E+00 -0.12538960670E+04  0.12538960670E+04  0.25500000920E-02 0.  1.
    10030    2    1    2    0    0  0.00000000000E+00  0.00000000000E+00 -0.37971853152E+03  0.21280736025E+04  0.20939224185E+04 0.  0.
        1    1    3    3  502    0 -0.17401558236E+03 -0.46138065942E+03  0.74876983593E+03  0.89655440606E+03  0.50400001928E-02 0. -1.
       -1    1    3    3    0  502  0.17401558236E+03  0.46138065942E+03 -0.11284883675E+04  0.12315191965E+04  0.50400001928E-02 0.  1.
</event>
<event>
 5   0  0.8486612E-05  0.2114055E+04  0.7818609E-02  0.8555077E-01
        1   -1    0    0  501    0  0.00000000000E+00  0.00000000000E+00  0.12678445985E+04  0.12678445985E+04  0.50400001928E-02 0. -1.
       -1   -1    0    0    0  501  0.00000000000E+00  0.00000000000E+00 -0.88126534866E+03  0.88126534868E+03  0.50400001928E-02 0.  1.
    10030    2    1    2    0    0  0.00000000000E+00  0.00000000000E+00  0.38657924985E+03  0.21491099472E+04  0.21140553561E+04 0.  0.
        5    1    3    3  502    0 -0.10930185600E+03  0.10100774954E+04  0.48981445962E+03  0.11278934956E+04  0.46999998093E+01 0. -1.
       -5    1    3    3    0  502  0.10930185600E+03 -0.10100774954E+04 -0.10323520977E+03  0.10212164516E+04  0.46999998093E+01 0.  1.
</event>
<event>
 5   0  0.1921687E-04  0.2113088E+04  0.7818609E-02  0.8555500E-01
        2   -1    0    0  501    0  0.00000000000E+00  0.00000000000E+00  0.10052688659E+04  0.10052688659E+04  0.25500000920E-02 0. -1.
       -2   -1    0    0    0  501  0.00000000000E+00  0.00000000000E+00 -0.11104347099E+04  0.11104347099E+04  0.25500000920E-02 0.  1.
    10030    2    1    2    0    0  0.00000000000E+00  0.00000000000E+00 -0.10516584399E+03  0.21157035758E+04  0.21130882059E+04 0.  0.
        5    1    3    3  502    0 -0.45148873463E+02 -0.70506058437E+03 -0.83912157590E+03  0.10969484753E+04  0.46999998093E+01 0.  1.
       -5    1    3    3    0  502  0.45148873463E+02  0.70506058437E+03  0.73395573192E+03  0.10187551005E+04  0.46999998093E+01 0. -1.
</event>
<event>
 5   0  0.8271069E-05  0.2043432E+04  0.7818609E-02  0.8586580E-01
        1   -1    0    0  501    0  0.00000000000E+00  0.00000000000E+00  0.83783899288E+03  0.83783899290E+03  0.50400001928E-02 0. -1.
       -1   -1    0    0    0  501  0.00000000000E+00  0.00000000000E+00 -0.12459479389E+04  0.12459479389E+04  0.50400001928E-02 0.  1.
    10030    2    1    2    0    0  0.00000000000E+00  0.00000000000E+00 -0.40810894598E+03  0.20837869318E+04  0.20434321778E+04 0.  0.
        2    1    3    3  502    0  0.12468981298E+03  0.63823543784E+03  0.59955118961E+03  0.88450757631E+03  0.25500000920E-02 0. -1.
       -2    1    3    3    0  502 -0.12468981298E+03 -0.63823543784E+03 -0.10076601356E+04  0.11992793555E+04  0.25500000920E-02 0.  1.
</event>
<event>
 5   0  0.1921687E-04  0.2098709E+04  0.7818609E-02  0.8561812E-01
        2   -1    0    0  501    0  0.00000000000E+00  0.00000000000E+00  0.10098226069E+04  0.10098226069E+04  0.25500000920E-02 0. -1.
       -2   -1    0    0    0  501  0.00000000000E+00  0.00000000000E+00 -0.10904340808E+04  0.10904340808E+04  0.25500000920E-02 0.  1.
    10030    2    1    2    0    0  0.00000000000E+00  0.00000000000E+00 -0.80611473864E+02  0.21002566877E+04  0.20987091138E+04 0.  0.
        5    1    3    3  502    0  0.10288488208E+04 -0.34098004005E+02 -0.24400023766E+03  0.10579464901E+04  0.46999998093E+01 0.  1.
       -5    1    3    3    0  502 -0.10288488208E+04  0.34098004005E+02  0.16338876379E+03  0.10423101976E+04  0.46999998093E+01 0. -1.
</event>
<event>
 5   0  0.8755004E-05  0.2027720E+04  0.7818609E-02  0.8593769E-01
       -1   -1    0    0    0  501  0.00000000000E+00  0.00000000000E+00  0.72966004788E+03  0.72966004790E+03  0.50400001928E-02 0.  1.
        1   -1    0    0  501    0  0.00000000000E+00  0.00000000000E+00 -0.14087541276E+04  0.14087541276E+04  0.50400001928E-02 0. -1.
    10030    2    1    2    0    0  0.00000000000E+00  0.00000000000E+00 -0.67909407975E+03  0.21384141755E+04  0.20277195114E+04 0.  0.
        3    1    3    3  502    0 -0.58862090292E+03 -0.80825434053E+03 -0.51652341210E+03  0.11254092997E+04  0.10100000352E+00 0. -1.
       -3    1    3    3    0  502  0.58862090292E+03  0.80825434053E+03 -0.16257066764E+03  0.10130048759E+04  0.10100000352E+00 0.  1.
</event>
<event>
 5   0  0.8525278E-05  0.2081634E+04  0.7818609E-02  0.8569377E-01
        1   -1    0    0  501    0  0.00000000000E+00  0.00000000000E+00  0.13935314919E+04  0.13935314919E+04  0.50400001928E-02 0. -1.
       -1   -1    0    0    0  501  0.00000000000E+00  0.00000000000E+00 -0.77737749980E+03  0.77737749982E+03  0.50400001928E-02 0.  1.
    10030    2    1    2    0    0  0.00000000000E+00  0.00000000000E+00  0.61615399207E+03  0.21709089917E+04  0.20816339996E+04 0.  0.
        4    1    3    3  502    0  0.89592195673E+03  0.25478235331E+03 -0.17628558678E+03  0.94798123458E+03  0.12699999809E+01 0.  1.
       -4    1    3    3    0  502 -0.89592195673E+03 -0.25478235331E+03  0.79243957885E+03  0.12229277571E+04  0.12699999809E+01 0. -1.
</event>
<event>
 5   0  0.8755004E-05  0.1340148E+04  0.7818609E-02  0.8998320E-01
        1   -1    0    0  501    0  0.00000000000E+00  0.00000000000E+00  0.79748626604E+03  0.79748626606E+03  0.50400001928E-02 0.  1.
       -1   -1    0    0    0  501  0.00000000000E+00  0.00000000000E+00 -0.56301766609E+03  0.56301766612E+03  0.50400001928E-02 0. -1.
    10030    2    1    2    0    0  0.00000000000E+00  0.00000000000E+00  0.23446859995E+03  0.13605039322E+04  0.13401475386E+04 0.  0.
        3    1    3    3  502    0  0.40733358230E+03 -0.45315896405E+03  0.40026137207E+03  0.72902871695E+03  0.10100000352E+00 0.  1.
       -3    1    3    3    0  502 -0.40733358230E+03  0.45315896405E+03 -0.16579277212E+03  0.63147521523E+03  0.10100000352E+00 0. -1.
</event>
<event>
 5   0  0.8755004E-05  0.2155382E+04  0.7818609E-02  0.8537232E-01
        1   -1    0    0  501    0  0.00000000000E+00  0.00000000000E+00  0.91328514454E+03  0.91328514456E+03  0.50400001928E-02 0. -1.
       -1   -1    0    0    0  501  0.00000000000E+00  0.00000000000E+00 -0.12716924617E+04  0.12716924617E+04  0.50400001928E-02 0.  1.
    10030    2    1    2    0    0  0.00000000000E+00  0.00000000000E+00 -0.35840731716E+03  0.21849776063E+04  0.21553819464E+04 0.  0.
        3    1    3    3  502    0 -0.52150397486E+03 -0.61950464204E+03 -0.90006938880E+03  0.12107342038E+04  0.10100000352E+00 0.  1.
       -3    1    3    3    0  502  0.52150397486E+03  0.61950464204E+03  0.54166207164E+03  0.97424340252E+03  0.10100000352E+00 0. -1.
</event>
<event>
 5   0  0.1886323E-04  0.2058032E+04  0.7818609E-02  0.8579959E-01
        2   -1    0    0  501    0  0.00000000000E+00  0.00000000000E+00  0.15852398416E+04  0.15852398416E+04  0.25500000920E-02 0.  1.
       -2   -1    0    0    0  501  0.00000000000E+00  0.00000000000E+00 -0.66795842550E+03  0.66795842551E+03  0.25500000920E-02 0. -1.
    10030    2    1    2    0    0  0.00000000000E+00  0.00000000000E+00  0.91728141608E+03  0.22531982671E+04  0.20580323697E+04 0.  0.
        2    1    3    3  502    0 -0.37852623598E+01 -0.28806341501E+02 -0.66750927413E+03  0.66814127591E+03  0.25500000920E-02 0. -1.
       -2    1    3    3    0  502  0.37852623598E+01  0.28806341501E+02  0.15847906902E+04  0.15850569912E+04  0.25500000920E-02 0.  1.
</event>
<event>
 5   0  0.8486612E-05  0.2108673E+04  0.7818609E-02  0.8557432E-01
       -1   -1    0    0    0  501  0.00000000000E+00  0.00000000000E+00  0.65696626027E+03  0.65696626028E+03  0.50400001928E-02 0. -1.
        1   -1    0    0  501    0  0.00000000000E+00  0.00000000000E+00 -0.16920592428E+04  0.16920592428E+04  0.50400001928E-02 0.  1.
    10030    2    1    2    0    0  0.00000000000E+00  0.00000000000E+00 -0.10350929826E+04  0.23490255031E+04  0.21086733582E+04 0.  0.
        5    1    3    3  502    0 -0.40642916530E+03 -0.59083167704E+03 -0.13785167139E+04  0.15538974089E+04  0.46999998093E+01 0.  1.
       -5    1    3    3    0  502  0.40642916530E+03  0.59083167704E+03  0.34342373130E+03  0.79512809422E+03  0.46999998093E+01 0. -1.
</event>
<event>
 5   0  0.8271069E-05  0.1938896E+04  0.7818609E-02  0.8635734E-01
        1   -1    0    0  501    0  0.00000000000E+00  0.00000000000E+00  0.95512731887E+03  0.95512731889E+03  0.50400001928E-02 0. -1.
       -1   -1    0    0    0  501  0.00000000000E+00  0.00000000000E+00 -0.98398339990E+03  0.98398339992E+03  0.50400001928E-02 0.  1.
    10030    2    1    2    0    0  0.00000000000E+00  0.00000000000E+00 -0.28856081031E+02  0.19391107188E+04  0.19388960019E+04 0.  0.
        2    1    3    3  502    0  0.11630983308E+03 -0.41617389040E+03 -0.88233791543E+03  0.98247080432E+03  0.25500000920E-02 0.  1.
       -2    1    3    3    0  502 -0.11630983308E+03  0.41617389040E+03  0.85348183440E+03  0.95663991448E+03  0.25500000920E-02 0. -1.
</event>
<event>
 5   0  0.8755004E-05  0.1333361E+04  0.7818609E-02  0.9003520E-01
        1   -1    0    0  501    0  0.00000000000E+00  0.00000000000E+00  0.10963257960E+04  0.10963257960E+04  0.50400001928E-02 0.  1.
       -1   -1    0    0    0  501  0.00000000000E+00  0.00000000000E+00 -0.40541119936E+03  0.40541119940E+03  0.50400001928E-02 0. -1.
    10030    2    1    2    0    0  0.00000000000E+00  0.00000000000E+00  0.69091459660E+03  0.15017369954E+04  0.13333608002E+04 0.  0.
        3    1    3    3  502    0  0.61492306688E+03 -0.49175394812E+02  0.60719777849E+02  0.61986732392E+03  0.10100000352E+00 0. -1.
       -3    1    3    3    0  502 -0.61492306688E+03  0.49175394812E+02  0.63019481875E+03  0.88186967145E+03  0.10100000352E+00 0.  1.
</event>
<event>
 5   0  0.1810875E-04  0.2057973E+04  0.7818609E-02  0.8579986E-01
        2   -1    0    0  501    0  0.00000000000E+00  0.00000000000E+00  0.11885251606E+04  0.11885251606E+04  0.25500000920E-02 0.  1.
       -2   -1    0    0    0  501  0.00000000000E+00  0.00000000000E+00 -0.89086289037E+03  0.89086289038E+03  0.25500000920E-02 0. -1.
    10030    2    1    2    0    0  0.00000000000E+00  0.00000000000E+00  0.29766227021E+03  0.20793880510E+04  0.20579727499E+04 0.  0.
        1    1    3    3  502    0 -0.42198726226E+03 -0.73924921585E+03 -0.43532888648E+03  0.95607211657E+03  0.50400001928E-02 0. -1.
       -1    1    3    3    0  502  0.42198726226E+03  0.73924921585E+03  0.73299115669E+03  0.11233159344E+04  0.50400001928E-02 0.  1.
</event>
<event>
 5   0  0.1886323E-04  0.2018002E+04  0.7818609E-02  0.8598250E-01
        2   -1    0    0  501    0  0.00000000000E+00  0.00000000000E+00  0.20303939887E+04  0.20303939887E+04  0.25500000920E-02 0.  1.
       -2   -1    0    0    0  501  0.00000000000E+00  0.00000000000E+00 -0.50142145847E+03  0.50142145848E+03  0.25500000920E-02 0. -1.
    10030    2    1    2    0    0  0.00000000000E+00  0.00000000000E+00  0.15289725303E+04  0.25318154472E+04  0.20180020962E+04 0.  0.
        2    1    3    3  502    0 -0.57107877096E+03  0.38614741073E+03 -0.15988680588E+03  0.70767547376E+03  0.25500000920E-02 0. -1.
       -2    1    3    3    0  502  0.57107877096E+03 -0.38614741073E+03  0.16888593361E+04  0.18241399735E+04  0.25500000920E-02 0.  1.
</event>
<event>
 5   0  0.8755004E-05  0.2086845E+04  0.7818609E-02  0.8567061E-01
        1   -1    0    0  501    0  0.00000000000E+00  0.00000000000E+00  0.21746614130E+04  0.21746614130E+04  0.50400001928E-02 0.  1.
       -1   -1    0    0    0  501  0.00000000000E+00  0.00000000000E+00 -0.50064366358E+03  0.50064366361E+03  0.50400001928E-02 0. -1.
    10030    2    1    2    0    0  0.00000000000E+00  0.00000000000E+00  0.16740177494E+04  0.26753050766E+04  0.20868449457E+04 0.  0.
        3    1    3    3  502    0 -0.67164730106E+02  0.77574991250E+03 -0.53423463047E+02  0.78048260988E+03  0.10100000352E+00 0. -1.
       -3    1    3    3    0  502  0.67164730106E+02 -0.77574991250E+03  0.17274412125E+04  0.18948224667E+04  0.10100000352E+00 0.  1.
</event>
<event>
 5   0  0.1810875E-04  0.2075544E+04  0.7818609E-02  0.8572094E-01
       -2   -1    0    0    0  501  0.00000000000E+00  0.00000000000E+00  0.50335896634E+03  0.50335896635E+03  0.25500000920E-02 0. -1.
        2   -1    0    0  501    0  0.00000000000E+00  0.00000000000E+00 -0.21395678243E+04  0.21395678243E+04  0.25500000920E-02 0.  1.
    10030    2    1    2    0    0  0.00000000000E+00  0.00000000000E+00 -0.16362088579E+04  0.26429267906E+04  0.20755439272E+04 0.  0.
        1    1    3    3  502    0 -0.79297917157E+03 -0.26763266231E+02 -0.16698695168E+04  0.18487824215E+04  0.50400001928E-02 0.  1.
       -1    1    3    3    0  502  0.79297917157E+03  0.26763266231E+02  0.33660658890E+02  0.79414436908E+03  0.50400001928E-02 0. -1.
</event>
<event>
 5   0  0.8237966E-05  0.2134262E+04  0.7818609E-02  0.8546299E-01
        1   -1    0    0  501    0  0.00000000000E+00  0.00000000000E+00  0.10058357375E+04  0.10058357376E+04  0.50400001928E-02 0.  1.
       -1   -1    0    0    0  501  0.00000000000E+00  0.00000000000E+00 -0.11321617982E+04  0.11321617983E+04  0.50400001928E-02 0. -1.
    10030    2    1    2    0    0  0.00000000000E+00  0.00000000000E+00 -0.12632606070E+03  0.21379975358E+04  0.21342622120E+04 0.  0.
        1    1    3    3  502    0  0.97324712248E+03  0.25005676706E+03 -0.42299979212E+03  0.10902601397E+04  0.50400001928E-02 0. -1.
       -1    1    3    3    0  502 -0.97324712248E+03 -0.25005676706E+03  0.29667373142E+03  0.10477373961E+04  0.50400001928E-02 0.  1.
</event>
<event>
 5   0  0.8755004E-05  0.1917282E+04  0.7818609E-02  0.8646301E-01
        1   -1    0    0  501    0  0.00000000000E+00  0.00000000000E+00  0.76428355915E+03  0.76428355917E+03  0.50400001928E-02 0. -1.
       -1   -1    0    0    0  501  0.00000000000E+00  0.00000000000E+00 -0.12024236858E+04  0.12024236858E+04  0.50400001928E-02 0.  1.
    10030    2    1    2    0    0  0.00000000000E+00  0.00000000000E+00 -0.43814012668E+03  0.19667072450E+04  0.19172820911E+04 0.  0.
        3    1    3    3  502    0  0.42803871961E+02  0.16331697336E+03 -0.11870531012E+04  0.11989994498E+04  0.10100000352E+00 0.  1.
       -3    1    3    3    0  502 -0.42803871961E+02 -0.16331697336E+03  0.74891297454E+03  0.76770779524E+03  0.10100000352E+00 0. -1.
</event>
<event>
 5   0  0.1777590E-04  0.2192084E+04  0.7818609E-02  0.8521730E-01
        2   -1    0    0  501    0  0.00000000000E+00  0.00000000000E+00  0.45652769692E+03  0.45652769693E+03  0.25500000920E-02 0. -1.
       -2   -1    0    0    0  501  0.00000000000E+00  0.00000000000E+00 -0.26314015563E+04  0.26314015563E+04  0.25500000920E-02 0.  1.
    10030    2    1    2    0    0  0.00000000000E+00  0.00000000000E+00 -0.21748738594E+04  0.30879292532E+04  0.21920836592E+04 0.  0.
        4    1    3    3  502    0 -0.24623890828E+03  0.82458538652E+03 -0.20436047691E+04  0.22174076587E+04  0.12699999809E+01 0.  1.
       -4    1    3    3    0  502  0.24623890828E+03 -0.82458538652E+03 -0.13126909028E+03  0.87052159455E+03  0.12699999809E+01 0. -1.
</event>
<event>
 5   0  0.6441125E-05  0.2126181E+04  0.7818609E-02  0.8549797E-01
        4   -1    0    0  501    0  0.00000000000E+00  0.00000000000E+00  0.59159915423E+03  0.59160051740E+03  0.12699999809E+01 0.  1.
       -4   -1    0    0    0  501  0.00000000000E+00  0.00000000000E+00 -0.19103461899E+04  0.19103466121E+04  0.12699999809E+01 0. -1.
    10030    2    1    2    0    0  0.00000000000E+00  0.00000000000E+00 -0.13187470357E+04  0.25019471295E+04  0.21261810117E+04 0.  0.
        5    1    3    3  502    0  0.56572912748E+02  0.84845610674E+02  0.58581899597E+03  0.59464717114E+03  0.46999998093E+01 0.  1.
       -5    1    3    3    0  502 -0.56572912748E+02 -0.84845610674E+02 -0.19045660316E+04  0.19072999583E+04  0.46999998093E+01 0. -1.
</event>
<event>
 5   0  0.1810875E-04  0.2081707E+04  0.7818609E-02  0.8569344E-01
        2   -1    0    0  501    0  0.00000000000E+00  0.00000000000E+00  0.16164753097E+04  0.16164753097E+04  0.25500000920E-02 0.  1.
       -2   -1    0    0    0  501  0.00000000000E+00  0.00000000000E+00 -0.67020906033E+03  0.67020906034E+03  0.25500000920E-02 0. -1.
    10030    2    1    2    0    0  0.00000000000E+00  0.00000000000E+00  0.94626624936E+03  0.22866843700E+04  0.20817073746E+04 0.  0.
        1    1    3    3  502    0  0.79672431647E+03 -0.53715971226E+02  0.12064948908E+04  0.14468189118E+04  0.50400001928E-02 0.  1.
       -1    1    3    3    0  502 -0.79672431647E+03  0.53715971226E+02 -0.26022864146E+03  0.83986545821E+03  0.50400001928E-02 0. -1.
</event>
<event>
 5   0  0.1921687E-04  0.2111787E+04  0.7818609E-02  0.8556069E-01
        2   -1    0    0  501    0  0.00000000000E+00  0.00000000000E+00  0.17273157021E+04  0.17273157021E+04  0.25500000920E-02 0. -1.
       -2   -1    0    0    0  501  0.00000000000E+00  0.00000000000E+00 -0.64545855082E+03  0.64545855083E+03  0.25500000920E-02 0.  1.
    10030    2    1    2    0    0  0.00000000000E+00  0.00000000000E+00  0.10818571512E+04  0.23727742529E+04  0.21117866274E+04 0.  0.
        5    1    3    3  502    0  0.65638017564E+03 -0.17082526975E+03  0.14501815423E+04  0.16009574645E+04  0.46999998093E+01 0. -1.
       -5    1    3    3    0  502 -0.65638017564E+03  0.17082526975E+03 -0.36832439102E+03  0.77181678835E+03  0.46999998093E+01 0.  1.
</event>
<event>
 5   0  0.1777590E-04  0.2110429E+04  0.7818609E-02  0.8556663E-01
        2   -1    0    0  501    0  0.00000000000E+00  0.00000000000E+00  0.21600157256E+04  0.21600157256E+04  0.25500000920E-02 0.  1.
       -2   -1    0    0    0  501  0.00000000000E+00  0.00000000000E+00 -0.51549515190E+03  0.51549515190E+03  0.25500000920E-02 0. -1.
    10030    2    1    2    0    0  0.00000000000E+00  0.00000000000E+00  0.16445205737E+04  0.26755108775E+04  0.21104289939E+04 0.  0.
        4    1    3    3  502    0 -0.72780207391E+03 -0.20104989355E+03 -0.11224002349E+03  0.76335860135E+03  0.12699999809E+01 0. -1.
       -4    1    3    3    0  502  0.72780207391E+03  0.20104989355E+03  0.17567605972E+04  0.19121522762E+04  0.12699999809E+01 0.  1.
</event>
<event>
 5   0  0.8755004E-05  0.2120741E+04  0.7818609E-02  0.8552162E-01
       -1   -1    0    0    0  501  0.00000000000E+00  0.00000000000E+00  0.82910766488E+03  0.82910766489E+03  0.50400001928E-02 0. -1.
        1   -1    0    0  501    0  0.00000000000E+00  0.00000000000E+00 -0.13561391228E+04  0.13561391228E+04  0.50400001928E-02 0.  1.
    10030    2    1    2    0    0  0.00000000000E+00  0.00000000000E+00 -0.52703145794E+03  0.21852467877E+04  0.21207407587E+04 0.  0.
        3    1    3    3  502    0  0.35845244058E+03  0.42984630244E+03 -0.11915370657E+04  0.13164408779E+04  0.10100000352E+00 0.  1.
       -3    1    3    3    0  502 -0.35845244058E+03 -0.42984630244E+03  0.66450560779E+03  0.86880590978E+03  0.10100000352E+00 0. -1.
</event>
<event>
 5   0  0.8755004E-05  0.2097620E+04  0.7818609E-02  0.8562293E-01
       -1   -1    0    0    0  501  0.00000000000E+00  0.00000000000E+00  0.13404291342E+04  0.13404291342E+04  0.50400001928E-02 0. -1.
        1   -1    0    0  501    0  0.00000000000E+00  0.00000000000E+00 -0.82063445577E+03  0.82063445578E+03  0.50400001928E-02 0.  1.
    10030    2    1    2    0    0  0.00000000000E+00  0.00000000000E+00  0.51979467846E+03  0.21610635900E+04  0.20976199208E+04 0.  0.
        3    1    3    3  502    0  0.45514262410E+03  0.89142328422E+03 -0.62969260586E+02  0.10028735802E+04  0.10100000352E+00 0.  1.
       -3    1    3    3    0  502 -0.45514262410E+03 -0.89142328422E+03  0.58276393905E+03  0.11581900098E+04  0.10100000352E+00 0. -1.
</event>
<event>
 5   0  0.1815400E-04  0.2160180E+04  0.7818609E-02  0.8535187E-01
        2   -1    0    0  501    0  0.00000000000E+00  0.00000000000E+00  0.17260490792E+04  0.17260490792E+04  0.25500000920E-02 0. -1.
       -2   -1    0    0    0  501  0.00000000000E+00  0.00000000000E+00 -0.67587557027E+03  0.67587557028E+03  0.25500000920E-02 0.  1.
    10030    2    1    2    0    0  0.00000000000E+00  0.00000000000E+00  0.10501735089E+04  0.24019246495E+04  0.21601799978E+04 0.  0.
        3    1    3    3  502    0 -0.10407410657E+04 -0.22558879356E+03  0.32444292199E+03  0.11132364930E+04  0.10100000352E+00 0.  1.
       -3    1    3    3    0  502  0.10407410657E+04  0.22558879356E+03  0.72573058692E+03  0.12886881564E+04  0.10100000352E+00 0. -1.
</event>
<event>
 5   0  0.1777590E-04  0.1826632E+04  0.7818609E-02  0.8692264E-01
       -2   -1    0    0    0  501  0.00000000000E+00  0.00000000000E+00  0.81046387802E+03  0.81046387802E+03  0.25500000920E-02 0. -1.
        2   -1    0    0  501    0  0.00000000000E+00  0.00000000000E+00 -0.10292209544E+04  0.10292209544E+04  0.25500000920E-02 0.  1.
    10030    2    1    2    0    0  0.00000000000E+00  0.00000000000E+00 -0.21875707636E+03  0.18396848324E+04  0.18266323177E+04 0.  0.
        4    1    3    3  502    0 -0.16179799664E+03  0.88418012932E+03 -0.27237348370E+03  0.93922415872E+03  0.12699999809E+01 0.  1.
       -4    1    3    3    0  502  0.16179799664E+03 -0.88418012932E+03  0.53616407340E+02  0.90046067368E+03  0.12699999809E+01 0. -1.
</event>
<event>
 5   0  0.8271069E-05  0.2086153E+04  0.7818609E-02  0.8567368E-01
        1   -1    0    0  501    0  0.00000000000E+00  0.00000000000E+00  0.10008226633E+04  0.10008226633E+04  0.50400001928E-02 0. -1.
       -1   -1    0    0    0  501  0.00000000000E+00  0.00000000000E+00 -0.10871138282E+04  0.10871138282E+04  0.50400001928E-02 0.  1.
    10030    2    1    2    0    0  0.00000000000E+00  0.00000000000E+00 -0.86291164950E+02  0.20879364915E+04  0.20861525897E+04 0.  0.
        2    1    3    3  502    0 -0.36647612177E+03 -0.16623610966E+03 -0.10062932525E+04  0.10837736396E+04  0.25500000920E-02 0.  1.
       -2    1    3    3    0  502  0.36647612177E+03  0.16623610966E+03  0.92000208754E+03  0.10041628519E+04  0.25500000920E-02 0. -1.
</event>
<event>
 5   0  0.8237966E-05  0.2087398E+04  0.7818609E-02  0.8566815E-01
       -1   -1    0    0    0  501  0.00000000000E+00  0.00000000000E+00  0.10482845478E+04  0.10482845478E+04  0.50400001928E-02 0.  1.
        1   -1    0    0  501    0  0.00000000000E+00  0.00000000000E+00 -0.10391331388E+04  0.10391331388E+04  0.50400001928E-02 0. -1.
    10030    2    1    2    0    0  0.00000000000E+00  0.00000000000E+00  0.91514089841E+01  0.20874176867E+04  0.20873976263E+04 0.  0.
        1    1    3    3  502    0  0.77525291355E+03 -0.47744735215E+01 -0.69419229833E+03  0.10406453876E+04  0.50400001928E-02 0. -1.
       -1    1    3    3    0  502 -0.77525291355E+03  0.47744735215E+01  0.70334370732E+03  0.10467722991E+04  0.50400001928E-02 0.  1.
</event>
<event>
 5   0  0.8271069E-05  0.2035397E+04  0.7818609E-02  0.8590248E-01
        1   -1    0    0  501    0  0.00000000000E+00  0.00000000000E+00  0.23562427700E+04  0.23562427700E+04  0.50400001928E-02 0. -1.
       -1   -1    0    0    0  501  0.00000000000E+00  0.00000000000E+00 -0.43955991307E+03  0.43955991310E+03  0.50400001928E-02 0.  1.
    10030    2    1    2    0    0  0.00000000000E+00  0.00000000000E+00  0.19166828570E+04  0.27958026831E+04  0.20353966368E+04 0.  0.
        2    1    3    3  502    0  0.26377997027E+02 -0.66919696677E+03  0.20109007965E+04  0.21194910692E+04  0.25500000920E-02 0. -1.
       -2    1    3    3    0  502 -0.26377997027E+02  0.66919696677E+03 -0.94217939497E+02  0.67631161397E+03  0.25500000920E-02 0.  1.
</event>
<event>
 5   0  0.1777590E-04  0.1998095E+04  0.7818609E-02  0.8607512E-01
        2   -1    0    0  501    0  0.00000000000E+00  0.00000000000E+00  0.64686755381E+03  0.64686755381E+03  0.25500000920E-02 0.  1.
       -2   -1    0    0    0  501  0.00000000000E+00  0.00000000000E+00 -0.15429679641E+04  0.15429679641E+04  0.25500000920E-02 0. -1.
    10030    2    1    2    0    0  0.00000000000E+00  0.00000000000E+00 -0.89610041033E+03  0.21898355179E+04  0.19980950053E+04 0.  0.
        4    1    3    3  502    0 -0.63794960568E+03  0.54065735675E+03  0.15103518243E+03  0.84976662445E+03  0.12699999809E+01 0.  1.
       -4    1    3    3    0  502  0.63794960568E+03 -0.54065735675E+03 -0.10471355928E+04  0.13400688935E+04  0.12699999809E+01 0. -1.
</event>
<event>
 5   0  0.1777590E-04  0.2054989E+04  0.7818609E-02  0.8581335E-01
        2   -1    0    0  501    0  0.00000000000E+00  0.00000000000E+00  0.60214778883E+03  0.60214778884E+03  0.25500000920E-02 0. -1.
       -2   -1    0    0    0  501  0.00000000000E+00  0.00000000000E+00 -0.17532980545E+04  0.17532980545E+04  0.25500000920E-02 0.  1.
    10030    2    1    2    0    0  0.00000000000E+00  0.00000000000E+00 -0.11511502657E+04  0.23554458434E+04  0.20549886099E+04 0.  0.
        4    1    3    3  502    0 -0.73424251112E+03  0.33172619453E+03 -0.13064470978E+04  0.15349136671E+04  0.12699999809E+01 0.  1.
       -4    1    3    3    0  502  0.73424251112E+03 -0.33172619453E+03  0.15529683211E+03  0.82053217624E+03  0.12699999809E+01 0. -1.
</event>
<event>
 5   0  0.1921687E-04  0.2154761E+04  0.7818609E-02  0.8537497E-01
       -2   -1    0    0    0  501  0.00000000000E+00  0.00000000000E+00  0.93529546504E+03  0.93529546505E+03  0.25500000920E-02 0.  1.
        2   -1    0    0  501    0  0.00000000000E+00  0.00000000000E+00 -0.12410506308E+04  0.12410506308E+04  0.25500000920E-02 0. -1.
    10030    2    1    2    0    0  0.00000000000E+00  0.00000000000E+00 -0.30575516579E+03  0.21763460959E+04  0.21547612647E+04 0.  0.
        5    1    3    3  502    0 -0.68985051175E+03  0.80384429404E+03  0.45732906225E+02  0.10602702327E+04  0.46999998093E+01 0.  1.
       -5    1    3    3    0  502  0.68985051175E+03 -0.80384429404E+03 -0.35148807201E+03  0.11160758632E+04  0.46999998093E+01 0. -1.
</event>
<event>
 5   0  0.8755004E-05  0.2001471E+04  0.7818609E-02  0.8605933E-01
        1   -1    0    0  501    0  0.00000000000E+00  0.00000000000E+00  0.50324431644E+03  0.50324431647E+03  0.50400001928E-02 0. -1.
       -1   -1    0    0    0  501  0.00000000000E+00  0.00000000000E+00 -0.19900313372E+04  0.19900313372E+04  0.50400001928E-02 0.  1.
    10030    2    1    2    0    0  0.00000000000E+00  0.00000000000E+00 -0.14867870208E+04  0.24932756537E+04  0.20014714188E+04 0.  0.
        3    1    3    3  502    0 -0.22002480497E+03 -0.22178627157E+03  0.44094088551E+03  0.54039702051E+03  0.10100000352E+00 0. -1.
       -3    1    3    3    0  502  0.22002480497E+03  0.22178627157E+03 -0.19277279063E+04  0.19528786332E+04  0.10100000352E+00 0.  1.
</event>
<event>
 5   0  0.8271069E-05  0.1947146E+04  0.7818609E-02  0.8631738E-01
       -1   -1    0    0    0  501  0.00000000000E+00  0.00000000000E+00  0.64097666873E+03  0.64097666875E+03  0.50400001928E-02 0. -1.
        1   -1    0    0  501    0  0.00000000000E+00  0.00000000000E+00 -0.14787498526E+04  0.14787498526E+04  0.50400001928E-02 0.  1.
    10030    2    1    2    0    0  0.00000000000E+00  0.00000000000E+00 -0.83777318383E+03  0.21197265213E+04  0.19471457618E+04 0.  0.
        2    1    3    3  502    0 -0.95672033709E+02 -0.48800322248E+03  0.49228262469E+03  0.69974457180E+03  0.25500000920E-02 0. -1.
       -2    1    3    3    0  502  0.95672033709E+02  0.48800322248E+03 -0.13300558085E+04  0.14199819495E+04  0.25500000920E-02 0.  1.
</event>
<event>
 5   0  0.1810875E-04  0.2061076E+04  0.7818609E-02  0.8578586E-01
        2   -1    0    0  501    0  0.00000000000E+00  0.00000000000E+00  0.78801250034E+03  0.78801250035E+03  0.25500000920E-02 0.  1.
       -2   -1    0    0    0  501  0.00000000000E+00  0.00000000000E+00 -0.13477055874E+04  0.13477055874E+04  0.25500000920E-02 0. -1.
    10030    2    1    2    0    0  0.00000000000E+00  0.00000000000E+00 -0.55969308710E+03  0.21357180878E+04  0.20610762719E+04 0.  0.
        1    1    3    3  502    0 -0.74003543344E+03 -0.69383279067E+03 -0.91744367636E+02  0.10185643883E+04  0.50400001928E-02 0.  1.
       -1    1    3    3    0  502  0.74003543344E+03  0.69383279067E+03 -0.46794871947E+03  0.11171536995E+04  0.50400001928E-02 0. -1.
</event>
<event>
 5   0  0.8525278E-05  0.2129928E+04  0.7818609E-02  0.8548173E-01
       -1   -1    0    0    0  501  0.00000000000E+00  0.00000000000E+00  0.87238863602E+03  0.87238863603E+03  0.50400001928E-02 0.  1.
        1   -1    0    0  501    0  0.00000000000E+00  0.00000000000E+00 -0.13000493472E+04  0.13000493472E+04  0.50400001928E-02 0. -1.
    10030    2    1    2    0    0  0.00000000000E+00  0.00000000000E+00 -0.42766071114E+03  0.21724379832E+04  0.21299279582E+04 0.  0.
        4    1    3    3  502    0 -0.67653185188E+03  0.58326960610E+03 -0.80527247989E+03  0.12026488098E+04  0.12699999809E+01 0. -1.
       -4    1    3    3    0  502  0.67653185188E+03 -0.58326960610E+03  0.37761176875E+03  0.96978917338E+03  0.12699999809E+01 0.  1.
</event>
<event>
 5   0  0.1777590E-04  0.2075818E+04  0.7818609E-02  0.8571971E-01
       -2   -1    0    0    0  501  0.00000000000E+00  0.00000000000E+00  0.59846466531E+03  0.59846466531E+03  0.25500000920E-02 0.  1.
        2   -1    0    0  501    0  0.00000000000E+00  0.00000000000E+00 -0.18000318422E+04  0.18000318422E+04  0.25500000920E-02 0. -1.
    10030    2    1    2    0    0  0.00000000000E+00  0.00000000000E+00 -0.12015671769E+04  0.23984965076E+04  0.20758183485E+04 0.  0.
        4    1    3    3  502    0 -0.18512034448E+03  0.40288515017E+01 -0.17807923989E+04  0.17903935194E+04  0.12699999809E+01 0. -1.
       -4    1    3    3    0  502  0.18512034448E+03 -0.40288515017E+01  0.57922522193E+03  0.60810298815E+03  0.12699999809E+01 0.  1.
</event>
<event>
 5   0  0.1886323E-04  0.2081213E+04  0.7818609E-02  0.8569565E-01
        2   -1    0    0  501    0  0.00000000000E+00  0.00000000000E+00  0.11013241566E+04  0.11013241566E+04  0.25500000920E-02 0. -1.
       -2   -1    0    0    0  501  0.00000000000E+00  0.00000000000E+00 -0.98323635660E+03  0.98323635660E+03  0.25500000920E-02 0.  1.
    10030    2    1    2    0    0  0.00000000000E+00  0.00000000000E+00  0.11808779996E+03  0.20845605132E+04  0.20812130608E+04 0.  0.
        2    1    3    3  502    0 -0.10360296844E+03  0.40801432956E+03  0.10122324201E+04  0.10962772188E+04  0.25500000920E-02 0. -1.
       -2    1    3    3    0  502  0.10360296844E+03 -0.40801432956E+03 -0.89414462012E+03  0.98828329435E+03  0.25500000920E-02 0.  1.
</event>
<event>
 5   0  0.8525278E-05  0.2067733E+04  0.7818609E-02  0.8575592E-01
        1   -1    0    0  501    0  0.00000000000E+00  0.00000000000E+00  0.83467819020E+03  0.83467819021E+03  0.50400001928E-02 0. -1.
       -1   -1    0    0    0  501  0.00000000000E+00  0.00000000000E+00 -0.12805890602E+04  0.12805890602E+04  0.50400001928E-02 0.  1.
    10030    2    1    2    0    0  0.00000000000E+00  0.00000000000E+00 -0.44591087001E+03  0.21152672504E+04  0.20677328253E+04 0.  0.
        4    1    3    3  502    0 -0.90891780585E+03 -0.26559748921E+03 -0.64747051727E+03  0.11471239199E+04  0.12699999809E+01 0.  1.
       -4    1    3    3    0  502  0.90891780585E+03  0.26559748921E+03  0.20155964726E+03  0.96814333049E+03  0.12699999809E+01 0. -1.
</event>
<event>
 5   0  0.1777590E-04  0.2046914E+04  0.7818609E-02  0.8584996E-01
        2   -1    0    0  501    0  0.00000000000E+00  0.00000000000E+00  0.16710066067E+04  0.16710066067E+04  0.25500000920E-02 0. -1.
       -2   -1    0    0    0  501  0.00000000000E+00  0.00000000000E+00 -0.62684606365E+03  0.62684606366E+03  0.25500000920E-02 0.  1.
    10030    2    1    2    0    0  0.00000000000E+00  0.00000000000E+00  0.10441605430E+04  0.22978526703E+04  0.20469136902E+04 0.  0.
        4    1    3    3  502    0  0.20007664959E+03 -0.89704658552E+02 -0.60016814032E+03  0.63896870114E+03  0.12699999809E+01 0.  1.
       -4    1    3    3    0  502 -0.20007664959E+03  0.89704658552E+02  0.16443286833E+04  0.16588839692E+04  0.12699999809E+01 0. -1.
</event>
<event>
 5   0  0.8755004E-05  0.2089707E+04  0.7818609E-02  0.8565791E-01
       -1   -1    0    0    0  501  0.00000000000E+00  0.00000000000E+00  0.81871384555E+03  0.81871384556E+03  0.50400001928E-02 0. -1.
        1   -1    0    0  501    0  0.00000000000E+00  0.00000000000E+00 -0.13334560088E+04  0.13334560088E+04  0.50400001928E-02 0.  1.
    10030    2    1    2    0    0  0.00000000000E+00  0.00000000000E+00 -0.51474216323E+03  0.21521698543E+04  0.20897070578E+04 0.  0.
        3    1    3    3  502    0 -0.13126932548E+03 -0.26678228392E+03  0.77422496931E+03  0.82935440925E+03  0.10100000352E+00 0. -1.
       -3    1    3    3    0  502  0.13126932548E+03  0.26678228392E+03 -0.12889671325E+04  0.13228154451E+04  0.10100000352E+00 0.  1.
</event>
<event>
 5   0  0.1921687E-04  0.2090716E+04  0.7818609E-02  0.8565344E-01
       -2   -1    0    0    0  501  0.00000000000E+00  0.00000000000E+00  0.66412748584E+03  0.66412748585E+03  0.25500000920E-02 0.  1.
        2   -1    0    0  501    0  0.00000000000E+00  0.00000000000E+00 -0.16454274773E+04  0.16454274773E+04  0.25500000920E-02 0. -1.
    10030    2    1    2    0    0  0.00000000000E+00  0.00000000000E+00 -0.98129999151E+03  0.23095549632E+04  0.20907162540E+04 0.  0.
        5    1    3    3  502    0  0.91141693342E+03  0.32388863164E+02 -0.10550298188E+04  0.13945751588E+04  0.46999998093E+01 0. -1.
       -5    1    3    3    0  502 -0.91141693342E+03 -0.32388863164E+02  0.73729827317E+02  0.91497980438E+03  0.46999998093E+01 0.  1.
</event>
<event>
 5   0  0.1921687E-04  0.2023445E+04  0.7818609E-02  0.8595737E-01
        2   -1    0    0  501    0  0.00000000000E+00  0.00000000000E+00  0.13371114995E+04  0.13371114995E+04  0.25500000920E-02 0. -1.
       -2   -1    0    0    0  501  0.00000000000E+00  0.00000000000E+00 -0.76551783169E+03  0.76551783169E+03  0.25500000920E-02 0.  1.
    10030    2    1    2    0    0  0.00000000000E+00  0.00000000000E+00  0.57159366783E+03  0.21026293312E+04  0.20234452756E+04 0.  0.
        5    1    3    3  502    0 -0.95121899812E+02 -0.51135690326E+03 -0.61593291717E+03  0.80618205561E+03  0.46999998093E+01 0.  1.
       -5    1    3    3    0  502  0.95121899812E+02  0.51135690326E+03  0.11875265850E+04  0.12964472756E+04  0.46999998093E+01 0. -1.
</event>
<event>
 5   0  0.1810875E-04  0.2069651E+04  0.7818609E-02  0.8574731E-01
       -2   -1    0    0    0  501  0.00000000000E+00  0.00000000000E+00  0.51829884120E+03  0.51829884121E+03  0.25500000920E-02 0. -1.
        2   -1    0    0  501    0  0.00000000000E+00  0.00000000000E+00 -0.20661124661E+04  0.20661124661E+04  0.25500000920E-02 0.  1.
    10030    2    1    2    0    0  0.00000000000E+00  0.00000000000E+00 -0.15478136248E+04  0.25844113073E+04  0.20696508855E+04 0.  0.
        1    1    3    3  502    0 -0.52382881023E+03  0.85560520195E+03 -0.10908127990E+04  0.14820018376E+04  0.50400001928E-02 0. -1.
       -1    1    3    3    0  502  0.52382881023E+03 -0.85560520195E+03 -0.45700082582E+03  0.11024094697E+04  0.50400001928E-02 0.  1.
</event>
<event>
 5   0  0.8525278E-05  0.2038068E+04  0.7818609E-02  0.8589027E-01
        1   -1    0    0  501    0  0.00000000000E+00  0.00000000000E+00  0.19579321871E+04  0.19579321871E+04  0.50400001928E-02 0. -1.
       -1   -1    0    0    0  501  0.00000000000E+00  0.00000000000E+00 -0.53037074606E+03  0.53037074609E+03  0.50400001928E-02 0.  1.
    10030    2    1    2    0    0  0.00000000000E+00  0.00000000000E+00  0.14275614410E+04  0.24883029332E+04  0.20380676680E+04 0.  0.
        4    1    3    3  502    0  0.10029320136E+03 -0.87799991425E+03  0.13333091855E+04  0.15995804365E+04  0.12699999809E+01 0. -1.
       -4    1    3    3    0  502 -0.10029320136E+03  0.87799991425E+03  0.94252255552E+02  0.88872249675E+03  0.12699999809E+01 0.  1.
</event>
<event>
 5   0  0.8755004E-05  0.1535150E+04  0.7818609E-02  0.8861409E-01
       -1   -1    0    0    0  501  0.00000000000E+00  0.00000000000E+00  0.10063763217E+04  0.10063763217E+04  0.50400001928E-02 0. -1.
        1   -1    0    0  501    0  0.00000000000E+00  0.00000000000E+00 -0.58543835387E+03  0.58543835389E+03  0.50400001928E-02 0.  1.
    10030    2    1    2    0    0  0.00000000000E+00  0.00000000000E+00  0.42093796780E+03  0.15918146756E+04  0.15351498913E+04 0.  0.
        3    1    3    3  502    0  0.57134165777E+02  0.47438027363E+02 -0.58170471903E+03  0.58642567276E+03  0.10100000352E+00 0.  1.
       -3    1    3    3    0  502 -0.57134165777E+02 -0.47438027363E+02  0.10026426868E+04  0.10053890028E+04  0.10100000352E+00 0. -1.
</event>
<event>
 5   0  0.8755004E-05  0.2083840E+04  0.7818609E-02  0.8568396E-01
        1   -1    0    0  501    0  0.00000000000E+00  0.00000000000E+00  0.13199629361E+04  0.13199629361E+04  0.50400001928E-02 0.  1.
       -1   -1    0    0    0  501  0.00000000000E+00  0.00000000000E+00 -0.82244508240E+03  0.82244508241E+03  0.50400001928E-02 0. -1.
    10030    2    1    2    0    0  0.00000000000E+00  0.00000000000E+00  0.49751785366E+03  0.21424080185E+04  0.20838397498E+04 0.  0.
        3    1    3    3  502    0 -0.75853094365E+03 -0.63160893749E+03  0.59174895570E+03  0.11508544127E+04  0.10100000352E+00 0. -1.
       -3    1    3    3    0  502  0.75853094365E+03  0.63160893749E+03 -0.94231102039E+02  0.99155360581E+03  0.10100000352E+00 0.  1.
</event>
<event>
 5   0  0.1777590E-04  0.2094434E+04  0.7818609E-02  0.8563699E-01
        2   -1    0    0  501    0  0.00000000000E+00  0.00000000000E+00  0.16925584117E+04  0.16925584117E+04  0.25500000920E-02 0.  1.
       -2   -1    0    0    0  501  0.00000000000E+00  0.00000000000E+00 -0.64793262012E+03  0.64793262012E+03  0.25500000920E-02 0. -1.
    10030    2    1    2    0    0  0.00000000000E+00  0.00000000000E+00  0.10446257916E+04  0.23404910319E+04  0.20944343450E+04 0.  0.
        4    1    3    3  502    0 -0.76511496404E+03  0.36149129274E+03  0.12117049171E+04  0.14779402160E+04  0.12699999809E+01 0.  1.
       -4    1    3    3    0  502  0.76511496404E+03 -0.36149129274E+03 -0.16707912549E+03  0.86255081589E+03  0.12699999809E+01 0. -1.
</event>
<event>
 5   0  0.8486612E-05  0.2063224E+04  0.7818609E-02  0.8577619E-01
       -1   -1    0    0    0  501  0.00000000000E+00  0.00000000000E+00  0.85938275611E+03  0.85938275612E+03  0.50400001928E-02 0. -1.
        1   -1    0    0  501    0  0.00000000000E+00  0.00000000000E+00 -0.12383577100E+04  0.12383577100E+04  0.50400001928E-02 0.  1.
    10030    2    1    2    0    0  0.00000000000E+00  0.00000000000E+00 -0.37897495385E+03  0.20977404661E+04  0.20632239451E+04 0.  0.
        5    1    3    3  502    0  0.56325059296E+01  0.87066965609E+03 -0.75200977809E+03  0.11504947507E+04  0.46999998093E+01 0.  1.
       -5    1    3    3    0  502 -0.56325059296E+01 -0.87066965609E+03  0.37303482423E+03  0.94724571535E+03  0.46999998093E+01 0. -1.
</event>
<event>
 5   0  0.8525278E-05  0.1962609E+04  0.7818609E-02  0.8624305E-01
        1   -1    0    0  501    0  0.00000000000E+00  0.00000000000E+00  0.90409605811E+03  0.90409605813E+03  0.50400001928E-02 0.  1.
       -1   -1    0    0    0  501  0.00000000000E+00  0.00000000000E+00 -0.10651060430E+04  0.10651060430E+04  0.50400001928E-02 0. -1.
    10030    2    1    2    0    0  0.00000000000E+00  0.00000000000E+00 -0.16100998492E+03  0.19692021012E+04  0.19626086467E+04 0.  0.
        4    1    3    3  502    0  0.85593048272E+02  0.73758849368E+03 -0.72421593592E+03  0.10372334793E+04  0.12699999809E+01 0. -1.
       -4    1    3    3    0  502 -0.85593048272E+02 -0.73758849368E+03  0.56320595100E+03  0.93196862183E+03  0.12699999809E+01 0.  1.
</event>
<event>
 5   0  0.8271069E-05  0.2059343E+04  0.7818609E-02  0.8579368E-01
       -1   -1    0    0    0  501  0.00000000000E+00  0.00000000000E+00  0.86149412383E+03  0.86149412385E+03  0.50400001928E-02 0.  1.
        1   -1    0    0  501    0  0.00000000000E+00  0.00000000000E+00 -0.12306793215E+04  0.12306793215E+04  0.50400001928E-02 0. -1.
    10030    2    1    2    0    0  0.00000000000E+00  0.00000000000E+00 -0.36918519764E+03  0.20921734453E+04  0.20593426172E+04 0.  0.
        2    1    3    3  502    0 -0.52253390158E+03  0.14149360940E+03  0.70524817911E+03  0.88906530353E+03  0.25500000920E-02 0.  1.
       -2    1    3    3    0  502  0.52253390158E+03 -0.14149360940E+03 -0.10744333767E+04  0.12031081418E+04  0.25500000920E-02 0. -1.
</event>
<event>
 5   0  0.1815400E-04  0.2099881E+04  0.7818609E-02  0.8561296E-01
        2   -1    0    0  501    0  0.00000000000E+00  0.00000000000E+00  0.10923819695E+04  0.10923819695E+04  0.25500000920E-02 0. -1.
       -2   -1    0    0    0  501  0.00000000000E+00  0.00000000000E+00 -0.10091476738E+04  0.10091476738E+04  0.25500000920E-02 0.  1.
    10030    2    1    2    0    0  0.00000000000E+00  0.00000000000E+00  0.83234295722E+02  0.21015296433E+04  0.20998806856E+04 0.  0.
        3    1    3    3  502    0 -0.64639642547E+03  0.34579010558E+03 -0.71062166660E+03  0.10209712529E+04  0.10100000352E+00 0.  1.
       -3    1    3    3    0  502  0.64639642547E+03 -0.34579010558E+03  0.79385596232E+03  0.10805583904E+04  0.10100000352E+00 0. -1.
</event>
<event>
 5   0  0.1777590E-04  0.1660178E+04  0.7818609E-02  0.8784408E-01
        2   -1    0    0  501    0  0.00000000000E+00  0.00000000000E+00  0.41983612164E+03  0.41983612165E+03  0.25500000920E-02 0.  1.
       -2   -1    0    0    0  501  0.00000000000E+00  0.00000000000E+00 -0.16412295551E+04  0.16412295551E+04  0.25500000920E-02 0. -1.
    10030    2    1    2    0    0  0.00000000000E+00  0.00000000000E+00 -0.12213934335E+04  0.20610656768E+04  0.16601776425E+04 0.  0.
        4    1    3    3  502    0 -0.46048388928E+03 -0.34412259820E+03 -0.13541100395E+04  0.14710817064E+04  0.12699999809E+01 0. -1.
       -4    1    3    3    0  502  0.46048388928E+03  0.34412259820E+03  0.13271660604E+03  0.58998397037E+03  0.12699999809E+01 0.  1.
</event>
<event>
 5   0  0.1810875E-04  0.2079142E+04  0.7818609E-02  0.8570488E-01
       -2   -1    0    0    0  501  0.00000000000E+00  0.00000000000E+00  0.16990868988E+04  0.16990868988E+04  0.25500000920E-02 0. -1.
        2   -1    0    0  501    0  0.00000000000E+00  0.00000000000E+00 -0.63605215079E+03  0.63605215079E+03  0.25500000920E-02 0.  1.
    10030    2    1    2    0    0  0.00000000000E+00  0.00000000000E+00  0.10630347480E+04  0.23351390496E+04  0.20791420118E+04 0.  0.
        1    1    3    3  502    0 -0.89188613052E+03  0.31199403944E+03  0.10183725091E+04  0.13892025474E+04  0.50400001928E-02 0. -1.
       -1    1    3    3    0  502  0.89188613052E+03 -0.31199403944E+03  0.44662238867E+02  0.94593650213E+03  0.50400001928E-02 0.  1.
</event>
<event>
 5   0  0.1815400E-04  0.1933380E+04  0.7818609E-02  0.8638417E-01
        2   -1    0    0  501    0  0.00000000000E+00  0.00000000000E+00  0.45613792777E+03  0.45613792778E+03  0.25500000920E-02 0. -1.
       -2   -1    0    0    0  501  0.00000000000E+00  0.00000000000E+00 -0.20486999526E+04  0.20486999526E+04  0.25500000920E-02 0.  1.
    10030    2    1    2    0    0  0.00000000000E+00  0.00000000000E+00 -0.15925620248E+04  0.25048378804E+04  0.19333802016E+04 0.  0.
        3    1    3    3  502    0  0.65517021819E+03  0.12718544477E+03  0.10975593590E+03  0.67636567612E+03  0.10100000352E+00 0. -1.
       -3    1    3    3    0  502 -0.65517021819E+03 -0.12718544477E+03 -0.17023179607E+04  0.18284722043E+04  0.10100000352E+00 0.  1.
</event>
<event>
 5   0  0.8486612E-05  0.2138839E+04  0.7818609E-02  0.8544325E-01
       -1   -1    0    0    0  501  0.00000000000E+00  0.00000000000E+00  0.13220683095E+04  0.13220683095E+04  0.50400001928E-02 0.  1.
        1   -1    0    0  501    0  0.00000000000E+00  0.00000000000E+00 -0.86505248876E+03  0.86505248877E+03  0.50400001928E-02 0. -1.
    10030    2    1    2    0    0  0.00000000000E+00  0.00000000000E+00  0.45701582072E+03  0.21871207983E+04  0.21388393876E+04 0.  0.
        5    1    3    3  502    0 -0.99909089367E+03  0.37470326529E+03  0.30118434709E+03  0.11087467032E+04  0.46999998093E+01 0. -1.
       -5    1    3    3    0  502  0.99909089367E+03 -0.37470326529E+03  0.15583147363E+03  0.10783740951E+04  0.46999998093E+01 0.  1.
</event>
<event>
 5   0  0.8525278E-05  0.2076568E+04  0.7818609E-02  0.8571636E-01
        1   -1    0    0  501    0  0.00000000000E+00  0.00000000000E+00  0.48688653063E+03  0.48688653065E+03  0.50400001928E-02 0. -1.
       -1   -1    0    0    0  501  0.00000000000E+00  0.00000000000E+00 -0.22141376400E+04  0.22141376400E+04  0.50400001928E-02 0.  1.
    10030    2    1    2    0    0  0.00000000000E+00  0.00000000000E+00 -0.17272511094E+04  0.27010241707E+04  0.20765681245E+04 0.  0.
        4    1    3    3  502    0  0.58726608871E+03  0.35190370570E+03 -0.18789457984E+04  0.19997891397E+04  0.12699999809E+01 0. -1.
       -4    1    3    3    0  502 -0.58726608871E+03 -0.35190370570E+03  0.15169468905E+03  0.70123503094E+03  0.12699999809E+01 0.  1.
</event>
<event>
 5   0  0.8486612E-05  0.2112189E+04  0.7818609E-02  0.8555893E-01
       -1   -1    0    0    0  501  0.00000000000E+00  0.00000000000E+00  0.58910355970E+03  0.58910355972E+03  0.50400001928E-02 0. -1.
        1   -1    0    0  501    0  0.00000000000E+00  0.00000000000E+00 -0.18932758759E+04  0.18932758759E+04  0.50400001928E-02 0.  1.
    10030    2    1    2    0    0  0.00000000000E+00  0.00000000000E+00 -0.13041723162E+04  0.24823794356E+04  0.21121889669E+04 0.  0.
        5    1    3    3  502    0  0.22347145036E+03 -0.98637605297E+03 -0.10094055450E+04  0.14289152709E+04  0.46999998093E+01 0. -1.
       -5    1    3    3    0  502 -0.22347145036E+03  0.98637605297E+03 -0.29476677116E+03  0.10534641647E+04  0.46999998093E+01 0.  1.
</event>
<event>
 5   0  0.8237966E-05  0.2058488E+04  0.7818609E-02  0.8579754E-01
       -1   -1    0    0    0  501  0.00000000000E+00  0.00000000000E+00  0.90272269899E+03  0.90272269901E+03  0.50400001928E-02 0. -1.
        1   -1    0    0  501    0  0.00000000000E+00  0.00000000000E+00 -0.11734974031E+04  0.11734974031E+04  0.50400001928E-02 0.  1.
    10030    2    1    2    0    0  0.00000000000E+00  0.00000000000E+00 -0.27077470406E+03  0.20762201021E+04  0.20584875448E+04 0.  0.
        1    1    3    3  502    0  0.28107469214E+03 -0.98808938187E+03 -0.19933011253E+03  0.10464492835E+04  0.50400001928E-02 0.  1.
       -1    1    3    3    0  502 -0.28107469214E+03  0.98808938187E+03 -0.71444591536E+02  0.10297708186E+04  0.50400001928E-02 0. -1.
</event>
<event>
 5   0  0.1777590E-04  0.2068497E+04  0.7818609E-02  0.8575249E-01
       -2   -1    0    0    0  501  0.00000000000E+00  0.00000000000E+00  0.73072216407E+03  0.73072216407E+03  0.25500000920E-02 0.  1.
        2   -1    0    0  501    0  0.00000000000E+00  0.00000000000E+00 -0.14638528172E+04  0.14638528172E+04  0.25500000920E-02 0. -1.
    10030    2    1    2    0    0  0.00000000000E+00  0.00000000000E+00 -0.73313065311E+03  0.21945749812E+04  0.20684967473E+04 0.  0.
        4    1    3    3  502    0  0.43835834054E+03 -0.28741156839E+03 -0.13124824729E+04  0.14132852857E+04  0.12699999809E+01 0. -1.
       -4    1    3    3    0  502 -0.43835834054E+03  0.28741156839E+03  0.57935181976E+03  0.78128969552E+03  0.12699999809E+01 0.  1.
</event>
<event>
 5   0  0.1810875E-04  0.2207459E+04  0.7818609E-02  0.8515330E-01
       -2   -1    0    0    0  501  0.00000000000E+00  0.00000000000E+00  0.91836303498E+03  0.91836303499E+03  0.25500000920E-02 0. -1.
        2   -1    0    0  501    0  0.00000000000E+00  0.00000000000E+00 -0.13265115537E+04  0.13265115537E+04  0.25500000920E-02 0.  1.
    10030    2    1    2    0    0  0.00000000000E+00  0.00000000000E+00 -0.40814851871E+03  0.22448745887E+04  0.22074593327E+04 0.  0.
        1    1    3    3  502    0 -0.75814551937E+03 -0.43671307416E+03  0.48017196358E+03  0.99803208982E+03  0.50400001928E-02 0. -1.
       -1    1    3    3    0  502  0.75814551937E+03  0.43671307416E+03 -0.88832048229E+03  0.12468424989E+04  0.50400001928E-02 0.  1.
</event>
<event>
 5   0  0.1886323E-04  0.2091135E+04  0.7818609E-02  0.8565159E-01
       -2   -1    0    0    0  501  0.00000000000E+00  0.00000000000E+00  0.62291196029E+03  0.62291196029E+03  0.25500000920E-02 0. -1.
        2   -1    0    0  501    0  0.00000000000E+00  0.00000000000E+00 -0.17550014863E+04  0.17550014864E+04  0.25500000920E-02 0.  1.
    10030    2    1    2    0    0  0.00000000000E+00  0.00000000000E+00 -0.11320895261E+04  0.23779134466E+04  0.20911350183E+04 0.  0.
        2    1    3    3  502    0  0.28604016102E+03 -0.29724913583E+03  0.52645951208E+03  0.66883154855E+03  0.25500000920E-02 0. -1.
       -2    1    3    3    0  502 -0.28604016102E+03  0.29724913583E+03 -0.16585490381E+04  0.17090818981E+04  0.25500000920E-02 0.  1.
</event>
<event>
 5   0  0.8755004E-05  0.2192135E+04  0.7818609E-02  0.8521709E-01
       -1   -1    0    0    0  501  0.00000000000E+00  0.00000000000E+00  0.12806801964E+04  0.12806801964E+04  0.50400001928E-02 0.  1.
        1   -1    0    0  501    0  0.00000000000E+00  0.00000000000E+00 -0.93806704123E+03  0.93806704124E+03  0.50400001928E-02 0. -1.
    10030    2    1    2    0    0  0.00000000000E+00  0.00000000000E+00  0.34261315512E+03  0.22187472376E+04  0.21921349252E+04 0.  0.
        3    1    3    3  502    0  0.96886042622E+03  0.40517717051E+02 -0.34580843036E+03  0.10295220695E+04  0.10100000352E+00 0. -1.
       -3    1    3    3    0  502 -0.96886042622E+03 -0.40517717051E+02  0.68842158548E+03  0.11892251681E+04  0.10100000352E+00 0.  1.
</event>
<event>
 5   0  0.1815400E-04  0.2111599E+04  0.7818609E-02  0.8556151E-01
        2   -1    0    0  501    0  0.00000000000E+00  0.00000000000E+00  0.28123209673E+04  0.28123209673E+04  0.25500000920E-02 0.  1.
       -2   -1    0    0    0  501  0.00000000000E+00  0.00000000000E+00 -0.39636734738E+03  0.39636734738E+03  0.25500000920E-02 0. -1.
    10030    2    1    2    0    0  0.00000000000E+00  0.00000000000E+00  0.24159536199E+04  0.32086883147E+04  0.21115986378E+04 0.  0.
        3    1    3    3  502    0 -0.65312968432E+03  0.27513460073E+01 -0.52544575336E+02  0.65524567686E+03  0.10100000352E+00 0. -1.
       -3    1    3    3    0  502  0.65312968432E+03 -0.27513460073E+01  0.24684981953E+04  0.25534426378E+04  0.10100000352E+00 0.  1.
</event>
<event>
 5   0  0.1921687E-04  0.2092025E+04  0.7818609E-02  0.8564765E-01
        2   -1    0    0  501    0  0.00000000000E+00  0.00000000000E+00  0.17523452774E+04  0.17523452774E+04  0.25500000920E-02 0.  1.
       -2   -1    0    0    0  501  0.00000000000E+00  0.00000000000E+00 -0.62438714284E+03  0.62438714285E+03  0.25500000920E-02 0. -1.
    10030    2    1    2    0    0  0.00000000000E+00  0.00000000000E+00  0.11279581345E+04  0.23767324202E+04  0.20920247236E+04 0.  0.
        5    1    3    3  502    0  0.76570985834E+03  0.52221510783E+03  0.11148367240E+04  0.14497941982E+04  0.46999998093E+01 0.  1.
       -5    1    3    3    0  502 -0.76570985834E+03 -0.52221510783E+03  0.13121410540E+02  0.92693822201E+03  0.46999998093E+01 0. -1.
</event>
<event>
 5   0  0.1810875E-04  0.2106533E+04  0.7818609E-02  0.8558371E-01
        2   -1    0    0  501    0  0.00000000000E+00  0.00000000000E+00  0.94281181790E+03  0.94281181790E+03  0.25500000920E-02 0.  1.
       -2   -1    0    0    0  501  0.00000000000E+00  0.00000000000E+00 -0.11766615365E+04  0.11766615365E+04  0.25500000920E-02 0. -1.
    10030    2    1    2    0    0  0.00000000000E+00  0.00000000000E+00 -0.23384971859E+03  0.21194733544E+04  0.21065330781E+04 0.  0.
        1    1    3    3  502    0 -0.96452852572E+02  0.38548363299E+03 -0.10983499134E+04  0.11680211113E+04  0.50400001928E-02 0. -1.
       -1    1    3    3    0  502  0.96452852572E+02 -0.38548363299E+03  0.86450019482E+03  0.95145224312E+03  0.50400001928E-02 0.  1.
</event>
<event>
 5   0  0.8755004E-05  0.2117655E+04  0.7818609E-02  0.8553506E-01
       -1   -1    0    0    0  501  0.00000000000E+00  0.00000000000E+00  0.85852420778E+03  0.85852420780E+03  0.50400001928E-02 0. -1.
        1   -1    0    0  501    0  0.00000000000E+00  0.00000000000E+00 -0.13058639199E+04  0.13058639199E+04  0.50400001928E-02 0.  1.
    10030    2    1    2    0    0  0.00000000000E+00  0.00000000000E+00 -0.44733971216E+03  0.21643881277E+04  0.21176551064E+04 0.  0.
        3    1    3    3  502    0 -0.39311742694E+03  0.53483732006E+03  0.61947361021E+03  0.90793162421E+03  0.10100000352E+00 0. -1.
       -3    1    3    3    0  502  0.39311742694E+03 -0.53483732006E+03 -0.10668133224E+04  0.12564565035E+04  0.10100000352E+00 0.  1.
</event>
<event>
 5   0  0.8525278E-05  0.2001178E+04  0.7818609E-02  0.8606070E-01
       -1   -1    0    0    0  501  0.00000000000E+00  0.00000000000E+00  0.16012040552E+04  0.16012040552E+04  0.50400001928E-02 0. -1.
        1   -1    0    0  501    0  0.00000000000E+00  0.00000000000E+00 -0.62526565047E+03  0.62526565049E+03  0.50400001928E-02 0.  1.
    10030    2    1    2    0    0  0.00000000000E+00  0.00000000000E+00  0.97593840473E+03  0.22264697057E+04  0.20011775485E+04 0.  0.
        4    1    3    3  502    0  0.65046796528E+03  0.12355071634E+03  0.13226287064E+04  0.14790948790E+04  0.12699999809E+01 0. -1.
       -4    1    3    3    0  502 -0.65046796528E+03 -0.12355071634E+03 -0.34669030165E+03  0.74737482666E+03  0.12699999809E+01 0.  1.
</event>
<event>
 5   0  0.8755004E-05  0.2053541E+04  0.7818609E-02  0.8581990E-01
        1   -1    0    0  501    0  0.00000000000E+00  0.00000000000E+00  0.20995362849E+04  0.20995362849E+04  0.50400001928E-02 0. -1.
       -1   -1    0    0    0  501  0.00000000000E+00  0.00000000000E+00 -0.50213833778E+03  0.50213833781E+03  0.50400001928E-02 0.  1.
    10030    2    1    2    0    0  0.00000000000E+00  0.00000000000E+00  0.15973979471E+04  0.26016746227E+04  0.20535410006E+04 0.  0.
        3    1    3    3  502    0 -0.24884544035E+03  0.99579492203E+03  0.76456090976E+03  0.12798769374E+04  0.10100000352E+00 0. -1.
       -3    1    3    3    0  502  0.24884544035E+03 -0.99579492203E+03  0.83283703736E+03  0.13217976853E+04  0.10100000352E+00 0.  1.
</event>
<event>
 5   0  0.1777590E-04  0.2054545E+04  0.7818609E-02  0.8581535E-01
       -2   -1    0    0    0  501  0.00000000000E+00  0.00000000000E+00  0.10849479198E+04  0.10849479198E+04  0.25500000920E-02 0. -1.
        2   -1    0    0  501    0  0.00000000000E+00  0.00000000000E+00 -0.97266282002E+03  0.97266282002E+03  0.25500000920E-02 0.  1.
    10030    2    1    2    0    0  0.00000000000E+00  0.00000000000E+00  0.11228509977E+03  0.20576107398E+04  0.20545447216E+04 0.  0.
        4    1    3    3  502    0  0.16972811828E+03 -0.40496970355E+03 -0.87394071956E+03  0.97805014654E+03  0.12699999809E+01 0.  1.
       -4    1    3    3    0  502 -0.16972811828E+03  0.40496970355E+03  0.98622581933E+03  0.10795605933E+04  0.12699999809E+01 0. -1.
</event>
<event>
 5   0  0.1921687E-04  0.2104446E+04  0.7818609E-02  0.8559288E-01
       -2   -1    0    0    0  501  0.00000000000E+00  0.00000000000E+00  0.11877102976E+04  0.11877102976E+04  0.25500000920E-02 0. -1.
        2   -1    0    0  501    0  0.00000000000E+00  0.00000000000E+00 -0.93219100171E+03  0.93219100172E+03  0.25500000920E-02 0.  1.
    10030    2    1    2    0    0  0.00000000000E+00  0.00000000000E+00  0.25551929592E+03  0.21199012993E+04  0.21044456297E+04 0.  0.
        5    1    3    3  502    0  0.94837597989E+03  0.45543835182E+03  0.11003294829E+03  0.10578139871E+04  0.46999998093E+01 0.  1.
       -5    1    3    3    0  502 -0.94837597989E+03 -0.45543835182E+03  0.14548634762E+03  0.10620873123E+04  0.46999998093E+01 0. -1.
</event>
<event>
 5   0  0.1886323E-04  0.2099761E+04  0.7818609E-02  0.8561349E-01
        2   -1    0    0  501    0  0.00000000000E+00  0.00000000000E+00  0.90864730406E+03  0.90864730407E+03  0.25500000920E-02 0.  1.
       -2   -1    0    0    0  501  0.00000000000E+00  0.00000000000E+00 -0.12130663266E+04  0.12130663266E+04  0.25500000920E-02 0. -1.
    10030    2    1    2    0    0  0.00000000000E+00  0.00000000000E+00 -0.30441902251E+03  0.21217136306E+04  0.20997613648E+04 0.  0.
        2    1    3    3  502    0 -0.84690843517E+03 -0.34599477542E+03  0.36823169067E+03  0.98618500303E+03  0.25500000920E-02 0.  1.
       -2    1    3    3    0  502  0.84690843517E+03  0.34599477542E+03 -0.67265071317E+03  0.11355286276E+04  0.25500000920E-02 0. -1.
</event>
<event>
 5   0  0.1815400E-04  0.2045747E+04  0.7818609E-02  0.8585526E-01
        2   -1    0    0  501    0  0.00000000000E+00  0.00000000000E+00  0.16469960506E+04  0.16469960506E+04  0.25500000920E-02 0. -1.
       -2   -1    0    0    0  501  0.00000000000E+00  0.00000000000E+00 -0.63525993186E+03  0.63525993187E+03  0.25500000920E-02 0.  1.
    10030    2    1    2    0    0  0.00000000000E+00  0.00000000000E+00  0.10117361187E+04  0.22822559825E+04  0.20457473929E+04 0.  0.
        3    1    3    3  502    0  0.77536561157E+03 -0.16806997973E+03  0.12261333345E+04  0.14604253880E+04  0.10100000352E+00 0. -1.
       -3    1    3    3    0  502 -0.77536561157E+03  0.16806997973E+03 -0.21439721577E+03  0.82183059448E+03  0.10100000352E+00 0.  1.
</event>
<event>
 5   0  0.1886323E-04  0.2018520E+04  0.7818609E-02  0.8598011E-01
       -2   -1    0    0    0  501  0.00000000000E+00  0.00000000000E+00  0.42806365742E+03  0.42806365743E+03  0.25500000920E-02 0.  1.
        2   -1    0    0  501    0  0.00000000000E+00  0.00000000000E+00 -0.23795662289E+04  0.23795662290E+04  0.25500000920E-02 0. -1.
    10030    2    1    2    0    0  0.00000000000E+00  0.00000000000E+00 -0.19515025715E+04  0.28076298864E+04  0.20185200748E+04 0.  0.
        2    1    3    3  502    0 -0.22020239528E+03 -0.78702130160E+03 -0.15202398833E+03  0.83126585224E+03  0.25500000920E-02 0.  1.
       -2    1    3    3    0  502  0.22020239528E+03  0.78702130160E+03 -0.17994785832E+04  0.19763640341E+04  0.25500000920E-02 0. -1.
</event>
<event>
 5   0  0.1815400E-04  0.2087905E+04  0.7818609E-02  0.8566590E-01
       -2   -1    0    0    0  501  0.00000000000E+00  0.00000000000E+00  0.12602107699E+04  0.12602107699E+04  0.25500000920E-02 0. -1.
        2   -1    0    0  501    0  0.00000000000E+00  0.00000000000E+00 -0.86480498040E+03  0.86480498040E+03  0.25500000920E-02 0.  1.
    10030    2    1    2    0    0  0.00000000000E+00  0.00000000000E+00  0.39540578949E+03  0.21250157503E+04  0.20879047394E+04 0.  0.
        3    1    3    3  502    0 -0.31484729377E+03  0.24656047752E+03  0.11791643587E+04  0.12451303075E+04  0.10100000352E+00 0. -1.
       -3    1    3    3    0  502  0.31484729377E+03 -0.24656047752E+03 -0.78375856923E+03  0.87988544284E+03  0.10100000352E+00 0.  1.
</event>
<event>
 5   0  0.1815400E-04  0.2259922E+04  0.7818609E-02  0.8493893E-01
       -2   -1    0    0    0  501  0.00000000000E+00  0.00000000000E+00  0.12974608962E+04  0.12974608962E+04  0.25500000920E-02 0. -1.
        2   -1    0    0  501    0  0.00000000000E+00  0.00000000000E+00 -0.98408496010E+03  0.98408496011E+03  0.25500000920E-02 0.  1.
    10030    2    1    2    0    0  0.00000000000E+00  0.00000000000E+00  0.31337593609E+03  0.22815458563E+04  0.22599219051E+04 0.  0.
        3    1    3    3  502    0 -0.50414839818E+03 -0.85410036739E+01 -0.86421148442E+03  0.10005498769E+04  0.10100000352E+00 0.  1.
       -3    1    3    3    0  502  0.50414839818E+03  0.85410036739E+01  0.11775874205E+04  0.12809959794E+04  0.10100000352E+00 0. -1.
</event>
<event>
 5   0  0.1777590E-04  0.2048246E+04  0.7818609E-02  0.8584390E-01
       -2   -1    0    0    0  501  0.00000000000E+00  0.00000000000E+00  0.56898183340E+03  0.56898183341E+03  0.25500000920E-02 0. -1.
        2   -1    0    0  501    0  0.00000000000E+00  0.00000000000E+00 -0.18433420245E+04  0.18433420245E+04  0.25500000920E-02 0.  1.
    10030    2    1    2    0    0  0.00000000000E+00  0.00000000000E+00 -0.12743601911E+04  0.24123238579E+04  0.20482462007E+04 0.  0.
        4    1    3    3  502    0 -0.64929765562E+03 -0.63888394852E+03 -0.11884208350E+04  0.14973663009E+04  0.12699999809E+01 0.  1.
       -4    1    3    3    0  502  0.64929765562E+03  0.63888394852E+03 -0.85939356140E+02  0.91495755699E+03  0.12699999809E+01 0. -1.
</event>
<event>
 5   0  0.8486612E-05  0.2093272E+04  0.7818609E-02  0.8564213E-01
       -1   -1    0    0    0  501  0.00000000000E+00  0.00000000000E+00  0.60030892330E+03  0.60030892332E+03  0.50400001928E-02 0.  1.
        1   -1    0    0  501    0  0.00000000000E+00  0.00000000000E+00 -0.18248054703E+04  0.18248054703E+04  0.50400001928E-02 0. -1.
    10030    2    1    2    0    0  0.00000000000E+00  0.00000000000E+00 -0.12244965470E+04  0.24251143936E+04  0.20932720866E+04 0.  0.
        5    1    3    3  502    0 -0.48792504381E+03  0.10239400508E+03 -0.16783896597E+04  0.17508767291E+04  0.46999998093E+01 0. -1.
       -5    1    3    3    0  502  0.48792504381E+03 -0.10239400508E+03  0.45389311265E+03  0.67423766460E+03  0.46999998093E+01 0.  1.
</event>
<event>
 5   0  0.8271069E-05  0.2082770E+04  0.7818609E-02  0.8568872E-01
        1   -1    0    0  501    0  0.00000000000E+00  0.00000000000E+00  0.10000014782E+04  0.10000014782E+04  0.50400001928E-02 0. -1.
       -1   -1    0    0    0  501  0.00000000000E+00  0.00000000000E+00 -0.10844811388E+04  0.10844811388E+04  0.50400001928E-02 0.  1.
    10030    2    1    2    0    0  0.00000000000E+00  0.00000000000E+00 -0.84479660580E+02  0.20844826170E+04  0.20827700227E+04 0.  0.
        2    1    3    3  502    0 -0.61308881881E+03 -0.39702590267E+03  0.70064760766E+03  0.10121336558E+04  0.25500000920E-02 0. -1.
       -2    1    3    3    0  502  0.61308881881E+03  0.39702590267E+03 -0.78512726824E+03  0.10723489612E+04  0.25500000920E-02 0.  1.
</event>
<event>
 5   0  0.8271069E-05  0.2097016E+04  0.7818609E-02  0.8562559E-01
        1   -1    0    0  501    0  0.00000000000E+00  0.00000000000E+00  0.97139261616E+03  0.97139261617E+03  0.50400001928E-02 0.  1.
       -1   -1    0    0    0  501  0.00000000000E+00  0.00000000000E+00 -0.11317448946E+04  0.11317448946E+04  0.50400001928E-02 0. -1.
    10030    2    1    2    0    0  0.00000000000E+00  0.00000000000E+00 -0.16035227848E+03  0.21031375108E+04  0.20970156261E+04 0.  0.
        2    1    3    3  502    0  0.19808387064E+03  0.22251147456E+03  0.92805465862E+03  0.97469688905E+03  0.25500000920E-02 0.  1.
       -2    1    3    3    0  502 -0.19808387064E+03 -0.22251147456E+03 -0.10884069371E+04  0.11284406218E+04  0.25500000920E-02 0. -1.
</event>
<event>
 5   0  0.8755004E-05  0.2124783E+04  0.7818609E-02  0.8550404E-01
       -1   -1    0    0    0  501  0.00000000000E+00  0.00000000000E+00  0.74452388991E+03  0.74452388992E+03  0.50400001928E-02 0. -1.
        1   -1    0    0  501    0  0.00000000000E+00  0.00000000000E+00 -0.15159699077E+04  0.15159699077E+04  0.50400001928E-02 0.  1.
    10030    2    1    2    0    0  0.00000000000E+00  0.00000000000E+00 -0.77144601779E+03  0.22604937976E+04  0.21247831068E+04 0.  0.
        3    1    3    3  502    0  0.49196236777E+03  0.59575537096E+03  0.39004523412E+03  0.86549796545E+03  0.10100000352E+00 0. -1.
       -3    1    3    3    0  502 -0.49196236777E+03 -0.59575537096E+03 -0.11614912519E+04  0.13949958322E+04  0.10100000352E+00 0.  1.
</event>
<event>
 5   0  0.1810875E-04  0.2082351E+04  0.7818609E-02  0.8569058E-01
        2   -1    0    0  501    0  0.00000000000E+00  0.00000000000E+00  0.94937085514E+03  0.94937085515E+03  0.25500000920E-02 0. -1.
       -2   -1    0    0    0  501  0.00000000000E+00  0.00000000000E+00 -0.11418575818E+04  0.11418575818E+04  0.25500000920E-02 0.  1.
    10030    2    1    2    0    0  0.00000000000E+00  0.00000000000E+00 -0.19248672670E+03  0.20912284370E+04  0.20823508916E+04 0.  0.
        1    1    3    3  502    0 -0.21278875211E+03  0.63468853868E+03  0.70461341118E+03  0.97189950787E+03  0.50400001928E-02 0. -1.
       -1    1    3    3    0  502  0.21278875211E+03 -0.63468853868E+03 -0.89710013788E+03  0.11193289291E+04  0.50400001928E-02 0.  1.
</event>
<event>
 5   0  0.8755004E-05  0.1996931E+04  0.7818609E-02  0.8608057E-01
       -1   -1    0    0    0  501  0.00000000000E+00  0.00000000000E+00  0.50890770411E+03  0.50890770413E+03  0.50400001928E-02 0.  1.
        1   -1    0    0  501    0  0.00000000000E+00  0.00000000000E+00 -0.19589678078E+04  0.19589678078E+04  0.50400001928E-02 0. -1.
    10030    2    1    2    0    0  0.00000000000E+00  0.00000000000E+00 -0.14500601037E+04  0.24678755119E+04  0.19969314555E+04 0.  0.
        3    1    3    3  502    0 -0.32072221045E+03 -0.92483757780E+03 -0.96829325962E+03  0.13768729529E+04  0.10100000352E+00 0.  1.
       -3    1    3    3    0  502  0.32072221045E+03  0.92483757780E+03 -0.48176684408E+03  0.10910025590E+04  0.10100000352E+00 0. -1.
</event>
<event>
 5   0  0.1815400E-04  0.2274451E+04  0.7818609E-02  0.8488064E-01
       -2   -1    0    0    0  501  0.00000000000E+00  0.00000000000E+00  0.10210266979E+04  0.10210266979E+04  0.25500000920E-02 0.  1.
        2   -1    0    0  501    0  0.00000000000E+00  0.00000000000E+00 -0.12666478550E+04  0.12666478550E+04  0.25500000920E-02 0. -1.
    10030    2    1    2    0    0  0.00000000000E+00  0.00000000000E+00 -0.24562115714E+03  0.22876745529E+04  0.22744505066E+04 0.  0.
        3    1    3    3  502    0  0.10567553379E+04 -0.23520536757E+03  0.22739169844E+03  0.11062370468E+04  0.10100000352E+00 0.  1.
       -3    1    3    3    0  502 -0.10567553379E+04  0.23520536757E+03 -0.47301285558E+03  0.11814375061E+04  0.10100000352E+00 0. -1.
</event>
<event>
 5   0  0.8237966E-05  0.2115093E+04  0.7818609E-02  0.8554624E-01
        1   -1    0    0  501    0  0.00000000000E+00  0.00000000000E+00  0.86371605379E+03  0.86371605381E+03  0.50400001928E-02 0. -1.
       -1   -1    0    0    0  501  0.00000000000E+00  0.00000000000E+00 -0.12948758697E+04  0.12948758697E+04  0.50400001928E-02 0.  1.
    10030    2    1    2    0    0  0.00000000000E+00  0.00000000000E+00 -0.43115981591E+03  0.21585919235E+04  0.21150934508E+04 0.  0.
        1    1    3    3  502    0 -0.18362190800E+03  0.10301341324E+04 -0.59091065709E+02  0.10480386872E+04  0.50400001928E-02 0.  1.
       -1    1    3    3    0  502  0.18362190800E+03 -0.10301341324E+04 -0.37206875020E+03  0.11105532363E+04  0.50400001928E-02 0. -1.
</event>
<event>
 5   0  0.1777590E-04  0.2104310E+04  0.7818609E-02  0.8559347E-01
       -2   -1    0    0    0  501  0.00000000000E+00  0.00000000000E+00  0.13043567668E+04  0.13043567668E+04  0.25500000920E-02 0.  1.
        2   -1    0    0  501    0  0.00000000000E+00  0.00000000000E+00 -0.84871730089E+03  0.84871730089E+03  0.25500000920E-02 0. -1.
    10030    2    1    2    0    0  0.00000000000E+00  0.00000000000E+00  0.45563946594E+03  0.21530740677E+04  0.21043100100E+04 0.  0.
        4    1    3    3  502    0 -0.39913951888E+03  0.42540725256E+03  0.11237509820E+04  0.12661364731E+04  0.12699999809E+01 0.  1.
       -4    1    3    3    0  502  0.39913951888E+03 -0.42540725256E+03 -0.66811151603E+03  0.88693759465E+03  0.12699999809E+01 0. -1.
</event>
<event>
 5   0  0.1777590E-04  0.1820654E+04  0.7818609E-02  0.8695393E-01
       -2   -1    0    0    0  501  0.00000000000E+00  0.00000000000E+00  0.68001845784E+03  0.68001845784E+03  0.25500000920E-02 0.  1.
        2   -1    0    0  501    0  0.00000000000E+00  0.00000000000E+00 -0.12186358564E+04  0.12186358564E+04  0.25500000920E-02 0. -1.
    10030    2    1    2    0    0  0.00000000000E+00  0.00000000000E+00 -0.53861739854E+03  0.18986543142E+04  0.18206535922E+04 0.  0.
        4    1    3    3  502    0 -0.15413761199E+03 -0.89370173183E+03 -0.18698310469E+03  0.92597272274E+03  0.12699999809E+01 0.  1.
       -4    1    3    3    0  502  0.15413761199E+03  0.89370173183E+03 -0.35163429385E+03  0.97268159149E+03  0.12699999809E+01 0. -1.
</event>
<event>
 5   0  0.8486612E-05  0.1964415E+04  0.7818609E-02  0.8623441E-01
        1   -1    0    0  501    0  0.00000000000E+00  0.00000000000E+00  0.11478924184E+04  0.11478924184E+04  0.50400001928E-02 0.  1.
       -1   -1    0    0    0  501  0.00000000000E+00  0.00000000000E+00 -0.84043767548E+03  0.84043767549E+03  0.50400001928E-02 0. -1.
    10030    2    1    2    0    0  0.00000000000E+00  0.00000000000E+00  0.30745474293E+03  0.19883300939E+04  0.19644154712E+04 0.  0.
        5    1    3    3  502    0  0.34061062546E+03 -0.58948167353E+03 -0.56285008711E+03  0.88336094104E+03  0.46999998093E+01 0. -1.
       -5    1    3    3    0  502 -0.34061062546E+03  0.58948167353E+03  0.87030483004E+03  0.11049691529E+04  0.46999998093E+01 0.  1.
</event>
<event>
 5   0  0.8755004E-05  0.2112065E+04  0.7818609E-02  0.8555947E-01
       -1   -1    0    0    0  501  0.00000000000E+00  0.00000000000E+00  0.51259665395E+03  0.51259665398E+03  0.50400001928E-02 0. -1.
        1   -1    0    0  501    0  0.00000000000E+00  0.00000000000E+00 -0.21755987641E+04  0.21755987642E+04  0.50400001928E-02 0.  1.
    10030    2    1    2    0    0  0.00000000000E+00  0.00000000000E+00 -0.16630021102E+04  0.26881954181E+04  0.21120650055E+04 0.  0.
        3    1    3    3  502    0 -0.32414457000E+03  0.10842217739E+03 -0.21032500336E+04  0.21308415673E+04  0.10100000352E+00 0.  1.
       -3    1    3    3    0  502  0.32414457000E+03 -0.10842217739E+03  0.44024792340E+03  0.55735385086E+03  0.10100000352E+00 0. -1.
</event>
<event>
 5   0  0.8271069E-05  0.2144965E+04  0.7818609E-02  0.8541691E-01
        1   -1    0    0  501    0  0.00000000000E+00  0.00000000000E+00  0.11337825927E+04  0.11337825927E+04  0.50400001928E-02 0. -1.
       -1   -1    0    0    0  501  0.00000000000E+00  0.00000000000E+00 -0.10144966203E+04  0.10144966203E+04  0.50400001928E-02 0.  1.
    10030    2    1    2    0    0  0.00000000000E+00  0.00000000000E+00  0.11928597238E+03  0.21482792130E+04  0.21449649027E+04 0.  0.
        2    1    3    3  502    0 -0.59774301829E+03 -0.25935997890E+03 -0.79352670845E+03  0.10267662595E+04  0.25500000920E-02 0.  1.
       -2    1    3    3    0  502  0.59774301829E+03  0.25935997890E+03  0.91281268082E+03  0.11215129535E+04  0.25500000920E-02 0. -1.
</event>
<event>
 5   0  0.1777590E-04  0.2054802E+04  0.7818609E-02  0.8581419E-01
        2   -1    0    0  501    0  0.00000000000E+00  0.00000000000E+00  0.14190042580E+04  0.14190042580E+04  0.25500000920E-02 0.  1.
       -2   -1    0    0    0  501  0.00000000000E+00  0.00000000000E+00 -0.74386869746E+03  0.74386869746E+03  0.25500000920E-02 0. -1.
    10030    2    1    2    0    0  0.00000000000E+00  0.00000000000E+00  0.67513556055E+03  0.21628729555E+04  0.20548020334E+04 0.  0.
        4    1    3    3  502    0  0.59601417707E+03 -0.39646439378E+03 -0.43816947122E+03  0.83929197137E+03  0.12699999809E+01 0. -1.
       -4    1    3    3    0  502 -0.59601417707E+03  0.39646439378E+03  0.11133050318E+04  0.13235809841E+04  0.12699999809E+01 0.  1.
</event>
<event>
 5   0  0.8755004E-05  0.1854365E+04  0.7818609E-02  0.8677912E-01
        1   -1    0    0  501    0  0.00000000000E+00  0.00000000000E+00  0.21837903848E+04  0.21837903848E+04  0.50400001928E-02 0. -1.
       -1   -1    0    0    0  501  0.00000000000E+00  0.00000000000E+00 -0.39365819164E+03  0.39365819167E+03  0.50400001928E-02 0.  1.
    10030    2    1    2    0    0  0.00000000000E+00  0.00000000000E+00  0.17901321931E+04  0.25774485765E+04  0.18543645530E+04 0.  0.
        3    1    3    3  502    0 -0.45258174889E+03 -0.49985283380E+03  0.17795985153E+04  0.19030643659E+04  0.10100000352E+00 0. -1.
       -3    1    3    3    0  502  0.45258174889E+03  0.49985283380E+03  0.10533677840E+02  0.67438421056E+03  0.10100000352E+00 0.  1.
</event>
<event>
 5   0  0.1886323E-04  0.2084650E+04  0.7818609E-02  0.8568036E-01
        2   -1    0    0  501    0  0.00000000000E+00  0.00000000000E+00  0.17434036338E+04  0.17434036338E+04  0.25500000920E-02 0.  1.
       -2   -1    0    0    0  501  0.00000000000E+00  0.00000000000E+00 -0.62317241809E+03  0.62317241809E+03  0.25500000920E-02 0. -1.
    10030    2    1    2    0    0  0.00000000000E+00  0.00000000000E+00  0.11202312157E+04  0.23665760519E+04  0.20846496667E+04 0.  0.
        2    1    3    3  502    0  0.19659780240E+02  0.21865998888E+03  0.17168582800E+04  0.17308382510E+04  0.25500000920E-02 0.  1.
       -2    1    3    3    0  502 -0.19659780240E+02 -0.21865998888E+03 -0.59662706423E+03  0.63573780089E+03  0.25500000920E-02 0. -1.
</event>
<event>
 5   0  0.1777590E-04  0.1935746E+04  0.7818609E-02  0.8637265E-01
        2   -1    0    0  501    0  0.00000000000E+00  0.00000000000E+00  0.91885208483E+03  0.91885208483E+03  0.25500000920E-02 0.  1.
       -2   -1    0    0    0  501  0.00000000000E+00  0.00000000000E+00 -0.10195091960E+04  0.10195091960E+04  0.25500000920E-02 0. -1.
    10030    2    1    2    0    0  0.00000000000E+00  0.00000000000E+00 -0.10065711118E+03  0.19383612808E+04  0.19357460063E+04 0.  0.
        4    1    3    3  502    0 -0.42412331025E+03  0.69381670013E+03 -0.57593231089E+03  0.99647470379E+03  0.12699999809E+01 0. -1.
       -4    1    3    3    0  502  0.42412331025E+03 -0.69381670013E+03  0.47527519970E+03  0.94188657705E+03  0.12699999809E+01 0.  1.
</event>
<event>
 5   0  0.8486612E-05  0.2127450E+04  0.7818609E-02  0.8549247E-01
        1   -1    0    0  501    0  0.00000000000E+00  0.00000000000E+00  0.92324290482E+03  0.92324290483E+03  0.50400001928E-02 0.  1.
       -1   -1    0    0    0  501  0.00000000000E+00  0.00000000000E+00 -0.12255833550E+04  0.12255833550E+04  0.50400001928E-02 0. -1.
    10030    2    1    2    0    0  0.00000000000E+00  0.00000000000E+00 -0.30234045019E+03  0.21488262599E+04  0.21274502455E+04 0.  0.
        5    1    3    3  502    0  0.41040154037E+03 -0.50122785420E+03 -0.10033478240E+04  0.11943147542E+04  0.46999998093E+01 0. -1.
       -5    1    3    3    0  502 -0.41040154037E+03  0.50122785420E+03  0.70100737385E+03  0.95451150562E+03  0.46999998093E+01 0.  1.
</event>
<event>
 5   0  0.8271069E-05  0.2088886E+04  0.7818609E-02  0.8566155E-01
       -1   -1    0    0    0  501  0.00000000000E+00  0.00000000000E+00  0.89623296233E+03  0.89623296234E+03  0.50400001928E-02 0. -1.
        1   -1    0    0  501    0  0.00000000000E+00  0.00000000000E+00 -0.12171630997E+04  0.12171630997E+04  0.50400001928E-02 0.  1.
    10030    2    1    2    0    0  0.00000000000E+00  0.00000000000E+00 -0.32093013736E+03  0.21133960620E+04  0.20888864885E+04 0.  0.
        2    1    3    3  502    0  0.12747061204E+03 -0.34336984236E+03  0.82912705285E+03  0.90642334224E+03  0.25500000920E-02 0. -1.
       -2    1    3    3    0  502 -0.12747061204E+03  0.34336984236E+03 -0.11500571902E+04  0.12069727198E+04  0.25500000920E-02 0.  1.
</event>
<event>
 5   0  0.1886323E-04  0.1980984E+04  0.7818609E-02  0.8615563E-01
        2   -1    0    0  501    0  0.00000000000E+00  0.00000000000E+00  0.89765629263E+03  0.89765629263E+03  0.25500000920E-02 0. -1.
       -2   -1    0    0    0  501  0.00000000000E+00  0.00000000000E+00 -0.10929291588E+04  0.10929291588E+04  0.25500000920E-02 0.  1.
    10030    2    1    2    0    0  0.00000000000E+00  0.00000000000E+00 -0.19527286613E+03  0.19905854514E+04  0.19809843379E+04 0.  0.
        2    1    3    3  502    0  0.74675171529E+03 -0.53197416503E+03 -0.47420611283E+03  0.10322335366E+04  0.25500000920E-02 0.  1.
       -2    1    3    3    0  502 -0.74675171529E+03  0.53197416503E+03  0.27893324670E+03  0.95835191483E+03  0.25500000920E-02 0. -1.
</event>
<event>
 5   0  0.1815400E-04  0.1977272E+04  0.7818609E-02  0.8617321E-01
        2   -1    0    0  501    0  0.00000000000E+00  0.00000000000E+00  0.89802903076E+03  0.89802903077E+03  0.25500000920E-02 0. -1.
       -2   -1    0    0    0  501  0.00000000000E+00  0.00000000000E+00 -0.10883848427E+04  0.10883848427E+04  0.25500000920E-02 0.  1.
    10030    2    1    2    0    0  0.00000000000E+00  0.00000000000E+00 -0.19035581194E+03  0.19864138735E+04  0.19772720454E+04 0.  0.
        3    1    3    3  502    0 -0.72833891572E+03  0.17496846810E+01 -0.76678994058E+03  0.10575667642E+04  0.10100000352E+00 0.  1.
       -3    1    3    3    0  502  0.72833891572E+03 -0.17496846810E+01  0.57643412864E+03  0.92884710928E+03  0.10100000352E+00 0. -1.
</event>
<event>
 5   0  0.1921687E-04  0.2037402E+04  0.7818609E-02  0.8589331E-01
       -2   -1    0    0    0  501  0.00000000000E+00  0.00000000000E+00  0.11168847934E+04  0.11168847934E+04  0.25500000920E-02 0. -1.
        2   -1    0    0  501    0  0.00000000000E+00  0.00000000000E+00 -0.92914828361E+03  0.92914828362E+03  0.25500000920E-02 0.  1.
    10030    2    1    2    0    0  0.00000000000E+00  0.00000000000E+00  0.18773650980E+03  0.20460330770E+04  0.20374018639E+04 0.  0.
        5    1    3    3  502    0  0.79557067169E+03 -0.62753933020E+03 -0.11414779137E+02  0.10133561525E+04  0.46999998093E+01 0.  1.
       -5    1    3    3    0  502 -0.79557067169E+03  0.62753933020E+03  0.19915128894E+03  0.10326769245E+04  0.46999998093E+01 0. -1.
</event>
<event>
 5   0  0.8271069E-05  0.2014373E+04  0.7818609E-02  0.8599930E-01
       -1   -1    0    0    0  501  0.00000000000E+00  0.00000000000E+00  0.88877259287E+03  0.88877259288E+03  0.50400001928E-02 0. -1.
        1   -1    0    0  501    0  0.00000000000E+00  0.00000000000E+00 -0.11413772940E+04  0.11413772940E+04  0.50400001928E-02 0.  1.
    10030    2    1    2    0    0  0.00000000000E+00  0.00000000000E+00 -0.25260470108E+03  0.20301498868E+04  0.20143732097E+04 0.  0.
        2    1    3    3  502    0  0.18079830126E+03 -0.74428966017E+03 -0.78546591374E+03  0.10970924417E+04  0.25500000920E-02 0.  1.
       -2    1    3    3    0  502 -0.18079830126E+03  0.74428966017E+03  0.53286121266E+03  0.93305744515E+03  0.25500000920E-02 0. -1.
</event>
<event>
 5   0  0.1886323E-04  0.2119954E+04  0.7818609E-02  0.8552504E-01
        2   -1    0    0  501    0  0.00000000000E+00  0.00000000000E+00  0.14306939215E+04  0.14306939215E+04  0.25500000920E-02 0. -1.
       -2   -1    0    0    0  501  0.00000000000E+00  0.00000000000E+00 -0.78531872120E+03  0.78531872120E+03  0.25500000920E-02 0.  1.
    10030    2    1    2    0    0  0.00000000000E+00  0.00000000000E+00  0.64537520031E+03  0.22160126427E+04  0.21199535097E+04 0.  0.
        2    1    3    3  502    0  0.36840454103E+03 -0.72090509514E+02 -0.71350693675E+03  0.80623265638E+03  0.25500000920E-02 0.  1.
       -2    1    3    3    0  502 -0.36840454103E+03  0.72090509514E+02  0.13588821371E+04  0.14097799863E+04  0.25500000920E-02 0. -1.
</event>
<event>
 5   0  0.8271069E-05  0.2211520E+04  0.7818609E-02  0.8513649E-01
        1   -1    0    0  501    0  0.00000000000E+00  0.00000000000E+00  0.16036870801E+04  0.16036870801E+04  0.50400001928E-02 0.  1.
       -1   -1    0    0    0  501  0.00000000000E+00  0.00000000000E+00 -0.76243365411E+03  0.76243365412E+03  0.50400001928E-02 0. -1.
    10030    2    1    2    0    0  0.00000000000E+00  0.00000000000E+00  0.84125342600E+03  0.23661207342E+04  0.22115198399E+04 0.  0.
        2    1    3    3  502    0 -0.74346686188E+03  0.50578665947E+03  0.11091531769E+04  0.14278598984E+04  0.25500000920E-02 0.  1.
       -2    1    3    3    0  502  0.74346686188E+03 -0.50578665947E+03 -0.26789975086E+03  0.93826083587E+03  0.25500000920E-02 0. -1.
</event>
<event>
 5   0  0.1921687E-04  0.2112893E+04  0.7818609E-02  0.8555585E-01
        2   -1    0    0  501    0  0.00000000000E+00  0.00000000000E+00  0.12303349235E+04  0.12303349235E+04  0.25500000920E-02 0. -1.
       -2   -1    0    0    0  501  0.00000000000E+00  0.00000000000E+00 -0.90713423749E+03  0.90713423749E+03  0.25500000920E-02 0.  1.
    10030    2    1    2    0    0  0.00000000000E+00  0.00000000000E+00  0.32320068598E+03  0.21374691610E+04  0.21128927400E+04 0.  0.
        5    1    3    3  502    0  0.48225117765E+03  0.93148516108E+03  0.28886520838E+03  0.10879779420E+04  0.46999998093E+01 0.  1.
       -5    1    3    3    0  502 -0.48225117765E+03 -0.93148516108E+03  0.34335477596E+02  0.10494912190E+04  0.46999998093E+01 0. -1.
</event>
<event>
 5   0  0.8237966E-05  0.2155084E+04  0.7818609E-02  0.8537359E-01
       -1   -1    0    0    0  501  0.00000000000E+00  0.00000000000E+00  0.92479286009E+03  0.92479286011E+03  0.50400001928E-02 0. -1.
        1   -1    0    0  501    0  0.00000000000E+00  0.00000000000E+00 -0.12555211806E+04  0.12555211806E+04  0.50400001928E-02 0.  1.
    10030    2    1    2    0    0  0.00000000000E+00  0.00000000000E+00 -0.33072832047E+03  0.21803140407E+04  0.21550842429E+04 0.  0.
        1    1    3    3  502    0 -0.50251133034E+03 -0.83933318971E+03  0.29169817388E+03  0.10208259720E+04  0.50400001928E-02 0. -1.
       -1    1    3    3    0  502  0.50251133034E+03  0.83933318971E+03 -0.62242649435E+03  0.11594880687E+04  0.50400001928E-02 0.  1.
</event>
<event>
 5   0  0.8271069E-05  0.2103243E+04  0.7818609E-02  0.8559816E-01
       -1   -1    0    0    0  501  0.00000000000E+00  0.00000000000E+00  0.89732331221E+03  0.89732331222E+03  0.50400001928E-02 0. -1.
        1   -1    0    0  501    0  0.00000000000E+00  0.00000000000E+00 -0.12324516419E+04  0.12324516420E+04  0.50400001928E-02 0.  1.
    10030    2    1    2    0    0  0.00000000000E+00  0.00000000000E+00 -0.33512832974E+03  0.21297749542E+04  0.21032428196E+04 0.  0.
        2    1    3    3  502    0  0.27583335879E+03 -0.55880154823E+03 -0.10253418339E+04  0.11998621123E+04  0.25500000920E-02 0.  1.
       -2    1    3    3    0  502 -0.27583335879E+03  0.55880154823E+03  0.69021350419E+03  0.92991284188E+03  0.25500000920E-02 0. -1.
</event>
<event>
 5   0  0.8237966E-05  0.2086045E+04  0.7818609E-02  0.8567416E-01
       -1   -1    0    0    0  501  0.00000000000E+00  0.00000000000E+00  0.67793706723E+03  0.67793706725E+03  0.50400001928E-02 0. -1.
        1   -1    0    0  501    0  0.00000000000E+00  0.00000000000E+00 -0.16047153549E+04  0.16047153549E+04  0.50400001928E-02 0.  1.
    10030    2    1    2    0    0  0.00000000000E+00  0.00000000000E+00 -0.92677828766E+03  0.22826524221E+04  0.20860450824E+04 0.  0.
        1    1    3    3  502    0 -0.12324786600E+03  0.85706481288E+03 -0.10996982734E+04  0.13996736843E+04  0.50400001928E-02 0. -1.
       -1    1    3    3    0  502  0.12324786600E+03 -0.85706481288E+03  0.17291998577E+03  0.88297873783E+03  0.50400001928E-02 0.  1.
</event>
<event>
 5   0  0.1921687E-04  0.2101932E+04  0.7818609E-02  0.8560393E-01
       -2   -1    0    0    0  501  0.00000000000E+00  0.00000000000E+00  0.59461809267E+03  0.59461809268E+03  0.25500000920E-02 0. -1.
        2   -1    0    0  501    0  0.00000000000E+00  0.00000000000E+00 -0.18575435613E+04  0.18575435613E+04  0.25500000920E-02 0.  1.
    10030    2    1    2    0    0  0.00000000000E+00  0.00000000000E+00 -0.12629254687E+04  0.24521616540E+04  0.21019315017E+04 0.  0.
        5    1    3    3  502    0  0.28329455916E+03  0.64687583188E+03  0.27655883574E+03  0.75842667987E+03  0.46999998093E+01 0. -1.
       -5    1    3    3    0  502 -0.28329455916E+03 -0.64687583188E+03 -0.15394843044E+04  0.16937349741E+04  0.46999998093E+01 0.  1.
</event>
<event>
 5   0  0.8486612E-05  0.2141525E+04  0.7818609E-02  0.8543169E-01
        1   -1    0    0  501    0  0.00000000000E+00  0.00000000000E+00  0.12956465493E+04  0.12956465493E+04  0.50400001928E-02 0.  1.
       -1   -1    0    0    0  501  0.00000000000E+00  0.00000000000E+00 -0.88491097911E+03  0.88491097912E+03  0.50400001928E-02 0. -1.
    10030    2    1    2    0    0  0.00000000000E+00  0.00000000000E+00  0.41073557022E+03  0.21805575285E+04  0.21415245565E+04 0.  0.
        5    1    3    3  502    0  0.25454777574E+02  0.10158446983E+04  0.54904211084E+03  0.11550141671E+04  0.46999998093E+01 0.  1.
       -5    1    3    3    0  502 -0.25454777574E+02 -0.10158446983E+04 -0.13830654062E+03  0.10255433613E+04  0.46999998093E+01 0. -1.
</event>
<event>
 5   0  0.8755004E-05  0.2025321E+04  0.7818609E-02  0.8594873E-01
       -1   -1    0    0    0  501  0.00000000000E+00  0.00000000000E+00  0.94244427745E+03  0.94244427746E+03  0.50400001928E-02 0. -1.
        1   -1    0    0  501    0  0.00000000000E+00  0.00000000000E+00 -0.10881080822E+04  0.10881080822E+04  0.50400001928E-02 0.  1.
    10030    2    1    2    0    0  0.00000000000E+00  0.00000000000E+00 -0.14566380479E+03  0.20305523597E+04  0.20253209478E+04 0.  0.
        3    1    3    3  502    0  0.46589574241E+03 -0.28632923980E+03  0.78168291882E+03  0.95397666226E+03  0.10100000352E+00 0. -1.
       -3    1    3    3    0  502 -0.46589574241E+03  0.28632923980E+03 -0.92734672361E+03  0.10765756975E+04  0.10100000352E+00 0.  1.
</event>
<event>
 5   0  0.1810875E-04  0.2089271E+04  0.7818609E-02  0.8565984E-01
        2   -1    0    0  501    0  0.00000000000E+00  0.00000000000E+00  0.13106698261E+04  0.13106698261E+04  0.25500000920E-02 0.  1.
       -2   -1    0    0    0  501  0.00000000000E+00  0.00000000000E+00 -0.83259960404E+03  0.83259960405E+03  0.25500000920E-02 0. -1.
    10030    2    1    2    0    0  0.00000000000E+00  0.00000000000E+00  0.47807022206E+03  0.21432694302E+04  0.20892708568E+04 0.  0.
        1    1    3    3  502    0 -0.34731473307E+03  0.68539699419E+03 -0.48697566290E+03  0.90969327783E+03  0.50400001928E-02 0. -1.
       -1    1    3    3    0  502  0.34731473307E+03 -0.68539699419E+03  0.96504588496E+03  0.12335761523E+04  0.50400001928E-02 0.  1.
</event>
<event>
 5   0  0.8755004E-05  0.1713711E+04  0.7818609E-02  0.8753583E-01
       -1   -1    0    0    0  501  0.00000000000E+00  0.00000000000E+00  0.51805550125E+03  0.51805550128E+03  0.50400001928E-02 0. -1.
        1   -1    0    0  501    0  0.00000000000E+00  0.00000000000E+00 -0.14172258451E+04  0.14172258451E+04  0.50400001928E-02 0.  1.
    10030    2    1    2    0    0  0.00000000000E+00  0.00000000000E+00 -0.89917034385E+03  0.19352813464E+04  0.17137113475E+04 0.  0.
        3    1    3    3  502    0  0.57040246722E+02 -0.58550977604E+03  0.25396164255E+03  0.64075877963E+03  0.10100000352E+00 0. -1.
       -3    1    3    3    0  502 -0.57040246722E+02  0.58550977604E+03 -0.11531319864E+04  0.12945225668E+04  0.10100000352E+00 0.  1.
</event>
<event>
 5   0  0.1815400E-04  0.2154576E+04  0.7818609E-02  0.8537576E-01
       -2   -1    0    0    0  501  0.00000000000E+00  0.00000000000E+00  0.16247267194E+04  0.16247267194E+04  0.25500000920E-02 0. -1.
        2   -1    0    0  501    0  0.00000000000E+00  0.00000000000E+00 -0.71430442780E+03  0.71430442780E+03  0.25500000920E-02 0.  1.
    10030    2    1    2    0    0  0.00000000000E+00  0.00000000000E+00  0.91042229159E+03  0.23390311472E+04  0.21545760508E+04 0.  0.
        3    1    3    3  502    0  0.95694689912E+03 -0.34130075702E+03  0.84409008419E+03  0.13208791220E+04  0.10100000352E+00 0.  1.
       -3    1    3    3    0  502 -0.95694689912E+03  0.34130075702E+03  0.66332207402E+02  0.10181520252E+04  0.10100000352E+00 0. -1.
</event>
<event>
 5   0  0.8237966E-05  0.2094002E+04  0.7818609E-02  0.8563890E-01
        1   -1    0    0  501    0  0.00000000000E+00  0.00000000000E+00  0.15182766742E+04  0.15182766742E+04  0.50400001928E-02 0.  1.
       -1   -1    0    0    0  501  0.00000000000E+00  0.00000000000E+00 -0.72201016418E+03  0.72201016420E+03  0.50400001928E-02 0. -1.
    10030    2    1    2    0    0  0.00000000000E+00  0.00000000000E+00  0.79626651005E+03  0.22402868384E+04  0.20940020925E+04 0.  0.
        1    1    3    3  502    0 -0.15958309685E+03 -0.15808631743E+03 -0.69592665720E+03  0.73128104091E+03  0.50400001928E-02 0. -1.
       -1    1    3    3    0  502  0.15958309685E+03  0.15808631743E+03  0.14921931673E+04  0.15090057975E+04  0.50400001928E-02 0.  1.
</event>
<event>
 5   0  0.8237966E-05  0.2517465E+04  0.7818609E-02  0.8396790E-01
       -1   -1    0    0    0  501  0.00000000000E+00  0.00000000000E+00  0.10636543055E+04  0.10636543055E+04  0.50400001928E-02 0. -1.
        1   -1    0    0  501    0  0.00000000000E+00  0.00000000000E+00 -0.14895887978E+04  0.14895887978E+04  0.50400001928E-02 0.  1.
    10030    2    1    2    0    0  0.00000000000E+00  0.00000000000E+00 -0.42593449232E+03  0.25532431033E+04  0.25174650251E+04 0.  0.
        1    1    3    3  502    0 -0.36855147794E+02  0.85905403278E+03  0.71937733909E+03  0.11210869231E+04  0.50400001928E-02 0. -1.
       -1    1    3    3    0  502  0.36855147794E+02 -0.85905403278E+03 -0.11453118314E+04  0.14321561801E+04  0.50400001928E-02 0.  1.
</event>
<event>
 5   0  0.1810875E-04  0.2066190E+04  0.7818609E-02  0.8576285E-01
       -2   -1    0    0    0  501  0.00000000000E+00  0.00000000000E+00  0.98732964976E+03  0.98732964976E+03  0.25500000920E-02 0. -1.
        2   -1    0    0  501    0  0.00000000000E+00  0.00000000000E+00 -0.10809821468E+04  0.10809821468E+04  0.25500000920E-02 0.  1.
    10030    2    1    2    0    0  0.00000000000E+00  0.00000000000E+00 -0.93652496994E+02  0.20683117965E+04  0.20661904311E+04 0.  0.
        1    1    3    3  502    0 -0.87143382521E+03  0.37960408138E+03  0.35829848952E+03  0.10158119796E+04  0.50400001928E-02 0. -1.
       -1    1    3    3    0  502  0.87143382521E+03 -0.37960408138E+03 -0.45195098652E+03  0.10524998169E+04  0.50400001928E-02 0.  1.
</event>
<event>
 5   0  0.8755004E-05  0.2086789E+04  0.7818609E-02  0.8567085E-01
        1   -1    0    0  501    0  0.00000000000E+00  0.00000000000E+00  0.10779133211E+04  0.10779133211E+04  0.50400001928E-02 0. -1.
       -1   -1    0    0    0  501  0.00000000000E+00  0.00000000000E+00 -0.10099815733E+04  0.10099815733E+04  0.50400001928E-02 0.  1.
    10030    2    1    2    0    0  0.00000000000E+00  0.00000000000E+00  0.67931747799E+02  0.20878948945E+04  0.20867894882E+04 0.  0.
        3    1    3    3  502    0 -0.61830770212E+02  0.48277674967E+03 -0.88944020469E+03  0.10139035073E+04  0.10100000352E+00 0.  1.
       -3    1    3    3    0  502  0.61830770212E+02 -0.48277674967E+03  0.95737195249E+03  0.10739913872E+04  0.10100000352E+00 0. -1.
</event>
<event>
 5   0  0.8237966E-05  0.2102465E+04  0.7818609E-02  0.8560158E-01
       -1   -1    0    0    0  501  0.00000000000E+00  0.00000000000E+00  0.36716467609E+03  0.36716467612E+03  0.50400001928E-02 0.  1.
        1   -1    0    0  501    0  0.00000000000E+00  0.00000000000E+00 -0.30097927187E+04  0.30097927187E+04  0.50400001928E-02 0. -1.
    10030    2    1    2    0    0  0.00000000000E+00  0.00000000000E+00 -0.26426280426E+04  0.33769573948E+04  0.21024648094E+04 0.  0.
        1    1    3    3  502    0  0.20060172082E+03  0.99418052398E+03 -0.87719862681E+03  0.13409375062E+04  0.50400001928E-02 0.  1.
       -1    1    3    3    0  502 -0.20060172082E+03 -0.99418052398E+03 -0.17654294158E+04  0.20360198886E+04  0.50400001928E-02 0. -1.
</event>
<event>
 5   0  0.1815400E-04  0.2141101E+04  0.7818609E-02  0.8543351E-01
        2   -1    0    0  501    0  0.00000000000E+00  0.00000000000E+00  0.11301145169E+04  0.11301145169E+04  0.25500000920E-02 0. -1.
       -2   -1    0    0    0  501  0.00000000000E+00  0.00000000000E+00 -0.10141262281E+04  0.10141262281E+04  0.25500000920E-02 0.  1.
    10030    2    1    2    0    0  0.00000000000E+00  0.00000000000E+00  0.11598828878E+03  0.21442407450E+04  0.21411013729E+04 0.  0.
        3    1    3    3  502    0 -0.62376175038E+03 -0.29736183229E+03 -0.76086970682E+03  0.10278256182E+04  0.10100000352E+00 0.  1.
       -3    1    3    3    0  502  0.62376175038E+03  0.29736183229E+03  0.87685799560E+03  0.11164151267E+04  0.10100000352E+00 0. -1.
</event>
<event>
 5   0  0.1921687E-04  0.2078350E+04  0.7818609E-02  0.8570841E-01
       -2   -1    0    0    0  501  0.00000000000E+00  0.00000000000E+00  0.14011287405E+04  0.14011287405E+04  0.25500000920E-02 0. -1.
        2   -1    0    0  501    0  0.00000000000E+00  0.00000000000E+00 -0.77072471192E+03  0.77072471193E+03  0.25500000920E-02 0.  1.
    10030    2    1    2    0    0  0.00000000000E+00  0.00000000000E+00  0.63040402856E+03  0.21718534524E+04  0.20783498694E+04 0.  0.
        5    1    3    3  502    0 -0.66315441289E+03 -0.56553939654E+03  0.90657169225E+03  0.12575781914E+04  0.46999998093E+01 0. -1.
       -5    1    3    3    0  502  0.66315441289E+03  0.56553939654E+03 -0.27616766370E+03  0.91427526098E+03  0.46999998093E+01 0.  1.
</event>
<event>
 5   0  0.1886323E-04  0.2062927E+04  0.7818609E-02  0.8577752E-01
        2   -1    0    0  501    0  0.00000000000E+00  0.00000000000E+00  0.13044455833E+04  0.13044455833E+04  0.25500000920E-02 0. -1.
       -2   -1    0    0    0  501  0.00000000000E+00  0.00000000000E+00 -0.81560884473E+03  0.81560884473E+03  0.25500000920E-02 0.  1.
    10030    2    1    2    0    0  0.00000000000E+00  0.00000000000E+00  0.48883673853E+03  0.21200544280E+04  0.20629273910E+04 0.  0.
        2    1    3    3  502    0 -0.35376279209E+03 -0.85233840185E+03  0.71792524873E+03  0.11692072216E+04  0.25500000920E-02 0. -1.
       -2    1    3    3    0  502  0.35376279209E+03  0.85233840185E+03 -0.22908851020E+03  0.95084720636E+03  0.25500000920E-02 0.  1.
</event>
<event>
 5   0  0.1886323E-04  0.2107475E+04  0.7818609E-02  0.8557958E-01
       -2   -1    0    0    0  501  0.00000000000E+00  0.00000000000E+00  0.54821540380E+03  0.54821540381E+03  0.25500000920E-02 0. -1.
        2   -1    0    0  501    0  0.00000000000E+00  0.00000000000E+00 -0.20254123675E+04  0.20254123675E+04  0.25500000920E-02 0.  1.
    10030    2    1    2    0    0  0.00000000000E+00  0.00000000000E+00 -0.14771969637E+04  0.25736277713E+04  0.21074745635E+04 0.  0.
        2    1    3    3  502    0 -0.51263106854E+03  0.41529384628E+03  0.26478813658E+03  0.71089545538E+03  0.25500000920E-02 0. -1.
       -2    1    3    3    0  502  0.51263106854E+03 -0.41529384628E+03 -0.17419851003E+04  0.18627323159E+04  0.25500000920E-02 0.  1.
</event>
<event>
 5   0  0.1815400E-04  0.2095153E+04  0.7818609E-02  0.8563382E-01
       -2   -1    0    0    0  501  0.00000000000E+00  0.00000000000E+00  0.68075017117E+03  0.68075017117E+03  0.25500000920E-02 0.  1.
        2   -1    0    0  501    0  0.00000000000E+00  0.00000000000E+00 -0.16120687102E+04  0.16120687102E+04  0.25500000920E-02 0. -1.
    10030    2    1    2    0    0  0.00000000000E+00  0.00000000000E+00 -0.93131853904E+03  0.22928188814E+04  0.20951525485E+04 0.  0.
        3    1    3    3  502    0 -0.10553292559E+03  0.10112319523E+04 -0.18948350379E+03  0.10342297946E+04  0.10100000352E+00 0.  1.
       -3    1    3    3    0  502  0.10553292559E+03 -0.10112319523E+04 -0.74183503525E+03  0.12585890868E+04  0.10100000352E+00 0. -1.
</event>
<event>
 5   0  0.8271069E-05  0.2212559E+04  0.7818609E-02  0.8513219E-01
       -1   -1    0    0    0  501  0.00000000000E+00  0.00000000000E+00  0.74525575810E+03  0.74525575811E+03  0.50400001928E-02 0. -1.
        1   -1    0    0  501    0  0.00000000000E+00  0.00000000000E+00 -0.16421938545E+04  0.16421938545E+04  0.50400001928E-02 0.  1.
    10030    2    1    2    0    0  0.00000000000E+00  0.00000000000E+00 -0.89693809637E+03  0.23874496126E+04  0.22125590848E+04 0.  0.
        2    1    3    3  502    0  0.99153485214E+03 -0.44568281303E+03 -0.66981758301E+03  0.12768829732E+04  0.25500000920E-02 0.  1.
       -2    1    3    3    0  502 -0.99153485214E+03  0.44568281303E+03 -0.22712051335E+03  0.11105666393E+04  0.25500000920E-02 0. -1.
</event>
<event>
 5   0  0.1810875E-04  0.2112669E+04  0.7818609E-02  0.8555683E-01
       -2   -1    0    0    0  501  0.00000000000E+00  0.00000000000E+00  0.98409382601E+03  0.98409382602E+03  0.25500000920E-02 0. -1.
        2   -1    0    0  501    0  0.00000000000E+00  0.00000000000E+00 -0.11338785651E+04  0.11338785651E+04  0.25500000920E-02 0.  1.
    10030    2    1    2    0    0  0.00000000000E+00  0.00000000000E+00 -0.14978473908E+03  0.21179723911E+04  0.21126693024E+04 0.  0.
        1    1    3    3  502    0 -0.52590026428E+03 -0.89877605962E+03  0.10296039377E+03  0.10464083027E+04  0.50400001928E-02 0. -1.
       -1    1    3    3    0  502  0.52590026428E+03  0.89877605962E+03 -0.25274513285E+03  0.10715640884E+04  0.50400001928E-02 0.  1.
</event>
<event>
 5   0  0.8755004E-05  0.2212563E+04  0.7818609E-02  0.8513217E-01
       -1   -1    0    0    0  501  0.00000000000E+00  0.00000000000E+00  0.11607560218E+04  0.11607560218E+04  0.50400001928E-02 0.  1.
        1   -1    0    0  501    0  0.00000000000E+00  0.00000000000E+00 -0.10543631698E+04  0.10543631698E+04  0.50400001928E-02 0. -1.
    10030    2    1    2    0    0  0.00000000000E+00  0.00000000000E+00  0.10639285197E+03  0.22151191915E+04  0.22125626757E+04 0.  0.
        3    1    3    3  502    0 -0.30471679661E+03  0.63698460009E+03 -0.79940761580E+03  0.10666087630E+04  0.10100000352E+00 0. -1.
       -3    1    3    3    0  502  0.30471679661E+03 -0.63698460009E+03  0.90580046778E+03  0.11485104286E+04  0.10100000352E+00 0.  1.
</event>
<event>
 5   0  0.8755004E-05  0.1945341E+04  0.7818609E-02  0.8632611E-01
        1   -1    0    0  501    0  0.00000000000E+00  0.00000000000E+00  0.10094549494E+04  0.10094549494E+04  0.50400001928E-02 0. -1.
       -1   -1    0    0    0  501  0.00000000000E+00  0.00000000000E+00 -0.93722629482E+03  0.93722629483E+03  0.50400001928E-02 0.  1.
    10030    2    1    2    0    0  0.00000000000E+00  0.00000000000E+00  0.72228654543E+02  0.19466812442E+04  0.19453408154E+04 0.  0.
        3    1    3    3  502    0 -0.46275060254E+03 -0.84236924056E+03 -0.11353353938E+03  0.96778816502E+03  0.10100000352E+00 0. -1.
       -3    1    3    3    0  502  0.46275060254E+03  0.84236924056E+03  0.18576219392E+03  0.97889307919E+03  0.10100000352E+00 0.  1.
</event>
<event>
 5   0  0.8525278E-05  0.2086541E+04  0.7818609E-02  0.8567195E-01
       -1   -1    0    0    0  501  0.00000000000E+00  0.00000000000E+00  0.11718126002E+04  0.11718126002E+04  0.50400001928E-02 0.  1.
        1   -1    0    0  501    0  0.00000000000E+00  0.00000000000E+00 -0.92882902312E+03  0.92882902313E+03  0.50400001928E-02 0. -1.
    10030    2    1    2    0    0  0.00000000000E+00  0.00000000000E+00  0.24298357703E+03  0.21006416233E+04  0.20865412076E+04 0.  0.
        4    1    3    3  502    0 -0.19547445252E+03  0.67570121080E+03  0.89717207973E+03  0.11400446226E+04  0.12699999809E+01 0.  1.
       -4    1    3    3    0  502  0.19547445252E+03 -0.67570121080E+03 -0.65418850270E+03  0.96059700074E+03  0.12699999809E+01 0. -1.
</event>
<event>
 5   0  0.1777590E-04  0.2085280E+04  0.7818609E-02  0.8567755E-01
        2   -1    0    0  501    0  0.00000000000E+00  0.00000000000E+00  0.12263665680E+04  0.12263665680E+04  0.25500000920E-02 0.  1.
       -2   -1    0    0    0  501  0.00000000000E+00  0.00000000000E+00 -0.88643831850E+03  0.88643831850E+03  0.25500000920E-02 0. -1.
    10030    2    1    2    0    0  0.00000000000E+00  0.00000000000E+00  0.33992824951E+03  0.21128048865E+04  0.20852801427E+04 0.  0.
        4    1    3    3  502    0  0.40401442614E+03  0.89378865591E+03  0.52819985857E+03  0.11140388330E+04  0.12699999809E+01 0.  1.
       -4    1    3    3    0  502 -0.40401442614E+03 -0.89378865591E+03 -0.18827160906E+03  0.99876605351E+03  0.12699999809E+01 0. -1.
</event>
<event>
 5   0  0.8755004E-05  0.1926667E+04  0.7818609E-02  0.8641695E-01
        1   -1    0    0  501    0  0.00000000000E+00  0.00000000000E+00  0.11338170901E+04  0.11338170901E+04  0.50400001928E-02 0.  1.
       -1   -1    0    0    0  501  0.00000000000E+00  0.00000000000E+00 -0.81848394779E+03  0.81848394781E+03  0.50400001928E-02 0. -1.
    10030    2    1    2    0    0  0.00000000000E+00  0.00000000000E+00  0.31533314233E+03  0.19523010379E+04  0.19266666427E+04 0.  0.
        3    1    3    3  502    0 -0.29587133996E+03 -0.47715950833E+03  0.95089094920E+03  0.11042710961E+04  0.10100000352E+00 0.  1.
       -3    1    3    3    0  502  0.29587133996E+03  0.47715950833E+03 -0.63555780687E+03  0.84802994185E+03  0.10100000352E+00 0. -1.
</event>
<event>
 5   0  0.1921687E-04  0.2109789E+04  0.7818609E-02  0.8556943E-01
        2   -1    0    0  501    0  0.00000000000E+00  0.00000000000E+00  0.92915449238E+03  0.92915449238E+03  0.25500000920E-02 0.  1.
       -2   -1    0    0    0  501  0.00000000000E+00  0.00000000000E+00 -0.11976506561E+04  0.11976506561E+04  0.25500000920E-02 0. -1.
    10030    2    1    2    0    0  0.00000000000E+00  0.00000000000E+00 -0.26849616373E+03  0.21268051485E+04  0.21097890771E+04 0.  0.
        5    1    3    3  502    0 -0.78789317358E+03 -0.32699124283E+03 -0.75980232580E+03  0.11423749779E+04  0.46999998093E+01 0. -1.
       -5    1    3    3    0  502  0.78789317358E+03  0.32699124283E+03  0.49130616207E+03  0.98443017058E+03  0.46999998093E+01 0.  1.
</event>
<event>
 5   0  0.8755004E-05  0.2126244E+04  0.7818609E-02  0.8549770E-01
        1   -1    0    0  501    0  0.00000000000E+00  0.00000000000E+00  0.54813041654E+03  0.54813041656E+03  0.50400001928E-02 0. -1.
       -1   -1    0    0    0  501  0.00000000000E+00  0.00000000000E+00 -0.20619693254E+04  0.20619693254E+04  0.50400001928E-02 0.  1.
    10030    2    1    2    0    0  0.00000000000E+00  0.00000000000E+00 -0.15138389089E+04  0.26100997420E+04  0.21262437351E+04 0.  0.
        3    1    3    3  502    0 -0.54436168274E+03 -0.84237870010E+02 -0.18731269386E+04  0.19524421115E+04  0.10100000352E+00 0.  1.
       -3    1    3    3    0  502  0.54436168274E+03  0.84237870010E+02  0.35928802975E+03  0.65765763047E+03  0.10100000352E+00 0. -1.
</event>
<event>
 5   0  0.1810875E-04  0.2069296E+04  0.7818609E-02  0.8574891E-01
        2   -1    0    0  501    0  0.00000000000E+00  0.00000000000E+00  0.19638954491E+04  0.19638954491E+04  0.25500000920E-02 0.  1.
       -2   -1    0    0    0  501  0.00000000000E+00  0.00000000000E+00 -0.54508831825E+03  0.54508831825E+03  0.25500000920E-02 0. -1.
    10030    2    1    2    0    0  0.00000000000E+00  0.00000000000E+00  0.14188071309E+04  0.25089837674E+04  0.20692959842E+04 0.  0.
        1    1    3    3  502    0  0.10136014110E+04  0.49707293436E+01  0.96107442837E+03  0.13968094306E+04  0.50400001928E-02 0. -1.
       -1    1    3    3    0  502 -0.10136014110E+04 -0.49707293436E+01  0.45773270249E+03  0.11121743368E+04  0.50400001928E-02 0.  1.
</event>
<event>
 5   0  0.8755004E-05  0.2151141E+04  0.7818609E-02  0.8539044E-01
        1   -1    0    0  501    0  0.00000000000E+00  0.00000000000E+00  0.16765309226E+04  0.16765309226E+04  0.50400001928E-02 0.  1.
       -1   -1    0    0    0  501  0.00000000000E+00  0.00000000000E+00 -0.69002733679E+03  0.69002733681E+03  0.50400001928E-02 0. -1.
    10030    2    1    2    0    0  0.00000000000E+00  0.00000000000E+00  0.98650358581E+03  0.23665582594E+04  0.21511412484E+04 0.  0.
        3    1    3    3  502    0  0.49567111172E+03  0.53531195567E+03  0.13627134810E+04  0.15457156214E+04  0.10100000352E+00 0.  1.
       -3    1    3    3    0  502 -0.49567111172E+03 -0.53531195567E+03 -0.37620989520E+03  0.82084263797E+03  0.10100000352E+00 0. -1.
</event>
<event>
 5   0  0.1921687E-04  0.2081631E+04  0.7818609E-02  0.8569379E-01
        2   -1    0    0  501    0  0.00000000000E+00  0.00000000000E+00  0.11994806688E+04  0.11994806688E+04  0.25500000920E-02 0. -1.
       -2   -1    0    0    0  501  0.00000000000E+00  0.00000000000E+00 -0.90313806683E+03  0.90313806684E+03  0.25500000920E-02 0.  1.
    10030    2    1    2    0    0  0.00000000000E+00  0.00000000000E+00  0.29634260196E+03  0.21026187356E+04  0.20816307573E+04 0.  0.
        5    1    3    3  502    0  0.34133999808E+02 -0.49376726089E+03  0.10729917584E+04  0.11816533508E+04  0.46999998093E+01 0. -1.
       -5    1    3    3    0  502 -0.34133999808E+02  0.49376726089E+03 -0.77664915644E+03  0.92096538483E+03  0.46999998093E+01 0.  1.
</event>
<event>
 5   0  0.1815400E-04  0.2096695E+04  0.7818609E-02  0.8562701E-01
        2   -1    0    0  501    0  0.00000000000E+00  0.00000000000E+00  0.11382955907E+04  0.11382955907E+04  0.25500000920E-02 0. -1.
       -2   -1    0    0    0  501  0.00000000000E+00  0.00000000000E+00 -0.96550712940E+03  0.96550712941E+03  0.25500000920E-02 0.  1.
    10030    2    1    2    0    0  0.00000000000E+00  0.00000000000E+00  0.17278846125E+03  0.21038027201E+04  0.20966950261E+04 0.  0.
        3    1    3    3  502    0 -0.59406807884E+02  0.86479039284E+03 -0.50521532984E+03  0.10033115828E+04  0.10100000352E+00 0.  1.
       -3    1    3    3    0  502  0.59406807884E+02 -0.86479039284E+03  0.67800379109E+03  0.11004911373E+04  0.10100000352E+00 0. -1.
</event>
<event>
 5   0  0.1815400E-04  0.2101993E+04  0.7818609E-02  0.8560366E-01
        2   -1    0    0  501    0  0.00000000000E+00  0.00000000000E+00  0.14736726318E+04  0.14736726318E+04  0.25500000920E-02 0.  1.
       -2   -1    0    0    0  501  0.00000000000E+00  0.00000000000E+00 -0.74955122105E+03  0.74955122105E+03  0.25500000920E-02 0. -1.
    10030    2    1    2    0    0  0.00000000000E+00  0.00000000000E+00  0.72412141073E+03  0.22232238528E+04  0.21019925029E+04 0.  0.
        3    1    3    3  502    0 -0.18052309023E+03  0.61445080264E+03  0.12434626461E+04  0.13986914375E+04  0.10100000352E+00 0.  1.
       -3    1    3    3    0  502  0.18052309023E+03 -0.61445080264E+03 -0.51934123535E+03  0.82453241532E+03  0.10100000352E+00 0. -1.
</event>
<event>
 5   0  0.8237966E-05  0.2081591E+04  0.7818609E-02  0.8569396E-01
        1   -1    0    0  501    0  0.00000000000E+00  0.00000000000E+00  0.18935639723E+04  0.18935639723E+04  0.50400001928E-02 0. -1.
       -1   -1    0    0    0  501  0.00000000000E+00  0.00000000000E+00 -0.57207197629E+03  0.57207197631E+03  0.50400001928E-02 0.  1.
    10030    2    1    2    0    0  0.00000000000E+00  0.00000000000E+00  0.13214919960E+04  0.24656359486E+04  0.20815906263E+04 0.  0.
        1    1    3    3  502    0  0.50037655888E+03 -0.76329701462E+03  0.68194978603E+02  0.91523198607E+03  0.50400001928E-02 0.  1.
       -1    1    3    3    0  502 -0.50037655888E+03  0.76329701462E+03  0.12532970174E+04  0.15504039626E+04  0.50400001928E-02 0. -1.
</event>
<event>
 5   0  0.8525278E-05  0.2114681E+04  0.7818609E-02  0.8554804E-01
       -1   -1    0    0    0  501  0.00000000000E+00  0.00000000000E+00  0.10374304864E+04  0.10374304865E+04  0.50400001928E-02 0.  1.
        1   -1    0    0  501    0  0.00000000000E+00  0.00000000000E+00 -0.10776329846E+04  0.10776329846E+04  0.50400001928E-02 0. -1.
    10030    2    1    2    0    0  0.00000000000E+00  0.00000000000E+00 -0.40202498168E+02  0.21150634711E+04  0.21146813580E+04 0.  0.
        4    1    3    3  502    0 -0.26500435444E+03  0.14624307418E+03 -0.10333752999E+04  0.10767917477E+04  0.12699999809E+01 0. -1.
       -4    1    3    3    0  502  0.26500435444E+03 -0.14624307418E+03  0.99317280171E+03  0.10382717234E+04  0.12699999809E+01 0.  1.
</event>
<event>
 5   0  0.8237966E-05  0.2114933E+04  0.7818609E-02  0.8554694E-01
        1   -1    0    0  501    0  0.00000000000E+00  0.00000000000E+00  0.14855646295E+04  0.14855646295E+04  0.50400001928E-02 0.  1.
       -1   -1    0    0    0  501  0.00000000000E+00  0.00000000000E+00 -0.75273438197E+03  0.75273438199E+03  0.50400001928E-02 0. -1.
    10030    2    1    2    0    0  0.00000000000E+00  0.00000000000E+00  0.73283024753E+03  0.22382990115E+04  0.21149331652E+04 0.  0.
        1    1    3    3  502    0 -0.66467668981E+03 -0.18090039508E+03  0.12155339008E+04  0.13971552236E+04  0.50400001928E-02 0.  1.
       -1    1    3    3    0  502  0.66467668981E+03  0.18090039508E+03 -0.48270365328E+03  0.84114378785E+03  0.50400001928E-02 0. -1.
</event>
<event>
 5   0  0.6441125E-05  0.2152585E+04  0.7818609E-02  0.8538426E-01
        3   -1    0    0  501    0  0.00000000000E+00  0.00000000000E+00  0.12114503225E+04  0.12114503267E+04  0.10100000352E+00 0.  1.
       -3   -1    0    0    0  501  0.00000000000E+00  0.00000000000E+00 -0.95621397693E+03  0.95621398226E+03  0.10100000352E+00 0. -1.
    10030    2    1    2    0    0  0.00000000000E+00  0.00000000000E+00  0.25523634557E+03  0.21676643090E+04  0.21525851817E+04 0.  0.
        4    1    3    3  502    0 -0.26956683366E+03  0.17734300099E+03 -0.90635952231E+03  0.96208420338E+03  0.12699999809E+01 0. -1.
       -4    1    3    3    0  502  0.26956683366E+03 -0.17734300099E+03  0.11615958679E+04  0.12055801056E+04  0.12699999809E+01 0.  1.
</event>
<event>
 5   0  0.8486612E-05  0.1978510E+04  0.7818609E-02  0.8616734E-01
       -1   -1    0    0    0  501  0.00000000000E+00  0.00000000000E+00  0.76023320186E+03  0.76023320187E+03  0.50400001928E-02 0. -1.
        1   -1    0    0  501    0  0.00000000000E+00  0.00000000000E+00 -0.12872700471E+04  0.12872700471E+04  0.50400001928E-02 0.  1.
    10030    2    1    2    0    0  0.00000000000E+00  0.00000000000E+00 -0.52703684525E+03  0.20475032490E+04  0.19785099743E+04 0.  0.
        5    1    3    3  502    0  0.36454594044E+03  0.41658295441E+03 -0.11119666552E+04  0.12421461399E+04  0.46999998093E+01 0.  1.
       -5    1    3    3    0  502 -0.36454594044E+03 -0.41658295441E+03  0.58492980995E+03  0.80535710909E+03  0.46999998093E+01 0. -1.
</event>
<event>
 5   0  0.8525278E-05  0.2044363E+04  0.7818609E-02  0.8586156E-01
        1   -1    0    0  501    0  0.00000000000E+00  0.00000000000E+00  0.13769353624E+04  0.13769353624E+04  0.50400001928E-02 0.  1.
       -1   -1    0    0    0  501  0.00000000000E+00  0.00000000000E+00 -0.75882684708E+03  0.75882684710E+03  0.50400001928E-02 0. -1.
    10030    2    1    2    0    0  0.00000000000E+00  0.00000000000E+00  0.61810851528E+03  0.21357622095E+04  0.20443634899E+04 0.  0.
        4    1    3    3  502    0  0.98473857162E+02 -0.27246121070E+03 -0.71503728780E+03  0.77149993371E+03  0.12699999809E+01 0. -1.
       -4    1    3    3    0  502 -0.98473857162E+02  0.27246121070E+03  0.13331458031E+04  0.13642622758E+04  0.12699999809E+01 0.  1.
</event>
<event>
 5   0  0.8271069E-05  0.2037265E+04  0.7818609E-02  0.8589394E-01
       -1   -1    0    0    0  501  0.00000000000E+00  0.00000000000E+00  0.76730609609E+03  0.76730609611E+03  0.50400001928E-02 0. -1.
        1   -1    0    0  501    0  0.00000000000E+00  0.00000000000E+00 -0.13522791787E+04  0.13522791787E+04  0.50400001928E-02 0.  1.
    10030    2    1    2    0    0  0.00000000000E+00  0.00000000000E+00 -0.58497308258E+03  0.21195852748E+04  0.20372648895E+04 0.  0.
        2    1    3    3  502    0  0.10311474322E+03 -0.50745424212E+03  0.62015267432E+03  0.80791818743E+03  0.25500000920E-02 0. -1.
       -2    1    3    3    0  502 -0.10311474322E+03  0.50745424212E+03 -0.12051257569E+04  0.13116670874E+04  0.25500000920E-02 0.  1.
</event>
<event>
 5   0  0.1886323E-04  0.2113119E+04  0.7818609E-02  0.8555486E-01
        2   -1    0    0  501    0  0.00000000000E+00  0.00000000000E+00  0.14536077811E+04  0.14536077811E+04  0.25500000920E-02 0.  1.
       -2   -1    0    0    0  501  0.00000000000E+00  0.00000000000E+00 -0.76796379207E+03  0.76796379207E+03  0.25500000920E-02 0. -1.
    10030    2    1    2    0    0  0.00000000000E+00  0.00000000000E+00  0.68564398901E+03  0.22215715731E+04  0.21131191578E+04 0.  0.
        2    1    3    3  502    0  0.73974536878E+03  0.39496388993E+03 -0.33289230493E+03  0.90223997455E+03  0.25500000920E-02 0. -1.
       -2    1    3    3    0  502 -0.73974536878E+03 -0.39496388993E+03  0.10185362939E+04  0.13193315986E+04  0.25500000920E-02 0.  1.
</event>
<event>
 5   0  0.8486612E-05  0.2135564E+04  0.7818609E-02  0.8545737E-01
        1   -1    0    0  501    0  0.00000000000E+00  0.00000000000E+00  0.22759474864E+04  0.22759474864E+04  0.50400001928E-02 0. -1.
       -1   -1    0    0    0  501  0.00000000000E+00  0.00000000000E+00 -0.50095970598E+03  0.50095970600E+03  0.50400001928E-02 0.  1.
    10030    2    1    2    0    0  0.00000000000E+00  0.00000000000E+00  0.17749877804E+04  0.27769071924E+04  0.21355636105E+04 0.  0.
        5    1    3    3  502    0 -0.81230443375E+03 -0.24564842263E+03  0.17301489741E+04  0.19270752977E+04  0.46999998093E+01 0. -1.
       -5    1    3    3    0  502  0.81230443375E+03  0.24564842263E+03  0.44838806339E+02  0.84983189466E+03  0.46999998093E+01 0.  1.
</event>
<event>
 5   0  0.8755004E-05  0.2137667E+04  0.7818609E-02  0.8544830E-01
        1   -1    0    0  501    0  0.00000000000E+00  0.00000000000E+00  0.11345000811E+04  0.11345000811E+04  0.50400001928E-02 0. -1.
       -1   -1    0    0    0  501  0.00000000000E+00  0.00000000000E+00 -0.10069675346E+04  0.10069675346E+04  0.50400001928E-02 0.  1.
    10030    2    1    2    0    0  0.00000000000E+00  0.00000000000E+00  0.12753254657E+03  0.21414676157E+04  0.21376667183E+04 0.  0.
        3    1    3    3  502    0  0.12118625225E+03  0.32020444918E+03 -0.95054959074E+03  0.10103274378E+04  0.10100000352E+00 0.  1.
       -3    1    3    3    0  502 -0.12118625225E+03 -0.32020444918E+03  0.10780821373E+04  0.11311401779E+04  0.10100000352E+00 0. -1.
</event>
<event>
 5   0  0.1886323E-04  0.2113707E+04  0.7818609E-02  0.8555229E-01
        2   -1    0    0  501    0  0.00000000000E+00  0.00000000000E+00  0.17072405073E+04  0.17072405073E+04  0.25500000920E-02 0.  1.
       -2   -1    0    0    0  501  0.00000000000E+00  0.00000000000E+00 -0.65423676784E+03  0.65423676785E+03  0.25500000920E-02 0. -1.
    10030    2    1    2    0    0  0.00000000000E+00  0.00000000000E+00  0.10530037395E+04  0.23614772752E+04  0.21137071807E+04 0.  0.
        2    1    3    3  502    0 -0.67899806882E+03  0.55858363480E+03  0.11816595744E+04  0.14728792905E+04  0.25500000920E-02 0.  1.
       -2    1    3    3    0  502  0.67899806882E+03 -0.55858363480E+03 -0.12865583494E+03  0.88859798469E+03  0.25500000920E-02 0. -1.
</event>
<event>
 5   0  0.8271069E-05  0.2157975E+04  0.7818609E-02  0.8536126E-01
       -1   -1    0    0    0  501  0.00000000000E+00  0.00000000000E+00  0.84100575618E+03  0.84100575620E+03  0.50400001928E-02 0. -1.
        1   -1    0    0  501    0  0.00000000000E+00  0.00000000000E+00 -0.13843111171E+04  0.13843111171E+04  0.50400001928E-02 0.  1.
    10030    2    1    2    0    0  0.00000000000E+00  0.00000000000E+00 -0.54330536090E+03  0.22253168733E+04  0.21579746225E+04 0.  0.
        2    1    3    3  502    0  0.50860876827E+03 -0.94404743977E+03 -0.39498930016E+03  0.11427707535E+04  0.25500000920E-02 0.  1.
       -2    1    3    3    0  502 -0.50860876827E+03  0.94404743977E+03 -0.14831606074E+03  0.10825461198E+04  0.25500000920E-02 0. -1.
</event>
<event>
 5   0  0.8486612E-05  0.2111755E+04  0.7818609E-02  0.8556083E-01
        1   -1    0    0  501    0  0.00000000000E+00  0.00000000000E+00  0.89004466030E+03  0.89004466032E+03  0.50400001928E-02 0.  1.
       -1   -1    0    0    0  501  0.00000000000E+00  0.00000000000E+00 -0.12526087779E+04  0.12526087779E+04  0.50400001928E-02 0. -1.
    10030    2    1    2    0    0  0.00000000000E+00  0.00000000000E+00 -0.36256411759E+03  0.21426534382E+04  0.21117554349E+04 0.  0.
        5    1    3    3  502    0  0.41261289931E+03  0.25883421905E+03  0.76923379940E+03  0.91048738913E+03  0.46999998093E+01 0.  1.
       -5    1    3    3    0  502 -0.41261289931E+03 -0.25883421905E+03 -0.11317979170E+04  0.12321660491E+04  0.46999998093E+01 0. -1.
</event>
<event>
 5   0  0.1810875E-04  0.2103340E+04  0.7818609E-02  0.8559774E-01
       -2   -1    0    0    0  501  0.00000000000E+00  0.00000000000E+00  0.41950116182E+03  0.41950116183E+03  0.25500000920E-02 0.  1.
        2   -1    0    0  501    0  0.00000000000E+00  0.00000000000E+00 -0.26364876305E+04  0.26364876305E+04  0.25500000920E-02 0. -1.
    10030    2    1    2    0    0  0.00000000000E+00  0.00000000000E+00 -0.22169864687E+04  0.30559887924E+04  0.21033398433E+04 0.  0.
        1    1    3    3  502    0 -0.58833455388E+03  0.45648227994E+03 -0.29512987999E+02  0.74524132714E+03  0.50400001928E-02 0.  1.
       -1    1    3    3    0  502  0.58833455388E+03 -0.45648227994E+03 -0.21874734807E+04  0.23107474652E+04  0.50400001928E-02 0. -1.
</event>
<event>
 5   0  0.1886323E-04  0.1923993E+04  0.7818609E-02  0.8643005E-01
        2   -1    0    0  501    0  0.00000000000E+00  0.00000000000E+00  0.84035288325E+03  0.84035288325E+03  0.25500000920E-02 0. -1.
       -2   -1    0    0    0  501  0.00000000000E+00  0.00000000000E+00 -0.11012483497E+04  0.11012483497E+04  0.25500000920E-02 0.  1.
    10030    2    1    2    0    0  0.00000000000E+00  0.00000000000E+00 -0.26089546650E+03  0.19416012330E+04  0.19239929583E+04 0.  0.
        2    1    3    3  502    0  0.24780006326E+03 -0.36411708626E+03 -0.99352407122E+03  0.10867732992E+04  0.25500000920E-02 0.  1.
       -2    1    3    3    0  502 -0.24780006326E+03  0.36411708626E+03  0.73262860472E+03  0.85482793375E+03  0.25500000920E-02 0. -1.
</event>
<event>
 5   0  0.1777590E-04  0.2130443E+04  0.7818609E-02  0.8547950E-01
       -2   -1    0    0    0  501  0.00000000000E+00  0.00000000000E+00  0.16909968938E+04  0.16909968938E+04  0.25500000920E-02 0.  1.
        2   -1    0    0  501    0  0.00000000000E+00  0.00000000000E+00 -0.67102270745E+03  0.67102270746E+03  0.25500000920E-02 0. -1.
    10030    2    1    2    0    0  0.00000000000E+00  0.00000000000E+00  0.10199741864E+04  0.23620196013E+04  0.21304434412E+04 0.  0.
        4    1    3    3  502    0 -0.66932212050E+03  0.40683126268E+03 -0.29042257699E+03  0.83537456474E+03  0.12699999809E+01 0. -1.
       -4    1    3    3    0  502  0.66932212050E+03 -0.40683126268E+03  0.13103967634E+04  0.15266450366E+04  0.12699999809E+01 0.  1.
</event>
<event>
 5   0  0.1921687E-04  0.2118726E+04  0.7818609E-02  0.8553039E-01
       -2   -1    0    0    0  501  0.00000000000E+00  0.00000000000E+00  0.12207185225E+04  0.12207185225E+04  0.25500000920E-02 0. -1.
        2   -1    0    0  501    0  0.00000000000E+00  0.00000000000E+00 -0.91933569200E+03  0.91933569200E+03  0.25500000920E-02 0.  1.
    10030    2    1    2    0    0  0.00000000000E+00  0.00000000000E+00  0.30138283051E+03  0.21400542145E+04  0.21187261339E+04 0.  0.
        5    1    3    3  502    0  0.90776380527E+03  0.48540115773E+01 -0.40085420059E+03  0.99235319706E+03  0.46999998093E+01 0.  1.
       -5    1    3    3    0  502 -0.90776380527E+03 -0.48540115773E+01  0.70223703110E+03  0.11477010174E+04  0.46999998093E+01 0. -1.
</event>
<event>
 5   0  0.1777590E-04  0.2108227E+04  0.7818609E-02  0.8557628E-01
       -2   -1    0    0    0  501  0.00000000000E+00  0.00000000000E+00  0.74733244352E+03  0.74733244352E+03  0.25500000920E-02 0. -1.
        2   -1    0    0  501    0  0.00000000000E+00  0.00000000000E+00 -0.14868288176E+04  0.14868288176E+04  0.25500000920E-02 0.  1.
    10030    2    1    2    0    0  0.00000000000E+00  0.00000000000E+00 -0.73949637408E+03  0.22341612611E+04  0.21082271352E+04 0.  0.
        4    1    3    3  502    0  0.51261193184E+03 -0.89059249521E+03 -0.61879216808E+03  0.11995129617E+04  0.12699999809E+01 0.  1.
       -4    1    3    3    0  502 -0.51261193184E+03  0.89059249521E+03 -0.12070420601E+03  0.10346482994E+04  0.12699999809E+01 0. -1.
</event>
<event>
 5   0  0.1810875E-04  0.2082661E+04  0.7818609E-02  0.8568920E-01
        2   -1    0    0  501    0  0.00000000000E+00  0.00000000000E+00  0.13445061793E+04  0.13445061793E+04  0.25500000920E-02 0.  1.
       -2   -1    0    0    0  501  0.00000000000E+00  0.00000000000E+00 -0.80651844970E+03  0.80651844971E+03  0.25500000920E-02 0. -1.
    10030    2    1    2    0    0  0.00000000000E+00  0.00000000000E+00  0.53798772961E+03  0.21510246290E+04  0.20826608359E+04 0.  0.
        1    1    3    3  502    0 -0.99070863692E+03 -0.26391817772E+03  0.80768357436E+02  0.10284356739E+04  0.50400001928E-02 0. -1.
       -1    1    3    3    0  502  0.99070863692E+03  0.26391817772E+03  0.45721937218E+03  0.11225889551E+04  0.50400001928E-02 0.  1.
</event>
<event>
 5   0  0.8525278E-05  0.2097696E+04  0.7818609E-02  0.8562259E-01
       -1   -1    0    0    0  501  0.00000000000E+00  0.00000000000E+00  0.83609074664E+03  0.83609074666E+03  0.50400001928E-02 0.  1.
        1   -1    0    0  501    0  0.00000000000E+00  0.00000000000E+00 -0.13157448207E+04  0.13157448207E+04  0.50400001928E-02 0. -1.
    10030    2    1    2    0    0  0.00000000000E+00  0.00000000000E+00 -0.47965407404E+03  0.21518355674E+04  0.20976959451E+04 0.  0.
        4    1    3    3  502    0  0.70877179788E+03 -0.88109891922E+02  0.54808492629E+03  0.90028857254E+03  0.12699999809E+01 0.  1.
       -4    1    3    3    0  502 -0.70877179788E+03  0.88109891922E+02 -0.10277390003E+04  0.12515469948E+04  0.12699999809E+01 0. -1.
</event>
<event>
 5   0  0.1886323E-04  0.1563389E+04  0.7818609E-02  0.8843361E-01
       -2   -1    0    0    0  501  0.00000000000E+00  0.00000000000E+00  0.39107627152E+03  0.39107627153E+03  0.25500000920E-02 0. -1.
        2   -1    0    0  501    0  0.00000000000E+00  0.00000000000E+00 -0.15624738056E+04  0.15624738056E+04  0.25500000920E-02 0.  1.
    10030    2    1    2    0    0  0.00000000000E+00  0.00000000000E+00 -0.11713975341E+04  0.19535500771E+04  0.15633891777E+04 0.  0.
        2    1    3    3  502    0  0.53672959652E+03  0.30666026293E+03 -0.11835679882E+04  0.13352723915E+04  0.25500000920E-02 0.  1.
       -2    1    3    3    0  502 -0.53672959652E+03 -0.30666026293E+03  0.12170454149E+02  0.61827768567E+03  0.25500000920E-02 0. -1.
</event>
<event>
 5   0  0.1815400E-04  0.2148815E+04  0.7818609E-02  0.8540040E-01
       -2   -1    0    0    0  501  0.00000000000E+00  0.00000000000E+00  0.76646192168E+03  0.76646192168E+03  0.25500000920E-02 0.  1.
        2   -1    0    0  501    0  0.00000000000E+00  0.00000000000E+00 -0.15060781925E+04  0.15060781925E+04  0.25500000920E-02 0. -1.
    10030    2    1    2    0    0  0.00000000000E+00  0.00000000000E+00 -0.73961627079E+03  0.22725401142E+04  0.21488151020E+04 0.  0.
        3    1    3    3  502    0 -0.66205497806E+03 -0.35195758969E+03  0.44401920852E+03  0.87140346950E+03  0.10100000352E+00 0.  1.
       -3    1    3    3    0  502  0.66205497806E+03  0.35195758969E+03 -0.11836354793E+04  0.14011366447E+04  0.10100000352E+00 0. -1.
</event>
<event>
 5   0  0.6441125E-05  0.2138333E+04  0.7818609E-02  0.8544543E-01
       -4   -1    0    0    0  501  0.00000000000E+00  0.00000000000E+00  0.14092748815E+04  0.14092754538E+04  0.12699999809E+01 0. -1.
        4   -1    0    0  501    0  0.00000000000E+00  0.00000000000E+00 -0.81113746819E+03  0.81113846241E+03  0.12699999809E+01 0.  1.
    10030    2    1    2    0    0  0.00000000000E+00  0.00000000000E+00  0.59813741332E+03  0.22204139162E+04  0.21383333683E+04 0.  0.
        3    1    3    3  502    0  0.25352988301E+03  0.95214004203E+03  0.73005405482E+03  0.12263062400E+04  0.10100000352E+00 0. -1.
       -3    1    3    3    0  502 -0.25352988301E+03 -0.95214004203E+03 -0.13191664150E+03  0.99410767612E+03  0.10100000352E+00 0.  1.
</event>
<event>
 5   0  0.1810875E-04  0.1687497E+04  0.7818609E-02  0.8768527E-01
        2   -1    0    0  501    0  0.00000000000E+00  0.00000000000E+00  0.89936632492E+03  0.89936632492E+03  0.25500000920E-02 0.  1.
       -2   -1    0    0    0  501  0.00000000000E+00  0.00000000000E+00 -0.79157034420E+03  0.79157034421E+03  0.25500000920E-02 0. -1.
    10030    2    1    2    0    0  0.00000000000E+00  0.00000000000E+00  0.10779598072E+03  0.16909366691E+04  0.16874972135E+04 0.  0.
        1    1    3    3  502    0  0.23619053166E+03  0.52758826106E+03  0.66978589197E+03  0.88473073958E+03  0.50400001928E-02 0.  1.
       -1    1    3    3    0  502 -0.23619053166E+03 -0.52758826106E+03 -0.56198991126E+03  0.80620592954E+03  0.50400001928E-02 0. -1.
</event>
<event>
 5   0  0.8237966E-05  0.2095362E+04  0.7818609E-02  0.8563289E-01
       -1   -1    0    0    0  501  0.00000000000E+00  0.00000000000E+00  0.86638118339E+03  0.86638118340E+03  0.50400001928E-02 0. -1.
        1   -1    0    0  501    0  0.00000000000E+00  0.00000000000E+00 -0.12669200040E+04  0.12669200040E+04  0.50400001928E-02 0.  1.
    10030    2    1    2    0    0  0.00000000000E+00  0.00000000000E+00 -0.40053882061E+03  0.21333011874E+04  0.20953621666E+04 0.  0.
        1    1    3    3  502    0  0.97733787231E+03 -0.33995061964E+03 -0.36718888040E+03  0.10979906258E+04  0.50400001928E-02 0.  1.
       -1    1    3    3    0  502 -0.97733787231E+03  0.33995061964E+03 -0.33349940216E+02  0.10353105616E+04  0.50400001928E-02 0. -1.
</event>
<event>
 5   0  0.1886323E-04  0.2142452E+04  0.7818609E-02  0.8542770E-01
        2   -1    0    0  501    0  0.00000000000E+00  0.00000000000E+00  0.85928341521E+03  0.85928341521E+03  0.25500000920E-02 0. -1.
       -2   -1    0    0    0  501  0.00000000000E+00  0.00000000000E+00 -0.13354448613E+04  0.13354448613E+04  0.25500000920E-02 0.  1.
    10030    2    1    2    0    0  0.00000000000E+00  0.00000000000E+00 -0.47616144607E+03  0.21947282765E+04  0.21424524464E+04 0.  0.
        2    1    3    3  502    0 -0.32100760863E+03  0.41807467174E+03  0.71724755103E+03  0.89009907618E+03  0.25500000920E-02 0. -1.
       -2    1    3    3    0  502  0.32100760863E+03 -0.41807467174E+03 -0.11934089971E+04  0.13046292003E+04  0.25500000920E-02 0.  1.
</event>
<event>
 5   0  0.8486612E-05  0.2055977E+04  0.7818609E-02  0.8580888E-01
       -1   -1    0    0    0  501  0.00000000000E+00  0.00000000000E+00  0.47174716596E+03  0.47174716598E+03  0.50400001928E-02 0. -1.
        1   -1    0    0  501    0  0.00000000000E+00  0.00000000000E+00 -0.22400986229E+04  0.22400986229E+04  0.50400001928E-02 0.  1.
    10030    2    1    2    0    0  0.00000000000E+00  0.00000000000E+00 -0.17683514569E+04  0.27118457888E+04  0.20559768256E+04 0.  0.
        5    1    3    3  502    0 -0.14585611407E+03  0.25299258885E+03 -0.21842224923E+04  0.22036626879E+04  0.46999998093E+01 0.  1.
       -5    1    3    3    0  502  0.14585611407E+03 -0.25299258885E+03  0.41587103541E+03  0.50818310097E+03  0.46999998093E+01 0. -1.
</event>
<event>
 5   0  0.1921687E-04  0.2083062E+04  0.7818609E-02  0.8568742E-01
        2   -1    0    0  501    0  0.00000000000E+00  0.00000000000E+00  0.25505728031E+04  0.25505728031E+04  0.25500000920E-02 0.  1.
       -2   -1    0    0    0  501  0.00000000000E+00  0.00000000000E+00 -0.42531115526E+03  0.42531115527E+03  0.25500000920E-02 0. -1.
    10030    2    1    2    0    0  0.00000000000E+00  0.00000000000E+00  0.21252616478E+04  0.29758839584E+04  0.20830622319E+04 0.  0.
        5    1    3    3  502    0  0.35898613615E+03  0.51697086720E+03  0.22481492541E+04  0.23345935583E+04  0.46999998093E+01 0.  1.
       -5    1    3    3    0  502 -0.35898613615E+03 -0.51697086720E+03 -0.12288760629E+03  0.64129040010E+03  0.46999998093E+01 0. -1.
</event>
<event>
 5   0  0.8525278E-05  0.2095042E+04  0.7818609E-02  0.8563430E-01
       -1   -1    0    0    0  501  0.00000000000E+00  0.00000000000E+00  0.13626131951E+04  0.13626131951E+04  0.50400001928E-02 0.  1.
        1   -1    0    0  501    0  0.00000000000E+00  0.00000000000E+00 -0.80529118973E+03  0.80529118975E+03  0.50400001928E-02 0. -1.
    10030    2    1    2    0    0  0.00000000000E+00  0.00000000000E+00  0.55732200536E+03  0.21679043848E+04  0.20950421485E+04 0.  0.
        4    1    3    3  502    0  0.72724190064E+02  0.22391981696E+03 -0.77755830943E+03  0.81242072211E+03  0.12699999809E+01 0. -1.
       -4    1    3    3    0  502 -0.72724190064E+02 -0.22391981696E+03  0.13348803148E+04  0.13554836627E+04  0.12699999809E+01 0.  1.
</event>
<event>
 5   0  0.1777590E-04  0.2093768E+04  0.7818609E-02  0.8563993E-01
        2   -1    0    0  501    0  0.00000000000E+00  0.00000000000E+00  0.14211446177E+04  0.14211446177E+04  0.25500000920E-02 0.  1.
       -2   -1    0    0    0  501  0.00000000000E+00  0.00000000000E+00 -0.77118583425E+03  0.77118583425E+03  0.25500000920E-02 0. -1.
    10030    2    1    2    0    0  0.00000000000E+00  0.00000000000E+00  0.64995878347E+03  0.21923304520E+04  0.20937684663E+04 0.  0.
        4    1    3    3  502    0 -0.90413523251E+02  0.10242169612E+04  0.11880950145E+03  0.10350421727E+04  0.12699999809E+01 0. -1.
       -4    1    3    3    0  502  0.90413523251E+02 -0.10242169612E+04  0.53114928202E+03  0.11572882793E+04  0.12699999809E+01 0.  1.
</event>
<event>
 5   0  0.8237966E-05  0.2107834E+04  0.7818609E-02  0.8557800E-01
        1   -1    0    0  501    0  0.00000000000E+00  0.00000000000E+00  0.89980836277E+03  0.89980836279E+03  0.50400001928E-02 0. -1.
       -1   -1    0    0    0  501  0.00000000000E+00  0.00000000000E+00 -0.12344200693E+04  0.12344200693E+04  0.50400001928E-02 0.  1.
    10030    2    1    2    0    0  0.00000000000E+00  0.00000000000E+00 -0.33461170650E+03  0.21342284321E+04  0.21078344352E+04 0.  0.
        1    1    3    3  502    0  0.80583096465E+02 -0.67986093256E+03 -0.97861136634E+03  0.11943134971E+04  0.50400001928E-02 0.  1.
       -1    1    3    3    0  502 -0.80583096465E+02  0.67986093256E+03  0.64399965983E+03  0.93991493495E+03  0.50400001928E-02 0. -1.
</event>
<event>
 5   0  0.1810875E-04  0.2067225E+04  0.7818609E-02  0.8575820E-01
       -2   -1    0    0    0  501  0.00000000000E+00  0.00000000000E+00  0.52002462948E+03  0.52002462948E+03  0.25500000920E-02 0. -1.
        2   -1    0    0  501    0  0.00000000000E+00  0.00000000000E+00 -0.20544307622E+04  0.20544307622E+04  0.25500000920E-02 0.  1.
    10030    2    1    2    0    0  0.00000000000E+00  0.00000000000E+00 -0.15344061327E+04  0.25744553917E+04  0.20672248024E+04 0.  0.
        1    1    3    3  502    0  0.57305835300E+03  0.11001201483E+03  0.29527609318E+03  0.65397743889E+03  0.50400001928E-02 0. -1.
       -1    1    3    3    0  502 -0.57305835300E+03 -0.11001201483E+03 -0.18296822259E+04  0.19204779528E+04  0.50400001928E-02 0.  1.
</event>
<event>
 5   0  0.8525278E-05  0.2164287E+04  0.7818609E-02  0.8533441E-01
       -1   -1    0    0    0  501  0.00000000000E+00  0.00000000000E+00  0.10064464290E+04  0.10064464291E+04  0.50400001928E-02 0.  1.
        1   -1    0    0  501    0  0.00000000000E+00  0.00000000000E+00 -0.11635341313E+04  0.11635341313E+04  0.50400001928E-02 0. -1.
    10030    2    1    2    0    0  0.00000000000E+00  0.00000000000E+00 -0.15708770230E+03  0.21699805604E+04  0.21642872005E+04 0.  0.
        4    1    3    3  502    0 -0.45642950745E+03  0.17760797655E+03 -0.10460489541E+04  0.11550292273E+04  0.12699999809E+01 0. -1.
       -4    1    3    3    0  502  0.45642950745E+03 -0.17760797655E+03  0.88896125177E+03  0.10149513331E+04  0.12699999809E+01 0.  1.
</event>
<event>
 5   0  0.1815400E-04  0.1798669E+04  0.7818609E-02  0.8707008E-01
       -2   -1    0    0    0  501  0.00000000000E+00  0.00000000000E+00  0.39008454257E+03  0.39008454258E+03  0.25500000920E-02 0. -1.
        2   -1    0    0  501    0  0.00000000000E+00  0.00000000000E+00 -0.20734021793E+04  0.20734021793E+04  0.25500000920E-02 0.  1.
    10030    2    1    2    0    0  0.00000000000E+00  0.00000000000E+00 -0.16833176367E+04  0.24634867219E+04  0.17986685528E+04 0.  0.
        3    1    3    3  502    0 -0.84003511132E+02 -0.81013287894E+03 -0.31935106471E+03  0.87484683468E+03  0.10100000352E+00 0. -1.
       -3    1    3    3    0  502  0.84003511132E+02  0.81013287894E+03 -0.13639665720E+04  0.15886398872E+04  0.10100000352E+00 0.  1.
</event>
<event>
 5   0  0.8755004E-05  0.2101300E+04  0.7818609E-02  0.8560671E-01
       -1   -1    0    0    0  501  0.00000000000E+00  0.00000000000E+00  0.89573180116E+03  0.89573180117E+03  0.50400001928E-02 0.  1.
        1   -1    0    0  501    0  0.00000000000E+00  0.00000000000E+00 -0.12323617367E+04  0.12323617367E+04  0.50400001928E-02 0. -1.
    10030    2    1    2    0    0  0.00000000000E+00  0.00000000000E+00 -0.33662993558E+03  0.21280935379E+04  0.21013001672E+04 0.  0.
        3    1    3    3  502    0  0.93089183859E+03 -0.58006493934E+02 -0.65815693729E+03  0.11415318361E+04  0.10100000352E+00 0. -1.
       -3    1    3    3    0  502 -0.93089183859E+03  0.58006493934E+02  0.32152700171E+03  0.98656170183E+03  0.10100000352E+00 0.  1.
</event>
<event>
 5   0  0.1810875E-04  0.2107073E+04  0.7818609E-02  0.8558134E-01
        2   -1    0    0  501    0  0.00000000000E+00  0.00000000000E+00  0.73440527895E+03  0.73440527895E+03  0.25500000920E-02 0. -1.
       -2   -1    0    0    0  501  0.00000000000E+00  0.00000000000E+00 -0.15113438639E+04  0.15113438639E+04  0.25500000920E-02 0.  1.
    10030    2    1    2    0    0  0.00000000000E+00  0.00000000000E+00 -0.77693858499E+03  0.22457491429E+04  0.21070727676E+04 0.  0.
        1    1    3    3  502    0 -0.48957934851E+03 -0.75181639797E+03  0.20016838570E+03  0.91922968697E+03  0.50400001928E-02 0. -1.
       -1    1    3    3    0  502  0.48957934851E+03  0.75181639797E+03 -0.97710697068E+03  0.13265194559E+04  0.50400001928E-02 0.  1.
</event>
<event>
 5   0  0.8525278E-05  0.2173157E+04  0.7818609E-02  0.8529685E-01
       -1   -1    0    0    0  501  0.00000000000E+00  0.00000000000E+00  0.76359921599E+03  0.76359921601E+03  0.50400001928E-02 0.  1.
        1   -1    0    0  501    0  0.00000000000E+00  0.00000000000E+00 -0.15461678226E+04  0.15461678226E+04  0.50400001928E-02 0. -1.
    10030    2    1    2    0    0  0.00000000000E+00  0.00000000000E+00 -0.78256860663E+03  0.23097670386E+04  0.21731567244E+04 0.  0.
        4    1    3    3  502    0 -0.61143893677E+03 -0.46453212528E+03  0.42580978432E+03  0.87804513218E+03  0.12699999809E+01 0. -1.
       -4    1    3    3    0  502  0.61143893677E+03  0.46453212528E+03 -0.12083783909E+04  0.14317219065E+04  0.12699999809E+01 0.  1.
</event>
<event>
 5   0  0.1815400E-04  0.2113838E+04  0.7818609E-02  0.8555172E-01
       -2   -1    0    0    0  501  0.00000000000E+00  0.00000000000E+00  0.73598845275E+03  0.73598845275E+03  0.25500000920E-02 0. -1.
        2   -1    0    0  501    0  0.00000000000E+00  0.00000000000E+00 -0.15177931278E+04  0.15177931278E+04  0.25500000920E-02 0.  1.
    10030    2    1    2    0    0  0.00000000000E+00  0.00000000000E+00 -0.78180467501E+03  0.22537815805E+04  0.21138384193E+04 0.  0.
        3    1    3    3  502    0 -0.53588076580E+03 -0.56124340321E+03 -0.11559846635E+04  0.13922869335E+04  0.10100000352E+00 0.  1.
       -3    1    3    3    0  502  0.53588076580E+03  0.56124340321E+03  0.37417998850E+03  0.86149464699E+03  0.10100000352E+00 0. -1.
</event>
<event>
 5   0  0.8525278E-05  0.2115659E+04  0.7818609E-02  0.8554377E-01
        1   -1    0    0  501    0  0.00000000000E+00  0.00000000000E+00  0.81019609431E+03  0.81019609432E+03  0.50400001928E-02 0. -1.
       -1   -1    0    0    0  501  0.00000000000E+00  0.00000000000E+00 -0.13811507052E+04  0.13811507052E+04  0.50400001928E-02 0.  1.
    10030    2    1    2    0    0  0.00000000000E+00  0.00000000000E+00 -0.57095461091E+03  0.21913467995E+04  0.21156586748E+04 0.  0.
        4    1    3    3  502    0 -0.97028649590E+03 -0.40151440654E+03 -0.41784431679E+03  0.11301615764E+04  0.12699999809E+01 0. -1.
       -4    1    3    3    0  502  0.97028649590E+03  0.40151440654E+03 -0.15311029412E+03  0.10611852232E+04  0.12699999809E+01 0.  1.
</event>
<event>
 5   0  0.6441125E-05  0.2060688E+04  0.7818609E-02  0.8578761E-01
       -3   -1    0    0    0  501  0.00000000000E+00  0.00000000000E+00  0.73836529438E+03  0.73836530129E+03  0.10100000352E+00 0. -1.
        3   -1    0    0  501    0  0.00000000000E+00  0.00000000000E+00 -0.14377820826E+04  0.14377820861E+04  0.10100000352E+00 0.  1.
    10030    2    1    2    0    0  0.00000000000E+00  0.00000000000E+00 -0.69941678818E+03  0.21761473874E+04  0.20606876542E+04 0.  0.
        4    1    3    3  502    0 -0.42091960567E+03 -0.77930050917E+03  0.20621295961E+03  0.90939979967E+03  0.12699999809E+01 0. -1.
       -4    1    3    3    0  502  0.42091960567E+03  0.77930050917E+03 -0.90562974778E+03  0.12667475877E+04  0.12699999809E+01 0.  1.
</event>
<event>
 5   0  0.8525278E-05  0.1336441E+04  0.7818609E-02  0.9001156E-01
        1   -1    0    0  501    0  0.00000000000E+00  0.00000000000E+00  0.13817956310E+04  0.13817956310E+04  0.50400001928E-02 0. -1.
       -1   -1    0    0    0  501  0.00000000000E+00  0.00000000000E+00 -0.32314392700E+03  0.32314392704E+03  0.50400001928E-02 0.  1.
    10030    2    1    2    0    0  0.00000000000E+00  0.00000000000E+00  0.10586517040E+04  0.17049395581E+04  0.13364413441E+04 0.  0.
        4    1    3    3  502    0 -0.54941046581E+03  0.31499979982E+03  0.80127063423E+03  0.10213290244E+04  0.12699999809E+01 0. -1.
       -4    1    3    3    0  502  0.54941046581E+03 -0.31499979982E+03  0.25738106981E+03  0.68361053372E+03  0.12699999809E+01 0.  1.
</event>
<event>
 5   0  0.8486612E-05  0.2107552E+04  0.7818609E-02  0.8557924E-01
        1   -1    0    0  501    0  0.00000000000E+00  0.00000000000E+00  0.27744612117E+04  0.27744612117E+04  0.50400001928E-02 0.  1.
       -1   -1    0    0    0  501  0.00000000000E+00  0.00000000000E+00 -0.40023763340E+03  0.40023763343E+03  0.50400001928E-02 0. -1.
    10030    2    1    2    0    0  0.00000000000E+00  0.00000000000E+00  0.23742235783E+04  0.31746988451E+04  0.21075519347E+04 0.  0.
        5    1    3    3  502    0 -0.36888569933E+03 -0.61512319036E+03  0.23499944680E+04  0.24570204086E+04  0.46999998093E+01 0.  1.
       -5    1    3    3    0  502  0.36888569933E+03  0.61512319036E+03  0.24229110266E+02  0.71767843654E+03  0.46999998093E+01 0. -1.
</event>
<event>
 5   0  0.1886323E-04  0.2232543E+04  0.7818609E-02  0.8505004E-01
       -2   -1    0    0    0  501  0.00000000000E+00  0.00000000000E+00  0.75088881119E+03  0.75088881119E+03  0.25500000920E-02 0. -1.
        2   -1    0    0  501    0  0.00000000000E+00  0.00000000000E+00 -0.16594502036E+04  0.16594502036E+04  0.25500000920E-02 0.  1.
    10030    2    1    2    0    0  0.00000000000E+00  0.00000000000E+00 -0.90856139243E+03  0.24103390148E+04  0.22325434738E+04 0.  0.
        2    1    3    3  502    0  0.29231426071E+03 -0.10733992290E+04 -0.35515922347E+03  0.11678063221E+04  0.25500000920E-02 0. -1.
       -2    1    3    3    0  502 -0.29231426071E+03  0.10733992290E+04 -0.55340216896E+03  0.12425326927E+04  0.25500000920E-02 0.  1.
</event>
<event>
 5   0  0.1777590E-04  0.2051370E+04  0.7818609E-02  0.8582973E-01
       -2   -1    0    0    0  501  0.00000000000E+00  0.00000000000E+00  0.63089989521E+03  0.63089989522E+03  0.25500000920E-02 0. -1.
        2   -1    0    0  501    0  0.00000000000E+00  0.00000000000E+00 -0.16675061868E+04  0.16675061868E+04  0.25500000920E-02 0.  1.
    10030    2    1    2    0    0  0.00000000000E+00  0.00000000000E+00 -0.10366062916E+04  0.22984060820E+04  0.20513697653E+04 0.  0.
        4    1    3    3  502    0  0.36961285551E+03  0.92074520043E+03 -0.22690111890E+03  0.10177775384E+04  0.12699999809E+01 0.  1.
       -4    1    3    3    0  502 -0.36961285551E+03 -0.92074520043E+03 -0.80970517269E+03  0.12806285436E+04  0.12699999809E+01 0. -1.
</event>
<event>
 5   0  0.1921687E-04  0.2100316E+04  0.7818609E-02  0.8561104E-01
       -2   -1    0    0    0  501  0.00000000000E+00  0.00000000000E+00  0.73009480729E+03  0.73009480730E+03  0.25500000920E-02 0. -1.
        2   -1    0    0  501    0  0.00000000000E+00  0.00000000000E+00 -0.15105322189E+04  0.15105322189E+04  0.25500000920E-02 0.  1.
    10030    2    1    2    0    0  0.00000000000E+00  0.00000000000E+00 -0.78043741165E+03  0.22406270262E+04  0.21003159089E+04 0.  0.
        5    1    3    3  502    0 -0.41009385651E+03  0.69802444968E+03 -0.11037783593E+04  0.13688549448E+04  0.46999998093E+01 0.  1.
       -5    1    3    3    0  502  0.41009385651E+03 -0.69802444968E+03  0.32334094766E+03  0.87177208141E+03  0.46999998093E+01 0. -1.
</event>
<event>
 5   0  0.6441125E-05  0.2044203E+04  0.7818609E-02  0.8586229E-01
       -4   -1    0    0    0  501  0.00000000000E+00  0.00000000000E+00  0.83986622522E+03  0.83986718543E+03  0.12699999809E+01 0. -1.
        4   -1    0    0  501    0  0.00000000000E+00  0.00000000000E+00 -0.12438761049E+04  0.12438767532E+04  0.12699999809E+01 0.  1.
    10030    2    1    2    0    0  0.00000000000E+00  0.00000000000E+00 -0.40400987968E+03  0.20837439387E+04  0.20442027343E+04 0.  0.
        4    1    3    3  502    0 -0.23692201247E+03  0.89787326276E+03 -0.63732669004E+03  0.11262749925E+04  0.12699999809E+01 0.  1.
       -4    1    3    3    0  502  0.23692201247E+03 -0.89787326276E+03  0.23331681036E+03  0.95746894617E+03  0.12699999809E+01 0. -1.
</event>
<event>
 5   0  0.8525278E-05  0.1463234E+04  0.7818609E-02  0.8909277E-01
       -1   -1    0    0    0  501  0.00000000000E+00  0.00000000000E+00  0.81634777992E+03  0.81634777994E+03  0.50400001928E-02 0. -1.
        1   -1    0    0  501    0  0.00000000000E+00  0.00000000000E+00 -0.65568095955E+03  0.65568095957E+03  0.50400001928E-02 0.  1.
    10030    2    1    2    0    0  0.00000000000E+00  0.00000000000E+00  0.16066682037E+03  0.14720287395E+04  0.14632343567E+04 0.  0.
        4    1    3    3  502    0  0.28106865568E+03 -0.66790385604E+03 -0.21103817954E+02  0.72494284888E+03  0.12699999809E+01 0.  1.
       -4    1    3    3    0  502 -0.28106865568E+03  0.66790385604E+03  0.18177063832E+03  0.74708589063E+03  0.12699999809E+01 0. -1.
</event>
<event>
 5   0  0.8237966E-05  0.2178873E+04  0.7818609E-02  0.8527273E-01
        1   -1    0    0  501    0  0.00000000000E+00  0.00000000000E+00  0.94713631225E+03  0.94713631226E+03  0.50400001928E-02 0.  1.
       -1   -1    0    0    0  501  0.00000000000E+00  0.00000000000E+00 -0.12531165383E+04  0.12531165383E+04  0.50400001928E-02 0. -1.
    10030    2    1    2    0    0  0.00000000000E+00  0.00000000000E+00 -0.30598022601E+03  0.22002528505E+04  0.21788732656E+04 0.  0.
        1    1    3    3  502    0  0.28615128667E+03  0.97716119584E+02  0.90391294190E+03  0.95314721079E+03  0.50400001928E-02 0.  1.
       -1    1    3    3    0  502 -0.28615128667E+03 -0.97716119584E+02 -0.12098931679E+04  0.12471056397E+04  0.50400001928E-02 0. -1.
</event>
<event>
 5   0  0.1815400E-04  0.1953966E+04  0.7818609E-02  0.8628450E-01
        2   -1    0    0  501    0  0.00000000000E+00  0.00000000000E+00  0.14776382866E+04  0.14776382866E+04  0.25500000920E-02 0. -1.
       -2   -1    0    0    0  501  0.00000000000E+00  0.00000000000E+00 -0.64596065237E+03  0.64596065237E+03  0.25500000920E-02 0.  1.
    10030    2    1    2    0    0  0.00000000000E+00  0.00000000000E+00  0.83167763426E+03  0.21235989390E+04  0.19539664190E+04 0.  0.
        3    1    3    3  502    0 -0.18025678096E+03 -0.23220159845E+03 -0.59675857180E+03  0.66522995470E+03  0.10100000352E+00 0.  1.
       -3    1    3    3    0  502  0.18025678096E+03  0.23220159845E+03  0.14284362061E+04  0.14583689843E+04  0.10100000352E+00 0. -1.
</event>
<event>
 5   0  0.1810875E-04  0.2117803E+04  0.7818609E-02  0.8553441E-01
        2   -1    0    0  501    0  0.00000000000E+00  0.00000000000E+00  0.19873400005E+04  0.19873400005E+04  0.25500000920E-02 0. -1.
       -2   -1    0    0    0  501  0.00000000000E+00  0.00000000000E+00 -0.56420787783E+03  0.56420787783E+03  0.25500000920E-02 0.  1.
    10030    2    1    2    0    0  0.00000000000E+00  0.00000000000E+00  0.14231321226E+04  0.25515478783E+04  0.21178034698E+04 0.  0.
        1    1    3    3  502    0  0.87685500955E+02 -0.10156201379E+04  0.36635133949E+03  0.10832295766E+04  0.50400001928E-02 0.  1.
       -1    1    3    3    0  502 -0.87685500955E+02  0.10156201379E+04  0.10567807832E+04  0.14683183017E+04  0.50400001928E-02 0. -1.
</event>
<event>
 5   0  0.1921687E-04  0.2118800E+04  0.7818609E-02  0.8553007E-01
       -2   -1    0    0    0  501  0.00000000000E+00  0.00000000000E+00  0.82214990338E+03  0.82214990338E+03  0.25500000920E-02 0.  1.
        2   -1    0    0  501    0  0.00000000000E+00  0.00000000000E+00 -0.13651144913E+04  0.13651144913E+04  0.25500000920E-02 0. -1.
    10030    2    1    2    0    0  0.00000000000E+00  0.00000000000E+00 -0.54296458795E+03  0.21872643947E+04  0.21188003654E+04 0.  0.
        5    1    3    3  502    0  0.52443553935E+03  0.67516118465E+02  0.67617598246E+03  0.85838634101E+03  0.46999998093E+01 0.  1.
       -5    1    3    3    0  502 -0.52443553935E+03 -0.67516118465E+02 -0.12191405704E+04  0.13288780537E+04  0.46999998093E+01 0. -1.
</event>
<event>
 5   0  0.8755004E-05  0.2035061E+04  0.7818609E-02  0.8590402E-01
        1   -1    0    0  501    0  0.00000000000E+00  0.00000000000E+00  0.19766667727E+04  0.19766667727E+04  0.50400001928E-02 0.  1.
       -1   -1    0    0    0  501  0.00000000000E+00  0.00000000000E+00 -0.52379495727E+03  0.52379495730E+03  0.50400001928E-02 0. -1.
    10030    2    1    2    0    0  0.00000000000E+00  0.00000000000E+00  0.14528718154E+04  0.25004617300E+04  0.20350607733E+04 0.  0.
        3    1    3    3  502    0  0.43937391655E+03  0.88057527629E+03  0.10442511951E+04  0.14348947084E+04  0.10100000352E+00 0. -1.
       -3    1    3    3    0  502 -0.43937391655E+03 -0.88057527629E+03  0.40862062033E+03  0.10655670215E+04  0.10100000352E+00 0.  1.
</event>
<event>
 5   0  0.1886323E-04  0.2189595E+04  0.7818609E-02  0.8522771E-01
        2   -1    0    0  501    0  0.00000000000E+00  0.00000000000E+00  0.13735462073E+04  0.13735462073E+04  0.25500000920E-02 0. -1.
       -2   -1    0    0    0  501  0.00000000000E+00  0.00000000000E+00 -0.87261839884E+03  0.87261839884E+03  0.25500000920E-02 0.  1.
    10030    2    1    2    0    0  0.00000000000E+00  0.00000000000E+00  0.50092780847E+03  0.22461646061E+04  0.21895951152E+04 0.  0.
        2    1    3    3  502    0  0.55555245532E+03  0.71533586718E+03 -0.38043562702E+03  0.98238241016E+03  0.25500000920E-02 0.  1.
       -2    1    3    3    0  502 -0.55555245532E+03 -0.71533586718E+03  0.88136343548E+03  0.12637821960E+04  0.25500000920E-02 0. -1.
</event>
<event>
 5   0  0.8237966E-05  0.2105942E+04  0.7818609E-02  0.8558631E-01
       -1   -1    0    0    0  501  0.00000000000E+00  0.00000000000E+00  0.50691927533E+03  0.50691927536E+03  0.50400001928E-02 0.  1.
        1   -1    0    0  501    0  0.00000000000E+00  0.00000000000E+00 -0.21872268922E+04  0.21872268922E+04  0.50400001928E-02 0. -1.
    10030    2    1    2    0    0  0.00000000000E+00  0.00000000000E+00 -0.16803076168E+04  0.26941461675E+04  0.21059415673E+04 0.  0.
        1    1    3    3  502    0 -0.44115051737E+03  0.94680356657E+03 -0.66996893191E+03  0.12409307565E+04  0.50400001928E-02 0. -1.
       -1    1    3    3    0  502  0.44115051737E+03 -0.94680356657E+03 -0.10103386849E+04  0.14532154111E+04  0.50400001928E-02 0.  1.
</event>
<event>
 5   0  0.1815400E-04  0.2172091E+04  0.7818609E-02  0.8530135E-01
       -2   -1    0    0    0  501  0.00000000000E+00  0.00000000000E+00  0.50449236074E+03  0.50449236074E+03  0.25500000920E-02 0.  1.
        2   -1    0    0  501    0  0.00000000000E+00  0.00000000000E+00 -0.23379830675E+04  0.23379830675E+04  0.25500000920E-02 0. -1.
    10030    2    1    2    0    0  0.00000000000E+00  0.00000000000E+00 -0.18334907067E+04  0.28424754282E+04  0.21720907873E+04 0.  0.
        3    1    3    3  502    0 -0.26876551721E+02 -0.98428721155E+03 -0.15163674652E+04  0.18080138173E+04  0.10100000352E+00 0. -1.
       -3    1    3    3    0  502  0.26876551721E+02  0.98428721155E+03 -0.31712324148E+03  0.10344616109E+04  0.10100000352E+00 0.  1.
</event>
<event>
 5   0  0.1886323E-04  0.1903344E+04  0.7818609E-02  0.8653194E-01
        2   -1    0    0  501    0  0.00000000000E+00  0.00000000000E+00  0.13561405231E+04  0.13561405231E+04  0.25500000920E-02 0.  1.
       -2   -1    0    0    0  501  0.00000000000E+00  0.00000000000E+00 -0.66783594146E+03  0.66783594146E+03  0.25500000920E-02 0. -1.
    10030    2    1    2    0    0  0.00000000000E+00  0.00000000000E+00  0.68830458161E+03  0.20239764645E+04  0.19033437766E+04 0.  0.
        2    1    3    3  502    0 -0.76472875243E+03 -0.27658865616E+03 -0.18151435164E+03  0.83322194484E+03  0.25500000920E-02 0. -1.
       -2    1    3    3    0  502  0.76472875243E+03  0.27658865616E+03  0.86981893325E+03  0.11907545197E+04  0.25500000920E-02 0.  1.
</event>
<event>
 5   0  0.8237966E-05  0.2077329E+04  0.7818609E-02  0.8571296E-01
       -1   -1    0    0    0  501  0.00000000000E+00  0.00000000000E+00  0.16086937669E+04  0.16086937669E+04  0.50400001928E-02 0.  1.
        1   -1    0    0  501    0  0.00000000000E+00  0.00000000000E+00 -0.67062114348E+03  0.67062114350E+03  0.50400001928E-02 0. -1.
    10030    2    1    2    0    0  0.00000000000E+00  0.00000000000E+00  0.93807262339E+03  0.22793149104E+04  0.20773291058E+04 0.  0.
        1    1    3    3  502    0  0.48358494639E+03  0.80197179427E+03  0.96195051078E+03  0.13425207426E+04  0.50400001928E-02 0. -1.
       -1    1    3    3    0  502 -0.48358494639E+03 -0.80197179427E+03 -0.23877887394E+02  0.93679416774E+03  0.50400001928E-02 0.  1.
</event>
<event>
 5   0  0.1921687E-04  0.2107077E+04  0.7818609E-02  0.8558132E-01
       -2   -1    0    0    0  501  0.00000000000E+00  0.00000000000E+00  0.37392657684E+03  0.37392657685E+03  0.25500000920E-02 0.  1.
        2   -1    0    0  501    0  0.00000000000E+00  0.00000000000E+00 -0.29683464146E+04  0.29683464146E+04  0.25500000920E-02 0. -1.
    10030    2    1    2    0    0  0.00000000000E+00  0.00000000000E+00 -0.25944198377E+04  0.33422729914E+04  0.21070772304E+04 0.  0.
        5    1    3    3  502    0  0.12740702017E+03 -0.15854392246E+03 -0.29368912754E+04  0.29439295470E+04  0.46999998093E+01 0. -1.
       -5    1    3    3    0  502 -0.12740702017E+03  0.15854392246E+03  0.34247143765E+03  0.39834344446E+03  0.46999998093E+01 0.  1.
</event>
<event>
 5   0  0.1886323E-04  0.2090227E+04  0.7818609E-02  0.8565561E-01
       -2   -1    0    0    0  501  0.00000000000E+00  0.00000000000E+00  0.11675997528E+04  0.11675997528E+04  0.25500000920E-02 0. -1.
        2   -1    0    0  501    0  0.00000000000E+00  0.00000000000E+00 -0.93547624939E+03  0.93547624939E+03  0.25500000920E-02 0.  1.
    10030    2    1    2    0    0  0.00000000000E+00  0.00000000000E+00  0.23212350343E+03  0.21030760022E+04  0.20902266265E+04 0.  0.
        2    1    3    3  502    0 -0.20893117451E+03 -0.27109171997E+03 -0.87748972895E+03  0.94187641479E+03  0.25500000920E-02 0.  1.
       -2    1    3    3    0  502  0.20893117451E+03  0.27109171997E+03  0.11096132324E+04  0.11611995874E+04  0.25500000920E-02 0. -1.
</event>
<event>
 5   0  0.6441125E-05  0.2126870E+04  0.7818609E-02  0.8549498E-01
        4   -1    0    0  501    0  0.00000000000E+00  0.00000000000E+00  0.10076960812E+04  0.10076968815E+04  0.12699999809E+01 0. -1.
       -4   -1    0    0    0  501  0.00000000000E+00  0.00000000000E+00 -0.11222555783E+04  0.11222562969E+04  0.12699999809E+01 0.  1.
    10030    2    1    2    0    0  0.00000000000E+00  0.00000000000E+00 -0.11455949707E+03  0.21299531784E+04  0.21268701568E+04 0.  0.
        2    1    3    3  502    0 -0.65457632256E+01 -0.61245084806E+03  0.81332227757E+03  0.10181512734E+04  0.25500000920E-02 0. -1.
       -2    1    3    3    0  502  0.65457632256E+01  0.61245084806E+03 -0.92788177463E+03  0.11118019050E+04  0.25500000920E-02 0.  1.
</event>
<event>
 5   0  0.8237966E-05  0.2162651E+04  0.7818609E-02  0.8534136E-01
        1   -1    0    0  501    0  0.00000000000E+00  0.00000000000E+00  0.92390157803E+03  0.92390157805E+03  0.50400001928E-02 0.  1.
       -1   -1    0    0    0  501  0.00000000000E+00  0.00000000000E+00 -0.12655727615E+04  0.12655727616E+04  0.50400001928E-02 0. -1.
    10030    2    1    2    0    0  0.00000000000E+00  0.00000000000E+00 -0.34167118351E+03  0.21894743396E+04  0.21626508470E+04 0.  0.
        1    1    3    3  502    0  0.80953445026E+03 -0.78166916976E+02 -0.89228098833E+03  0.12073199473E+04  0.50400001928E-02 0. -1.
       -1    1    3    3    0  502 -0.80953445026E+03  0.78166916976E+02  0.55060980482E+03  0.98215439227E+03  0.50400001928E-02 0.  1.
</event>
<event>
 5   0  0.1777590E-04  0.2105872E+04  0.7818609E-02  0.8558661E-01
       -2   -1    0    0    0  501  0.00000000000E+00  0.00000000000E+00  0.73755648178E+03  0.73755648179E+03  0.25500000920E-02 0. -1.
        2   -1    0    0  501    0  0.00000000000E+00  0.00000000000E+00 -0.15031722648E+04  0.15031722648E+04  0.25500000920E-02 0.  1.
    10030    2    1    2    0    0  0.00000000000E+00  0.00000000000E+00 -0.76561578299E+03  0.22407287466E+04  0.21058722156E+04 0.  0.
        4    1    3    3  502    0  0.22855603744E+03  0.79774458712E+02  0.70754380862E+03  0.74781125997E+03  0.12699999809E+01 0. -1.
       -4    1    3    3    0  502 -0.22855603744E+03 -0.79774458712E+02 -0.14731595916E+04  0.14929174866E+04  0.12699999809E+01 0.  1.
</event>
<event>
 5   0  0.1815400E-04  0.2131143E+04  0.7818609E-02  0.8547647E-01
        2   -1    0    0  501    0  0.00000000000E+00  0.00000000000E+00  0.26180659379E+04  0.26180659379E+04  0.25500000920E-02 0. -1.
       -2   -1    0    0    0  501  0.00000000000E+00  0.00000000000E+00 -0.43369516225E+03  0.43369516226E+03  0.25500000920E-02 0.  1.
    10030    2    1    2    0    0  0.00000000000E+00  0.00000000000E+00  0.21843707756E+04  0.30517611001E+04  0.21311429156E+04 0.  0.
        3    1    3    3  502    0 -0.15551357062E+03  0.98573508107E+03  0.55718216091E+03  0.11429392334E+04  0.10100000352E+00 0.  1.
       -3    1    3    3    0  502  0.15551357062E+03 -0.98573508107E+03  0.16271886147E+04  0.19088218667E+04  0.10100000352E+00 0. -1.
</event>
<event>
 5   0  0.6441125E-05  0.2060674E+04  0.7818609E-02  0.8578767E-01
        4   -1    0    0  501    0  0.00000000000E+00  0.00000000000E+00  0.10674389243E+04  0.10674396798E+04  0.12699999809E+01 0. -1.
       -4   -1    0    0    0  501  0.00000000000E+00  0.00000000000E+00 -0.99452311180E+03  0.99452392270E+03  0.12699999809E+01 0.  1.
    10030    2    1    2    0    0  0.00000000000E+00  0.00000000000E+00  0.72915812459E+02  0.20619636025E+04  0.20606739631E+04 0.  0.
        4    1    3    3  502    0  0.68227595481E+03 -0.32258548040E+03  0.73834597685E+03  0.10558021903E+04  0.12699999809E+01 0. -1.
       -4    1    3    3    0  502 -0.68227595481E+03  0.32258548040E+03 -0.66543016439E+03  0.10061614121E+04  0.12699999809E+01 0.  1.
</event>
<event>
 5   0  0.1815400E-04  0.2074878E+04  0.7818609E-02  0.8572391E-01
        2   -1    0    0  501    0  0.00000000000E+00  0.00000000000E+00  0.13682911237E+04  0.13682911237E+04  0.25500000920E-02 0. -1.
       -2   -1    0    0    0  501  0.00000000000E+00  0.00000000000E+00 -0.78658708031E+03  0.78658708032E+03  0.25500000920E-02 0.  1.
    10030    2    1    2    0    0  0.00000000000E+00  0.00000000000E+00  0.58170404339E+03  0.21548782040E+04  0.20748784254E+04 0.  0.
        3    1    3    3  502    0  0.69242373051E+03 -0.76052795588E+03  0.14987314701E+03  0.10393822034E+04  0.10100000352E+00 0.  1.
       -3    1    3    3    0  502 -0.69242373051E+03  0.76052795588E+03  0.43183089638E+03  0.11154960007E+04  0.10100000352E+00 0. -1.
</event>
<event>
 5   0  0.8755004E-05  0.2068627E+04  0.7818609E-02  0.8575191E-01
        1   -1    0    0  501    0  0.00000000000E+00  0.00000000000E+00  0.12838682963E+04  0.12838682963E+04  0.50400001928E-02 0.  1.
       -1   -1    0    0    0  501  0.00000000000E+00  0.00000000000E+00 -0.83326616020E+03  0.83326616022E+03  0.50400001928E-02 0. -1.
    10030    2    1    2    0    0  0.00000000000E+00  0.00000000000E+00  0.45060213610E+03  0.21171344565E+04  0.20686266028E+04 0.  0.
        3    1    3    3  502    0 -0.14820314125E+01 -0.80801627381E+03  0.88612881872E+03  0.11992150719E+04  0.10100000352E+00 0.  1.
       -3    1    3    3    0  502  0.14820314125E+01  0.80801627381E+03 -0.43552668262E+03  0.91791938460E+03  0.10100000352E+00 0. -1.
</event>
<event>
 5   0  0.8755004E-05  0.2129054E+04  0.7818609E-02  0.8548552E-01
        1   -1    0    0  501    0  0.00000000000E+00  0.00000000000E+00  0.22095772328E+04  0.22095772328E+04  0.50400001928E-02 0.  1.
       -1   -1    0    0    0  501  0.00000000000E+00  0.00000000000E+00 -0.51286619954E+03  0.51286619956E+03  0.50400001928E-02 0. -1.
    10030    2    1    2    0    0  0.00000000000E+00  0.00000000000E+00  0.16967110332E+04  0.27224434323E+04  0.21290537598E+04 0.  0.
        3    1    3    3  502    0 -0.15348367496E+03 -0.63650039097E+03 -0.22494467296E+03  0.69230780891E+03  0.10100000352E+00 0. -1.
       -3    1    3    3    0  502  0.15348367496E+03  0.63650039097E+03  0.19216557062E+04  0.20301356234E+04  0.10100000352E+00 0.  1.
</event>
<event>
 5   0  0.1777590E-04  0.2094863E+04  0.7818609E-02  0.8563510E-01
       -2   -1    0    0    0  501  0.00000000000E+00  0.00000000000E+00  0.11078754231E+04  0.11078754231E+04  0.25500000920E-02 0. -1.
        2   -1    0    0  501    0  0.00000000000E+00  0.00000000000E+00 -0.99028483721E+03  0.99028483722E+03  0.25500000920E-02 0.  1.
    10030    2    1    2    0    0  0.00000000000E+00  0.00000000000E+00  0.11759058590E+03  0.20981602603E+04  0.20948625091E+04 0.  0.
        4    1    3    3  502    0  0.49411746974E+03  0.82805927143E+03 -0.35084291295E+03  0.10261221143E+04  0.12699999809E+01 0.  1.
       -4    1    3    3    0  502 -0.49411746974E+03 -0.82805927143E+03  0.46843349885E+03  0.10720381461E+04  0.12699999809E+01 0. -1.
</event>
<event>
 5   0  0.8486612E-05  0.2116203E+04  0.7818609E-02  0.8554139E-01
       -1   -1    0    0    0  501  0.00000000000E+00  0.00000000000E+00  0.10897027892E+04  0.10897027892E+04  0.50400001928E-02 0. -1.
        1   -1    0    0  501    0  0.00000000000E+00  0.00000000000E+00 -0.10274163221E+04  0.10274163221E+04  0.50400001928E-02 0.  1.
    10030    2    1    2    0    0  0.00000000000E+00  0.00000000000E+00  0.62286467124E+02  0.21171191113E+04  0.21162026669E+04 0.  0.
        5    1    3    3  502    0  0.62862260428E+03 -0.75165208529E+03 -0.36829036978E+03  0.10468080638E+04  0.46999998093E+01 0. -1.
       -5    1    3    3    0  502 -0.62862260428E+03  0.75165208529E+03  0.43057683691E+03  0.10703110475E+04  0.46999998093E+01 0.  1.
</event>
<event>
 5   0  0.8755004E-05  0.2057666E+04  0.7818609E-02  0.8580124E-01
       -1   -1    0    0    0  501  0.00000000000E+00  0.00000000000E+00  0.12208465168E+04  0.12208465168E+04  0.50400001928E-02 0. -1.
        1   -1    0    0  501    0  0.00000000000E+00  0.00000000000E+00 -0.86701938573E+03  0.86701938575E+03  0.50400001928E-02 0.  1.
    10030    2    1    2    0    0  0.00000000000E+00  0.00000000000E+00  0.35382713105E+03  0.20878659025E+04  0.20576662480E+04 0.  0.
        3    1    3    3  502    0  0.95595978734E+03  0.24305776279E+03 -0.11988828084E+03  0.99363444040E+03  0.10100000352E+00 0.  1.
       -3    1    3    3    0  502 -0.95595978734E+03 -0.24305776279E+03  0.47371541189E+03  0.10942314621E+04  0.10100000352E+00 0. -1.
</event>
<event>
 5   0  0.6441125E-05  0.1659274E+04  0.7818609E-02  0.8784939E-01
        3   -1    0    0  501    0  0.00000000000E+00  0.00000000000E+00  0.41985155627E+03  0.41985156841E+03  0.10100000352E+00 0. -1.
       -3   -1    0    0    0  501  0.00000000000E+00  0.00000000000E+00 -0.16393826001E+04  0.16393826032E+04  0.10100000352E+00 0.  1.
    10030    2    1    2    0    0  0.00000000000E+00  0.00000000000E+00 -0.12195310438E+04  0.20592341716E+04  0.16592737588E+04 0.  0.
        3    1    3    3  502    0  0.10317592488E+03  0.46913497627E+03 -0.14492522339E+04  0.15267825468E+04  0.10100000352E+00 0.  1.
       -3    1    3    3    0  502 -0.10317592488E+03 -0.46913497627E+03  0.22972119008E+03  0.53245162485E+03  0.10100000352E+00 0. -1.
</event>
<event>
 5   0  0.8755004E-05  0.2052107E+04  0.7818609E-02  0.8582639E-01
        1   -1    0    0  501    0  0.00000000000E+00  0.00000000000E+00  0.81796442208E+03  0.81796442210E+03  0.50400001928E-02 0. -1.
       -1   -1    0    0    0  501  0.00000000000E+00  0.00000000000E+00 -0.12870801434E+04  0.12870801434E+04  0.50400001928E-02 0.  1.
    10030    2    1    2    0    0  0.00000000000E+00  0.00000000000E+00 -0.46911572128E+03  0.21050445655E+04  0.20521069813E+04 0.  0.
        3    1    3    3  502    0  0.62055658242E+03  0.64526237551E+03 -0.74882050019E+03  0.11671273096E+04  0.10100000352E+00 0.  1.
       -3    1    3    3    0  502 -0.62055658242E+03 -0.64526237551E+03  0.27970477891E+03  0.93791725582E+03  0.10100000352E+00 0. -1.
</event>
<event>
 5   0  0.1810875E-04  0.1995560E+04  0.7818609E-02  0.8608699E-01
        2   -1    0    0  501    0  0.00000000000E+00  0.00000000000E+00  0.68229685898E+03  0.68229685898E+03  0.25500000920E-02 0. -1.
       -2   -1    0    0    0  501  0.00000000000E+00  0.00000000000E+00 -0.14591376827E+04  0.14591376827E+04  0.25500000920E-02 0.  1.
    10030    2    1    2    0    0  0.00000000000E+00  0.00000000000E+00 -0.77684082368E+03  0.21414345416E+04  0.19955601296E+04 0.  0.
        1    1    3    3  502    0  0.71988180453E+03 -0.17522141673E+03  0.32873824261E+03  0.81055609895E+03  0.50400001928E-02 0. -1.
       -1    1    3    3    0  502 -0.71988180453E+03  0.17522141673E+03 -0.11055790663E+04  0.13308784427E+04  0.50400001928E-02 0.  1.
</event>
<event>
 5   0  0.8271069E-05  0.1917063E+04  0.7818609E-02  0.8646410E-01
       -1   -1    0    0    0  501  0.00000000000E+00  0.00000000000E+00  0.72069844515E+03  0.72069844517E+03  0.50400001928E-02 0. -1.
        1   -1    0    0  501    0  0.00000000000E+00  0.00000000000E+00 -0.12748496509E+04  0.12748496509E+04  0.50400001928E-02 0.  1.
    10030    2    1    2    0    0  0.00000000000E+00  0.00000000000E+00 -0.55415120570E+03  0.19955480960E+04  0.19170625041E+04 0.  0.
        2    1    3    3  502    0  0.73185274265E+03  0.45272347299E+03 -0.71651427622E+03  0.11198034149E+04  0.25500000920E-02 0.  1.
       -2    1    3    3    0  502 -0.73185274265E+03 -0.45272347299E+03  0.16236307052E+03  0.87574468117E+03  0.25500000920E-02 0. -1.
</event>
<event>
 5   0  0.8755004E-05  0.1773651E+04  0.7818609E-02  0.8720438E-01
       -1   -1    0    0    0  501  0.00000000000E+00  0.00000000000E+00  0.66111258936E+03  0.66111258938E+03  0.50400001928E-02 0. -1.
        1   -1    0    0  501    0  0.00000000000E+00  0.00000000000E+00 -0.11895996630E+04  0.11895996630E+04  0.50400001928E-02 0.  1.
    10030    2    1    2    0    0  0.00000000000E+00  0.00000000000E+00 -0.52848707363E+03  0.18507122524E+04  0.17736508264E+04 0.  0.
        3    1    3    3  502    0 -0.74665449961E+03  0.39516250026E+03  0.17319160828E+02  0.84495343478E+03  0.10100000352E+00 0. -1.
       -3    1    3    3    0  502  0.74665449961E+03 -0.39516250026E+03 -0.54580623446E+03  0.10057588176E+04  0.10100000352E+00 0.  1.
</event>
<event>
 5   0  0.8271069E-05  0.2099050E+04  0.7818609E-02  0.8561662E-01
        1   -1    0    0  501    0  0.00000000000E+00  0.00000000000E+00  0.74605735662E+03  0.74605735664E+03  0.50400001928E-02 0. -1.
       -1   -1    0    0    0  501  0.00000000000E+00  0.00000000000E+00 -0.14764310216E+04  0.14764310217E+04  0.50400001928E-02 0.  1.
    10030    2    1    2    0    0  0.00000000000E+00  0.00000000000E+00 -0.73037366503E+03  0.22224883783E+04  0.20990495233E+04 0.  0.
        2    1    3    3  502    0  0.43094438660E+03  0.26923043860E+03  0.60713251523E+03  0.79171205907E+03  0.25500000920E-02 0. -1.
       -2    1    3    3    0  502 -0.43094438660E+03 -0.26923043860E+03 -0.13375061803E+04  0.14307763192E+04  0.25500000920E-02 0.  1.
</event>
<event>
 5   0  0.8755004E-05  0.2121242E+04  0.7818609E-02  0.8551944E-01
       -1   -1    0    0    0  501  0.00000000000E+00  0.00000000000E+00  0.99595136632E+03  0.99595136634E+03  0.50400001928E-02 0. -1.
        1   -1    0    0  501    0  0.00000000000E+00  0.00000000000E+00 -0.11294894203E+04  0.11294894204E+04  0.50400001928E-02 0.  1.
    10030    2    1    2    0    0  0.00000000000E+00  0.00000000000E+00 -0.13353805402E+03  0.21254407867E+04  0.21212416472E+04 0.  0.
        3    1    3    3  502    0  0.10224225746E+04 -0.28151546298E+03 -0.48911169580E+02  0.10615984127E+04  0.10100000352E+00 0.  1.
       -3    1    3    3    0  502 -0.10224225746E+04  0.28151546298E+03 -0.84626884438E+02  0.10638423740E+04  0.10100000352E+00 0. -1.
</event>
<event>
 5   0  0.1921687E-04  0.2112643E+04  0.7818609E-02  0.8555694E-01
        2   -1    0    0  501    0  0.00000000000E+00  0.00000000000E+00  0.11358130761E+04  0.11358130761E+04  0.25500000920E-02 0.  1.
       -2   -1    0    0    0  501  0.00000000000E+00  0.00000000000E+00 -0.98239325661E+03  0.98239325661E+03  0.25500000920E-02 0. -1.
    10030    2    1    2    0    0  0.00000000000E+00  0.00000000000E+00  0.15341981951E+03  0.21182063327E+04  0.21126429956E+04 0.  0.
        5    1    3    3  502    0  0.10462412952E+04 -0.13457332991E+03  0.21227149356E+02  0.10550845989E+04  0.46999998093E+01 0. -1.
       -5    1    3    3    0  502 -0.10462412952E+04  0.13457332991E+03  0.13219267016E+03  0.10631217339E+04  0.46999998093E+01 0.  1.
</event>
<event>
 5   0  0.1810875E-04  0.2015664E+04  0.7818609E-02  0.8599332E-01
       -2   -1    0    0    0  501  0.00000000000E+00  0.00000000000E+00  0.82695088141E+03  0.82695088141E+03  0.25500000920E-02 0.  1.
        2   -1    0    0  501    0  0.00000000000E+00  0.00000000000E+00 -0.12282778483E+04  0.12282778484E+04  0.25500000920E-02 0. -1.
    10030    2    1    2    0    0  0.00000000000E+00  0.00000000000E+00 -0.40132696694E+03  0.20552287298E+04  0.20156641082E+04 0.  0.
        1    1    3    3  502    0  0.17973160569E+03 -0.93076398795E+03  0.14825275754E+03  0.95948107407E+03  0.50400001928E-02 0.  1.
       -1    1    3    3    0  502 -0.17973160569E+03  0.93076398795E+03 -0.54957972449E+03  0.10957476557E+04  0.50400001928E-02 0. -1.
</event>
<event>
 5   0  0.8237966E-05  0.2082117E+04  0.7818609E-02  0.8569162E-01
        1   -1    0    0  501    0  0.00000000000E+00  0.00000000000E+00  0.84428023593E+03  0.84428023594E+03  0.50400001928E-02 0. -1.
       -1   -1    0    0    0  501  0.00000000000E+00  0.00000000000E+00 -0.12837008477E+04  0.12837008477E+04  0.50400001928E-02 0.  1.
    10030    2    1    2    0    0  0.00000000000E+00  0.00000000000E+00 -0.43942061174E+03  0.21279810836E+04  0.20821174362E+04 0.  0.
        1    1    3    3  502    0  0.53452936404E+03 -0.51221146694E+03  0.52834186599E+03  0.90952039849E+03  0.50400001928E-02 0. -1.
       -1    1    3    3    0  502 -0.53452936404E+03  0.51221146694E+03 -0.96776247773E+03  0.12184606851E+04  0.50400001928E-02 0.  1.
</event>
<event>
 5   0  0.1886323E-04  0.2086084E+04  0.7818609E-02  0.8567398E-01
        2   -1    0    0  501    0  0.00000000000E+00  0.00000000000E+00  0.13330333928E+04  0.13330333928E+04  0.25500000920E-02 0. -1.
       -2   -1    0    0    0  501  0.00000000000E+00  0.00000000000E+00 -0.81613605565E+03  0.81613605566E+03  0.25500000920E-02 0.  1.
    10030    2    1    2    0    0  0.00000000000E+00  0.00000000000E+00  0.51689733714E+03  0.21491694485E+04  0.20860840014E+04 0.  0.
        2    1    3    3  502    0  0.98538992672E+02 -0.37650396463E+03 -0.73853061912E+03  0.83480096062E+03  0.25500000920E-02 0.  1.
       -2    1    3    3    0  502 -0.98538992672E+02  0.37650396463E+03  0.12554279563E+04  0.13143684878E+04  0.25500000920E-02 0. -1.
</event>
<event>
 5   0  0.1921687E-04  0.2099022E+04  0.7818609E-02  0.8561674E-01
        2   -1    0    0  501    0  0.00000000000E+00  0.00000000000E+00  0.15142527498E+04  0.15142527498E+04  0.25500000920E-02 0. -1.
       -2   -1    0    0    0  501  0.00000000000E+00  0.00000000000E+00 -0.72740419057E+03  0.72740419058E+03  0.25500000920E-02 0.  1.
    10030    2    1    2    0    0  0.00000000000E+00  0.00000000000E+00  0.78684855924E+03  0.22416569404E+04  0.20990224351E+04 0.  0.
        5    1    3    3  502    0 -0.75777701233E+03 -0.10103132250E+03  0.11613249721E+04  0.13903708532E+04  0.46999998093E+01 0. -1.
       -5    1    3    3    0  502  0.75777701233E+03  0.10103132250E+03 -0.37447641284E+03  0.85128608723E+03  0.46999998093E+01 0.  1.
</event>
<event>
 5   0  0.8271069E-05  0.2177918E+04  0.7818609E-02  0.8527676E-01
        1   -1    0    0  501    0  0.00000000000E+00  0.00000000000E+00  0.13836234463E+04  0.13836234463E+04  0.50400001928E-02 0. -1.
       -1   -1    0    0    0  501  0.00000000000E+00  0.00000000000E+00 -0.85704811537E+03  0.85704811538E+03  0.50400001928E-02 0.  1.
    10030    2    1    2    0    0  0.00000000000E+00  0.00000000000E+00  0.52657533090E+03  0.22406715617E+04  0.21779181500E+04 0.  0.
        2    1    3    3  502    0 -0.99739183337E+03 -0.43176663448E+03  0.33320892947E+03  0.11367678244E+04  0.25500000920E-02 0. -1.
       -2    1    3    3    0  502  0.99739183337E+03  0.43176663448E+03  0.19336640143E+03  0.11039037373E+04  0.25500000920E-02 0.  1.
</event>
<event>
 5   0  0.1886323E-04  0.2047700E+04  0.7818609E-02  0.8584639E-01
       -2   -1    0    0    0  501  0.00000000000E+00  0.00000000000E+00  0.92065032032E+03  0.92065032032E+03  0.25500000920E-02 0.  1.
        2   -1    0    0  501    0  0.00000000000E+00  0.00000000000E+00 -0.11386172229E+04  0.11386172229E+04  0.25500000920E-02 0. -1.
    10030    2    1    2    0    0  0.00000000000E+00  0.00000000000E+00 -0.21796690255E+03  0.20592675432E+04  0.20476995004E+04 0.  0.
        2    1    3    3  502    0  0.41203786953E+03  0.80547542944E+03 -0.59096382282E+03  0.10806498569E+04  0.25500000920E-02 0. -1.
       -2    1    3    3    0  502 -0.41203786953E+03 -0.80547542944E+03  0.37299692027E+03  0.97861768628E+03  0.25500000920E-02 0.  1.
</event>
<event>
 5   0  0.1815400E-04  0.2089822E+04  0.7818609E-02  0.8565740E-01
       -2   -1    0    0    0  501  0.00000000000E+00  0.00000000000E+00  0.21482331997E+04  0.21482331997E+04  0.25500000920E-02 0. -1.
        2   -1    0    0  501    0  0.00000000000E+00  0.00000000000E+00 -0.50824955105E+03  0.50824955105E+03  0.25500000920E-02 0.  1.
    10030    2    1    2    0    0  0.00000000000E+00  0.00000000000E+00  0.16399836486E+04  0.26564827507E+04  0.20898215802E+04 0.  0.
        3    1    3    3  502    0  0.44182605394E+03  0.85362947395E+03  0.13409241897E+04  0.16498397599E+04  0.10100000352E+00 0. -1.
       -3    1    3    3    0  502 -0.44182605394E+03 -0.85362947395E+03  0.29905945894E+03  0.10066429908E+04  0.10100000352E+00 0.  1.
</event>
<event>
 5   0  0.6441125E-05  0.2135684E+04  0.7818609E-02  0.8545685E-01
        3   -1    0    0  501    0  0.00000000000E+00  0.00000000000E+00  0.10005500766E+04  0.10005500817E+04  0.10100000352E+00 0.  1.
       -3   -1    0    0    0  501  0.00000000000E+00  0.00000000000E+00 -0.11396599322E+04  0.11396599367E+04  0.10100000352E+00 0. -1.
    10030    2    1    2    0    0  0.00000000000E+00  0.00000000000E+00 -0.13910985568E+03  0.21402100184E+04  0.21356842863E+04 0.  0.
        4    1    3    3  502    0 -0.44640253161E+03  0.78366676360E+03  0.50338769560E+03  0.10328647547E+04  0.12699999809E+01 0.  1.
       -4    1    3    3    0  502  0.44640253161E+03 -0.78366676360E+03 -0.64249755128E+03  0.11073452636E+04  0.12699999809E+01 0. -1.
</event>
<event>
 5   0  0.8486612E-05  0.1963157E+04  0.7818609E-02  0.8624042E-01
        1   -1    0    0  501    0  0.00000000000E+00  0.00000000000E+00  0.16023744647E+04  0.16023744647E+04  0.50400001928E-02 0. -1.
       -1   -1    0    0    0  501  0.00000000000E+00  0.00000000000E+00 -0.60129295798E+03  0.60129295800E+03  0.50400001928E-02 0.  1.
    10030    2    1    2    0    0  0.00000000000E+00  0.00000000000E+00  0.10010815067E+04  0.22036674227E+04  0.19631571325E+04 0.  0.
        5    1    3    3  502    0 -0.29330017302E+02  0.50549064514E+03  0.14444480982E+04  0.15306317129E+04  0.46999998093E+01 0. -1.
       -5    1    3    3    0  502  0.29330017302E+02 -0.50549064514E+03 -0.44336659147E+03  0.67303570980E+03  0.46999998093E+01 0.  1.
</event>
<event>
 5   0  0.1810875E-04  0.1773683E+04  0.7818609E-02  0.8720421E-01
        2   -1    0    0  501    0  0.00000000000E+00  0.00000000000E+00  0.72391666974E+03  0.72391666975E+03  0.25500000920E-02 0. -1.
       -2   -1    0    0    0  501  0.00000000000E+00  0.00000000000E+00 -0.10864337439E+04  0.10864337439E+04  0.25500000920E-02 0.  1.
    10030    2    1    2    0    0  0.00000000000E+00  0.00000000000E+00 -0.36251707413E+03  0.18103504136E+04  0.17736826072E+04 0.  0.
        1    1    3    3  502    0 -0.36338519141E+03 -0.62132695479E+02 -0.10045175633E+04  0.10700302819E+04  0.50400001928E-02 0.  1.
       -1    1    3    3    0  502  0.36338519141E+03  0.62132695479E+02  0.64200048922E+03  0.74032013168E+03  0.50400001928E-02 0. -1.
</event>
<event>
 5   0  0.8525278E-05  0.2108955E+04  0.7818609E-02  0.8557309E-01
        1   -1    0    0  501    0  0.00000000000E+00  0.00000000000E+00  0.11216880174E+04  0.11216880174E+04  0.50400001928E-02 0.  1.
       -1   -1    0    0    0  501  0.00000000000E+00  0.00000000000E+00 -0.99129420016E+03  0.99129420017E+03  0.50400001928E-02 0. -1.
    10030    2    1    2    0    0  0.00000000000E+00  0.00000000000E+00  0.13039381725E+03  0.21129822176E+04  0.21089550266E+04 0.  0.
        4    1    3    3  502    0 -0.67564263483E+03 -0.11596568497E+02  0.87624487699E+03  0.11065415255E+04  0.12699999809E+01 0.  1.
       -4    1    3    3    0  502  0.67564263483E+03  0.11596568497E+02 -0.74585105974E+03  0.10064406921E+04  0.12699999809E+01 0. -1.
</event>
<event>
 5   0  0.8271069E-05  0.1450423E+04  0.7818609E-02  0.8918107E-01
        1   -1    0    0  501    0  0.00000000000E+00  0.00000000000E+00  0.79389238142E+03  0.79389238144E+03  0.50400001928E-02 0. -1.
       -1   -1    0    0    0  501  0.00000000000E+00  0.00000000000E+00 -0.66247247279E+03  0.66247247281E+03  0.50400001928E-02 0.  1.
    10030    2    1    2    0    0  0.00000000000E+00  0.00000000000E+00  0.13141990863E+03  0.14563648542E+04  0.14504231784E+04 0.  0.
        2    1    3    3  502    0 -0.18734761574E+03 -0.84572064827E+01  0.76912323929E+03  0.79165725582E+03  0.25500000920E-02 0. -1.
       -2    1    3    3    0  502  0.18734761574E+03  0.84572064827E+01 -0.63770333066E+03  0.66470759843E+03  0.25500000920E-02 0.  1.
</event>
<event>
 5   0  0.1777590E-04  0.2054472E+04  0.7818609E-02  0.8581568E-01
       -2   -1    0    0    0  501  0.00000000000E+00  0.00000000000E+00  0.10011599822E+04  0.10011599822E+04  0.25500000920E-02 0. -1.
        2   -1    0    0  501    0  0.00000000000E+00  0.00000000000E+00 -0.10539909749E+04  0.10539909749E+04  0.25500000920E-02 0.  1.
    10030    2    1    2    0    0  0.00000000000E+00  0.00000000000E+00 -0.52830992651E+02  0.20551509571E+04  0.20544717917E+04 0.  0.
        4    1    3    3  502    0  0.74444343763E+03 -0.58035108300E+03 -0.43177601141E+03  0.10379959288E+04  0.12699999809E+01 0.  1.
       -4    1    3    3    0  502 -0.74444343763E+03  0.58035108300E+03  0.37894501876E+03  0.10171550283E+04  0.12699999809E+01 0. -1.
</event>
<event>
 5   0  0.1886323E-04  0.1626163E+04  0.7818609E-02  0.8804634E-01
        2   -1    0    0  501    0  0.00000000000E+00  0.00000000000E+00  0.95844515315E+03  0.95844515315E+03  0.25500000920E-02 0. -1.
       -2   -1    0    0    0  501  0.00000000000E+00  0.00000000000E+00 -0.68976464609E+03  0.68976464610E+03  0.25500000920E-02 0.  1.
    10030    2    1    2    0    0  0.00000000000E+00  0.00000000000E+00  0.26868050706E+03  0.16482097992E+04  0.16261630691E+04 0.  0.
        2    1    3    3  502    0 -0.54411821030E+03  0.15477850532E+03 -0.45759865542E+03  0.72761084512E+03  0.25500000920E-02 0.  1.
       -2    1    3    3    0  502  0.54411821030E+03 -0.15477850532E+03  0.72627916248E+03  0.92059895413E+03  0.25500000920E-02 0. -1.
</event>
<event>
 5   0  0.1921687E-04  0.2126631E+04  0.7818609E-02  0.8549602E-01
        2   -1    0    0  501    0  0.00000000000E+00  0.00000000000E+00  0.12819634225E+04  0.12819634225E+04  0.25500000920E-02 0.  1.
       -2   -1    0    0    0  501  0.00000000000E+00  0.00000000000E+00 -0.88195936954E+03  0.88195936955E+03  0.25500000920E-02 0. -1.
    10030    2    1    2    0    0  0.00000000000E+00  0.00000000000E+00  0.40000405294E+03  0.21639227920E+04  0.21266308113E+04 0.  0.
        5    1    3    3  502    0 -0.74231673836E+03 -0.53922941486E+03 -0.34683709529E+03  0.98087744523E+03  0.46999998093E+01 0. -1.
       -5    1    3    3    0  502  0.74231673836E+03  0.53922941486E+03  0.74684114823E+03  0.11830453468E+04  0.46999998093E+01 0.  1.
</event>
<event>
 5   0  0.8271069E-05  0.2082022E+04  0.7818609E-02  0.8569205E-01
        1   -1    0    0  501    0  0.00000000000E+00  0.00000000000E+00  0.11805726991E+04  0.11805726991E+04  0.50400001928E-02 0. -1.
       -1   -1    0    0    0  501  0.00000000000E+00  0.00000000000E+00 -0.91794734784E+03  0.91794734785E+03  0.50400001928E-02 0.  1.
    10030    2    1    2    0    0  0.00000000000E+00  0.00000000000E+00  0.26262535129E+03  0.20985200470E+04  0.20820216888E+04 0.  0.
        2    1    3    3  502    0 -0.14232706765E+03 -0.24654079166E+03 -0.87795329910E+03  0.92295251857E+03  0.25500000920E-02 0.  1.
       -2    1    3    3    0  502  0.14232706765E+03  0.24654079166E+03  0.11405786504E+04  0.11755675284E+04  0.25500000920E-02 0. -1.
</event>
<event>
 5   0  0.1777590E-04  0.2099412E+04  0.7818609E-02  0.8561503E-01
       -2   -1    0    0    0  501  0.00000000000E+00  0.00000000000E+00  0.88586886682E+03  0.88586886682E+03  0.25500000920E-02 0.  1.
        2   -1    0    0  501    0  0.00000000000E+00  0.00000000000E+00 -0.12438435691E+04  0.12438435691E+04  0.25500000920E-02 0. -1.
    10030    2    1    2    0    0  0.00000000000E+00  0.00000000000E+00 -0.35797470231E+03  0.21297124360E+04  0.20994116253E+04 0.  0.
        4    1    3    3  502    0  0.70884660330E+03  0.69984293876E+03  0.15690646513E+03  0.10083971924E+04  0.12699999809E+01 0.  1.
       -4    1    3    3    0  502 -0.70884660330E+03 -0.69984293876E+03 -0.51488116745E+03  0.11213152436E+04  0.12699999809E+01 0. -1.
</event>
<event>
 5   0  0.1815400E-04  0.2101898E+04  0.7818609E-02  0.8560408E-01
       -2   -1    0    0    0  501  0.00000000000E+00  0.00000000000E+00  0.65981881711E+03  0.65981881712E+03  0.25500000920E-02 0.  1.
        2   -1    0    0  501    0  0.00000000000E+00  0.00000000000E+00 -0.16739357783E+04  0.16739357784E+04  0.25500000920E-02 0. -1.
    10030    2    1    2    0    0  0.00000000000E+00  0.00000000000E+00 -0.10141169612E+04  0.23337545955E+04  0.21018984992E+04 0.  0.
        3    1    3    3  502    0 -0.28888227661E+03 -0.76375946152E+03 -0.12416367631E+04  0.14860832233E+04  0.10100000352E+00 0. -1.
       -3    1    3    3    0  502  0.28888227661E+03  0.76375946152E+03  0.22751980186E+03  0.84767137220E+03  0.10100000352E+00 0.  1.
</event>
<event>
 5   0  0.8755004E-05  0.2112485E+04  0.7818609E-02  0.8555764E-01
        1   -1    0    0  501    0  0.00000000000E+00  0.00000000000E+00  0.15412757232E+04  0.15412757232E+04  0.50400001928E-02 0. -1.
       -1   -1    0    0    0  501  0.00000000000E+00  0.00000000000E+00 -0.72384705134E+03  0.72384705136E+03  0.50400001928E-02 0.  1.
    10030    2    1    2    0    0  0.00000000000E+00  0.00000000000E+00  0.81742867185E+03  0.22651227746E+04  0.21124846864E+04 0.  0.
        3    1    3    3  502    0  0.83379465822E+03  0.64745882034E+03  0.37108717087E+03  0.11189826427E+04  0.10100000352E+00 0.  1.
       -3    1    3    3    0  502 -0.83379465822E+03 -0.64745882034E+03  0.44634150098E+03  0.11461401318E+04  0.10100000352E+00 0. -1.
</event>
<event>
 5   0  0.1815400E-04  0.2111453E+04  0.7818609E-02  0.8556215E-01
        2   -1    0    0  501    0  0.00000000000E+00  0.00000000000E+00  0.14457127044E+04  0.14457127044E+04  0.25500000920E-02 0. -1.
       -2   -1    0    0    0  501  0.00000000000E+00  0.00000000000E+00 -0.77094054162E+03  0.77094054162E+03  0.25500000920E-02 0.  1.
    10030    2    1    2    0    0  0.00000000000E+00  0.00000000000E+00  0.67477216276E+03  0.22166532460E+04  0.21114530877E+04 0.  0.
        3    1    3    3  502    0  0.77620474192E+02  0.91733332867E+03  0.87988504756E+03  0.12734689164E+04  0.10100000352E+00 0. -1.
       -3    1    3    3    0  502 -0.77620474192E+02 -0.91733332867E+03 -0.20511288479E+03  0.94318432961E+03  0.10100000352E+00 0.  1.
</event>
<event>
 5   0  0.8271069E-05  0.2086510E+04  0.7818609E-02  0.8567209E-01
       -1   -1    0    0    0  501  0.00000000000E+00  0.00000000000E+00  0.63444166543E+03  0.63444166545E+03  0.50400001928E-02 0. -1.
        1   -1    0    0  501    0  0.00000000000E+00  0.00000000000E+00 -0.17154934477E+04  0.17154934477E+04  0.50400001928E-02 0.  1.
    10030    2    1    2    0    0  0.00000000000E+00  0.00000000000E+00 -0.10810517822E+04  0.23499351131E+04  0.20865095447E+04 0.  0.
        2    1    3    3  502    0  0.10277346225E+04 -0.14452520855E+03 -0.66000698062E+03  0.12299330082E+04  0.25500000920E-02 0.  1.
       -2    1    3    3    0  502 -0.10277346225E+04  0.14452520855E+03 -0.42104480162E+03  0.11200021050E+04  0.25500000920E-02 0. -1.
</event>
<event>
 5   0  0.8237966E-05  0.2096891E+04  0.7818609E-02  0.8562614E-01
        1   -1    0    0  501    0  0.00000000000E+00  0.00000000000E+00  0.83255630113E+03  0.83255630115E+03  0.50400001928E-02 0.  1.
       -1   -1    0    0    0  501  0.00000000000E+00  0.00000000000E+00 -0.13203172049E+04  0.13203172049E+04  0.50400001928E-02 0. -1.
    10030    2    1    2    0    0  0.00000000000E+00  0.00000000000E+00 -0.48776090377E+03  0.21528735061E+04  0.20968914216E+04 0.  0.
        1    1    3    3  502    0  0.49010814728E+03 -0.43770779191E+03 -0.10826643501E+04  0.12664739248E+04  0.50400001928E-02 0. -1.
       -1    1    3    3    0  502 -0.49010814728E+03  0.43770779191E+03  0.59490344636E+03  0.88639958126E+03  0.50400001928E-02 0.  1.
</event>
<event>
 5   0  0.1777590E-04  0.2117419E+04  0.7818609E-02  0.8553609E-01
       -2   -1    0    0    0  501  0.00000000000E+00  0.00000000000E+00  0.51182888024E+03  0.51182888025E+03  0.25500000920E-02 0. -1.
        2   -1    0    0  501    0  0.00000000000E+00  0.00000000000E+00 -0.21899222177E+04  0.21899222177E+04  0.25500000920E-02 0.  1.
    10030    2    1    2    0    0  0.00000000000E+00  0.00000000000E+00 -0.16780933375E+04  0.27017510980E+04  0.21174186516E+04 0.  0.
        4    1    3    3  502    0 -0.50098471268E+03  0.11184868481E+03 -0.20205154233E+04  0.20847014173E+04  0.12699999809E+01 0.  1.
       -4    1    3    3    0  502  0.50098471268E+03 -0.11184868481E+03  0.34242208583E+03  0.61704968066E+03  0.12699999809E+01 0. -1.
</event>
<event>
 5   0  0.1777590E-04  0.2065312E+04  0.7818609E-02  0.8576680E-01
        2   -1    0    0  501    0  0.00000000000E+00  0.00000000000E+00  0.12838405676E+04  0.12838405676E+04  0.25500000920E-02 0.  1.
       -2   -1    0    0    0  501  0.00000000000E+00  0.00000000000E+00 -0.83061595339E+03  0.83061595339E+03  0.25500000920E-02 0. -1.
    10030    2    1    2    0    0  0.00000000000E+00  0.00000000000E+00  0.45322461421E+03  0.21144565210E+04  0.20653120414E+04 0.  0.
        4    1    3    3  502    0 -0.19058574407E+03 -0.94538666225E+03  0.60458270459E+03  0.11382445812E+04  0.12699999809E+01 0.  1.
       -4    1    3    3    0  502  0.19058574407E+03  0.94538666225E+03 -0.15135809038E+03  0.97621193981E+03  0.12699999809E+01 0. -1.
</event>
<event>
 5   0  0.1777590E-04  0.1904520E+04  0.7818609E-02  0.8652610E-01
       -2   -1    0    0    0  501  0.00000000000E+00  0.00000000000E+00  0.74070341683E+03  0.74070341683E+03  0.25500000920E-02 0. -1.
        2   -1    0    0  501    0  0.00000000000E+00  0.00000000000E+00 -0.12242405751E+04  0.12242405751E+04  0.25500000920E-02 0.  1.
    10030    2    1    2    0    0  0.00000000000E+00  0.00000000000E+00 -0.48353715831E+03  0.19649439920E+04  0.19045200729E+04 0.  0.
        4    1    3    3  502    0 -0.25518396587E+03  0.65330695757E+03  0.42276965166E+03  0.81894116303E+03  0.12699999809E+01 0. -1.
       -4    1    3    3    0  502  0.25518396587E+03 -0.65330695757E+03 -0.90630680997E+03  0.11460028289E+04  0.12699999809E+01 0.  1.
</event>
<event>
 5   0  0.8237966E-05  0.2094456E+04  0.7818609E-02  0.8563689E-01
       -1   -1    0    0    0  501  0.00000000000E+00  0.00000000000E+00  0.13562369589E+04  0.13562369589E+04  0.50400001928E-02 0. -1.
        1   -1    0    0  501    0  0.00000000000E+00  0.00000000000E+00 -0.80862464923E+03  0.80862464925E+03  0.50400001928E-02 0.  1.
    10030    2    1    2    0    0  0.00000000000E+00  0.00000000000E+00  0.54761230965E+03  0.21648616081E+04  0.20944561444E+04 0.  0.
        1    1    3    3  502    0  0.51056553966E+03 -0.11047175399E+03  0.12119538148E+04  0.13197398334E+04  0.50400001928E-02 0. -1.
       -1    1    3    3    0  502 -0.51056553966E+03  0.11047175399E+03 -0.66434150511E+03  0.84512177475E+03  0.50400001928E-02 0.  1.
</event>
<event>
 5   0  0.1815400E-04  0.2069024E+04  0.7818609E-02  0.8575013E-01
        2   -1    0    0  501    0  0.00000000000E+00  0.00000000000E+00  0.12761592061E+04  0.12761592061E+04  0.25500000920E-02 0.  1.
       -2   -1    0    0    0  501  0.00000000000E+00  0.00000000000E+00 -0.83862194220E+03  0.83862194220E+03  0.25500000920E-02 0. -1.
    10030    2    1    2    0    0  0.00000000000E+00  0.00000000000E+00  0.43753726385E+03  0.21147811483E+04  0.20690240327E+04 0.  0.
        3    1    3    3  502    0  0.10113666186E+04 -0.20213887395E+03  0.30112690279E+03  0.10744300737E+04  0.10100000352E+00 0.  1.
       -3    1    3    3    0  502 -0.10113666186E+04  0.20213887395E+03  0.13641036106E+03  0.10403510745E+04  0.10100000352E+00 0. -1.
</event>
<event>
 5   0  0.1810875E-04  0.2106473E+04  0.7818609E-02  0.8558397E-01
        2   -1    0    0  501    0  0.00000000000E+00  0.00000000000E+00  0.13620390966E+04  0.13620390966E+04  0.25500000920E-02 0.  1.
       -2   -1    0    0    0  501  0.00000000000E+00  0.00000000000E+00 -0.81444590243E+03  0.81444590243E+03  0.25500000920E-02 0. -1.
    10030    2    1    2    0    0  0.00000000000E+00  0.00000000000E+00  0.54759319412E+03  0.21764849990E+04  0.21064730344E+04 0.  0.
        1    1    3    3  502    0  0.87273560538E+03 -0.14777384522E+03  0.86355896473E+03  0.12366238845E+04  0.50400001928E-02 0.  1.
       -1    1    3    3    0  502 -0.87273560538E+03  0.14777384522E+03 -0.31596577061E+03  0.93986111445E+03  0.50400001928E-02 0. -1.
</event>
<event>
 5   0  0.8271069E-05  0.2082694E+04  0.7818609E-02  0.8568905E-01
       -1   -1    0    0    0  501  0.00000000000E+00  0.00000000000E+00  0.79975396941E+03  0.79975396942E+03  0.50400001928E-02 0. -1.
        1   -1    0    0  501    0  0.00000000000E+00  0.00000000000E+00 -0.13559219496E+04  0.13559219496E+04  0.50400001928E-02 0.  1.
    10030    2    1    2    0    0  0.00000000000E+00  0.00000000000E+00 -0.55616798015E+03  0.21556759190E+04  0.20826943716E+04 0.  0.
        2    1    3    3  502    0 -0.80889146143E+03 -0.21285879900E+03  0.36396718362E+03  0.91218768652E+03  0.25500000920E-02 0. -1.
       -2    1    3    3    0  502  0.80889146143E+03  0.21285879900E+03 -0.92013516377E+03  0.12434882325E+04  0.25500000920E-02 0.  1.
</event>
<event>
 5   0  0.8237966E-05  0.2132740E+04  0.7818609E-02  0.8546957E-01
       -1   -1    0    0    0  501  0.00000000000E+00  0.00000000000E+00  0.65872388588E+03  0.65872388590E+03  0.50400001928E-02 0. -1.
        1   -1    0    0  501    0  0.00000000000E+00  0.00000000000E+00 -0.17262849216E+04  0.17262849216E+04  0.50400001928E-02 0.  1.
    10030    2    1    2    0    0  0.00000000000E+00  0.00000000000E+00 -0.10675610357E+04  0.23850088075E+04  0.21327401264E+04 0.  0.
        1    1    3    3  502    0  0.31930464192E+03 -0.27986269900E+03 -0.16276807848E+04  0.16821484245E+04  0.50400001928E-02 0.  1.
       -1    1    3    3    0  502 -0.31930464192E+03  0.27986269900E+03  0.56011974912E+03  0.70286038302E+03  0.50400001928E-02 0. -1.
</event>
<event>
 5   0  0.8271069E-05  0.2124991E+04  0.7818609E-02  0.8550314E-01
        1   -1    0    0  501    0  0.00000000000E+00  0.00000000000E+00  0.12129359622E+04  0.12129359622E+04  0.50400001928E-02 0.  1.
       -1   -1    0    0    0  501  0.00000000000E+00  0.00000000000E+00 -0.93071392287E+03  0.93071392288E+03  0.50400001928E-02 0. -1.
    10030    2    1    2    0    0  0.00000000000E+00  0.00000000000E+00  0.28222203931E+03  0.21436498851E+04  0.21249907177E+04 0.  0.
        2    1    3    3  502    0 -0.27766816697E+03  0.98118169851E+03  0.44219323048E+03  0.11114638948E+04  0.25500000920E-02 0. -1.
       -2    1    3    3    0  502  0.27766816697E+03 -0.98118169851E+03 -0.15997119117E+03  0.10321859902E+04  0.25500000920E-02 0.  1.
</event>
<event>
 5   0  0.1815400E-04  0.2058296E+04  0.7818609E-02  0.8579840E-01
        2   -1    0    0  501    0  0.00000000000E+00  0.00000000000E+00  0.52447727410E+03  0.52447727411E+03  0.25500000920E-02 0. -1.
       -2   -1    0    0    0  501  0.00000000000E+00  0.00000000000E+00 -0.20194312331E+04  0.20194312331E+04  0.25500000920E-02 0.  1.
    10030    2    1    2    0    0  0.00000000000E+00  0.00000000000E+00 -0.14949539590E+04  0.25439085072E+04  0.20582961773E+04 0.  0.
        3    1    3    3  502    0 -0.71860933129E+02 -0.17633559792E+03  0.50251597370E+03  0.53738305782E+03  0.10100000352E+00 0. -1.
       -3    1    3    3    0  502  0.71860933129E+02  0.17633559792E+03 -0.19974699327E+04  0.20065254494E+04  0.10100000352E+00 0.  1.
</event>
<event>
 5   0  0.8271069E-05  0.2073931E+04  0.7818609E-02  0.8572815E-01
        1   -1    0    0  501    0  0.00000000000E+00  0.00000000000E+00  0.88572055591E+03  0.88572055592E+03  0.50400001928E-02 0. -1.
       -1   -1    0    0    0  501  0.00000000000E+00  0.00000000000E+00 -0.12140370264E+04  0.12140370264E+04  0.50400001928E-02 0.  1.
    10030    2    1    2    0    0  0.00000000000E+00  0.00000000000E+00 -0.32831647045E+03  0.20997575823E+04  0.20739310981E+04 0.  0.
        2    1    3    3  502    0  0.25445874431E+02 -0.74729429736E+03  0.56326032399E+03  0.93614018821E+03  0.25500000920E-02 0. -1.
       -2    1    3    3    0  502 -0.25445874431E+02  0.74729429736E+03 -0.89157679444E+03  0.11636173941E+04  0.25500000920E-02 0.  1.
</event>
<event>
 5   0  0.1777590E-04  0.2053093E+04  0.7818609E-02  0.8582192E-01
        2   -1    0    0  501    0  0.00000000000E+00  0.00000000000E+00  0.11335141005E+04  0.11335141005E+04  0.25500000920E-02 0.  1.
       -2   -1    0    0    0  501  0.00000000000E+00  0.00000000000E+00 -0.92967350615E+03  0.92967350616E+03  0.25500000920E-02 0. -1.
    10030    2    1    2    0    0  0.00000000000E+00  0.00000000000E+00  0.20384059433E+03  0.20631876066E+04  0.20530933034E+04 0.  0.
        4    1    3    3  502    0 -0.89298454268E+03  0.34672038630E+03 -0.26889257197E+03  0.99495791263E+03  0.12699999809E+01 0. -1.
       -4    1    3    3    0  502  0.89298454268E+03 -0.34672038630E+03  0.47273316630E+03  0.10682296940E+04  0.12699999809E+01 0.  1.
</event>
<event>
 5   0  0.8755004E-05  0.2052716E+04  0.7818609E-02  0.8582363E-01
        1   -1    0    0  501    0  0.00000000000E+00  0.00000000000E+00  0.15862446567E+04  0.15862446567E+04  0.50400001928E-02 0.  1.
       -1   -1    0    0    0  501  0.00000000000E+00  0.00000000000E+00 -0.66409124880E+03  0.66409124882E+03  0.50400001928E-02 0. -1.
    10030    2    1    2    0    0  0.00000000000E+00  0.00000000000E+00  0.92215340788E+03  0.22503359055E+04  0.20527164393E+04 0.  0.
        3    1    3    3  502    0  0.44966349844E+03  0.29577746936E+03  0.14191267676E+04  0.15177622890E+04  0.10100000352E+00 0.  1.
       -3    1    3    3    0  502 -0.44966349844E+03 -0.29577746936E+03 -0.49697335969E+03  0.73257361654E+03  0.10100000352E+00 0. -1.
</event>
<event>
 5   0  0.8237966E-05  0.1898441E+04  0.7818609E-02  0.8655633E-01
        1   -1    0    0  501    0  0.00000000000E+00  0.00000000000E+00  0.16911985174E+04  0.16911985174E+04  0.50400001928E-02 0. -1.
       -1   -1    0    0    0  501  0.00000000000E+00  0.00000000000E+00 -0.53277007573E+03  0.53277007575E+03  0.50400001928E-02 0.  1.
    10030    2    1    2    0    0  0.00000000000E+00  0.00000000000E+00  0.11584284417E+04  0.22239685932E+04  0.18984414263E+04 0.  0.
        1    1    3    3  502    0  0.30570413099E+03 -0.21161539888E+03 -0.44391902743E+03  0.57905111665E+03  0.50400001928E-02 0.  1.
       -1    1    3    3    0  502 -0.30570413099E+03  0.21161539888E+03  0.16023474691E+04  0.16449174765E+04  0.50400001928E-02 0. -1.
</event>
<event>
 5   0  0.1777590E-04  0.2079137E+04  0.7818609E-02  0.8570490E-01
       -2   -1    0    0    0  501  0.00000000000E+00  0.00000000000E+00  0.12246046256E+04  0.12246046256E+04  0.25500000920E-02 0. -1.
        2   -1    0    0  501    0  0.00000000000E+00  0.00000000000E+00 -0.88249095158E+03  0.88249095158E+03  0.25500000920E-02 0.  1.
    10030    2    1    2    0    0  0.00000000000E+00  0.00000000000E+00  0.34211367397E+03  0.21070955771E+04  0.20791368414E+04 0.  0.
        4    1    3    3  502    0 -0.84024760425E+03  0.60068652213E+03  0.51742822685E+02  0.10341756461E+04  0.12699999809E+01 0.  1.
       -4    1    3    3    0  502  0.84024760425E+03 -0.60068652213E+03  0.29037085129E+03  0.10729199311E+04  0.12699999809E+01 0. -1.
</event>
<event>
 5   0  0.1921687E-04  0.2098885E+04  0.7818609E-02  0.8561735E-01
        2   -1    0    0  501    0  0.00000000000E+00  0.00000000000E+00  0.11370583694E+04  0.11370583694E+04  0.25500000920E-02 0.  1.
       -2   -1    0    0    0  501  0.00000000000E+00  0.00000000000E+00 -0.96857745650E+03  0.96857745650E+03  0.25500000920E-02 0. -1.
    10030    2    1    2    0    0  0.00000000000E+00  0.00000000000E+00  0.16848091287E+03  0.21056358259E+04  0.20988845641E+04 0.  0.
        5    1    3    3  502    0  0.87276173337E+03 -0.57210225409E+03 -0.26989895608E+02  0.10439178976E+04  0.46999998093E+01 0. -1.
       -5    1    3    3    0  502 -0.87276173337E+03  0.57210225409E+03  0.19547080848E+03  0.10617179283E+04  0.46999998093E+01 0.  1.
</event>
<event>
 5   0  0.8271069E-05  0.1974413E+04  0.7818609E-02  0.8618677E-01
        1   -1    0    0  501    0  0.00000000000E+00  0.00000000000E+00  0.14155610022E+04  0.14155610022E+04  0.50400001928E-02 0.  1.
       -1   -1    0    0    0  501  0.00000000000E+00  0.00000000000E+00 -0.68847412085E+03  0.68847412087E+03  0.50400001928E-02 0. -1.
    10030    2    1    2    0    0  0.00000000000E+00  0.00000000000E+00  0.72708688132E+03  0.21040351231E+04  0.19744134486E+04 0.  0.
        2    1    3    3  502    0 -0.69596814760E+03  0.14311158929E+03 -0.36681575838E+03  0.79962890772E+03  0.25500000920E-02 0. -1.
       -2    1    3    3    0  502  0.69596814760E+03 -0.14311158929E+03  0.10939026397E+04  0.13044062153E+04  0.25500000920E-02 0.  1.
</event>
<event>
 5   0  0.8271069E-05  0.2356743E+04  0.7818609E-02  0.8455878E-01
        1   -1    0    0  501    0  0.00000000000E+00  0.00000000000E+00  0.76162343294E+03  0.76162343295E+03  0.50400001928E-02 0. -1.
       -1   -1    0    0    0  501  0.00000000000E+00  0.00000000000E+00 -0.18231569728E+04  0.18231569728E+04  0.50400001928E-02 0.  1.
    10030    2    1    2    0    0  0.00000000000E+00  0.00000000000E+00 -0.10615335399E+04  0.25847804058E+04  0.23567427288E+04 0.  0.
        2    1    3    3  502    0  0.10679389574E+04  0.32026333556E+03 -0.94911532656E+03  0.14642001652E+04  0.25500000920E-02 0.  1.
       -2    1    3    3    0  502 -0.10679389574E+04 -0.32026333556E+03 -0.11241821330E+03  0.11205802405E+04  0.25500000920E-02 0. -1.
</event>
<event>
 5   0  0.8237966E-05  0.2031109E+04  0.7818609E-02  0.8592213E-01
       -1   -1    0    0    0  501  0.00000000000E+00  0.00000000000E+00  0.62395440349E+03  0.62395440351E+03  0.50400001928E-02 0. -1.
        1   -1    0    0  501    0  0.00000000000E+00  0.00000000000E+00 -0.16529271107E+04  0.16529271107E+04  0.50400001928E-02 0.  1.
    10030    2    1    2    0    0  0.00000000000E+00  0.00000000000E+00 -0.10289727072E+04  0.22768815142E+04  0.20311092038E+04 0.  0.
        1    1    3    3  502    0  0.26570734255E+01 -0.36488438221E+03 -0.15769021589E+04  0.16185697671E+04  0.50400001928E-02 0.  1.
       -1    1    3    3    0  502 -0.26570734255E+01  0.36488438221E+03  0.54792945161E+03  0.65831174712E+03  0.50400001928E-02 0. -1.
</event>
<event>
 5   0  0.8486612E-05  0.1959519E+04  0.7818609E-02  0.8625784E-01
       -1   -1    0    0    0  501  0.00000000000E+00  0.00000000000E+00  0.14481125160E+04  0.14481125160E+04  0.50400001928E-02 0.  1.
        1   -1    0    0  501    0  0.00000000000E+00  0.00000000000E+00 -0.66288234831E+03  0.66288234832E+03  0.50400001928E-02 0. -1.
    10030    2    1    2    0    0  0.00000000000E+00  0.00000000000E+00  0.78523016771E+03  0.21109948644E+04  0.19595185381E+04 0.  0.
        5    1    3    3  502    0 -0.48349926796E+03 -0.63777086119E+03 -0.21621155299E+03  0.82903120517E+03  0.46999998093E+01 0. -1.
       -5    1    3    3    0  502  0.48349926796E+03  0.63777086119E+03  0.10014417207E+04  0.12819636592E+04  0.46999998093E+01 0.  1.
</event>
<event>
 5   0  0.8755004E-05  0.2113567E+04  0.7818609E-02  0.8555291E-01
       -1   -1    0    0    0  501  0.00000000000E+00  0.00000000000E+00  0.96830485779E+03  0.96830485780E+03  0.50400001928E-02 0. -1.
        1   -1    0    0  501    0  0.00000000000E+00  0.00000000000E+00 -0.11533463179E+04  0.11533463179E+04  0.50400001928E-02 0.  1.
    10030    2    1    2    0    0  0.00000000000E+00  0.00000000000E+00 -0.18504146011E+03  0.21216511757E+04  0.21135665046E+04 0.  0.
        3    1    3    3  502    0 -0.59416822002E+03 -0.67501928960E+03  0.46467358218E+03  0.10122294518E+04  0.10100000352E+00 0. -1.
       -3    1    3    3    0  502  0.59416822002E+03  0.67501928960E+03 -0.64971504229E+03  0.11094217239E+04  0.10100000352E+00 0.  1.
</event>
<event>
 5   0  0.1810875E-04  0.2075928E+04  0.7818609E-02  0.8571922E-01
        2   -1    0    0  501    0  0.00000000000E+00  0.00000000000E+00  0.80428603339E+03  0.80428603339E+03  0.25500000920E-02 0. -1.
       -2   -1    0    0    0  501  0.00000000000E+00  0.00000000000E+00 -0.13395354213E+04  0.13395354213E+04  0.25500000920E-02 0.  1.
    10030    2    1    2    0    0  0.00000000000E+00  0.00000000000E+00 -0.53524938790E+03  0.21438214547E+04  0.20759283519E+04 0.  0.
        1    1    3    3  502    0  0.31092515070E+03  0.63754925451E+03 -0.10501848424E+04  0.12672930618E+04  0.50400001928E-02 0.  1.
       -1    1    3    3    0  502 -0.31092515070E+03 -0.63754925451E+03  0.51493545447E+03  0.87652839290E+03  0.50400001928E-02 0. -1.
</event>
<event>
 5   0  0.8486612E-05  0.2136243E+04  0.7818609E-02  0.8545444E-01
       -1   -1    0    0    0  501  0.00000000000E+00  0.00000000000E+00  0.13310393798E+04  0.13310393798E+04  0.50400001928E-02 0.  1.
        1   -1    0    0  501    0  0.00000000000E+00  0.00000000000E+00 -0.85713742905E+03  0.85713742907E+03  0.50400001928E-02 0. -1.
    10030    2    1    2    0    0  0.00000000000E+00  0.00000000000E+00  0.47390195074E+03  0.21881768089E+04  0.21362431247E+04 0.  0.
        5    1    3    3  502    0  0.92355769989E+03  0.16934953583E+03  0.75846850520E+03  0.12070354815E+04  0.46999998093E+01 0.  1.
       -5    1    3    3    0  502 -0.92355769989E+03 -0.16934953583E+03 -0.28456655445E+03  0.98114132734E+03  0.46999998093E+01 0. -1.
</event>
<event>
 5   0  0.8237966E-05  0.2230212E+04  0.7818609E-02  0.8505957E-01
        1   -1    0    0  501    0  0.00000000000E+00  0.00000000000E+00  0.87265847382E+03  0.87265847384E+03  0.50400001928E-02 0. -1.
       -1   -1    0    0    0  501  0.00000000000E+00  0.00000000000E+00 -0.14249117908E+04  0.14249117908E+04  0.50400001928E-02 0.  1.
    10030    2    1    2    0    0  0.00000000000E+00  0.00000000000E+00 -0.55225331698E+03  0.22975702647E+04  0.22302119619E+04 0.  0.
        1    1    3    3  502    0 -0.72484361695E+03  0.57661843021E+03 -0.91582714515E+03  0.13025461385E+04  0.50400001928E-02 0.  1.
       -1    1    3    3    0  502  0.72484361695E+03 -0.57661843021E+03  0.36357382816E+03  0.99502412616E+03  0.50400001928E-02 0. -1.
</event>
<event>
 5   0  0.8237966E-05  0.2023180E+04  0.7818609E-02  0.8595859E-01
        1   -1    0    0  501    0  0.00000000000E+00  0.00000000000E+00  0.21776956971E+04  0.21776956971E+04  0.50400001928E-02 0.  1.
       -1   -1    0    0    0  501  0.00000000000E+00  0.00000000000E+00 -0.46990706900E+03  0.46990706903E+03  0.50400001928E-02 0. -1.
    10030    2    1    2    0    0  0.00000000000E+00  0.00000000000E+00  0.17077886281E+04  0.26476027661E+04  0.20231802710E+04 0.  0.
        1    1    3    3  502    0 -0.50238853539E+03  0.14329457609E+03  0.19874970963E+04  0.20550115046E+04  0.50400001928E-02 0.  1.
       -1    1    3    3    0  502  0.50238853539E+03 -0.14329457609E+03 -0.27970846824E+03  0.59259126154E+03  0.50400001928E-02 0. -1.
</event>
<event>
 5   0  0.8525278E-05  0.2234165E+04  0.7818609E-02  0.8504341E-01
       -1   -1    0    0    0  501  0.00000000000E+00  0.00000000000E+00  0.14665550079E+04  0.14665550080E+04  0.50400001928E-02 0. -1.
        1   -1    0    0  501    0  0.00000000000E+00  0.00000000000E+00 -0.85088717709E+03  0.85088717711E+03  0.50400001928E-02 0.  1.
    10030    2    1    2    0    0  0.00000000000E+00  0.00000000000E+00  0.61566783085E+03  0.23174421851E+04  0.22341645873E+04 0.  0.
        4    1    3    3  502    0 -0.22806813111E+03 -0.73773813159E+03  0.11451391778E+04  0.13811654400E+04  0.12699999809E+01 0. -1.
       -4    1    3    3    0  502  0.22806813111E+03  0.73773813159E+03 -0.52947134694E+03  0.93627674507E+03  0.12699999809E+01 0.  1.
</event>
<event>
 5   0  0.8755004E-05  0.1946466E+04  0.7818609E-02  0.8632067E-01
       -1   -1    0    0    0  501  0.00000000000E+00  0.00000000000E+00  0.10178227814E+04  0.10178227814E+04  0.50400001928E-02 0. -1.
        1   -1    0    0  501    0  0.00000000000E+00  0.00000000000E+00 -0.93059641723E+03  0.93059641724E+03  0.50400001928E-02 0.  1.
    10030    2    1    2    0    0  0.00000000000E+00  0.00000000000E+00  0.87226364171E+02  0.19484191987E+04  0.19464657549E+04 0.  0.
        3    1    3    3  502    0 -0.53547721765E+03 -0.68402641051E+03  0.48286359550E+03  0.99387385666E+03  0.10100000352E+00 0. -1.
       -3    1    3    3    0  502  0.53547721765E+03  0.68402641051E+03 -0.39563723133E+03  0.95454534199E+03  0.10100000352E+00 0.  1.
</event>
<event>
 5   0  0.1810875E-04  0.2059372E+04  0.7818609E-02  0.8579354E-01
       -2   -1    0    0    0  501  0.00000000000E+00  0.00000000000E+00  0.60980159368E+03  0.60980159368E+03  0.25500000920E-02 0. -1.
        2   -1    0    0  501    0  0.00000000000E+00  0.00000000000E+00 -0.17386864356E+04  0.17386864356E+04  0.25500000920E-02 0.  1.
    10030    2    1    2    0    0  0.00000000000E+00  0.00000000000E+00 -0.11288848419E+04  0.23484880293E+04  0.20593724863E+04 0.  0.
        1    1    3    3  502    0  0.24862594980E+03  0.86420842339E+03 -0.11364395240E+04  0.14491948985E+04  0.50400001928E-02 0.  1.
       -1    1    3    3    0  502 -0.24862594980E+03 -0.86420842339E+03  0.75546820496E+01  0.89929313086E+03  0.50400001928E-02 0. -1.
</event>
<event>
 5   0  0.1815400E-04  0.1892074E+04  0.7818609E-02  0.8658812E-01
       -2   -1    0    0    0  501  0.00000000000E+00  0.00000000000E+00  0.10278545411E+04  0.10278545411E+04  0.25500000920E-02 0. -1.
        2   -1    0    0  501    0  0.00000000000E+00  0.00000000000E+00 -0.87073170094E+03  0.87073170094E+03  0.25500000920E-02 0.  1.
    10030    2    1    2    0    0  0.00000000000E+00  0.00000000000E+00  0.15712284018E+03  0.18985862421E+04  0.18920735006E+04 0.  0.
        3    1    3    3  502    0  0.10574659217E+03  0.36704785794E+03 -0.78991124160E+03  0.87742022519E+03  0.10100000352E+00 0.  1.
       -3    1    3    3    0  502 -0.10574659217E+03 -0.36704785794E+03  0.94703408177E+03  0.10211660169E+04  0.10100000352E+00 0. -1.
</event>
<event>
 5   0  0.8755004E-05  0.2069473E+04  0.7818609E-02  0.8574811E-01
        1   -1    0    0  501    0  0.00000000000E+00  0.00000000000E+00  0.15874245624E+04  0.15874245624E+04  0.50400001928E-02 0. -1.
       -1   -1    0    0    0  501  0.00000000000E+00  0.00000000000E+00 -0.67447563551E+03  0.67447563553E+03  0.50400001928E-02 0.  1.
    10030    2    1    2    0    0  0.00000000000E+00  0.00000000000E+00  0.91294892687E+03  0.22619001979E+04  0.20694725807E+04 0.  0.
        3    1    3    3  502    0  0.25664659638E+03 -0.41604112029E+03 -0.54031335915E+03  0.72862625912E+03  0.10100000352E+00 0.  1.
       -3    1    3    3    0  502 -0.25664659638E+03  0.41604112029E+03  0.14532622860E+04  0.15332739388E+04  0.10100000352E+00 0. -1.
</event>
<event>
 5   0  0.6441125E-05  0.2073900E+04  0.7818609E-02  0.8572829E-01
       -4   -1    0    0    0  501  0.00000000000E+00  0.00000000000E+00  0.91591443003E+03  0.91591531052E+03  0.12699999809E+01 0.  1.
        4   -1    0    0  501    0  0.00000000000E+00  0.00000000000E+00 -0.11739782978E+04  0.11739789848E+04  0.12699999809E+01 0. -1.
    10030    2    1    2    0    0  0.00000000000E+00  0.00000000000E+00 -0.25806386782E+03  0.20898942953E+04  0.20738999990E+04 0.  0.
        5    1    3    3  502    0 -0.68717968700E+03 -0.77535636433E+03 -0.85690966435E+02  0.10395953278E+04  0.46999998093E+01 0.  1.
       -5    1    3    3    0  502  0.68717968700E+03  0.77535636433E+03 -0.17237290138E+03  0.10502989675E+04  0.46999998093E+01 0. -1.
</event>
<event>
 5   0  0.8525278E-05  0.2155691E+04  0.7818609E-02  0.8537100E-01
       -1   -1    0    0    0  501  0.00000000000E+00  0.00000000000E+00  0.11237377662E+04  0.11237377662E+04  0.50400001928E-02 0. -1.
        1   -1    0    0  501    0  0.00000000000E+00  0.00000000000E+00 -0.10338273915E+04  0.10338273915E+04  0.50400001928E-02 0.  1.
    10030    2    1    2    0    0  0.00000000000E+00  0.00000000000E+00  0.89910374642E+02  0.21575651577E+04  0.21556909645E+04 0.  0.
        4    1    3    3  502    0  0.75558739090E+03  0.75631536170E+03 -0.92364822714E+02  0.10730601591E+04  0.12699999809E+01 0. -1.
       -4    1    3    3    0  502 -0.75558739090E+03 -0.75631536170E+03  0.18227519736E+03  0.10845049986E+04  0.12699999809E+01 0.  1.
</event>
<event>
 5   0  0.8271069E-05  0.2074054E+04  0.7818609E-02  0.8572760E-01
       -1   -1    0    0    0  501  0.00000000000E+00  0.00000000000E+00  0.27172249200E+04  0.27172249200E+04  0.50400001928E-02 0. -1.
        1   -1    0    0  501    0  0.00000000000E+00  0.00000000000E+00 -0.39578058007E+03  0.39578058010E+03  0.50400001928E-02 0.  1.
    10030    2    1    2    0    0  0.00000000000E+00  0.00000000000E+00  0.23214443399E+04  0.31130055001E+04  0.20740538615E+04 0.  0.
        2    1    3    3  502    0 -0.81129702608E+03  0.53558523813E+03  0.17026599507E+04  0.19606390080E+04  0.25500000920E-02 0. -1.
       -2    1    3    3    0  502  0.81129702608E+03 -0.53558523813E+03  0.61878438922E+03  0.11523664921E+04  0.25500000920E-02 0.  1.
</event>
<event>
 5   0  0.8237966E-05  0.2125958E+04  0.7818609E-02  0.8549894E-01
        1   -1    0    0  501    0  0.00000000000E+00  0.00000000000E+00  0.12648006776E+04  0.12648006777E+04  0.50400001928E-02 0.  1.
       -1   -1    0    0    0  501  0.00000000000E+00  0.00000000000E+00 -0.89336133253E+03  0.89336133255E+03  0.50400001928E-02 0. -1.
    10030    2    1    2    0    0  0.00000000000E+00  0.00000000000E+00  0.37143934512E+03  0.21581620102E+04  0.21259576842E+04 0.  0.
        1    1    3    3  502    0 -0.39611287634E+03  0.51252160300E+03  0.10413036217E+04  0.12263347980E+04  0.50400001928E-02 0.  1.
       -1    1    3    3    0  502  0.39611287634E+03 -0.51252160300E+03 -0.66986427654E+03  0.93182721218E+03  0.50400001928E-02 0. -1.
</event>
<event>
 5   0  0.8486612E-05  0.2100208E+04  0.7818609E-02  0.8561152E-01
       -1   -1    0    0    0  501  0.00000000000E+00  0.00000000000E+00  0.63163877447E+03  0.63163877449E+03  0.50400001928E-02 0. -1.
        1   -1    0    0  501    0  0.00000000000E+00  0.00000000000E+00 -0.17458062562E+04  0.17458062562E+04  0.50400001928E-02 0.  1.
    10030    2    1    2    0    0  0.00000000000E+00  0.00000000000E+00 -0.11141674817E+04  0.23774450306E+04  0.21002084888E+04 0.  0.
        5    1    3    3  502    0 -0.45035091026E+02 -0.40796408510E+03  0.53706384010E+03  0.67596043708E+03  0.46999998093E+01 0. -1.
       -5    1    3    3    0  502  0.45035091026E+02  0.40796408510E+03 -0.16512313218E+04  0.17014845936E+04  0.46999998093E+01 0.  1.
</event>
<event>
 5   0  0.1921687E-04  0.1920222E+04  0.7818609E-02  0.8644856E-01
       -2   -1    0    0    0  501  0.00000000000E+00  0.00000000000E+00  0.43676625601E+03  0.43676625602E+03  0.25500000920E-02 0.  1.
        2   -1    0    0  501    0  0.00000000000E+00  0.00000000000E+00 -0.21105410661E+04  0.21105410661E+04  0.25500000920E-02 0. -1.
    10030    2    1    2    0    0  0.00000000000E+00  0.00000000000E+00 -0.16737748101E+04  0.25473073221E+04  0.19202219868E+04 0.  0.
        5    1    3    3  502    0  0.31632981407E+03  0.90425713108E+03 -0.75251177257E+03  0.12182124479E+04  0.46999998093E+01 0.  1.
       -5    1    3    3    0  502 -0.31632981407E+03 -0.90425713108E+03 -0.92126303753E+03  0.13290948742E+04  0.46999998093E+01 0. -1.
</event>
<event>
 5   0  0.1777590E-04  0.2069149E+04  0.7818609E-02  0.8574956E-01
        2   -1    0    0  501    0  0.00000000000E+00  0.00000000000E+00  0.10670699622E+04  0.10670699622E+04  0.25500000920E-02 0. -1.
       -2   -1    0    0    0  501  0.00000000000E+00  0.00000000000E+00 -0.10030687838E+04  0.10030687838E+04  0.25500000920E-02 0.  1.
    10030    2    1    2    0    0  0.00000000000E+00  0.00000000000E+00  0.64001178483E+02  0.20701387460E+04  0.20691491674E+04 0.  0.
        4    1    3    3  502    0  0.22246734688E+03  0.83117914391E+03 -0.54272385120E+03  0.10173009787E+04  0.12699999809E+01 0.  1.
       -4    1    3    3    0  502 -0.22246734688E+03 -0.83117914391E+03  0.60672502968E+03  0.10528377673E+04  0.12699999809E+01 0. -1.
</event>
<event>
 5   0  0.8486612E-05  0.2204482E+04  0.7818609E-02  0.8516565E-01
        1   -1    0    0  501    0  0.00000000000E+00  0.00000000000E+00  0.17562238247E+04  0.17562238248E+04  0.50400001928E-02 0.  1.
       -1   -1    0    0    0  501  0.00000000000E+00  0.00000000000E+00 -0.69178864911E+03  0.69178864913E+03  0.50400001928E-02 0. -1.
    10030    2    1    2    0    0  0.00000000000E+00  0.00000000000E+00  0.10644351756E+04  0.24480124739E+04  0.22044824402E+04 0.  0.
        5    1    3    3  502    0  0.94462784742E+03 -0.56376212350E+02  0.11598186413E+04  0.14968972637E+04  0.46999998093E+01 0.  1.
       -5    1    3    3    0  502 -0.94462784742E+03  0.56376212350E+02 -0.95383465691E+02  0.95111521014E+03  0.46999998093E+01 0. -1.
</event>
<event>
 5   0  0.6441125E-05  0.2105491E+04  0.7818609E-02  0.8558828E-01
       -3   -1    0    0    0  501  0.00000000000E+00  0.00000000000E+00  0.14242190139E+04  0.14242190174E+04  0.10100000352E+00 0.  1.
        3   -1    0    0  501    0  0.00000000000E+00  0.00000000000E+00 -0.77816189394E+03  0.77816190050E+03  0.10100000352E+00 0. -1.
    10030    2    1    2    0    0  0.00000000000E+00  0.00000000000E+00  0.64605711992E+03  0.22023809179E+04  0.21054908942E+04 0.  0.
        1    1    3    3  502    0  0.31721353889E+03 -0.91186810813E+03 -0.11598137828E+03  0.97240915052E+03  0.50400001928E-02 0.  1.
       -1    1    3    3    0  502 -0.31721353889E+03  0.91186810813E+03  0.76203849820E+03  0.12299717674E+04  0.50400001928E-02 0. -1.
</event>
<event>
 5   0  0.1810875E-04  0.2139889E+04  0.7818609E-02  0.8543873E-01
        2   -1    0    0  501    0  0.00000000000E+00  0.00000000000E+00  0.14500878945E+04  0.14500878945E+04  0.25500000920E-02 0. -1.
       -2   -1    0    0    0  501  0.00000000000E+00  0.00000000000E+00 -0.78945642279E+03  0.78945642279E+03  0.25500000920E-02 0.  1.
    10030    2    1    2    0    0  0.00000000000E+00  0.00000000000E+00  0.66063147171E+03  0.22395443173E+04  0.21398889709E+04 0.  0.
        1    1    3    3  502    0 -0.10051692381E+04  0.21678749781E+03  0.63975241964E+03  0.12110512685E+04  0.50400001928E-02 0. -1.
       -1    1    3    3    0  502  0.10051692381E+04 -0.21678749781E+03  0.20879052076E+02  0.10284930488E+04  0.50400001928E-02 0.  1.
</event>
<event>
 5   0  0.1777590E-04  0.2101276E+04  0.7818609E-02  0.8560682E-01
        2   -1    0    0  501    0  0.00000000000E+00  0.00000000000E+00  0.13358534461E+04  0.13358534461E+04  0.25500000920E-02 0.  1.
       -2   -1    0    0    0  501  0.00000000000E+00  0.00000000000E+00 -0.82631828426E+03  0.82631828426E+03  0.25500000920E-02 0. -1.
    10030    2    1    2    0    0  0.00000000000E+00  0.00000000000E+00  0.50953516186E+03  0.21621717304E+04  0.21012759244E+04 0.  0.
        4    1    3    3  502    0  0.61243528856E+03  0.36072475344E+03  0.10509079952E+04  0.12687034948E+04  0.12699999809E+01 0.  1.
       -4    1    3    3    0  502 -0.61243528856E+03 -0.36072475344E+03 -0.54137283334E+03  0.89346823559E+03  0.12699999809E+01 0. -1.
</event>
<event>
 5   0  0.1777590E-04  0.2079445E+04  0.7818609E-02  0.8570352E-01
       -2   -1    0    0    0  501  0.00000000000E+00  0.00000000000E+00  0.10811090259E+04  0.10811090259E+04  0.25500000920E-02 0.  1.
        2   -1    0    0  501    0  0.00000000000E+00  0.00000000000E+00 -0.99992050070E+03  0.99992050071E+03  0.25500000920E-02 0. -1.
    10030    2    1    2    0    0  0.00000000000E+00  0.00000000000E+00  0.81188525160E+02  0.20810295266E+04  0.20794451938E+04 0.  0.
        4    1    3    3  502    0  0.70509187937E+03 -0.74104537912E+03 -0.14587712355E+03  0.10332398368E+04  0.12699999809E+01 0.  1.
       -4    1    3    3    0  502 -0.70509187937E+03  0.74104537912E+03  0.22706564871E+03  0.10477896898E+04  0.12699999809E+01 0. -1.
</event>
<event>
 5   0  0.8237966E-05  0.2031127E+04  0.7818609E-02  0.8592205E-01
       -1   -1    0    0    0  501  0.00000000000E+00  0.00000000000E+00  0.10816966867E+04  0.10816966867E+04  0.50400001928E-02 0. -1.
        1   -1    0    0  501    0  0.00000000000E+00  0.00000000000E+00 -0.95347312425E+03  0.95347312426E+03  0.50400001928E-02 0.  1.
    10030    2    1    2    0    0  0.00000000000E+00  0.00000000000E+00  0.12822356241E+03  0.20351698109E+04  0.20311265045E+04 0.  0.
        1    1    3    3  502    0  0.97495910176E+03 -0.27582008618E+03 -0.49220259434E+01  0.10132355089E+04  0.50400001928E-02 0. -1.
       -1    1    3    3    0  502 -0.97495910176E+03  0.27582008618E+03  0.13314558835E+03  0.10219343021E+04  0.50400001928E-02 0.  1.
</event>
<event>
 5   0  0.8755004E-05  0.2128333E+04  0.7818609E-02  0.8548864E-01
       -1   -1    0    0    0  501  0.00000000000E+00  0.00000000000E+00  0.76581227093E+03  0.76581227095E+03  0.50400001928E-02 0.  1.
        1   -1    0    0  501    0  0.00000000000E+00  0.00000000000E+00 -0.14787577012E+04  0.14787577012E+04  0.50400001928E-02 0. -1.
    10030    2    1    2    0    0  0.00000000000E+00  0.00000000000E+00 -0.71294543029E+03  0.22445699722E+04  0.21283334263E+04 0.  0.
        3    1    3    3  502    0 -0.51462257149E+03  0.87644623823E+03 -0.68906319558E+03  0.12279260960E+04  0.10100000352E+00 0. -1.
       -3    1    3    3    0  502  0.51462257149E+03 -0.87644623823E+03 -0.23882234705E+02  0.10166438762E+04  0.10100000352E+00 0.  1.
</event>
<event>
 5   0  0.8755004E-05  0.2078937E+04  0.7818609E-02  0.8570579E-01
        1   -1    0    0  501    0  0.00000000000E+00  0.00000000000E+00  0.15870588967E+04  0.15870588967E+04  0.50400001928E-02 0. -1.
       -1   -1    0    0    0  501  0.00000000000E+00  0.00000000000E+00 -0.68081584355E+03  0.68081584356E+03  0.50400001928E-02 0.  1.
    10030    2    1    2    0    0  0.00000000000E+00  0.00000000000E+00  0.90624305312E+03  0.22678747402E+04  0.20789370760E+04 0.  0.
        3    1    3    3  502    0 -0.32552065751E+03 -0.97325410614E+03  0.27285324923E+03  0.10619021421E+04  0.10100000352E+00 0.  1.
       -3    1    3    3    0  502  0.32552065751E+03  0.97325410614E+03  0.63338980389E+03  0.12059725981E+04  0.10100000352E+00 0. -1.
</event>
<event>
 5   0  0.1777590E-04  0.1762820E+04  0.7818609E-02  0.8726325E-01
       -2   -1    0    0    0  501  0.00000000000E+00  0.00000000000E+00  0.21697275815E+04  0.21697275815E+04  0.25500000920E-02 0.  1.
        2   -1    0    0  501    0  0.00000000000E+00  0.00000000000E+00 -0.35805594412E+03  0.35805594413E+03  0.25500000920E-02 0. -1.
    10030    2    1    2    0    0  0.00000000000E+00  0.00000000000E+00  0.18116716374E+04  0.25277835256E+04  0.17628203059E+04 0.  0.
        4    1    3    3  502    0  0.49729012718E+03 -0.52228038737E+03  0.17916773709E+03  0.74308610843E+03  0.12699999809E+01 0. -1.
       -4    1    3    3    0  502 -0.49729012718E+03  0.52228038737E+03  0.16325039003E+04  0.17846974172E+04  0.12699999809E+01 0.  1.
</event>
<event>
 5   0  0.8525278E-05  0.2068000E+04  0.7818609E-02  0.8575472E-01
       -1   -1    0    0    0  501  0.00000000000E+00  0.00000000000E+00  0.15335112492E+04  0.15335112492E+04  0.50400001928E-02 0. -1.
        1   -1    0    0  501    0  0.00000000000E+00  0.00000000000E+00 -0.69719477860E+03  0.69719477862E+03  0.50400001928E-02 0.  1.
    10030    2    1    2    0    0  0.00000000000E+00  0.00000000000E+00  0.83631647056E+03  0.22307060278E+04  0.20680000347E+04 0.  0.
        4    1    3    3  502    0 -0.51637423687E+03 -0.11400306086E+03  0.13766140454E+04  0.14746887445E+04  0.12699999809E+01 0. -1.
       -4    1    3    3    0  502  0.51637423687E+03  0.11400306086E+03 -0.54029757480E+03  0.75601728328E+03  0.12699999809E+01 0.  1.
</event>
<event>
 5   0  0.1810875E-04  0.2073043E+04  0.7818609E-02  0.8573212E-01
       -2   -1    0    0    0  501  0.00000000000E+00  0.00000000000E+00  0.11376905363E+04  0.11376905363E+04  0.25500000920E-02 0.  1.
        2   -1    0    0  501    0  0.00000000000E+00  0.00000000000E+00 -0.94434902943E+03  0.94434902943E+03  0.25500000920E-02 0. -1.
    10030    2    1    2    0    0  0.00000000000E+00  0.00000000000E+00  0.19334150691E+03  0.20820395658E+04  0.20730431291E+04 0.  0.
        1    1    3    3  502    0 -0.42532424486E+03  0.73388938736E+02 -0.84980437289E+03  0.95312859667E+03  0.50400001928E-02 0. -1.
       -1    1    3    3    0  502  0.42532424486E+03 -0.73388938736E+02  0.10431458798E+04  0.11289109691E+04  0.50400001928E-02 0.  1.
</event>
<event>
 5   0  0.8486612E-05  0.2113716E+04  0.7818609E-02  0.8555225E-01
        1   -1    0    0  501    0  0.00000000000E+00  0.00000000000E+00  0.99141169620E+03  0.99141169621E+03  0.50400001928E-02 0. -1.
       -1   -1    0    0    0  501  0.00000000000E+00  0.00000000000E+00 -0.11266245454E+04  0.11266245454E+04  0.50400001928E-02 0.  1.
    10030    2    1    2    0    0  0.00000000000E+00  0.00000000000E+00 -0.13521284921E+03  0.21180362416E+04  0.21137159237E+04 0.  0.
        5    1    3    3  502    0  0.17118943752E+03 -0.40019018268E+03 -0.10326265898E+04  0.11206238306E+04  0.46999998093E+01 0.  1.
       -5    1    3    3    0  502 -0.17118943752E+03  0.40019018268E+03  0.89741374058E+03  0.99741241100E+03  0.46999998093E+01 0. -1.
</event>
<event>
 5   0  0.1815400E-04  0.2092427E+04  0.7818609E-02  0.8564587E-01
       -2   -1    0    0    0  501  0.00000000000E+00  0.00000000000E+00  0.79014783355E+03  0.79014783355E+03  0.25500000920E-02 0. -1.
        2   -1    0    0  501    0  0.00000000000E+00  0.00000000000E+00 -0.13852630844E+04  0.13852630844E+04  0.25500000920E-02 0.  1.
    10030    2    1    2    0    0  0.00000000000E+00  0.00000000000E+00 -0.59511525089E+03  0.21754109180E+04  0.20924269403E+04 0.  0.
        3    1    3    3  502    0  0.41202277079E+03  0.62423800195E+03 -0.10580928594E+04  0.12957609178E+04  0.10100000352E+00 0.  1.
       -3    1    3    3    0  502 -0.41202277079E+03 -0.62423800195E+03  0.46297760850E+03  0.87965000023E+03  0.10100000352E+00 0. -1.
</event>
<event>
 5   0  0.1810875E-04  0.1708067E+04  0.7818609E-02  0.8756777E-01
        2   -1    0    0  501    0  0.00000000000E+00  0.00000000000E+00  0.58008831518E+03  0.58008831519E+03  0.25500000920E-02 0. -1.
       -2   -1    0    0    0  501  0.00000000000E+00  0.00000000000E+00 -0.12573481997E+04  0.12573481997E+04  0.25500000920E-02 0.  1.
    10030    2    1    2    0    0  0.00000000000E+00  0.00000000000E+00 -0.67725988454E+03  0.18374365149E+04  0.17080667420E+04 0.  0.
        1    1    3    3  502    0  0.15778512646E+03  0.14326707323E+02  0.56414104480E+03  0.58596631228E+03  0.50400001928E-02 0. -1.
       -1    1    3    3    0  502 -0.15778512646E+03 -0.14326707323E+02 -0.12414009293E+04  0.12514702026E+04  0.50400001928E-02 0.  1.
</event>
<event>
 5   0  0.8486612E-05  0.2046738E+04  0.7818609E-02  0.8585076E-01
        1   -1    0    0  501    0  0.00000000000E+00  0.00000000000E+00  0.64569558705E+03  0.64569558707E+03  0.50400001928E-02 0. -1.
       -1   -1    0    0    0  501  0.00000000000E+00  0.00000000000E+00 -0.16219474204E+04  0.16219474204E+04  0.50400001928E-02 0.  1.
    10030    2    1    2    0    0  0.00000000000E+00  0.00000000000E+00 -0.97625183337E+03  0.22676430075E+04  0.20467381775E+04 0.  0.
        5    1    3    3  502    0 -0.74640079856E+03  0.70009169820E+03 -0.48321291780E+03  0.11317063894E+04  0.46999998093E+01 0.  1.
       -5    1    3    3    0  502  0.74640079856E+03 -0.70009169820E+03 -0.49303891557E+03  0.11359366181E+04  0.46999998093E+01 0. -1.
</event>
<event>
 5   0  0.8271069E-05  0.2118251E+04  0.7818609E-02  0.8553246E-01
       -1   -1    0    0    0  501  0.00000000000E+00  0.00000000000E+00  0.14613133986E+04  0.14613133986E+04  0.50400001928E-02 0. -1.
        1   -1    0    0  501    0  0.00000000000E+00  0.00000000000E+00 -0.76762953396E+03  0.76762953398E+03  0.50400001928E-02 0.  1.
    10030    2    1    2    0    0  0.00000000000E+00  0.00000000000E+00  0.69368386467E+03  0.22289429326E+04  0.21182514706E+04 0.  0.
        2    1    3    3  502    0 -0.64286231771E+03  0.84170065681E+03  0.35096698851E+03  0.11157552519E+04  0.25500000920E-02 0. -1.
       -2    1    3    3    0  502  0.64286231771E+03 -0.84170065681E+03  0.34271687616E+03  0.11131876807E+04  0.25500000920E-02 0.  1.
</event>
<event>
 5   0  0.1886323E-04  0.2044958E+04  0.7818609E-02  0.8585885E-01
        2   -1    0    0  501    0  0.00000000000E+00  0.00000000000E+00  0.29463825922E+04  0.29463825922E+04  0.25500000920E-02 0.  1.
       -2   -1    0    0    0  501  0.00000000000E+00  0.00000000000E+00 -0.35482948416E+03  0.35482948417E+03  0.25500000920E-02 0. -1.
    10030    2    1    2    0    0  0.00000000000E+00  0.00000000000E+00  0.25915531080E+04  0.33012120763E+04  0.20449581075E+04 0.  0.
        2    1    3    3  502    0  0.10141052812E+04  0.10821667756E+03  0.11777761713E+04  0.15579721051E+04  0.25500000920E-02 0. -1.
       -2    1    3    3    0  502 -0.10141052812E+04 -0.10821667756E+03  0.14137769367E+04  0.17432399712E+04  0.25500000920E-02 0.  1.
</event>
<event>
 5   0  0.1886323E-04  0.2102563E+04  0.7818609E-02  0.8560115E-01
        2   -1    0    0  501    0  0.00000000000E+00  0.00000000000E+00  0.17719281698E+04  0.17719281698E+04  0.25500000920E-02 0. -1.
       -2   -1    0    0    0  501  0.00000000000E+00  0.00000000000E+00 -0.62372345742E+03  0.62372345742E+03  0.25500000920E-02 0.  1.
    10030    2    1    2    0    0  0.00000000000E+00  0.00000000000E+00  0.11482047124E+04  0.23956516273E+04  0.21025633540E+04 0.  0.
        2    1    3    3  502    0 -0.16690612876E+03  0.49714305173E+02 -0.60717350922E+03  0.63165563266E+03  0.25500000920E-02 0.  1.
       -2    1    3    3    0  502  0.16690612876E+03 -0.49714305173E+02  0.17553782216E+04  0.17639959946E+04  0.25500000920E-02 0. -1.
</event>
<event>
 5   0  0.8755004E-05  0.2059891E+04  0.7818609E-02  0.8579121E-01
       -1   -1    0    0    0  501  0.00000000000E+00  0.00000000000E+00  0.82136781896E+03  0.82136781897E+03  0.50400001928E-02 0.  1.
        1   -1    0    0  501    0  0.00000000000E+00  0.00000000000E+00 -0.12914889687E+04  0.12914889687E+04  0.50400001928E-02 0. -1.
    10030    2    1    2    0    0  0.00000000000E+00  0.00000000000E+00 -0.47012114974E+03  0.21128567877E+04  0.20598907519E+04 0.  0.
        3    1    3    3  502    0 -0.21801779599E+03  0.15301595684E+03 -0.12555506222E+04  0.12834925078E+04  0.10100000352E+00 0. -1.
       -3    1    3    3    0  502  0.21801779599E+03 -0.15301595684E+03  0.78542947244E+03  0.82936427992E+03  0.10100000352E+00 0.  1.
</event>
<event>
 5   0  0.8271069E-05  0.2124665E+04  0.7818609E-02  0.8550455E-01
       -1   -1    0    0    0  501  0.00000000000E+00  0.00000000000E+00  0.10659180807E+04  0.10659180807E+04  0.50400001928E-02 0. -1.
        1   -1    0    0  501    0  0.00000000000E+00  0.00000000000E+00 -0.10587591678E+04  0.10587591678E+04  0.50400001928E-02 0.  1.
    10030    2    1    2    0    0  0.00000000000E+00  0.00000000000E+00  0.71589128463E+01  0.21246772485E+04  0.21246651878E+04 0.  0.
        2    1    3    3  502    0 -0.27794788260E+03 -0.82750710816E+03  0.60899804036E+03  0.10643785288E+04  0.25500000920E-02 0. -1.
       -2    1    3    3    0  502  0.27794788260E+03  0.82750710816E+03 -0.60183912751E+03  0.10602987197E+04  0.25500000920E-02 0.  1.
</event>
<event>
 5   0  0.1810875E-04  0.2198107E+04  0.7818609E-02  0.8519217E-01
        2   -1    0    0  501    0  0.00000000000E+00  0.00000000000E+00  0.12758972695E+04  0.12758972695E+04  0.25500000920E-02 0.  1.
       -2   -1    0    0    0  501  0.00000000000E+00  0.00000000000E+00 -0.94672051718E+03  0.94672051718E+03  0.25500000920E-02 0. -1.
    10030    2    1    2    0    0  0.00000000000E+00  0.00000000000E+00  0.32917675236E+03  0.22226177867E+04  0.21981065697E+04 0.  0.
        1    1    3    3  502    0  0.61903913901E+03  0.41354726566E+03  0.98211343530E+03  0.12323869507E+04  0.50400001928E-02 0.  1.
       -1    1    3    3    0  502 -0.61903913901E+03 -0.41354726566E+03 -0.65293668294E+03  0.99023083597E+03  0.50400001928E-02 0. -1.
</event>
<event>
 5   0  0.8525278E-05  0.2080748E+04  0.7818609E-02  0.8569772E-01
        1   -1    0    0  501    0  0.00000000000E+00  0.00000000000E+00  0.12541632554E+04  0.12541632554E+04  0.50400001928E-02 0. -1.
       -1   -1    0    0    0  501  0.00000000000E+00  0.00000000000E+00 -0.86302789200E+03  0.86302789201E+03  0.50400001928E-02 0.  1.
    10030    2    1    2    0    0  0.00000000000E+00  0.00000000000E+00  0.39113536338E+03  0.21171911474E+04  0.20807478180E+04 0.  0.
        4    1    3    3  502    0  0.92797878116E+03  0.40334756552E+03  0.44176074461E+03  0.11040779163E+04  0.12699999809E+01 0. -1.
       -4    1    3    3    0  502 -0.92797878116E+03 -0.40334756552E+03 -0.50625381239E+02  0.10131132311E+04  0.12699999809E+01 0.  1.
</event>
<event>
 5   0  0.1810875E-04  0.2098762E+04  0.7818609E-02  0.8561789E-01
        2   -1    0    0  501    0  0.00000000000E+00  0.00000000000E+00  0.13281368026E+04  0.13281368026E+04  0.25500000920E-02 0.  1.
       -2   -1    0    0    0  501  0.00000000000E+00  0.00000000000E+00 -0.82913176337E+03  0.82913176337E+03  0.25500000920E-02 0. -1.
    10030    2    1    2    0    0  0.00000000000E+00  0.00000000000E+00  0.49900503923E+03  0.21572685660E+04  0.20987619295E+04 0.  0.
        1    1    3    3  502    0 -0.93308062224E+03 -0.23374636487E+03  0.68062740060E+03  0.11783592276E+04  0.50400001928E-02 0. -1.
       -1    1    3    3    0  502  0.93308062224E+03  0.23374636487E+03 -0.18162236137E+03  0.97890933843E+03  0.50400001928E-02 0.  1.
</event>
<event>
 5   0  0.8237966E-05  0.2107456E+04  0.7818609E-02  0.8557966E-01
       -1   -1    0    0    0  501  0.00000000000E+00  0.00000000000E+00  0.88686431623E+03  0.88686431624E+03  0.50400001928E-02 0.  1.
        1   -1    0    0  501    0  0.00000000000E+00  0.00000000000E+00 -0.12519873173E+04  0.12519873173E+04  0.50400001928E-02 0. -1.
    10030    2    1    2    0    0  0.00000000000E+00  0.00000000000E+00 -0.36512300103E+03  0.21388516335E+04  0.21074561690E+04 0.  0.
        1    1    3    3  502    0 -0.43854699227E+02  0.81213453943E+02 -0.12478769518E+04  0.12512856375E+04  0.50400001928E-02 0. -1.
       -1    1    3    3    0  502  0.43854699227E+02 -0.81213453943E+02  0.88275395075E+03  0.88756599604E+03  0.50400001928E-02 0.  1.
</event>
<event>
 5   0  0.1777590E-04  0.2117251E+04  0.7818609E-02  0.8553682E-01
        2   -1    0    0  501    0  0.00000000000E+00  0.00000000000E+00  0.17319910173E+04  0.17319910173E+04  0.25500000920E-02 0. -1.
       -2   -1    0    0    0  501  0.00000000000E+00  0.00000000000E+00 -0.64705203220E+03  0.64705203221E+03  0.25500000920E-02 0.  1.
    10030    2    1    2    0    0  0.00000000000E+00  0.00000000000E+00  0.10849389851E+04  0.23790430495E+04  0.21172513384E+04 0.  0.
        4    1    3    3  502    0 -0.49228856942E+03  0.38560924491E+03 -0.41734088857E+03  0.75180952076E+03  0.12699999809E+01 0.  1.
       -4    1    3    3    0  502  0.49228856942E+03 -0.38560924491E+03  0.15022798737E+04  0.16272335288E+04  0.12699999809E+01 0. -1.
</event>
<event>
 5   0  0.6441125E-05  0.2137374E+04  0.7818609E-02  0.8544956E-01
       -3   -1    0    0    0  501  0.00000000000E+00  0.00000000000E+00  0.89058050983E+03  0.89058051556E+03  0.10100000352E+00 0. -1.
        3   -1    0    0  501    0  0.00000000000E+00  0.00000000000E+00 -0.12824129258E+04  0.12824129298E+04  0.10100000352E+00 0.  1.
    10030    2    1    2    0    0  0.00000000000E+00  0.00000000000E+00 -0.39183241597E+03  0.21729934453E+04  0.21373740598E+04 0.  0.
        1    1    3    3  502    0 -0.31027352988E+03 -0.10688464522E+03  0.83808658848E+03  0.90004617689E+03  0.50400001928E-02 0. -1.
       -1    1    3    3    0  502  0.31027352988E+03  0.10688464522E+03 -0.12299190044E+04  0.12729472685E+04  0.50400001928E-02 0.  1.
</event>
<event>
 5   0  0.1815400E-04  0.2114404E+04  0.7818609E-02  0.8554925E-01
        2   -1    0    0  501    0  0.00000000000E+00  0.00000000000E+00  0.80021109702E+03  0.80021109702E+03  0.25500000920E-02 0. -1.
       -2   -1    0    0    0  501  0.00000000000E+00  0.00000000000E+00 -0.13967267349E+04  0.13967267349E+04  0.25500000920E-02 0.  1.
    10030    2    1    2    0    0  0.00000000000E+00  0.00000000000E+00 -0.59651563784E+03  0.21969378319E+04  0.21144041551E+04 0.  0.
        3    1    3    3  502    0 -0.33174002513E+03 -0.42191026677E+03  0.64812850526E+03  0.84150477539E+03  0.10100000352E+00 0. -1.
       -3    1    3    3    0  502  0.33174002513E+03  0.42191026677E+03 -0.12446441431E+04  0.13554330565E+04  0.10100000352E+00 0.  1.
</event>
<event>
 5   0  0.1886323E-04  0.2103529E+04  0.7818609E-02  0.8559690E-01
        2   -1    0    0  501    0  0.00000000000E+00  0.00000000000E+00  0.15128680823E+04  0.15128680823E+04  0.25500000920E-02 0. -1.
       -2   -1    0    0    0  501  0.00000000000E+00  0.00000000000E+00 -0.73119993059E+03  0.73119993059E+03  0.25500000920E-02 0.  1.
    10030    2    1    2    0    0  0.00000000000E+00  0.00000000000E+00  0.78166815167E+03  0.22440680129E+04  0.21035294500E+04 0.  0.
        2    1    3    3  502    0  0.35310280866E+02 -0.75009481099E+03  0.11764589532E+04  0.13956878985E+04  0.25500000920E-02 0. -1.
       -2    1    3    3    0  502 -0.35310280866E+02  0.75009481099E+03 -0.39479080157E+03  0.84838011434E+03  0.25500000920E-02 0.  1.
</event>
<event>
 5   0  0.1810875E-04  0.1833105E+04  0.7818609E-02  0.8688890E-01
        2   -1    0    0  501    0  0.00000000000E+00  0.00000000000E+00  0.16003835510E+04  0.16003835510E+04  0.25500000920E-02 0. -1.
       -2   -1    0    0    0  501  0.00000000000E+00  0.00000000000E+00 -0.52491718927E+03  0.52491718928E+03  0.25500000920E-02 0.  1.
    10030    2    1    2    0    0  0.00000000000E+00  0.00000000000E+00  0.10754663617E+04  0.21253007403E+04  0.18331053820E+04 0.  0.
        1    1    3    3  502    0 -0.19989027638E+02 -0.82930847830E+02 -0.52030457998E+03  0.52725130889E+03  0.50400001928E-02 0.  1.
       -1    1    3    3    0  502  0.19989027638E+02  0.82930847830E+02  0.15957709417E+04  0.15980494314E+04  0.50400001928E-02 0. -1.
</event>
<event>
 5   0  0.8525278E-05  0.2080183E+04  0.7818609E-02  0.8570024E-01
        1   -1    0    0  501    0  0.00000000000E+00  0.00000000000E+00  0.77188567933E+03  0.77188567935E+03  0.50400001928E-02 0. -1.
       -1   -1    0    0    0  501  0.00000000000E+00  0.00000000000E+00 -0.14014899665E+04  0.14014899665E+04  0.50400001928E-02 0.  1.
    10030    2    1    2    0    0  0.00000000000E+00  0.00000000000E+00 -0.62960428719E+03  0.21733756459E+04  0.20801827179E+04 0.  0.
        4    1    3    3  502    0 -0.46564564035E+03 -0.92318311958E+03 -0.19708004346E+03  0.10525849567E+04  0.12699999809E+01 0.  1.
       -4    1    3    3    0  502  0.46564564035E+03  0.92318311958E+03 -0.43252424373E+03  0.11207906892E+04  0.12699999809E+01 0. -1.
</event>
<event>
 5   0  0.1886323E-04  0.2154527E+04  0.7818609E-02  0.8537597E-01
       -2   -1    0    0    0  501  0.00000000000E+00  0.00000000000E+00  0.91577023977E+03  0.91577023978E+03  0.25500000920E-02 0.  1.
        2   -1    0    0  501    0  0.00000000000E+00  0.00000000000E+00 -0.12672350355E+04  0.12672350355E+04  0.25500000920E-02 0. -1.
    10030    2    1    2    0    0  0.00000000000E+00  0.00000000000E+00 -0.35146479576E+03  0.21830052753E+04  0.21545265209E+04 0.  0.
        2    1    3    3  502    0 -0.85984133154E+03 -0.59568339025E+03 -0.43668340198E+03  0.11335158624E+04  0.25500000920E-02 0.  1.
       -2    1    3    3    0  502  0.85984133154E+03  0.59568339025E+03  0.85218606219E+02  0.10494894129E+04  0.25500000920E-02 0. -1.
</event>
<event>
 5   0  0.8755004E-05  0.2070161E+04  0.7818609E-02  0.8574503E-01
        1   -1    0    0  501    0  0.00000000000E+00  0.00000000000E+00  0.19905492433E+04  0.19905492434E+04  0.50400001928E-02 0. -1.
       -1   -1    0    0    0  501  0.00000000000E+00  0.00000000000E+00 -0.53823939518E+03  0.53823939520E+03  0.50400001928E-02 0.  1.
    10030    2    1    2    0    0  0.00000000000E+00  0.00000000000E+00  0.14523098482E+04  0.25287886386E+04  0.20701613665E+04 0.  0.
        3    1    3    3  502    0 -0.66827143631E+03 -0.78872654015E+03  0.78981287584E+03  0.13009537489E+04  0.10100000352E+00 0. -1.
       -3    1    3    3    0  502  0.66827143631E+03  0.78872654015E+03  0.66249697233E+03  0.12278348897E+04  0.10100000352E+00 0.  1.
</event>
<event>
 5   0  0.8525278E-05  0.2077330E+04  0.7818609E-02  0.8571296E-01
       -1   -1    0    0    0  501  0.00000000000E+00  0.00000000000E+00  0.10119699952E+04  0.10119699952E+04  0.50400001928E-02 0.  1.
        1   -1    0    0  501    0  0.00000000000E+00  0.00000000000E+00 -0.10660646420E+04  0.10660646420E+04  0.50400001928E-02 0. -1.
    10030    2    1    2    0    0  0.00000000000E+00  0.00000000000E+00 -0.54094646747E+02  0.20780346372E+04  0.20773304318E+04 0.  0.
        4    1    3    3  502    0  0.71500556984E+03  0.45445624726E+03 -0.62813401372E+03  0.10546645901E+04  0.12699999809E+01 0. -1.
       -4    1    3    3    0  502 -0.71500556984E+03 -0.45445624726E+03  0.57403936698E+03  0.10233700471E+04  0.12699999809E+01 0.  1.
</event>
<event>
 5   0  0.8271069E-05  0.2100614E+04  0.7818609E-02  0.8560973E-01
        1   -1    0    0  501    0  0.00000000000E+00  0.00000000000E+00  0.80030049440E+03  0.80030049442E+03  0.50400001928E-02 0.  1.
       -1   -1    0    0    0  501  0.00000000000E+00  0.00000000000E+00 -0.13784132154E+04  0.13784132154E+04  0.50400001928E-02 0. -1.
    10030    2    1    2    0    0  0.00000000000E+00  0.00000000000E+00 -0.57811272096E+03  0.21787137098E+04  0.21006139843E+04 0.  0.
        2    1    3    3  502    0 -0.37696809540E+02 -0.10483288290E+04 -0.23486043688E+03  0.10749761895E+04  0.25500000920E-02 0. -1.
       -2    1    3    3    0  502  0.37696809540E+02  0.10483288290E+04 -0.34325228408E+03  0.11037375203E+04  0.25500000920E-02 0.  1.
</event>
<event>
 5   0  0.8486612E-05  0.2115497E+04  0.7818609E-02  0.8554447E-01
        1   -1    0    0  501    0  0.00000000000E+00  0.00000000000E+00  0.84661233398E+03  0.84661233399E+03  0.50400001928E-02 0. -1.
       -1   -1    0    0    0  501  0.00000000000E+00  0.00000000000E+00 -0.13215400658E+04  0.13215400658E+04  0.50400001928E-02 0.  1.
    10030    2    1    2    0    0  0.00000000000E+00  0.00000000000E+00 -0.47492773180E+03  0.21681523998E+04  0.21154972177E+04 0.  0.
        5    1    3    3  502    0  0.63203394757E+02  0.48090689682E+03 -0.12008300943E+04  0.12950988834E+04  0.46999998093E+01 0.  1.
       -5    1    3    3    0  502 -0.63203394757E+02 -0.48090689682E+03  0.72590236249E+03  0.87305351634E+03  0.46999998093E+01 0. -1.
</event>
<event>
 5   0  0.1815400E-04  0.2076921E+04  0.7818609E-02  0.8571478E-01
       -2   -1    0    0    0  501  0.00000000000E+00  0.00000000000E+00  0.50023366033E+03  0.50023366033E+03  0.25500000920E-02 0.  1.
        2   -1    0    0  501    0  0.00000000000E+00  0.00000000000E+00 -0.21557933720E+04  0.21557933720E+04  0.25500000920E-02 0. -1.
    10030    2    1    2    0    0  0.00000000000E+00  0.00000000000E+00 -0.16555597117E+04  0.26560270324E+04  0.20769211920E+04 0.  0.
        3    1    3    3  502    0  0.80516089856E+03  0.61474456285E+03 -0.53558646313E+03  0.11458829870E+04  0.10100000352E+00 0.  1.
       -3    1    3    3    0  502 -0.80516089856E+03 -0.61474456285E+03 -0.11199732486E+04  0.15101440454E+04  0.10100000352E+00 0. -1.
</event>
<event>
 5   0  0.1777590E-04  0.2066950E+04  0.7818609E-02  0.8575943E-01
        2   -1    0    0  501    0  0.00000000000E+00  0.00000000000E+00  0.10162244427E+04  0.10162244427E+04  0.25500000920E-02 0.  1.
       -2   -1    0    0    0  501  0.00000000000E+00  0.00000000000E+00 -0.10510184759E+04  0.10510184759E+04  0.25500000920E-02 0. -1.
    10030    2    1    2    0    0  0.00000000000E+00  0.00000000000E+00 -0.34794033276E+02  0.20672429186E+04  0.20669500864E+04 0.  0.
        4    1    3    3  502    0 -0.65009256826E+03  0.17018669358E+03 -0.80267396508E+03  0.10468385573E+04  0.12699999809E+01 0. -1.
       -4    1    3    3    0  502  0.65009256826E+03 -0.17018669358E+03  0.76787993181E+03  0.10204043613E+04  0.12699999809E+01 0.  1.
</event>
<event>
 5   0  0.1921687E-04  0.2132994E+04  0.7818609E-02  0.8546847E-01
       -2   -1    0    0    0  501  0.00000000000E+00  0.00000000000E+00  0.54016869356E+03  0.54016869356E+03  0.25500000920E-02 0.  1.
        2   -1    0    0  501    0  0.00000000000E+00  0.00000000000E+00 -0.21056676831E+04  0.21056676831E+04  0.25500000920E-02 0. -1.
    10030    2    1    2    0    0  0.00000000000E+00  0.00000000000E+00 -0.15654989896E+04  0.26458363767E+04  0.21329939160E+04 0.  0.
        5    1    3    3  502    0  0.43172644342E+03 -0.38708044877E+03  0.32754189788E+03  0.66597656162E+03  0.46999998093E+01 0.  1.
       -5    1    3    3    0  502 -0.43172644342E+03  0.38708044877E+03 -0.18930408874E+04  0.19798598151E+04  0.46999998093E+01 0. -1.
</event>
<event>
 5   0  0.8271069E-05  0.2089415E+04  0.7818609E-02  0.8565921E-01
        1   -1    0    0  501    0  0.00000000000E+00  0.00000000000E+00  0.19344126200E+04  0.19344126200E+04  0.50400001928E-02 0. -1.
       -1   -1    0    0    0  501  0.00000000000E+00  0.00000000000E+00 -0.56420941377E+03  0.56420941379E+03  0.50400001928E-02 0.  1.
    10030    2    1    2    0    0  0.00000000000E+00  0.00000000000E+00  0.13702032063E+04  0.24986220338E+04  0.20894150477E+04 0.  0.
        2    1    3    3  502    0  0.22757035098E+03 -0.45813657700E+03  0.17743976426E+04  0.18466630396E+04  0.25500000920E-02 0. -1.
       -2    1    3    3    0  502 -0.22757035098E+03  0.45813657700E+03 -0.40419443630E+03  0.65195899424E+03  0.25500000920E-02 0.  1.
</event>
<event>
 5   0  0.8271069E-05  0.2108058E+04  0.7818609E-02  0.8557702E-01
       -1   -1    0    0    0  501  0.00000000000E+00  0.00000000000E+00  0.64448783690E+03  0.64448783692E+03  0.50400001928E-02 0.  1.
        1   -1    0    0  501    0  0.00000000000E+00  0.00000000000E+00 -0.17238146118E+04  0.17238146118E+04  0.50400001928E-02 0. -1.
    10030    2    1    2    0    0  0.00000000000E+00  0.00000000000E+00 -0.10793267749E+04  0.23683024487E+04  0.21080583962E+04 0.  0.
        2    1    3    3  502    0  0.24151583740E+03 -0.87258814609E+03  0.66623578903E+02  0.90784286839E+03  0.25500000920E-02 0. -1.
       -2    1    3    3    0  502 -0.24151583740E+03  0.87258814609E+03 -0.11459503538E+04  0.14604595804E+04  0.25500000920E-02 0.  1.
</event>
<event>
 5   0  0.6441125E-05  0.2057222E+04  0.7818609E-02  0.8580325E-01
       -3   -1    0    0    0  501  0.00000000000E+00  0.00000000000E+00  0.95974287530E+03  0.95974288061E+03  0.10100000352E+00 0.  1.
        3   -1    0    0  501    0  0.00000000000E+00  0.00000000000E+00 -0.11024206773E+04  0.11024206819E+04  0.10100000352E+00 0. -1.
    10030    2    1    2    0    0  0.00000000000E+00  0.00000000000E+00 -0.14267780200E+03  0.20621635625E+04  0.20572218168E+04 0.  0.
        5    1    3    3  502    0  0.17971215383E+03  0.53924507962E+03  0.78800485242E+03  0.97162516001E+03  0.46999998093E+01 0.  1.
       -5    1    3    3    0  502 -0.17971215383E+03 -0.53924507962E+03 -0.93068265442E+03  0.10905384025E+04  0.46999998093E+01 0. -1.
</event>
<event>
 5   0  0.6441125E-05  0.2107551E+04  0.7818609E-02  0.8557924E-01
        3   -1    0    0  501    0  0.00000000000E+00  0.00000000000E+00  0.70629349540E+03  0.70629350262E+03  0.10100000352E+00 0.  1.
       -3   -1    0    0    0  501  0.00000000000E+00  0.00000000000E+00 -0.15722112107E+04  0.15722112139E+04  0.10100000352E+00 0. -1.
    10030    2    1    2    0    0  0.00000000000E+00  0.00000000000E+00 -0.86591771527E+03  0.22785047165E+04  0.21075507713E+04 0.  0.
        1    1    3    3  502    0 -0.74802682359E+03  0.67407114327E+03 -0.97070284318E+02  0.10116020340E+04  0.50400001928E-02 0.  1.
       -1    1    3    3    0  502  0.74802682359E+03 -0.67407114327E+03 -0.76884743095E+03  0.12669026826E+04  0.50400001928E-02 0. -1.
</event>
<event>
 5   0  0.8525278E-05  0.1858282E+04  0.7818609E-02  0.8675905E-01
       -1   -1    0    0    0  501  0.00000000000E+00  0.00000000000E+00  0.65822583164E+03  0.65822583165E+03  0.50400001928E-02 0. -1.
        1   -1    0    0  501    0  0.00000000000E+00  0.00000000000E+00 -0.13115603205E+04  0.13115603205E+04  0.50400001928E-02 0.  1.
    10030    2    1    2    0    0  0.00000000000E+00  0.00000000000E+00 -0.65333448886E+03  0.19697861522E+04  0.18582818761E+04 0.  0.
        4    1    3    3  502    0 -0.67337553254E+03 -0.60312127104E+02  0.34893799520E+03  0.76080976459E+03  0.12699999809E+01 0. -1.
       -4    1    3    3    0  502  0.67337553254E+03  0.60312127104E+02 -0.10022724841E+04  0.12089763876E+04  0.12699999809E+01 0.  1.
</event>
<event>
 5   0  0.8237966E-05  0.2006660E+04  0.7818609E-02  0.8603513E-01
       -1   -1    0    0    0  501  0.00000000000E+00  0.00000000000E+00  0.88659514826E+03  0.88659514828E+03  0.50400001928E-02 0. -1.
        1   -1    0    0  501    0  0.00000000000E+00  0.00000000000E+00 -0.11354344116E+04  0.11354344116E+04  0.50400001928E-02 0.  1.
    10030    2    1    2    0    0  0.00000000000E+00  0.00000000000E+00 -0.24883926331E+03  0.20220295599E+04  0.20066595531E+04 0.  0.
        1    1    3    3  502    0 -0.67603691185E+03 -0.99418570223E+02 -0.86473101317E+03  0.11021205394E+04  0.50400001928E-02 0.  1.
       -1    1    3    3    0  502  0.67603691185E+03  0.99418570223E+02  0.61589174986E+03  0.91990902042E+03  0.50400001928E-02 0. -1.
</event>
<event>
 5   0  0.1777590E-04  0.2111094E+04  0.7818609E-02  0.8556372E-01
        2   -1    0    0  501    0  0.00000000000E+00  0.00000000000E+00  0.10460989731E+04  0.10460989731E+04  0.25500000920E-02 0.  1.
       -2   -1    0    0    0  501  0.00000000000E+00  0.00000000000E+00 -0.10650801209E+04  0.10650801209E+04  0.25500000920E-02 0. -1.
    10030    2    1    2    0    0  0.00000000000E+00  0.00000000000E+00 -0.18981147840E+02  0.21111790940E+04  0.21110937646E+04 0.  0.
        4    1    3    3  502    0  0.19536100756E+03  0.25754618737E+03  0.99537920335E+03  0.10465549834E+04  0.12699999809E+01 0.  1.
       -4    1    3    3    0  502 -0.19536100756E+03 -0.25754618737E+03 -0.10143603512E+04  0.10646241106E+04  0.12699999809E+01 0. -1.
</event>
<event>
 5   0  0.1921687E-04  0.2074516E+04  0.7818609E-02  0.8572553E-01
       -2   -1    0    0    0  501  0.00000000000E+00  0.00000000000E+00  0.87500030006E+03  0.87500030006E+03  0.25500000920E-02 0.  1.
        2   -1    0    0  501    0  0.00000000000E+00  0.00000000000E+00 -0.12296048046E+04  0.12296048046E+04  0.25500000920E-02 0. -1.
    10030    2    1    2    0    0  0.00000000000E+00  0.00000000000E+00 -0.35460450451E+03  0.21046051046E+04  0.20745163995E+04 0.  0.
        5    1    3    3  502    0 -0.91017656152E+03 -0.25017216403E+03  0.25890495646E+03  0.97880608461E+03  0.46999998093E+01 0.  1.
       -5    1    3    3    0  502  0.91017656152E+03  0.25017216403E+03 -0.61350946097E+03  0.11257990200E+04  0.46999998093E+01 0. -1.
</event>
<event>
 5   0  0.8486612E-05  0.2100990E+04  0.7818609E-02  0.8560807E-01
        1   -1    0    0  501    0  0.00000000000E+00  0.00000000000E+00  0.11526443464E+04  0.11526443464E+04  0.50400001928E-02 0.  1.
       -1   -1    0    0    0  501  0.00000000000E+00  0.00000000000E+00 -0.95739853766E+03  0.95739853767E+03  0.50400001928E-02 0. -1.
    10030    2    1    2    0    0  0.00000000000E+00  0.00000000000E+00  0.19524580877E+03  0.21100428841E+04  0.21009902539E+04 0.  0.
        5    1    3    3  502    0  0.10677053726E+03 -0.70208422568E+03 -0.67978972793E+03  0.98308614667E+03  0.46999998093E+01 0. -1.
       -5    1    3    3    0  502 -0.10677053726E+03  0.70208422568E+03  0.87503553670E+03  0.11269567374E+04  0.46999998093E+01 0.  1.
</event>
<event>
 5   0  0.1810875E-04  0.2072003E+04  0.7818609E-02  0.8573678E-01
       -2   -1    0    0    0  501  0.00000000000E+00  0.00000000000E+00  0.52929029748E+03  0.52929029749E+03  0.25500000920E-02 0. -1.
        2   -1    0    0  501    0  0.00000000000E+00  0.00000000000E+00 -0.20278080752E+04  0.20278080752E+04  0.25500000920E-02 0.  1.
    10030    2    1    2    0    0  0.00000000000E+00  0.00000000000E+00 -0.14985177777E+04  0.25570983727E+04  0.20720030303E+04 0.  0.
        1    1    3    3  502    0 -0.22344327762E+03  0.51036311080E+03  0.32867307752E+03  0.64685654908E+03  0.50400001928E-02 0. -1.
       -1    1    3    3    0  502  0.22344327762E+03 -0.51036311080E+03 -0.18271908553E+04  0.19102418236E+04  0.50400001928E-02 0.  1.
</event>
<event>
 5   0  0.1886323E-04  0.1992057E+04  0.7818609E-02  0.8610343E-01
       -2   -1    0    0    0  501  0.00000000000E+00  0.00000000000E+00  0.73874119547E+03  0.73874119547E+03  0.25500000920E-02 0. -1.
        2   -1    0    0  501    0  0.00000000000E+00  0.00000000000E+00 -0.13429231884E+04  0.13429231884E+04  0.25500000920E-02 0.  1.
    10030    2    1    2    0    0  0.00000000000E+00  0.00000000000E+00 -0.60418199292E+03  0.20816643839E+04  0.19920569084E+04 0.  0.
        2    1    3    3  502    0 -0.87875947022E+03 -0.37442253833E+03 -0.71499464659E+01  0.95522854095E+03  0.25500000920E-02 0. -1.
       -2    1    3    3    0  502  0.87875947022E+03  0.37442253833E+03 -0.59703204646E+03  0.11264358429E+04  0.25500000920E-02 0.  1.
</event>
<event>
 5   0  0.1886323E-04  0.2070569E+04  0.7818609E-02  0.8574320E-01
        2   -1    0    0  501    0  0.00000000000E+00  0.00000000000E+00  0.10603638312E+04  0.10603638312E+04  0.25500000920E-02 0. -1.
       -2   -1    0    0    0  501  0.00000000000E+00  0.00000000000E+00 -0.10107982144E+04  0.10107982144E+04  0.25500000920E-02 0.  1.
    10030    2    1    2    0    0  0.00000000000E+00  0.00000000000E+00  0.49565616812E+02  0.20711620457E+04  0.20705688757E+04 0.  0.
        2    1    3    3  502    0  0.51714166451E+03  0.60974762308E+03  0.68268408486E+03  0.10513254609E+04  0.25500000920E-02 0. -1.
       -2    1    3    3    0  502 -0.51714166451E+03 -0.60974762308E+03 -0.63311846805E+03  0.10198365848E+04  0.25500000920E-02 0.  1.
</event>
<event>
 5   0  0.8525278E-05  0.2088580E+04  0.7818609E-02  0.8566291E-01
        1   -1    0    0  501    0  0.00000000000E+00  0.00000000000E+00  0.10795069376E+04  0.10795069376E+04  0.50400001928E-02 0.  1.
       -1   -1    0    0    0  501  0.00000000000E+00  0.00000000000E+00 -0.10102219027E+04  0.10102219027E+04  0.50400001928E-02 0. -1.
    10030    2    1    2    0    0  0.00000000000E+00  0.00000000000E+00  0.69285034951E+02  0.20897288403E+04  0.20885799506E+04 0.  0.
        4    1    3    3  502    0 -0.84547496574E+02 -0.37415498207E+03  0.10064644606E+04  0.10770852117E+04  0.12699999809E+01 0.  1.
       -4    1    3    3    0  502  0.84547496574E+02  0.37415498207E+03 -0.93717942569E+03  0.10126436286E+04  0.12699999809E+01 0. -1.
</event>
<event>
 5   0  0.8237966E-05  0.2062263E+04  0.7818609E-02  0.8578051E-01
        1   -1    0    0  501    0  0.00000000000E+00  0.00000000000E+00  0.80614700673E+03  0.80614700674E+03  0.50400001928E-02 0.  1.
       -1   -1    0    0    0  501  0.00000000000E+00  0.00000000000E+00 -0.13189061312E+04  0.13189061312E+04  0.50400001928E-02 0. -1.
    10030    2    1    2    0    0  0.00000000000E+00  0.00000000000E+00 -0.51275912449E+03  0.21250531380E+04  0.20622630578E+04 0.  0.
        1    1    3    3  502    0 -0.30186314311E+03 -0.97860690336E+03 -0.13255684612E+03  0.10326490914E+04  0.50400001928E-02 0. -1.
       -1    1    3    3    0  502  0.30186314311E+03  0.97860690336E+03 -0.38020227837E+03  0.10924040466E+04  0.50400001928E-02 0.  1.
</event>
<event>
 5   0  0.1921687E-04  0.1986458E+04  0.7818609E-02  0.8612978E-01
       -2   -1    0    0    0  501  0.00000000000E+00  0.00000000000E+00  0.76005190770E+03  0.76005190770E+03  0.25500000920E-02 0.  1.
        2   -1    0    0  501    0  0.00000000000E+00  0.00000000000E+00 -0.12979423012E+04  0.12979423012E+04  0.25500000920E-02 0. -1.
    10030    2    1    2    0    0  0.00000000000E+00  0.00000000000E+00 -0.53789039347E+03  0.20579942089E+04  0.19864576734E+04 0.  0.
        5    1    3    3  502    0  0.20713249967E+03  0.94973378836E+03 -0.48020859481E+03  0.10842142434E+04  0.46999998093E+01 0.  1.
       -5    1    3    3    0  502 -0.20713249967E+03 -0.94973378836E+03 -0.57681798655E+02  0.97377996542E+03  0.46999998093E+01 0. -1.
</event>
<event>
 5   0  0.8486612E-05  0.2097715E+04  0.7818609E-02  0.8562251E-01
       -1   -1    0    0    0  501  0.00000000000E+00  0.00000000000E+00  0.54673483221E+03  0.54673483223E+03  0.50400001928E-02 0.  1.
        1   -1    0    0  501    0  0.00000000000E+00  0.00000000000E+00 -0.20121304311E+04  0.20121304311E+04  0.50400001928E-02 0. -1.
    10030    2    1    2    0    0  0.00000000000E+00  0.00000000000E+00 -0.14653955989E+04  0.25588652633E+04  0.20977147505E+04 0.  0.
        5    1    3    3  502    0 -0.81915852011E+03  0.65139495728E+03 -0.81671273356E+03  0.13275457998E+04  0.46999998093E+01 0. -1.
       -5    1    3    3    0  502  0.81915852011E+03 -0.65139495728E+03 -0.64868286529E+03  0.12313194635E+04  0.46999998093E+01 0.  1.
</event>
<event>
 5   0  0.1886323E-04  0.2077140E+04  0.7818609E-02  0.8571381E-01
        2   -1    0    0  501    0  0.00000000000E+00  0.00000000000E+00  0.13047075731E+04  0.13047075731E+04  0.25500000920E-02 0. -1.
       -2   -1    0    0    0  501  0.00000000000E+00  0.00000000000E+00 -0.82671951125E+03  0.82671951126E+03  0.25500000920E-02 0.  1.
    10030    2    1    2    0    0  0.00000000000E+00  0.00000000000E+00  0.47798806184E+03  0.21314270844E+04  0.20771395785E+04 0.  0.
        2    1    3    3  502    0  0.53350047162E+03  0.11024641685E+03 -0.66833868323E+03  0.86223756654E+03  0.25500000920E-02 0.  1.
       -2    1    3    3    0  502 -0.53350047162E+03 -0.11024641685E+03  0.11463267451E+04  0.12691895178E+04  0.25500000920E-02 0. -1.
</event>
<event>
 5   0  0.1777590E-04  0.2113499E+04  0.7818609E-02  0.8555320E-01
       -2   -1    0    0    0  501  0.00000000000E+00  0.00000000000E+00  0.86159999537E+03  0.86159999537E+03  0.25500000920E-02 0. -1.
        2   -1    0    0  501    0  0.00000000000E+00  0.00000000000E+00 -0.12960991403E+04  0.12960991403E+04  0.25500000920E-02 0.  1.
    10030    2    1    2    0    0  0.00000000000E+00  0.00000000000E+00 -0.43449914495E+03  0.21576991357E+04  0.21134985340E+04 0.  0.
        4    1    3    3  502    0  0.38974444406E+03  0.54306238592E+03 -0.10528408495E+04  0.12471138496E+04  0.12699999809E+01 0.  1.
       -4    1    3    3    0  502 -0.38974444406E+03 -0.54306238592E+03  0.61834170456E+03  0.91058528605E+03  0.12699999809E+01 0. -1.
</event>
<event>
 5   0  0.8525278E-05  0.2094956E+04  0.7818609E-02  0.8563469E-01
       -1   -1    0    0    0  501  0.00000000000E+00  0.00000000000E+00  0.75645209237E+03  0.75645209239E+03  0.50400001928E-02 0. -1.
        1   -1    0    0  501    0  0.00000000000E+00  0.00000000000E+00 -0.14504687901E+04  0.14504687901E+04  0.50400001928E-02 0.  1.
    10030    2    1    2    0    0  0.00000000000E+00  0.00000000000E+00 -0.69401669774E+03  0.22069208825E+04  0.20949559912E+04 0.  0.
        4    1    3    3  502    0 -0.67176307478E+03 -0.17879140750E+02  0.49944190475E+03  0.83727481834E+03  0.12699999809E+01 0. -1.
       -4    1    3    3    0  502  0.67176307478E+03  0.17879140750E+02 -0.11934586025E+04  0.13696460642E+04  0.12699999809E+01 0.  1.
</event>
<event>
 5   0  0.1921687E-04  0.2090243E+04  0.7818609E-02  0.8565554E-01
        2   -1    0    0  501    0  0.00000000000E+00  0.00000000000E+00  0.77086325606E+03  0.77086325607E+03  0.25500000920E-02 0.  1.
       -2   -1    0    0    0  501  0.00000000000E+00  0.00000000000E+00 -0.14169556819E+04  0.14169556819E+04  0.25500000920E-02 0. -1.
    10030    2    1    2    0    0  0.00000000000E+00  0.00000000000E+00 -0.64609242580E+03  0.21878189379E+04  0.20902431156E+04 0.  0.
        5    1    3    3  502    0  0.63037420434E+03  0.75611580139E+03 -0.69039153836E+03  0.12023914957E+04  0.46999998093E+01 0. -1.
       -5    1    3    3    0  502 -0.63037420434E+03 -0.75611580139E+03  0.44299112560E+02  0.98542744227E+03  0.46999998093E+01 0.  1.
</event>
<event>
 5   0  0.1815400E-04  0.2031240E+04  0.7818609E-02  0.8592153E-01
        2   -1    0    0  501    0  0.00000000000E+00  0.00000000000E+00  0.85473779153E+03  0.85473779154E+03  0.25500000920E-02 0. -1.
       -2   -1    0    0    0  501  0.00000000000E+00  0.00000000000E+00 -0.12067844957E+04  0.12067844957E+04  0.25500000920E-02 0.  1.
    10030    2    1    2    0    0  0.00000000000E+00  0.00000000000E+00 -0.35204670414E+03  0.20615222872E+04  0.20312403252E+04 0.  0.
        3    1    3    3  502    0  0.55347378997E+03  0.70433929711E+03 -0.66175759377E+03  0.11137101080E+04  0.10100000352E+00 0.  1.
       -3    1    3    3    0  502 -0.55347378997E+03 -0.70433929711E+03  0.30971088963E+03  0.94781217918E+03  0.10100000352E+00 0. -1.
</event>
<event>
 5   0  0.1777590E-04  0.2090896E+04  0.7818609E-02  0.8565264E-01
        2   -1    0    0  501    0  0.00000000000E+00  0.00000000000E+00  0.14800094464E+04  0.14800094464E+04  0.25500000920E-02 0.  1.
       -2   -1    0    0    0  501  0.00000000000E+00  0.00000000000E+00 -0.73848272861E+03  0.73848272862E+03  0.25500000920E-02 0. -1.
    10030    2    1    2    0    0  0.00000000000E+00  0.00000000000E+00  0.74152671774E+03  0.22184921750E+04  0.20908958982E+04 0.  0.
        4    1    3    3  502    0  0.52223174594E+03 -0.92524101286E+02  0.13266712922E+04  0.14287564650E+04  0.12699999809E+01 0.  1.
       -4    1    3    3    0  502 -0.52223174594E+03  0.92524101286E+02 -0.58514457443E+03  0.78973571002E+03  0.12699999809E+01 0. -1.
</event>
<event>
 5   0  0.8271069E-05  0.2090108E+04  0.7818609E-02  0.8565613E-01
        1   -1    0    0  501    0  0.00000000000E+00  0.00000000000E+00  0.20377189247E+04  0.20377189247E+04  0.50400001928E-02 0.  1.
       -1   -1    0    0    0  501  0.00000000000E+00  0.00000000000E+00 -0.53596112985E+03  0.53596112988E+03  0.50400001928E-02 0. -1.
    10030    2    1    2    0    0  0.00000000000E+00  0.00000000000E+00  0.15017577949E+04  0.25736800546E+04  0.20901082625E+04 0.  0.
        2    1    3    3  502    0  0.98254650447E+03 -0.78871093281E+02  0.32339961272E+03  0.10374032930E+04  0.25500000920E-02 0. -1.
       -2    1    3    3    0  502 -0.98254650447E+03  0.78871093281E+02  0.11783581821E+04  0.15362767616E+04  0.25500000920E-02 0.  1.
</event>
<event>
 5   0  0.1921687E-04  0.2084707E+04  0.7818609E-02  0.8568010E-01
        2   -1    0    0  501    0  0.00000000000E+00  0.00000000000E+00  0.81228101022E+03  0.81228101023E+03  0.25500000920E-02 0.  1.
       -2   -1    0    0    0  501  0.00000000000E+00  0.00000000000E+00 -0.13375927924E+04  0.13375927924E+04  0.25500000920E-02 0. -1.
    10030    2    1    2    0    0  0.00000000000E+00  0.00000000000E+00 -0.52531178217E+03  0.21498738026E+04  0.20847073892E+04 0.  0.
        5    1    3    3  502    0  0.90485098095E+03 -0.30073192344E+03  0.17155710031E+03  0.96883895265E+03  0.46999998093E+01 0.  1.
       -5    1    3    3    0  502 -0.90485098095E+03  0.30073192344E+03 -0.69686888248E+03  0.11810348500E+04  0.46999998093E+01 0. -1.
</event>
<event>
 5   0  0.8486612E-05  0.2105069E+04  0.7818609E-02  0.8559014E-01
        1   -1    0    0  501    0  0.00000000000E+00  0.00000000000E+00  0.15002364499E+04  0.15002364499E+04  0.50400001928E-02 0.  1.
       -1   -1    0    0    0  501  0.00000000000E+00  0.00000000000E+00 -0.73843589283E+03  0.73843589285E+03  0.50400001928E-02 0. -1.
    10030    2    1    2    0    0  0.00000000000E+00  0.00000000000E+00  0.76180055710E+03  0.22386723428E+04  0.21050685902E+04 0.  0.
        5    1    3    3  502    0 -0.10635681089E+03 -0.10301476544E+04  0.58068051345E+03  0.11873196325E+04  0.46999998093E+01 0.  1.
       -5    1    3    3    0  502  0.10635681089E+03  0.10301476544E+04  0.18112004364E+03  0.10513527102E+04  0.46999998093E+01 0. -1.
</event>
<event>
 5   0  0.1777590E-04  0.2031848E+04  0.7818609E-02  0.8591874E-01
       -2   -1    0    0    0  501  0.00000000000E+00  0.00000000000E+00  0.10368425633E+04  0.10368425633E+04  0.25500000920E-02 0. -1.
        2   -1    0    0  501    0  0.00000000000E+00  0.00000000000E+00 -0.99542708148E+03  0.99542708148E+03  0.25500000920E-02 0.  1.
    10030    2    1    2    0    0  0.00000000000E+00  0.00000000000E+00  0.41415481812E+02  0.20322696448E+04  0.20318475993E+04 0.  0.
        4    1    3    3  502    0  0.79261697595E+02 -0.30454863394E+03  0.98686245485E+03  0.10358240221E+04  0.12699999809E+01 0. -1.
       -4    1    3    3    0  502 -0.79261697595E+02  0.30454863394E+03 -0.94544697304E+03  0.99644562263E+03  0.12699999809E+01 0.  1.
</event>
<event>
 5   0  0.8237966E-05  0.2106698E+04  0.7818609E-02  0.8558299E-01
       -1   -1    0    0    0  501  0.00000000000E+00  0.00000000000E+00  0.60668693173E+03  0.60668693175E+03  0.50400001928E-02 0. -1.
        1   -1    0    0  501    0  0.00000000000E+00  0.00000000000E+00 -0.18288578111E+04  0.18288578111E+04  0.50400001928E-02 0.  1.
    10030    2    1    2    0    0  0.00000000000E+00  0.00000000000E+00 -0.12221708794E+04  0.24355447429E+04  0.21066980173E+04 0.  0.
        1    1    3    3  502    0  0.50916713713E+03 -0.86904101449E+03 -0.25463900585E+03  0.10389054248E+04  0.50400001928E-02 0. -1.
       -1    1    3    3    0  502 -0.50916713713E+03  0.86904101449E+03 -0.96753187356E+03  0.13966393181E+04  0.50400001928E-02 0.  1.
</event>
<event>
 5   0  0.1921687E-04  0.2098896E+04  0.7818609E-02  0.8561730E-01
       -2   -1    0    0    0  501  0.00000000000E+00  0.00000000000E+00  0.11551514283E+04  0.11551514283E+04  0.25500000920E-02 0. -1.
        2   -1    0    0  501    0  0.00000000000E+00  0.00000000000E+00 -0.95341743564E+03  0.95341743564E+03  0.25500000920E-02 0.  1.
    10030    2    1    2    0    0  0.00000000000E+00  0.00000000000E+00  0.20173399267E+03  0.21085688640E+04  0.20988963886E+04 0.  0.
        5    1    3    3  502    0  0.40916970589E+03  0.62803765333E+03 -0.63700282131E+03  0.98368990366E+03  0.46999998093E+01 0.  1.
       -5    1    3    3    0  502 -0.40916970589E+03 -0.62803765333E+03  0.83873681397E+03  0.11248789603E+04  0.46999998093E+01 0. -1.
</event>
<event>
 5   0  0.8486612E-05  0.2102578E+04  0.7818609E-02  0.8560109E-01
       -1   -1    0    0    0  501  0.00000000000E+00  0.00000000000E+00  0.20294806047E+04  0.20294806047E+04  0.50400001928E-02 0. -1.
        1   -1    0    0  501    0  0.00000000000E+00  0.00000000000E+00 -0.54457701685E+03  0.54457701687E+03  0.50400001928E-02 0.  1.
    10030    2    1    2    0    0  0.00000000000E+00  0.00000000000E+00  0.14849035878E+04  0.25740576215E+04  0.21025779353E+04 0.  0.
        5    1    3    3  502    0  0.10263210480E+04 -0.42800606933E+02  0.10162536242E+04  0.14449776138E+04  0.46999998093E+01 0. -1.
       -5    1    3    3    0  502 -0.10263210480E+04  0.42800606933E+02  0.46864996360E+03  0.11290800078E+04  0.46999998093E+01 0.  1.
</event>
<event>
 5   0  0.8486612E-05  0.2047323E+04  0.7818609E-02  0.8584810E-01
       -1   -1    0    0    0  501  0.00000000000E+00  0.00000000000E+00  0.49025221908E+03  0.49025221910E+03  0.50400001928E-02 0.  1.
        1   -1    0    0  501    0  0.00000000000E+00  0.00000000000E+00 -0.21374364237E+04  0.21374364237E+04  0.50400001928E-02 0. -1.
    10030    2    1    2    0    0  0.00000000000E+00  0.00000000000E+00 -0.16471842046E+04  0.26276886428E+04  0.20473230814E+04 0.  0.
        5    1    3    3  502    0  0.43726720693E+03 -0.92554537995E+03 -0.81730447431E+03  0.13099028797E+04  0.46999998093E+01 0.  1.
       -5    1    3    3    0  502 -0.43726720693E+03  0.92554537995E+03 -0.82987973033E+03  0.13177857631E+04  0.46999998093E+01 0. -1.
</event>
<event>
 5   0  0.1921687E-04  0.1899916E+04  0.7818609E-02  0.8654898E-01
        2   -1    0    0  501    0  0.00000000000E+00  0.00000000000E+00  0.17909787817E+04  0.17909787817E+04  0.25500000920E-02 0. -1.
       -2   -1    0    0    0  501  0.00000000000E+00  0.00000000000E+00 -0.50386978651E+03  0.50386978652E+03  0.25500000920E-02 0.  1.
    10030    2    1    2    0    0  0.00000000000E+00  0.00000000000E+00  0.12871089952E+04  0.22948485682E+04  0.18999158891E+04 0.  0.
        5    1    3    3  502    0  0.77353784604E+03 -0.45359581178E+03  0.26487655399E+03  0.93503563492E+03  0.46999998093E+01 0.  1.
       -5    1    3    3    0  502 -0.77353784604E+03  0.45359581178E+03  0.10222324412E+04  0.13598129333E+04  0.46999998093E+01 0. -1.
</event>
<event>
 5   0  0.8525278E-05  0.1939843E+04  0.7818609E-02  0.8635274E-01
       -1   -1    0    0    0  501  0.00000000000E+00  0.00000000000E+00  0.10112947031E+04  0.10112947031E+04  0.50400001928E-02 0. -1.
        1   -1    0    0  501    0  0.00000000000E+00  0.00000000000E+00 -0.93024115561E+03  0.93024115563E+03  0.50400001928E-02 0.  1.
    10030    2    1    2    0    0  0.00000000000E+00  0.00000000000E+00  0.81053547497E+02  0.19415358587E+04  0.19398432445E+04 0.  0.
        4    1    3    3  502    0  0.74167734120E+02  0.30988617620E+03  0.95741346454E+03  0.10090453161E+04  0.12699999809E+01 0. -1.
       -4    1    3    3    0  502 -0.74167734120E+02 -0.30988617620E+03 -0.87635991705E+03  0.93249054263E+03  0.12699999809E+01 0.  1.
</event>
<event>
 5   0  0.8525278E-05  0.2141708E+04  0.7818609E-02  0.8543090E-01
        1   -1    0    0  501    0  0.00000000000E+00  0.00000000000E+00  0.88300086087E+03  0.88300086088E+03  0.50400001928E-02 0. -1.
       -1   -1    0    0    0  501  0.00000000000E+00  0.00000000000E+00 -0.12986716673E+04  0.12986716673E+04  0.50400001928E-02 0.  1.
    10030    2    1    2    0    0  0.00000000000E+00  0.00000000000E+00 -0.41567080639E+03  0.21816725281E+04  0.21417079168E+04 0.  0.
        4    1    3    3  502    0 -0.47320421987E+03  0.11375358951E+03  0.76383209300E+03  0.90570590813E+03  0.12699999809E+01 0. -1.
       -4    1    3    3    0  502  0.47320421987E+03 -0.11375358951E+03 -0.11795028994E+04  0.12759666200E+04  0.12699999809E+01 0.  1.
</event>
<event>
 5   0  0.8486612E-05  0.2120873E+04  0.7818609E-02  0.8552104E-01
        1   -1    0    0  501    0  0.00000000000E+00  0.00000000000E+00  0.26658529232E+04  0.26658529232E+04  0.50400001928E-02 0.  1.
       -1   -1    0    0    0  501  0.00000000000E+00  0.00000000000E+00 -0.42182596168E+03  0.42182596171E+03  0.50400001928E-02 0. -1.
    10030    2    1    2    0    0  0.00000000000E+00  0.00000000000E+00  0.22440269615E+04  0.30876788849E+04  0.21208733796E+04 0.  0.
        5    1    3    3  502    0 -0.86464363811E+03 -0.33868314267E+03  0.18674739408E+04  0.20856164320E+04  0.46999998093E+01 0.  1.
       -5    1    3    3    0  502  0.86464363811E+03  0.33868314267E+03  0.37655302073E+03  0.10020624529E+04  0.46999998093E+01 0. -1.
</event>
<event>
 5   0  0.8525278E-05  0.2083858E+04  0.7818609E-02  0.8568388E-01
       -1   -1    0    0    0  501  0.00000000000E+00  0.00000000000E+00  0.11481127552E+04  0.11481127552E+04  0.50400001928E-02 0. -1.
        1   -1    0    0  501    0  0.00000000000E+00  0.00000000000E+00 -0.94556529922E+03  0.94556529923E+03  0.50400001928E-02 0.  1.
    10030    2    1    2    0    0  0.00000000000E+00  0.00000000000E+00  0.20254745597E+03  0.20936780544E+04  0.20838575584E+04 0.  0.
        4    1    3    3  502    0  0.88141004172E+03 -0.44499641757E+03 -0.23302316811E+03  0.10144983406E+04  0.12699999809E+01 0. -1.
       -4    1    3    3    0  502 -0.88141004172E+03  0.44499641757E+03  0.43557062408E+03  0.10791797138E+04  0.12699999809E+01 0.  1.
</event>
<event>
 5   0  0.8525278E-05  0.2130377E+04  0.7818609E-02  0.8547979E-01
       -1   -1    0    0    0  501  0.00000000000E+00  0.00000000000E+00  0.22288600447E+04  0.22288600447E+04  0.50400001928E-02 0.  1.
        1   -1    0    0  501    0  0.00000000000E+00  0.00000000000E+00 -0.50906145731E+03  0.50906145734E+03  0.50400001928E-02 0. -1.
    10030    2    1    2    0    0  0.00000000000E+00  0.00000000000E+00  0.17197985873E+04  0.27379215020E+04  0.21303771896E+04 0.  0.
        4    1    3    3  502    0 -0.96221225975E+03  0.38861820527E+03  0.55105813613E+03  0.11749652014E+04  0.12699999809E+01 0. -1.
       -4    1    3    3    0  502  0.96221225975E+03 -0.38861820527E+03  0.11687404512E+04  0.15629563006E+04  0.12699999809E+01 0.  1.
</event>
<event>
 5   0  0.8525278E-05  0.2112494E+04  0.7818609E-02  0.8555759E-01
        1   -1    0    0  501    0  0.00000000000E+00  0.00000000000E+00  0.15959780536E+04  0.15959780536E+04  0.50400001928E-02 0. -1.
       -1   -1    0    0    0  501  0.00000000000E+00  0.00000000000E+00 -0.69904346842E+03  0.69904346844E+03  0.50400001928E-02 0.  1.
    10030    2    1    2    0    0  0.00000000000E+00  0.00000000000E+00  0.89693458514E+03  0.22950215220E+04  0.21124942926E+04 0.  0.
        4    1    3    3  502    0 -0.29054781255E+03 -0.75232724991E+02  0.15486774666E+04  0.15774921562E+04  0.12699999809E+01 0. -1.
       -4    1    3    3    0  502  0.29054781255E+03  0.75232724991E+02 -0.65174288151E+03  0.71752936580E+03  0.12699999809E+01 0.  1.
</event>
<event>
 5   0  0.8237966E-05  0.2094908E+04  0.7818609E-02  0.8563490E-01
        1   -1    0    0  501    0  0.00000000000E+00  0.00000000000E+00  0.91977368518E+03  0.91977368520E+03  0.50400001928E-02 0.  1.
       -1   -1    0    0    0  501  0.00000000000E+00  0.00000000000E+00 -0.11928584475E+04  0.11928584475E+04  0.50400001928E-02 0. -1.
    10030    2    1    2    0    0  0.00000000000E+00  0.00000000000E+00 -0.27308476235E+03  0.21126321327E+04  0.20949079314E+04 0.  0.
        1    1    3    3  502    0  0.99410323296E+03  0.25694223454E+03  0.72331358830E+02  0.10293164602E+04  0.50400001928E-02 0. -1.
       -1    1    3    3    0  502 -0.99410323296E+03 -0.25694223454E+03 -0.34541612118E+03  0.10833156726E+04  0.50400001928E-02 0.  1.
</event>
<event>
 5   0  0.1886323E-04  0.2101579E+04  0.7818609E-02  0.8560548E-01
       -2   -1    0    0    0  501  0.00000000000E+00  0.00000000000E+00  0.18099548388E+04  0.18099548388E+04  0.25500000920E-02 0. -1.
        2   -1    0    0  501    0  0.00000000000E+00  0.00000000000E+00 -0.61004758898E+03  0.61004758899E+03  0.25500000920E-02 0.  1.
    10030    2    1    2    0    0  0.00000000000E+00  0.00000000000E+00  0.11999072498E+04  0.24200024278E+04  0.21015790117E+04 0.  0.
        2    1    3    3  502    0  0.99998964602E+03 -0.53535503457E+02  0.96647827552E+03  0.13917347446E+04  0.25500000920E-02 0. -1.
       -2    1    3    3    0  502 -0.99998964602E+03  0.53535503457E+02  0.23342897432E+03  0.10282676832E+04  0.25500000920E-02 0.  1.
</event>
<event>
 5   0  0.8237966E-05  0.1551605E+04  0.7818609E-02  0.8850843E-01
       -1   -1    0    0    0  501  0.00000000000E+00  0.00000000000E+00  0.57128524512E+03  0.57128524514E+03  0.50400001928E-02 0. -1.
        1   -1    0    0  501    0  0.00000000000E+00  0.00000000000E+00 -0.10535353154E+04  0.10535353154E+04  0.50400001928E-02 0.  1.
    10030    2    1    2    0    0  0.00000000000E+00  0.00000000000E+00 -0.48225007031E+03  0.16248205606E+04  0.15516045642E+04 0.  0.
        1    1    3    3  502    0 -0.60072321854E+03 -0.47043236627E+03 -0.38808307730E+03  0.85602772820E+03  0.50400001928E-02 0.  1.
       -1    1    3    3    0  502  0.60072321854E+03  0.47043236627E+03 -0.94166993007E+02  0.76879283238E+03  0.50400001928E-02 0. -1.
</event>
<event>
 5   0  0.8237966E-05  0.2054917E+04  0.7818609E-02  0.8581367E-01
       -1   -1    0    0    0  501  0.00000000000E+00  0.00000000000E+00  0.71903431483E+03  0.71903431485E+03  0.50400001928E-02 0. -1.
        1   -1    0    0  501    0  0.00000000000E+00  0.00000000000E+00 -0.14681787053E+04  0.14681787053E+04  0.50400001928E-02 0.  1.
    10030    2    1    2    0    0  0.00000000000E+00  0.00000000000E+00 -0.74914439046E+03  0.21872130202E+04  0.20549169029E+04 0.  0.
        1    1    3    3  502    0  0.30766582149E+02 -0.68500455462E+02 -0.14652540299E+04  0.14671769720E+04  0.50400001928E-02 0.  1.
       -1    1    3    3    0  502 -0.30766582149E+02  0.68500455462E+02  0.71610963943E+03  0.72003604818E+03  0.50400001928E-02 0. -1.
</event>
<event>
 5   0  0.1921687E-04  0.2114706E+04  0.7818609E-02  0.8554793E-01
        2   -1    0    0  501    0  0.00000000000E+00  0.00000000000E+00  0.85234697515E+03  0.85234697516E+03  0.25500000920E-02 0. -1.
       -2   -1    0    0    0  501  0.00000000000E+00  0.00000000000E+00 -0.13116672661E+04  0.13116672661E+04  0.25500000920E-02 0.  1.
    10030    2    1    2    0    0  0.00000000000E+00  0.00000000000E+00 -0.45932029091E+03  0.21640142412E+04  0.21147062459E+04 0.  0.
        5    1    3    3  502    0  0.33699013096E+03  0.10300751251E+03 -0.12497999716E+04  0.12985356964E+04  0.46999998093E+01 0.  1.
       -5    1    3    3    0  502 -0.33699013096E+03 -0.10300751251E+03  0.79047968064E+03  0.86547854480E+03  0.46999998093E+01 0. -1.
</event>
<event>
 5   0  0.8271069E-05  0.2194565E+04  0.7818609E-02  0.8520694E-01
        1   -1    0    0  501    0  0.00000000000E+00  0.00000000000E+00  0.19857088127E+04  0.19857088127E+04  0.50400001928E-02 0.  1.
       -1   -1    0    0    0  501  0.00000000000E+00  0.00000000000E+00 -0.60634690044E+03  0.60634690046E+03  0.50400001928E-02 0. -1.
    10030    2    1    2    0    0  0.00000000000E+00  0.00000000000E+00  0.13793619123E+04  0.25920557132E+04  0.21945645434E+04 0.  0.
        2    1    3    3  502    0 -0.68007511193E+03  0.30707186633E+02 -0.32676181006E+03  0.75512804855E+03  0.25500000920E-02 0. -1.
       -2    1    3    3    0  502  0.68007511193E+03 -0.30707186633E+02  0.17061237223E+04  0.18369276646E+04  0.25500000920E-02 0.  1.
</event>
<event>
 5   0  0.8755004E-05  0.2087780E+04  0.7818609E-02  0.8566645E-01
       -1   -1    0    0    0  501  0.00000000000E+00  0.00000000000E+00  0.15617403709E+04  0.15617403709E+04  0.50400001928E-02 0.  1.
        1   -1    0    0  501    0  0.00000000000E+00  0.00000000000E+00 -0.69775155681E+03  0.69775155682E+03  0.50400001928E-02 0. -1.
    10030    2    1    2    0    0  0.00000000000E+00  0.00000000000E+00  0.86398881406E+03  0.22594919277E+04  0.20877804244E+04 0.  0.
        3    1    3    3  502    0 -0.44624483066E+03  0.23612733936E+03 -0.55683507360E+03  0.75163546927E+03  0.10100000352E+00 0. -1.
       -3    1    3    3    0  502  0.44624483066E+03 -0.23612733936E+03  0.14208238877E+04  0.15078564584E+04  0.10100000352E+00 0.  1.
</event>
<event>
 5   0  0.8525278E-05  0.2131496E+04  0.7818609E-02  0.8547495E-01
        1   -1    0    0  501    0  0.00000000000E+00  0.00000000000E+00  0.10537473031E+04  0.10537473031E+04  0.50400001928E-02 0. -1.
       -1   -1    0    0    0  501  0.00000000000E+00  0.00000000000E+00 -0.10778849138E+04  0.10778849139E+04  0.50400001928E-02 0.  1.
    10030    2    1    2    0    0  0.00000000000E+00  0.00000000000E+00 -0.24137610707E+02  0.21316322170E+04  0.21314955511E+04 0.  0.
        4    1    3    3  502    0  0.53842969972E+02 -0.10412948060E+04  0.20845104651E+03  0.10633190444E+04  0.12699999809E+01 0. -1.
       -4    1    3    3    0  502 -0.53842969972E+02  0.10412948060E+04 -0.23258865722E+03  0.10683131726E+04  0.12699999809E+01 0.  1.
</event>
<event>
 5   0  0.8525278E-05  0.2148564E+04  0.7818609E-02  0.8540147E-01
        1   -1    0    0  501    0  0.00000000000E+00  0.00000000000E+00  0.93816330344E+03  0.93816330346E+03  0.50400001928E-02 0.  1.
       -1   -1    0    0    0  501  0.00000000000E+00  0.00000000000E+00 -0.12301498265E+04  0.12301498265E+04  0.50400001928E-02 0. -1.
    10030    2    1    2    0    0  0.00000000000E+00  0.00000000000E+00 -0.29198652304E+03  0.21683131299E+04  0.21485636364E+04 0.  0.
        4    1    3    3  502    0 -0.45043056199E+03  0.15677594784E+03 -0.11174491207E+04  0.12149734727E+04  0.12699999809E+01 0. -1.
       -4    1    3    3    0  502  0.45043056199E+03 -0.15677594784E+03  0.82546259770E+03  0.95333965726E+03  0.12699999809E+01 0.  1.
</event>
<event>
 5   0  0.1777590E-04  0.2106977E+04  0.7818609E-02  0.8558176E-01
       -2   -1    0    0    0  501  0.00000000000E+00  0.00000000000E+00  0.86941808040E+03  0.86941808040E+03  0.25500000920E-02 0.  1.
        2   -1    0    0  501    0  0.00000000000E+00  0.00000000000E+00 -0.12765295475E+04  0.12765295475E+04  0.25500000920E-02 0. -1.
    10030    2    1    2    0    0  0.00000000000E+00  0.00000000000E+00 -0.40711146706E+03  0.21459476279E+04  0.21069768568E+04 0.  0.
        4    1    3    3  502    0 -0.24134899830E+03  0.99594792605E+03  0.45246501357E+02  0.10257731080E+04  0.12699999809E+01 0. -1.
       -4    1    3    3    0  502  0.24134899830E+03 -0.99594792605E+03 -0.45235796841E+03  0.11201745198E+04  0.12699999809E+01 0.  1.
</event>
<event>
 5   0  0.6441125E-05  0.2109391E+04  0.7818609E-02  0.8557118E-01
       -3   -1    0    0    0  501  0.00000000000E+00  0.00000000000E+00  0.91779711829E+03  0.91779712385E+03  0.10100000352E+00 0. -1.
        3   -1    0    0  501    0  0.00000000000E+00  0.00000000000E+00 -0.12120133552E+04  0.12120133594E+04  0.10100000352E+00 0.  1.
    10030    2    1    2    0    0  0.00000000000E+00  0.00000000000E+00 -0.29421623689E+03  0.21298104832E+04  0.21093907889E+04 0.  0.
        3    1    3    3  502    0  0.74936244273E+03 -0.61887339396E+03 -0.56074943259E+03  0.11220464717E+04  0.10100000352E+00 0.  1.
       -3    1    3    3    0  502 -0.74936244273E+03  0.61887339396E+03  0.26653319570E+03  0.10077640115E+04  0.10100000352E+00 0. -1.
</event>
<event>
 5   0  0.8755004E-05  0.2085630E+04  0.7818609E-02  0.8567600E-01
        1   -1    0    0  501    0  0.00000000000E+00  0.00000000000E+00  0.82262459989E+03  0.82262459991E+03  0.50400001928E-02 0.  1.
       -1   -1    0    0    0  501  0.00000000000E+00  0.00000000000E+00 -0.13219427826E+04  0.13219427826E+04  0.50400001928E-02 0. -1.
    10030    2    1    2    0    0  0.00000000000E+00  0.00000000000E+00 -0.49931818274E+03  0.21445673825E+04  0.20856295478E+04 0.  0.
        3    1    3    3  502    0  0.60820846457E+03 -0.39192518973E+03  0.52252149692E+03  0.89249740373E+03  0.10100000352E+00 0.  1.
       -3    1    3    3    0  502 -0.60820846457E+03  0.39192518973E+03 -0.10218396797E+04  0.12520699788E+04  0.10100000352E+00 0. -1.
</event>
<event>
 5   0  0.1886323E-04  0.2054960E+04  0.7818609E-02  0.8581347E-01
        2   -1    0    0  501    0  0.00000000000E+00  0.00000000000E+00  0.14727916295E+04  0.14727916295E+04  0.25500000920E-02 0.  1.
       -2   -1    0    0    0  501  0.00000000000E+00  0.00000000000E+00 -0.71681255823E+03  0.71681255824E+03  0.25500000920E-02 0. -1.
    10030    2    1    2    0    0  0.00000000000E+00  0.00000000000E+00  0.75597907130E+03  0.21896041878E+04  0.20549603750E+04 0.  0.
        2    1    3    3  502    0  0.81980640080E+03  0.38333332682E+03 -0.14039352093E+03  0.91582602877E+03  0.25500000920E-02 0. -1.
       -2    1    3    3    0  502 -0.81980640080E+03 -0.38333332682E+03  0.89637259222E+03  0.12737781590E+04  0.25500000920E-02 0.  1.
</event>
<event>
 5   0  0.1921687E-04  0.2085625E+04  0.7818609E-02  0.8567602E-01
        2   -1    0    0  501    0  0.00000000000E+00  0.00000000000E+00  0.96683260057E+03  0.96683260057E+03  0.25500000920E-02 0.  1.
       -2   -1    0    0    0  501  0.00000000000E+00  0.00000000000E+00 -0.11247634934E+04  0.11247634934E+04  0.25500000920E-02 0. -1.
    10030    2    1    2    0    0  0.00000000000E+00  0.00000000000E+00 -0.15793089282E+03  0.20915960940E+04  0.20856250989E+04 0.  0.
        5    1    3    3  502    0 -0.83760293901E+03 -0.38863436482E+03  0.40700476250E+03  0.10091037210E+04  0.46999998093E+01 0.  1.
       -5    1    3    3    0  502  0.83760293901E+03  0.38863436482E+03 -0.56493565532E+03  0.10824923730E+04  0.46999998093E+01 0. -1.
</event>
<event>
 5   0  0.1815400E-04  0.1971298E+04  0.7818609E-02  0.8620159E-01
        2   -1    0    0  501    0  0.00000000000E+00  0.00000000000E+00  0.19260807887E+04  0.19260807887E+04  0.25500000920E-02 0. -1.
       -2   -1    0    0    0  501  0.00000000000E+00  0.00000000000E+00 -0.50439409723E+03  0.50439409724E+03  0.25500000920E-02 0.  1.
    10030    2    1    2    0    0  0.00000000000E+00  0.00000000000E+00  0.14216866915E+04  0.24304748859E+04  0.19712978269E+04 0.  0.
        3    1    3    3  502    0  0.47654671986E+03 -0.83281686638E+03  0.98879502685E+03  0.13778230382E+04  0.10100000352E+00 0. -1.
       -3    1    3    3    0  502 -0.47654671986E+03  0.83281686638E+03  0.43289166461E+03  0.10526518478E+04  0.10100000352E+00 0.  1.
</event>
<event>
 5   0  0.8271069E-05  0.2149827E+04  0.7818609E-02  0.8539606E-01
        1   -1    0    0  501    0  0.00000000000E+00  0.00000000000E+00  0.69113781793E+03  0.69113781795E+03  0.50400001928E-02 0. -1.
       -1   -1    0    0    0  501  0.00000000000E+00  0.00000000000E+00 -0.16717931963E+04  0.16717931963E+04  0.50400001928E-02 0.  1.
    10030    2    1    2    0    0  0.00000000000E+00  0.00000000000E+00 -0.98065537836E+03  0.23629310142E+04  0.21498274366E+04 0.  0.
        2    1    3    3  502    0  0.21415660060E+03 -0.71415207851E+03  0.36074165615E+03  0.82825767929E+03  0.25500000920E-02 0. -1.
       -2    1    3    3    0  502 -0.21415660060E+03  0.71415207851E+03 -0.13413970345E+04  0.15346733350E+04  0.25500000920E-02 0.  1.
</event>
<event>
 5   0  0.1815400E-04  0.2105327E+04  0.7818609E-02  0.8558900E-01
        2   -1    0    0  501    0  0.00000000000E+00  0.00000000000E+00  0.83954909562E+03  0.83954909562E+03  0.25500000920E-02 0.  1.
       -2   -1    0    0    0  501  0.00000000000E+00  0.00000000000E+00 -0.13198759238E+04  0.13198759238E+04  0.25500000920E-02 0. -1.
    10030    2    1    2    0    0  0.00000000000E+00  0.00000000000E+00 -0.48032682814E+03  0.21594250194E+04  0.21053271842E+04 0.  0.
        3    1    3    3  502    0 -0.60253324307E+03 -0.63921792149E+03  0.35478851108E+03  0.94737572164E+03  0.10100000352E+00 0.  1.
       -3    1    3    3    0  502  0.60253324307E+03  0.63921792149E+03 -0.83511533921E+03  0.12120492977E+04  0.10100000352E+00 0. -1.
</event>
<event>
 5   0  0.8486612E-05  0.2111378E+04  0.7818609E-02  0.8556248E-01
        1   -1    0    0  501    0  0.00000000000E+00  0.00000000000E+00  0.15145602343E+04  0.15145602343E+04  0.50400001928E-02 0. -1.
       -1   -1    0    0    0  501  0.00000000000E+00  0.00000000000E+00 -0.73584336862E+03  0.73584336863E+03  0.50400001928E-02 0.  1.
    10030    2    1    2    0    0  0.00000000000E+00  0.00000000000E+00  0.77871686564E+03  0.22504036029E+04  0.21113778485E+04 0.  0.
        5    1    3    3  502    0  0.52251533758E+03  0.78270284149E+03  0.89919725475E+03  0.13016235282E+04  0.46999998093E+01 0. -1.
       -5    1    3    3    0  502 -0.52251533758E+03 -0.78270284149E+03 -0.12048038911E+03  0.94878007475E+03  0.46999998093E+01 0.  1.
</event>
<event>
 5   0  0.8755004E-05  0.2079852E+04  0.7818609E-02  0.8570171E-01
       -1   -1    0    0    0  501  0.00000000000E+00  0.00000000000E+00  0.99187135514E+03  0.99187135515E+03  0.50400001928E-02 0. -1.
        1   -1    0    0  501    0  0.00000000000E+00  0.00000000000E+00 -0.10903085631E+04  0.10903085631E+04  0.50400001928E-02 0.  1.
    10030    2    1    2    0    0  0.00000000000E+00  0.00000000000E+00 -0.98437207977E+02  0.20821799183E+04  0.20798517563E+04 0.  0.
        3    1    3    3  502    0  0.45002714018E+03  0.61664111525E+03  0.65774120896E+03  0.10076677032E+04  0.10100000352E+00 0. -1.
       -3    1    3    3    0  502 -0.45002714018E+03 -0.61664111525E+03 -0.75617841694E+03  0.10745122151E+04  0.10100000352E+00 0.  1.
</event>
<event>
 5   0  0.8237966E-05  0.2085720E+04  0.7818609E-02  0.8567560E-01
        1   -1    0    0  501    0  0.00000000000E+00  0.00000000000E+00  0.17813671105E+04  0.17813671105E+04  0.50400001928E-02 0. -1.
       -1   -1    0    0    0  501  0.00000000000E+00  0.00000000000E+00 -0.61051796411E+03  0.61051796413E+03  0.50400001928E-02 0.  1.
    10030    2    1    2    0    0  0.00000000000E+00  0.00000000000E+00  0.11708491464E+04  0.23918850747E+04  0.20857196568E+04 0.  0.
        1    1    3    3  502    0  0.22129797029E+03  0.53152184453E+03  0.15825847051E+04  0.16840613444E+04  0.50400001928E-02 0. -1.
       -1    1    3    3    0  502 -0.22129797029E+03 -0.53152184453E+03 -0.41173555866E+03  0.70782373029E+03  0.50400001928E-02 0.  1.
</event>
<event>
 5   0  0.1777590E-04  0.2108779E+04  0.7818609E-02  0.8557386E-01
        2   -1    0    0  501    0  0.00000000000E+00  0.00000000000E+00  0.10197352294E+04  0.10197352294E+04  0.25500000920E-02 0.  1.
       -2   -1    0    0    0  501  0.00000000000E+00  0.00000000000E+00 -0.10902216982E+04  0.10902216982E+04  0.25500000920E-02 0. -1.
    10030    2    1    2    0    0  0.00000000000E+00  0.00000000000E+00 -0.70486468846E+02  0.21099569276E+04  0.21087792427E+04 0.  0.
        4    1    3    3  502    0 -0.77323772972E+03  0.14294527650E+01 -0.75246796480E+03  0.10789384973E+04  0.12699999809E+01 0. -1.
       -4    1    3    3    0  502  0.77323772972E+03 -0.14294527650E+01  0.68198149595E+03  0.10310184304E+04  0.12699999809E+01 0.  1.
</event>
<event>
 5   0  0.8525278E-05  0.2087762E+04  0.7818609E-02  0.8566653E-01
        1   -1    0    0  501    0  0.00000000000E+00  0.00000000000E+00  0.13834941430E+04  0.13834941430E+04  0.50400001928E-02 0.  1.
       -1   -1    0    0    0  501  0.00000000000E+00  0.00000000000E+00 -0.78763463515E+03  0.78763463517E+03  0.50400001928E-02 0. -1.
    10030    2    1    2    0    0  0.00000000000E+00  0.00000000000E+00  0.59585950786E+03  0.21711287782E+04  0.20877623472E+04 0.  0.
        4    1    3    3  502    0 -0.27149236772E+03 -0.48658479437E+03 -0.62004922436E+03  0.83362792742E+03  0.12699999809E+01 0. -1.
       -4    1    3    3    0  502  0.27149236772E+03  0.48658479437E+03  0.12159087322E+04  0.13375008508E+04  0.12699999809E+01 0.  1.
</event>
<event>
 5   0  0.6441125E-05  0.2020365E+04  0.7818609E-02  0.8597158E-01
        4   -1    0    0  501    0  0.00000000000E+00  0.00000000000E+00  0.13513035223E+04  0.13513041191E+04  0.12699999809E+01 0.  1.
       -4   -1    0    0    0  501  0.00000000000E+00  0.00000000000E+00 -0.75517229086E+03  0.75517335876E+03  0.12699999809E+01 0. -1.
    10030    2    1    2    0    0  0.00000000000E+00  0.00000000000E+00  0.59613123144E+03  0.21064774779E+04  0.20203650461E+04 0.  0.
        1    1    3    3  502    0  0.91537505344E+02 -0.28996169975E+03  0.13024587365E+04  0.13374810886E+04  0.50400001928E-02 0.  1.
       -1    1    3    3    0  502 -0.91537505344E+02  0.28996169975E+03 -0.70632750505E+03  0.76899638921E+03  0.50400001928E-02 0. -1.
</event>
<event>
 5   0  0.8755004E-05  0.2108733E+04  0.7818609E-02  0.8557406E-01
        1   -1    0    0  501    0  0.00000000000E+00  0.00000000000E+00  0.16186049462E+04  0.16186049462E+04  0.50400001928E-02 0.  1.
       -1   -1    0    0    0  501  0.00000000000E+00  0.00000000000E+00 -0.68681903141E+03  0.68681903142E+03  0.50400001928E-02 0. -1.
    10030    2    1    2    0    0  0.00000000000E+00  0.00000000000E+00  0.93178591476E+03  0.23054239776E+04  0.21087329669E+04 0.  0.
        3    1    3    3  502    0 -0.35503074659E+03 -0.51192046247E+03 -0.46408419563E+03  0.77684203141E+03  0.10100000352E+00 0. -1.
       -3    1    3    3    0  502  0.35503074659E+03  0.51192046247E+03  0.13958701104E+04  0.15285819462E+04  0.10100000352E+00 0.  1.
</event>
<event>
 5   0  0.1886323E-04  0.2273932E+04  0.7818609E-02  0.8488271E-01
        2   -1    0    0  501    0  0.00000000000E+00  0.00000000000E+00  0.16649333247E+04  0.16649333247E+04  0.25500000920E-02 0.  1.
       -2   -1    0    0    0  501  0.00000000000E+00  0.00000000000E+00 -0.77642255758E+03  0.77642255758E+03  0.25500000920E-02 0. -1.
    10030    2    1    2    0    0  0.00000000000E+00  0.00000000000E+00  0.88851076707E+03  0.24413558822E+04  0.22739320923E+04 0.  0.
        2    1    3    3  502    0  0.96693935421E+03  0.58523096606E+03  0.57672896621E+03  0.12688905780E+04  0.25500000920E-02 0.  1.
       -2    1    3    3    0  502 -0.96693935421E+03 -0.58523096606E+03  0.31178180087E+03  0.11724653043E+04  0.25500000920E-02 0. -1.
</event>
<event>
 5   0  0.1777590E-04  0.1436346E+04  0.7818609E-02  0.8927922E-01
       -2   -1    0    0    0  501  0.00000000000E+00  0.00000000000E+00  0.28963988550E+03  0.28963988552E+03  0.25500000920E-02 0.  1.
        2   -1    0    0  501    0  0.00000000000E+00  0.00000000000E+00 -0.17807362273E+04  0.17807362273E+04  0.25500000920E-02 0. -1.
    10030    2    1    2    0    0  0.00000000000E+00  0.00000000000E+00 -0.14910963417E+04  0.20703761128E+04  0.14363456924E+04 0.  0.
        4    1    3    3  502    0  0.29313485106E+03 -0.46991187283E+03 -0.14045548544E+04  0.15098083193E+04  0.12699999809E+01 0. -1.
       -4    1    3    3    0  502 -0.29313485106E+03  0.46991187283E+03 -0.86541487341E+02  0.56056779346E+03  0.12699999809E+01 0.  1.
</event>
<event>
 5   0  0.1886323E-04  0.2049907E+04  0.7818609E-02  0.8583636E-01
        2   -1    0    0  501    0  0.00000000000E+00  0.00000000000E+00  0.97097167679E+03  0.97097167679E+03  0.25500000920E-02 0.  1.
       -2   -1    0    0    0  501  0.00000000000E+00  0.00000000000E+00 -0.10819366889E+04  0.10819366889E+04  0.25500000920E-02 0. -1.
    10030    2    1    2    0    0  0.00000000000E+00  0.00000000000E+00 -0.11096501211E+03  0.20529083657E+04  0.20499071989E+04 0.  0.
        2    1    3    3  502    0  0.56398423353E+03 -0.84368539287E+03  0.88417191018E+02  0.10186760317E+04  0.25500000920E-02 0. -1.
       -2    1    3    3    0  502 -0.56398423353E+03  0.84368539287E+03 -0.19938220313E+03  0.10342323340E+04  0.25500000920E-02 0.  1.
</event>
<event>
 5   0  0.8525278E-05  0.2085705E+04  0.7818609E-02  0.8567567E-01
        1   -1    0    0  501    0  0.00000000000E+00  0.00000000000E+00  0.26602518642E+04  0.26602518642E+04  0.50400001928E-02 0.  1.
       -1   -1    0    0    0  501  0.00000000000E+00  0.00000000000E+00 -0.40881155013E+03  0.40881155016E+03  0.50400001928E-02 0. -1.
    10030    2    1    2    0    0  0.00000000000E+00  0.00000000000E+00  0.22514403141E+04  0.30690634144E+04  0.20857053372E+04 0.  0.
        4    1    3    3  502    0 -0.72059230279E+03 -0.21812377234E+03  0.63901430952E+02  0.75559000303E+03  0.12699999809E+01 0. -1.
       -4    1    3    3    0  502  0.72059230279E+03  0.21812377234E+03  0.21875388831E+04  0.23134734114E+04  0.12699999809E+01 0.  1.
</event>
<event>
 5   0  0.1921687E-04  0.2040339E+04  0.7818609E-02  0.8587990E-01
       -2   -1    0    0    0  501  0.00000000000E+00  0.00000000000E+00  0.72161670061E+03  0.72161670061E+03  0.25500000920E-02 0.  1.
        2   -1    0    0  501    0  0.00000000000E+00  0.00000000000E+00 -0.14422424435E+04  0.14422424435E+04  0.25500000920E-02 0. -1.
    10030    2    1    2    0    0  0.00000000000E+00  0.00000000000E+00 -0.72062574293E+03  0.21638591441E+04  0.20403394165E+04 0.  0.
        5    1    3    3  502    0  0.10921765279E+03 -0.99052435391E+03 -0.12879175341E+03  0.10048265508E+04  0.46999998093E+01 0.  1.
       -5    1    3    3    0  502 -0.10921765279E+03  0.99052435391E+03 -0.59183398952E+03  0.11590325934E+04  0.46999998093E+01 0. -1.
</event>
<event>
 5   0  0.8271069E-05  0.2129941E+04  0.7818609E-02  0.8548168E-01
       -1   -1    0    0    0  501  0.00000000000E+00  0.00000000000E+00  0.12250333279E+04  0.12250333279E+04  0.50400001928E-02 0. -1.
        1   -1    0    0  501    0  0.00000000000E+00  0.00000000000E+00 -0.92582157379E+03  0.92582157380E+03  0.50400001928E-02 0.  1.
    10030    2    1    2    0    0  0.00000000000E+00  0.00000000000E+00  0.29921175413E+03  0.21508549017E+04  0.21299411106E+04 0.  0.
        2    1    3    3  502    0 -0.37499581504E+03  0.95610370088E+03  0.43416371191E+03  0.11150131286E+04  0.25500000920E-02 0. -1.
       -2    1    3    3    0  502  0.37499581504E+03 -0.95610370088E+03 -0.13495195777E+03  0.10358417732E+04  0.25500000920E-02 0.  1.
</event>
<event>
 5   0  0.8237966E-05  0.2075883E+04  0.7818609E-02  0.8571942E-01
       -1   -1    0    0    0  501  0.00000000000E+00  0.00000000000E+00  0.13318436103E+04  0.13318436103E+04  0.50400001928E-02 0. -1.
        1   -1    0    0  501    0  0.00000000000E+00  0.00000000000E+00 -0.80889538535E+03  0.80889538537E+03  0.50400001928E-02 0.  1.
    10030    2    1    2    0    0  0.00000000000E+00  0.00000000000E+00  0.52294822490E+03  0.21407389956E+04  0.20758826078E+04 0.  0.
        1    1    3    3  502    0 -0.89022035431E+03 -0.36204626348E+03  0.66583751783E+03  0.11691489966E+04  0.50400001928E-02 0. -1.
       -1    1    3    3    0  502  0.89022035431E+03  0.36204626348E+03 -0.14288929292E+03  0.97158999901E+03  0.50400001928E-02 0.  1.
</event>
<event>
 5   0  0.8486612E-05  0.1685074E+04  0.7818609E-02  0.8769923E-01
       -1   -1    0    0    0  501  0.00000000000E+00  0.00000000000E+00  0.14164103414E+04  0.14164103414E+04  0.50400001928E-02 0. -1.
        1   -1    0    0  501    0  0.00000000000E+00  0.00000000000E+00 -0.50117427816E+03  0.50117427819E+03  0.50400001928E-02 0.  1.
    10030    2    1    2    0    0  0.00000000000E+00  0.00000000000E+00  0.91523606327E+03  0.19175846196E+04  0.16850738031E+04 0.  0.
        5    1    3    3  502    0  0.11327874007E+03 -0.39578095011E+03  0.12941487855E+04  0.13580566271E+04  0.46999998093E+01 0. -1.
       -5    1    3    3    0  502 -0.11327874007E+03  0.39578095011E+03 -0.37891272219E+03  0.55952799256E+03  0.46999998093E+01 0.  1.
</event>
<event>
 5   0  0.8525278E-05  0.2100895E+04  0.7818609E-02  0.8560849E-01
        1   -1    0    0  501    0  0.00000000000E+00  0.00000000000E+00  0.40526116454E+03  0.40526116457E+03  0.50400001928E-02 0. -1.
       -1   -1    0    0    0  501  0.00000000000E+00  0.00000000000E+00 -0.27227872774E+04  0.27227872774E+04  0.50400001928E-02 0.  1.
    10030    2    1    2    0    0  0.00000000000E+00  0.00000000000E+00 -0.23175261128E+04  0.31280484419E+04  0.21008949930E+04 0.  0.
        4    1    3    3  502    0  0.12606474556E+03 -0.54719684967E+03  0.16303693303E+03  0.58472161478E+03  0.12699999809E+01 0. -1.
       -4    1    3    3    0  502 -0.12606474556E+03  0.54719684967E+03 -0.24805630458E+04  0.25433268271E+04  0.12699999809E+01 0.  1.
</event>
<event>
 5   0  0.1810875E-04  0.2074332E+04  0.7818609E-02  0.8572635E-01
        2   -1    0    0  501    0  0.00000000000E+00  0.00000000000E+00  0.31095851883E+04  0.31095851883E+04  0.25500000920E-02 0.  1.
       -2   -1    0    0    0  501  0.00000000000E+00  0.00000000000E+00 -0.34593473006E+03  0.34593473007E+03  0.25500000920E-02 0. -1.
    10030    2    1    2    0    0  0.00000000000E+00  0.00000000000E+00  0.27636504582E+04  0.34555199184E+04  0.20743321940E+04 0.  0.
        1    1    3    3  502    0  0.80591231519E+03 -0.21111314517E+03  0.24109494015E+04  0.25508313226E+04  0.50400001928E-02 0.  1.
       -1    1    3    3    0  502 -0.80591231519E+03  0.21111314517E+03  0.35270105674E+03  0.90468859576E+03  0.50400001928E-02 0. -1.
</event>
<event>
 5   0  0.8237966E-05  0.2139576E+04  0.7818609E-02  0.8544007E-01
       -1   -1    0    0    0  501  0.00000000000E+00  0.00000000000E+00  0.10564188389E+04  0.10564188389E+04  0.50400001928E-02 0. -1.
        1   -1    0    0  501    0  0.00000000000E+00  0.00000000000E+00 -0.10833267297E+04  0.10833267297E+04  0.50400001928E-02 0.  1.
    10030    2    1    2    0    0  0.00000000000E+00  0.00000000000E+00 -0.26907890738E+02  0.21397455686E+04  0.21395763748E+04 0.  0.
        1    1    3    3  502    0 -0.85279559724E+03 -0.27332416221E+03  0.57181052918E+03  0.10625129221E+04  0.50400001928E-02 0. -1.
       -1    1    3    3    0  502  0.85279559724E+03  0.27332416221E+03 -0.59871841992E+03  0.10772326465E+04  0.50400001928E-02 0.  1.
</event>
<event>
 5   0  0.1815400E-04  0.2103912E+04  0.7818609E-02  0.8559522E-01
       -2   -1    0    0    0  501  0.00000000000E+00  0.00000000000E+00  0.95452154941E+03  0.95452154942E+03  0.25500000920E-02 0.  1.
        2   -1    0    0  501    0  0.00000000000E+00  0.00000000000E+00 -0.11593363544E+04  0.11593363544E+04  0.25500000920E-02 0. -1.
    10030    2    1    2    0    0  0.00000000000E+00  0.00000000000E+00 -0.20481480497E+03  0.21138579038E+04  0.21039121020E+04 0.  0.
        3    1    3    3  502    0 -0.94933604935E+03 -0.39582773497E+03 -0.32411543712E+03  0.10784105698E+04  0.10100000352E+00 0. -1.
       -3    1    3    3    0  502  0.94933604935E+03  0.39582773497E+03  0.11930063215E+03  0.10354473340E+04  0.10100000352E+00 0.  1.
</event>
<event>
 5   0  0.1810875E-04  0.2273068E+04  0.7818609E-02  0.8488617E-01
        2   -1    0    0  501    0  0.00000000000E+00  0.00000000000E+00  0.16952898006E+04  0.16952898006E+04  0.25500000920E-02 0.  1.
       -2   -1    0    0    0  501  0.00000000000E+00  0.00000000000E+00 -0.76193993910E+03  0.76193993911E+03  0.25500000920E-02 0. -1.
    10030    2    1    2    0    0  0.00000000000E+00  0.00000000000E+00  0.93334986146E+03  0.24572297397E+04  0.22730675374E+04 0.  0.
        1    1    3    3  502    0  0.91604017054E+03 -0.31510038664E+03 -0.17586453584E+03  0.98455379878E+03  0.50400001928E-02 0. -1.
       -1    1    3    3    0  502 -0.91604017054E+03  0.31510038664E+03  0.11092143973E+04  0.14726759409E+04  0.50400001928E-02 0.  1.
</event>
<event>
 5   0  0.1810875E-04  0.2125654E+04  0.7818609E-02  0.8550026E-01
        2   -1    0    0  501    0  0.00000000000E+00  0.00000000000E+00  0.89740990578E+03  0.89740990579E+03  0.25500000920E-02 0.  1.
       -2   -1    0    0    0  501  0.00000000000E+00  0.00000000000E+00 -0.12587349267E+04  0.12587349267E+04  0.25500000920E-02 0. -1.
    10030    2    1    2    0    0  0.00000000000E+00  0.00000000000E+00 -0.36132502094E+03  0.21561448325E+04  0.21256539624E+04 0.  0.
        1    1    3    3  502    0  0.34312099810E+03 -0.92745914052E+03 -0.57572154664E+03  0.11442760925E+04  0.50400001928E-02 0. -1.
       -1    1    3    3    0  502 -0.34312099810E+03  0.92745914052E+03  0.21439652570E+03  0.10118687400E+04  0.50400001928E-02 0.  1.
</event>
<event>
 5   0  0.1921687E-04  0.2097808E+04  0.7818609E-02  0.8562210E-01
       -2   -1    0    0    0  501  0.00000000000E+00  0.00000000000E+00  0.82751708210E+03  0.82751708210E+03  0.25500000920E-02 0.  1.
        2   -1    0    0  501    0  0.00000000000E+00  0.00000000000E+00 -0.13295189878E+04  0.13295189878E+04  0.25500000920E-02 0. -1.
    10030    2    1    2    0    0  0.00000000000E+00  0.00000000000E+00 -0.50200190566E+03  0.21570360699E+04  0.20978080688E+04 0.  0.
        5    1    3    3  502    0  0.16282137229E+03  0.98560198461E+03  0.77801478083E+02  0.10019966224E+04  0.46999998093E+01 0.  1.
       -5    1    3    3    0  502 -0.16282137229E+03 -0.98560198461E+03 -0.57980338374E+03  0.11550394474E+04  0.46999998093E+01 0. -1.
</event>
<event>
 5   0  0.8486612E-05  0.2074547E+04  0.7818609E-02  0.8572539E-01
       -1   -1    0    0    0  501  0.00000000000E+00  0.00000000000E+00  0.74284832237E+03  0.74284832239E+03  0.50400001928E-02 0. -1.
        1   -1    0    0  501    0  0.00000000000E+00  0.00000000000E+00 -0.14483923642E+04  0.14483923642E+04  0.50400001928E-02 0.  1.
    10030    2    1    2    0    0  0.00000000000E+00  0.00000000000E+00 -0.70554404186E+03  0.21912406866E+04  0.20745465412E+04 0.  0.
        5    1    3    3  502    0  0.10183881085E+04 -0.72130439385E+02 -0.54637615072E+03  0.11579577402E+04  0.46999998093E+01 0. -1.
       -5    1    3    3    0  502 -0.10183881085E+04  0.72130439385E+02 -0.15916789114E+03  0.10332829465E+04  0.46999998093E+01 0.  1.
</event>
<event>
 5   0  0.1815400E-04  0.2103280E+04  0.7818609E-02  0.8559800E-01
       -2   -1    0    0    0  501  0.00000000000E+00  0.00000000000E+00  0.11628056751E+04  0.11628056751E+04  0.25500000920E-02 0. -1.
        2   -1    0    0  501    0  0.00000000000E+00  0.00000000000E+00 -0.95110219008E+03  0.95110219009E+03  0.25500000920E-02 0.  1.
    10030    2    1    2    0    0  0.00000000000E+00  0.00000000000E+00  0.21170348505E+03  0.21139078652E+04  0.21032803182E+04 0.  0.
        3    1    3    3  502    0 -0.73138048322E+03  0.73353153816E+03  0.28832097644E+03  0.10752278477E+04  0.10100000352E+00 0. -1.
       -3    1    3    3    0  502  0.73138048322E+03 -0.73353153816E+03 -0.76617491393E+02  0.10386800176E+04  0.10100000352E+00 0.  1.
</event>
<event>
 5   0  0.8271069E-05  0.2096171E+04  0.7818609E-02  0.8562932E-01
       -1   -1    0    0    0  501  0.00000000000E+00  0.00000000000E+00  0.89645355538E+03  0.89645355539E+03  0.50400001928E-02 0.  1.
        1   -1    0    0  501    0  0.00000000000E+00  0.00000000000E+00 -0.12253653898E+04  0.12253653898E+04  0.50400001928E-02 0. -1.
    10030    2    1    2    0    0  0.00000000000E+00  0.00000000000E+00 -0.32891183444E+03  0.21218189452E+04  0.20961709476E+04 0.  0.
        2    1    3    3  502    0  0.85828182646E+03  0.24464379838E+03 -0.72071129643E+03  0.11471368944E+04  0.25500000920E-02 0. -1.
       -2    1    3    3    0  502 -0.85828182646E+03 -0.24464379838E+03  0.39179946200E+03  0.97468205080E+03  0.25500000920E-02 0.  1.
</event>
<event>
 5   0  0.8237966E-05  0.2194406E+04  0.7818609E-02  0.8520760E-01
        1   -1    0    0  501    0  0.00000000000E+00  0.00000000000E+00  0.61697132554E+03  0.61697132556E+03  0.50400001928E-02 0.  1.
       -1   -1    0    0    0  501  0.00000000000E+00  0.00000000000E+00 -0.19512329689E+04  0.19512329689E+04  0.50400001928E-02 0. -1.
    10030    2    1    2    0    0  0.00000000000E+00  0.00000000000E+00 -0.13342616434E+04  0.25682042945E+04  0.21944063355E+04 0.  0.
        1    1    3    3  502    0  0.34278211183E+03  0.25161463019E+03 -0.18508807076E+04  0.18990968623E+04  0.50400001928E-02 0. -1.
       -1    1    3    3    0  502 -0.34278211183E+03 -0.25161463019E+03  0.51661906424E+03  0.66910743224E+03  0.50400001928E-02 0.  1.
</event>
<event>
 5   0  0.8755004E-05  0.2114044E+04  0.7818609E-02  0.8555082E-01
       -1   -1    0    0    0  501  0.00000000000E+00  0.00000000000E+00  0.15746133572E+04  0.15746133572E+04  0.50400001928E-02 0. -1.
        1   -1    0    0  501    0  0.00000000000E+00  0.00000000000E+00 -0.70956828337E+03  0.70956828339E+03  0.50400001928E-02 0.  1.
    10030    2    1    2    0    0  0.00000000000E+00  0.00000000000E+00  0.86504507387E+03  0.22841816406E+04  0.21140441783E+04 0.  0.
        3    1    3    3  502    0  0.39281838247E+03 -0.24311275209E+03 -0.59472074655E+03  0.75306232704E+03  0.10100000352E+00 0.  1.
       -3    1    3    3    0  502 -0.39281838247E+03  0.24311275209E+03  0.14597658204E+04  0.15311193136E+04  0.10100000352E+00 0. -1.
</event>
<event>
 5   0  0.8755004E-05  0.2048407E+04  0.7818609E-02  0.8584317E-01
       -1   -1    0    0    0  501  0.00000000000E+00  0.00000000000E+00  0.10952689450E+04  0.10952689450E+04  0.50400001928E-02 0.  1.
        1   -1    0    0  501    0  0.00000000000E+00  0.00000000000E+00 -0.95774936646E+03  0.95774936647E+03  0.50400001928E-02 0. -1.
    10030    2    1    2    0    0  0.00000000000E+00  0.00000000000E+00  0.13751957852E+03  0.20530183115E+04  0.20484073210E+04 0.  0.
        3    1    3    3  502    0  0.78784377697E+01 -0.31078358974E+02 -0.95724628742E+03  0.95778306477E+03  0.10100000352E+00 0. -1.
       -3    1    3    3    0  502 -0.78784377697E+01  0.31078358974E+02  0.10947658659E+04  0.10952352467E+04  0.10100000352E+00 0.  1.
</event>
<event>
 5   0  0.1886323E-04  0.2135708E+04  0.7818609E-02  0.8545675E-01
        2   -1    0    0  501    0  0.00000000000E+00  0.00000000000E+00  0.16927431810E+04  0.16927431810E+04  0.25500000920E-02 0. -1.
       -2   -1    0    0    0  501  0.00000000000E+00  0.00000000000E+00 -0.67364761566E+03  0.67364761566E+03  0.25500000920E-02 0.  1.
    10030    2    1    2    0    0  0.00000000000E+00  0.00000000000E+00  0.10190955653E+04  0.23663907967E+04  0.21357082271E+04 0.  0.
        2    1    3    3  502    0 -0.18613249035E+03 -0.85286957231E+03 -0.17192980839E+03  0.88971437571E+03  0.25500000920E-02 0.  1.
       -2    1    3    3    0  502  0.18613249035E+03  0.85286957231E+03  0.11910253737E+04  0.14766764210E+04  0.25500000920E-02 0. -1.
</event>
<event>
 5   0  0.8486612E-05  0.2105246E+04  0.7818609E-02  0.8558936E-01
        1   -1    0    0  501    0  0.00000000000E+00  0.00000000000E+00  0.10061070524E+04  0.10061070524E+04  0.50400001928E-02 0.  1.
       -1   -1    0    0    0  501  0.00000000000E+00  0.00000000000E+00 -0.11012891964E+04  0.11012891964E+04  0.50400001928E-02 0. -1.
    10030    2    1    2    0    0  0.00000000000E+00  0.00000000000E+00 -0.95182144066E+02  0.21073962488E+04  0.21052456647E+04 0.  0.
        5    1    3    3  502    0 -0.38527136756E+03 -0.74592025628E+03  0.58800769358E+03  0.10249908259E+04  0.46999998093E+01 0. -1.
       -5    1    3    3    0  502  0.38527136756E+03  0.74592025628E+03 -0.68318983764E+03  0.10824054230E+04  0.46999998093E+01 0.  1.
</event>
<event>
 5   0  0.1921687E-04  0.2138802E+04  0.7818609E-02  0.8544341E-01
        2   -1    0    0  501    0  0.00000000000E+00  0.00000000000E+00  0.13685201725E+04  0.13685201725E+04  0.25500000920E-02 0. -1.
       -2   -1    0    0    0  501  0.00000000000E+00  0.00000000000E+00 -0.83566071507E+03  0.83566071507E+03  0.25500000920E-02 0.  1.
    10030    2    1    2    0    0  0.00000000000E+00  0.00000000000E+00  0.53285945748E+03  0.22041808876E+04  0.21388020441E+04 0.  0.
        5    1    3    3  502    0 -0.63734006520E+03 -0.15435366713E+03 -0.60412211982E+03  0.89163503684E+03  0.46999998093E+01 0.  1.
       -5    1    3    3    0  502  0.63734006520E+03  0.15435366713E+03  0.11369815773E+04  0.13125458508E+04  0.46999998093E+01 0. -1.
</event>
<event>
 5   0  0.8271069E-05  0.2062598E+04  0.7818609E-02  0.8577901E-01
       -1   -1    0    0    0  501  0.00000000000E+00  0.00000000000E+00  0.54154336648E+03  0.54154336650E+03  0.50400001928E-02 0.  1.
        1   -1    0    0  501    0  0.00000000000E+00  0.00000000000E+00 -0.19639749743E+04  0.19639749743E+04  0.50400001928E-02 0. -1.
    10030    2    1    2    0    0  0.00000000000E+00  0.00000000000E+00 -0.14224316078E+04  0.25055183408E+04  0.20625979921E+04 0.  0.
        2    1    3    3  502    0 -0.63754074025E+03  0.43929383169E+03  0.11635976218E+03  0.78292838772E+03  0.25500000920E-02 0.  1.
       -2    1    3    3    0  502  0.63754074025E+03 -0.43929383169E+03 -0.15387913700E+04  0.17225899530E+04  0.25500000920E-02 0. -1.
</event>
<event>
 5   0  0.8271069E-05  0.2093214E+04  0.7818609E-02  0.8564238E-01
        1   -1    0    0  501    0  0.00000000000E+00  0.00000000000E+00  0.15210853719E+04  0.15210853719E+04  0.50400001928E-02 0.  1.
       -1   -1    0    0    0  501  0.00000000000E+00  0.00000000000E+00 -0.72013475537E+03  0.72013475539E+03  0.50400001928E-02 0. -1.
    10030    2    1    2    0    0  0.00000000000E+00  0.00000000000E+00  0.80095061655E+03  0.22412201273E+04  0.20932142196E+04 0.  0.
        2    1    3    3  502    0 -0.57454712593E+03 -0.22120960345E+02 -0.53588437527E+03  0.78598078887E+03  0.25500000920E-02 0. -1.
       -2    1    3    3    0  502  0.57454712593E+03  0.22120960345E+02  0.13368349918E+04  0.14552393385E+04  0.25500000920E-02 0.  1.
</event>
<event>
 5   0  0.8237966E-05  0.2054157E+04  0.7818609E-02  0.8581711E-01
        1   -1    0    0  501    0  0.00000000000E+00  0.00000000000E+00  0.91950869988E+03  0.91950869989E+03  0.50400001928E-02 0.  1.
       -1   -1    0    0    0  501  0.00000000000E+00  0.00000000000E+00 -0.11472324565E+04  0.11472324565E+04  0.50400001928E-02 0. -1.
    10030    2    1    2    0    0  0.00000000000E+00  0.00000000000E+00 -0.22772375658E+03  0.20667411564E+04  0.20541569799E+04 0.  0.
        1    1    3    3  502    0 -0.15304164874E+03 -0.14304532944E+03 -0.11255098959E+04  0.11448389574E+04  0.50400001928E-02 0. -1.
       -1    1    3    3    0  502  0.15304164874E+03  0.14304532944E+03  0.89778613932E+03  0.92190219899E+03  0.50400001928E-02 0.  1.
</event>
<event>
 5   0  0.8271069E-05  0.2067805E+04  0.7818609E-02  0.8575559E-01
       -1   -1    0    0    0  501  0.00000000000E+00  0.00000000000E+00  0.73274000052E+03  0.73274000054E+03  0.50400001928E-02 0.  1.
        1   -1    0    0  501    0  0.00000000000E+00  0.00000000000E+00 -0.14588459651E+04  0.14588459651E+04  0.50400001928E-02 0. -1.
    10030    2    1    2    0    0  0.00000000000E+00  0.00000000000E+00 -0.72610596457E+03  0.21915859656E+04  0.20678054002E+04 0.  0.
        2    1    3    3  502    0 -0.20681106606E+03  0.45542974271E+03  0.59597041571E+03  0.77805385674E+03  0.25500000920E-02 0.  1.
       -2    1    3    3    0  502  0.20681106606E+03 -0.45542974271E+03 -0.13220763803E+04  0.14135321089E+04  0.25500000920E-02 0. -1.
</event>
<event>
 5   0  0.1810875E-04  0.2125053E+04  0.7818609E-02  0.8550287E-01
       -2   -1    0    0    0  501  0.00000000000E+00  0.00000000000E+00  0.60792141603E+03  0.60792141603E+03  0.25500000920E-02 0. -1.
        2   -1    0    0  501    0  0.00000000000E+00  0.00000000000E+00 -0.18570864453E+04  0.18570864453E+04  0.25500000920E-02 0.  1.
    10030    2    1    2    0    0  0.00000000000E+00  0.00000000000E+00 -0.12491650293E+04  0.24650078613E+04  0.21250530549E+04 0.  0.
        1    1    3    3  502    0 -0.79223643226E+03  0.20544029430E+03  0.16139632365E+03  0.83420204533E+03  0.50400001928E-02 0. -1.
       -1    1    3    3    0  502  0.79223643226E+03 -0.20544029430E+03 -0.14105613529E+04  0.16308058160E+04  0.50400001928E-02 0.  1.
</event>
<event>
 5   0  0.1810875E-04  0.2133098E+04  0.7818609E-02  0.8546802E-01
       -2   -1    0    0    0  501  0.00000000000E+00  0.00000000000E+00  0.89223963703E+03  0.89223963703E+03  0.25500000920E-02 0.  1.
        2   -1    0    0  501    0  0.00000000000E+00  0.00000000000E+00 -0.12749122926E+04  0.12749122926E+04  0.25500000920E-02 0. -1.
    10030    2    1    2    0    0  0.00000000000E+00  0.00000000000E+00 -0.38267265561E+03  0.21671519297E+04  0.21330984799E+04 0.  0.
        1    1    3    3  502    0  0.19576990946E+03  0.47572653475E+03  0.75786238159E+03  0.91596778479E+03  0.50400001928E-02 0.  1.
       -1    1    3    3    0  502 -0.19576990946E+03 -0.47572653475E+03 -0.11405350372E+04  0.12511841449E+04  0.50400001928E-02 0. -1.
</event>
<event>
 5   0  0.6441125E-05  0.2058774E+04  0.7818609E-02  0.8579624E-01
        3   -1    0    0  501    0  0.00000000000E+00  0.00000000000E+00  0.14186952297E+04  0.14186952333E+04  0.10100000352E+00 0.  1.
       -3   -1    0    0    0  501  0.00000000000E+00  0.00000000000E+00 -0.74691005789E+03  0.74691006472E+03  0.10100000352E+00 0. -1.
    10030    2    1    2    0    0  0.00000000000E+00  0.00000000000E+00  0.67178517180E+03  0.21656052980E+04  0.20587741473E+04 0.  0.
        5    1    3    3  502    0  0.52158079991E+03  0.53132079381E+03 -0.41181401183E+03  0.85085908770E+03  0.46999998093E+01 0. -1.
       -5    1    3    3    0  502 -0.52158079991E+03 -0.53132079381E+03  0.10835991836E+04  0.13147462103E+04  0.46999998093E+01 0.  1.
</event>
<event>
 5   0  0.8525278E-05  0.2129610E+04  0.7818609E-02  0.8548311E-01
        1   -1    0    0  501    0  0.00000000000E+00  0.00000000000E+00  0.21556769348E+04  0.21556769348E+04  0.50400001928E-02 0. -1.
       -1   -1    0    0    0  501  0.00000000000E+00  0.00000000000E+00 -0.52596444133E+03  0.52596444136E+03  0.50400001928E-02 0.  1.
    10030    2    1    2    0    0  0.00000000000E+00  0.00000000000E+00  0.16297124935E+04  0.26816413762E+04  0.21296097434E+04 0.  0.
        4    1    3    3  502    0 -0.27673471809E+03  0.10110823801E+04  0.10502258787E+04  0.14838617498E+04  0.12699999809E+01 0. -1.
       -4    1    3    3    0  502  0.27673471809E+03 -0.10110823801E+04  0.57948661481E+03  0.11977796263E+04  0.12699999809E+01 0.  1.
</event>
<event>
 5   0  0.1921687E-04  0.2004059E+04  0.7818609E-02  0.8604725E-01
       -2   -1    0    0    0  501  0.00000000000E+00  0.00000000000E+00  0.75392112197E+03  0.75392112197E+03  0.25500000920E-02 0.  1.
        2   -1    0    0  501    0  0.00000000000E+00  0.00000000000E+00 -0.13317879688E+04  0.13317879688E+04  0.25500000920E-02 0. -1.
    10030    2    1    2    0    0  0.00000000000E+00  0.00000000000E+00 -0.57786684686E+03  0.20857090908E+04  0.20040589609E+04 0.  0.
        5    1    3    3  502    0 -0.62311880399E+03 -0.39101207530E+03  0.41913365046E+03  0.84667738476E+03  0.46999998093E+01 0.  1.
       -5    1    3    3    0  502  0.62311880399E+03  0.39101207530E+03 -0.99700049732E+03  0.12390317060E+04  0.46999998093E+01 0. -1.
</event>
<event>
 5   0  0.8486612E-05  0.2085367E+04  0.7818609E-02  0.8567717E-01
        1   -1    0    0  501    0  0.00000000000E+00  0.00000000000E+00  0.15503827220E+04  0.15503827220E+04  0.50400001928E-02 0.  1.
       -1   -1    0    0    0  501  0.00000000000E+00  0.00000000000E+00 -0.70123881703E+03  0.70123881705E+03  0.50400001928E-02 0. -1.
    10030    2    1    2    0    0  0.00000000000E+00  0.00000000000E+00  0.84914390493E+03  0.22516215390E+04  0.20853666785E+04 0.  0.
        5    1    3    3  502    0  0.75424679749E+03 -0.71987954918E+03  0.41681151377E+03  0.11228841102E+04  0.46999998093E+01 0. -1.
       -5    1    3    3    0  502 -0.75424679749E+03  0.71987954918E+03  0.43233239116E+03  0.11287374288E+04  0.46999998093E+01 0.  1.
</event>
<event>
 5   0  0.8271069E-05  0.2070470E+04  0.7818609E-02  0.8574364E-01
       -1   -1    0    0    0  501  0.00000000000E+00  0.00000000000E+00  0.12997314592E+04  0.12997314592E+04  0.50400001928E-02 0. -1.
        1   -1    0    0  501    0  0.00000000000E+00  0.00000000000E+00 -0.82456348035E+03  0.82456348036E+03  0.50400001928E-02 0.  1.
    10030    2    1    2    0    0  0.00000000000E+00  0.00000000000E+00  0.47516797887E+03  0.21242949396E+04  0.20704696043E+04 0.  0.
        2    1    3    3  502    0 -0.38409595586E+03 -0.32093847654E+03  0.11673316775E+04  0.12701159216E+04  0.25500000920E-02 0. -1.
       -2    1    3    3    0  502  0.38409595586E+03  0.32093847654E+03 -0.69216369864E+03  0.85417901797E+03  0.25500000920E-02 0.  1.
</event>
<event>
 5   0  0.1921687E-04  0.2187365E+04  0.7818609E-02  0.8523705E-01
       -2   -1    0    0    0  501  0.00000000000E+00  0.00000000000E+00  0.74223879753E+03  0.74223879754E+03  0.25500000920E-02 0.  1.
        2   -1    0    0  501    0  0.00000000000E+00  0.00000000000E+00 -0.16115320769E+04  0.16115320769E+04  0.25500000920E-02 0. -1.
    10030    2    1    2    0    0  0.00000000000E+00  0.00000000000E+00 -0.86929327937E+03  0.23537708744E+04  0.21873652013E+04 0.  0.
        5    1    3    3  502    0  0.53375893171E+03 -0.95395815982E+03 -0.47168574411E+03  0.11905646976E+04  0.46999998093E+01 0. -1.
       -5    1    3    3    0  502 -0.53375893171E+03  0.95395815982E+03 -0.39760753527E+03  0.11632061769E+04  0.46999998093E+01 0.  1.
</event>
<event>
 5   0  0.1810875E-04  0.2150391E+04  0.7818609E-02  0.8539365E-01
        2   -1    0    0  501    0  0.00000000000E+00  0.00000000000E+00  0.82163140605E+03  0.82163140605E+03  0.25500000920E-02 0. -1.
       -2   -1    0    0    0  501  0.00000000000E+00  0.00000000000E+00 -0.14070117639E+04  0.14070117639E+04  0.25500000920E-02 0.  1.
    10030    2    1    2    0    0  0.00000000000E+00  0.00000000000E+00 -0.58538035788E+03  0.22286431700E+04  0.21503907123E+04 0.  0.
        1    1    3    3  502    0  0.34821269022E+03 -0.63470977758E+03 -0.11165624282E+04  0.13307216972E+04  0.50400001928E-02 0.  1.
       -1    1    3    3    0  502 -0.34821269022E+03  0.63470977758E+03  0.53118207032E+03  0.89792147275E+03  0.50400001928E-02 0. -1.
</event>
<event>
 5   0  0.8271069E-05  0.2116837E+04  0.7818609E-02  0.8553863E-01
        1   -1    0    0  501    0  0.00000000000E+00  0.00000000000E+00  0.10430646302E+04  0.10430646302E+04  0.50400001928E-02 0. -1.
       -1   -1    0    0    0  501  0.00000000000E+00  0.00000000000E+00 -0.10739978825E+04  0.10739978825E+04  0.50400001928E-02 0.  1.
    10030    2    1    2    0    0  0.00000000000E+00  0.00000000000E+00 -0.30933252238E+02  0.21170625127E+04  0.21168365115E+04 0.  0.
        2    1    3    3  502    0  0.41848187549E+03  0.79341882044E+03  0.54638397153E+03  0.10503218312E+04  0.25500000920E-02 0. -1.
       -2    1    3    3    0  502 -0.41848187549E+03 -0.79341882044E+03 -0.57731722377E+03  0.10667406815E+04  0.25500000920E-02 0.  1.
</event>
<event>
 5   0  0.8486612E-05  0.2103359E+04  0.7818609E-02  0.8559765E-01
       -1   -1    0    0    0  501  0.00000000000E+00  0.00000000000E+00  0.68480328878E+03  0.68480328880E+03  0.50400001928E-02 0. -1.
        1   -1    0    0  501    0  0.00000000000E+00  0.00000000000E+00 -0.16151052524E+04  0.16151052524E+04  0.50400001928E-02 0.  1.
    10030    2    1    2    0    0  0.00000000000E+00  0.00000000000E+00 -0.93030196363E+03  0.22999085412E+04  0.21033586367E+04 0.  0.
        5    1    3    3  502    0  0.64885425281E+03  0.24520569650E+03 -0.13295055737E+04  0.14995815535E+04  0.46999998093E+01 0.  1.
       -5    1    3    3    0  502 -0.64885425281E+03 -0.24520569650E+03  0.39920361010E+03  0.80032698774E+03  0.46999998093E+01 0. -1.
</event>
<event>
 5   0  0.8755004E-05  0.2060916E+04  0.7818609E-02  0.8578658E-01
       -1   -1    0    0    0  501  0.00000000000E+00  0.00000000000E+00  0.13102087784E+04  0.13102087784E+04  0.50400001928E-02 0.  1.
        1   -1    0    0  501    0  0.00000000000E+00  0.00000000000E+00 -0.81043829625E+03  0.81043829627E+03  0.50400001928E-02 0. -1.
    10030    2    1    2    0    0  0.00000000000E+00  0.00000000000E+00  0.49977048211E+03  0.21206470746E+04  0.20609156898E+04 0.  0.
        3    1    3    3  502    0  0.96507348323E+01  0.62412753144E+03  0.10935351952E+04  0.12591455617E+04  0.10100000352E+00 0.  1.
       -3    1    3    3    0  502 -0.96507348323E+01 -0.62412753144E+03 -0.59376471306E+03  0.86150151298E+03  0.10100000352E+00 0. -1.
</event>
<event>
 5   0  0.8755004E-05  0.2167506E+04  0.7818609E-02  0.8532076E-01
       -1   -1    0    0    0  501  0.00000000000E+00  0.00000000000E+00  0.11835349654E+04  0.11835349654E+04  0.50400001928E-02 0. -1.
        1   -1    0    0  501    0  0.00000000000E+00  0.00000000000E+00 -0.99238323223E+03  0.99238323224E+03  0.50400001928E-02 0.  1.
    10030    2    1    2    0    0  0.00000000000E+00  0.00000000000E+00  0.19115173318E+03  0.21759181977E+04  0.21675057134E+04 0.  0.
        3    1    3    3  502    0  0.57639962070E+03  0.11325809421E+03  0.10098555624E+04  0.11682774438E+04  0.10100000352E+00 0. -1.
       -3    1    3    3    0  502 -0.57639962070E+03 -0.11325809421E+03 -0.81870382921E+03  0.10076407538E+04  0.10100000352E+00 0.  1.
</event>
<event>
 5   0  0.8486612E-05  0.2077136E+04  0.7818609E-02  0.8571382E-01
        1   -1    0    0  501    0  0.00000000000E+00  0.00000000000E+00  0.69702193241E+03  0.69702193243E+03  0.50400001928E-02 0.  1.
       -1   -1    0    0    0  501  0.00000000000E+00  0.00000000000E+00 -0.15474744845E+04  0.15474744845E+04  0.50400001928E-02 0. -1.
    10030    2    1    2    0    0  0.00000000000E+00  0.00000000000E+00 -0.85045255206E+03  0.22444964169E+04  0.20771361588E+04 0.  0.
        5    1    3    3  502    0 -0.10460029676E+03  0.41925569720E+03  0.59526284981E+03  0.73557903184E+03  0.46999998093E+01 0.  1.
       -5    1    3    3    0  502  0.10460029676E+03 -0.41925569720E+03 -0.14457154019E+04  0.15089173851E+04  0.46999998093E+01 0. -1.
</event>
<event>
 5   0  0.8525278E-05  0.2082548E+04  0.7818609E-02  0.8568970E-01
       -1   -1    0    0    0  501  0.00000000000E+00  0.00000000000E+00  0.10861722719E+04  0.10861722719E+04  0.50400001928E-02 0.  1.
        1   -1    0    0  501    0  0.00000000000E+00  0.00000000000E+00 -0.99823157521E+03  0.99823157523E+03  0.50400001928E-02 0. -1.
    10030    2    1    2    0    0  0.00000000000E+00  0.00000000000E+00  0.87940696714E+02  0.20844038472E+04  0.20825479183E+04 0.  0.
        4    1    3    3  502    0  0.16634722212E+03  0.49642311740E+03 -0.85691096865E+03  0.10041938712E+04  0.12699999809E+01 0. -1.
       -4    1    3    3    0  502 -0.16634722212E+03 -0.49642311740E+03  0.94485166537E+03  0.10802099760E+04  0.12699999809E+01 0.  1.
</event>
<event>
 5   0  0.8486612E-05  0.2105264E+04  0.7818609E-02  0.8558928E-01
       -1   -1    0    0    0  501  0.00000000000E+00  0.00000000000E+00  0.37147958572E+03  0.37147958575E+03  0.50400001928E-02 0.  1.
        1   -1    0    0  501    0  0.00000000000E+00  0.00000000000E+00 -0.29827598677E+04  0.29827598677E+04  0.50400001928E-02 0. -1.
    10030    2    1    2    0    0  0.00000000000E+00  0.00000000000E+00 -0.26112802819E+04  0.33542394534E+04  0.21052642589E+04 0.  0.
        5    1    3    3  502    0 -0.49460551465E+03 -0.45634564814E+03 -0.16055127869E+02  0.67317592264E+03  0.46999998093E+01 0.  1.
       -5    1    3    3    0  502  0.49460551465E+03  0.45634564814E+03 -0.25952251541E+04  0.26810635308E+04  0.46999998093E+01 0. -1.
</event>
<event>
 5   0  0.1777590E-04  0.2078973E+04  0.7818609E-02  0.8570563E-01
        2   -1    0    0  501    0  0.00000000000E+00  0.00000000000E+00  0.89691995177E+03  0.89691995177E+03  0.25500000920E-02 0. -1.
       -2   -1    0    0    0  501  0.00000000000E+00  0.00000000000E+00 -0.12047144840E+04  0.12047144840E+04  0.25500000920E-02 0.  1.
    10030    2    1    2    0    0  0.00000000000E+00  0.00000000000E+00 -0.30779453225E+03  0.21016344358E+04  0.20789732628E+04 0.  0.
        4    1    3    3  502    0 -0.89838786674E+03  0.48120117776E+03 -0.36076289312E+03  0.10811136899E+04  0.12699999809E+01 0. -1.
       -4    1    3    3    0  502  0.89838786674E+03 -0.48120117776E+03  0.52968360870E+02  0.10205207459E+04  0.12699999809E+01 0.  1.
</event>
<event>
 5   0  0.8486612E-05  0.2108055E+04  0.7818609E-02  0.8557704E-01
       -1   -1    0    0    0  501  0.00000000000E+00  0.00000000000E+00  0.36114730672E+03  0.36114730675E+03  0.50400001928E-02 0.  1.
        1   -1    0    0  501    0  0.00000000000E+00  0.00000000000E+00 -0.30762338803E+04  0.30762338803E+04  0.50400001928E-02 0. -1.
    10030    2    1    2    0    0  0.00000000000E+00  0.00000000000E+00 -0.27150865736E+04  0.34373811871E+04  0.21080546300E+04 0.  0.
        5    1    3    3  502    0  0.53811790924E+03  0.88673581943E+03 -0.10521378093E+04  0.14774597651E+04  0.46999998093E+01 0. -1.
       -5    1    3    3    0  502 -0.53811790924E+03 -0.88673581943E+03 -0.16629487643E+04  0.19599214220E+04  0.46999998093E+01 0.  1.
</event>
<event>
 5   0  0.1815400E-04  0.2078182E+04  0.7818609E-02  0.8570916E-01
        2   -1    0    0  501    0  0.00000000000E+00  0.00000000000E+00  0.17068393424E+04  0.17068393424E+04  0.25500000920E-02 0.  1.
       -2   -1    0    0    0  501  0.00000000000E+00  0.00000000000E+00 -0.63257872938E+03  0.63257872938E+03  0.25500000920E-02 0. -1.
    10030    2    1    2    0    0  0.00000000000E+00  0.00000000000E+00  0.10742606131E+04  0.23394180718E+04  0.20781821503E+04 0.  0.
        3    1    3    3  502    0 -0.50039206414E+03  0.61004033315E+03 -0.22400616846E+03  0.82019522045E+03  0.10100000352E+00 0. -1.
       -3    1    3    3    0  502  0.50039206414E+03 -0.61004033315E+03  0.12982667815E+04  0.15192228514E+04  0.10100000352E+00 0.  1.
</event>
<event>
 5   0  0.1815400E-04  0.2090530E+04  0.7818609E-02  0.8565427E-01
        2   -1    0    0  501    0  0.00000000000E+00  0.00000000000E+00  0.74022891406E+03  0.74022891407E+03  0.25500000920E-02 0. -1.
       -2   -1    0    0    0  501  0.00000000000E+00  0.00000000000E+00 -0.14760013650E+04  0.14760013650E+04  0.25500000920E-02 0.  1.
    10030    2    1    2    0    0  0.00000000000E+00  0.00000000000E+00 -0.73577245090E+03  0.22162302790E+04  0.20905299687E+04 0.  0.
        3    1    3    3  502    0 -0.10361304336E+04  0.95212100505E+02 -0.47361913221E+03  0.11432177011E+04  0.10100000352E+00 0.  1.
       -3    1    3    3    0  502  0.10361304336E+04 -0.95212100505E+02 -0.26215331870E+03  0.10730125779E+04  0.10100000352E+00 0. -1.
</event>
<event>
 5   0  0.8271069E-05  0.2094373E+04  0.7818609E-02  0.8563726E-01
        1   -1    0    0  501    0  0.00000000000E+00  0.00000000000E+00  0.15218330665E+04  0.15218330666E+04  0.50400001928E-02 0. -1.
       -1   -1    0    0    0  501  0.00000000000E+00  0.00000000000E+00 -0.72057822230E+03  0.72057822232E+03  0.50400001928E-02 0.  1.
    10030    2    1    2    0    0  0.00000000000E+00  0.00000000000E+00  0.80125484424E+03  0.22424112889E+04  0.20943731910E+04 0.  0.
        2    1    3    3  502    0 -0.20839645704E+03 -0.33477675059E+03 -0.63804352120E+03  0.75006939078E+03  0.25500000920E-02 0.  1.
       -2    1    3    3    0  502  0.20839645704E+03  0.33477675059E+03  0.14392983654E+04  0.14923418981E+04  0.25500000920E-02 0. -1.
</event>
<event>
 5   0  0.1921687E-04  0.1831242E+04  0.7818609E-02  0.8689860E-01
       -2   -1    0    0    0  501  0.00000000000E+00  0.00000000000E+00  0.68196471129E+03  0.68196471130E+03  0.25500000920E-02 0. -1.
        2   -1    0    0  501    0  0.00000000000E+00  0.00000000000E+00 -0.12293329216E+04  0.12293329216E+04  0.25500000920E-02 0.  1.
    10030    2    1    2    0    0  0.00000000000E+00  0.00000000000E+00 -0.54736821034E+03  0.19112976329E+04  0.18312418420E+04 0.  0.
        5    1    3    3  502    0  0.29356728170E+03  0.35230346494E+03  0.55345071959E+03  0.71876927404E+03  0.46999998093E+01 0. -1.
       -5    1    3    3    0  502 -0.29356728170E+03 -0.35230346494E+03 -0.11008189299E+04  0.11925283589E+04  0.46999998093E+01 0.  1.
</event>
<event>
 5   0  0.8486612E-05  0.2118761E+04  0.7818609E-02  0.8553024E-01
        1   -1    0    0  501    0  0.00000000000E+00  0.00000000000E+00  0.11763854413E+04  0.11763854413E+04  0.50400001928E-02 0. -1.
       -1   -1    0    0    0  501  0.00000000000E+00  0.00000000000E+00 -0.95401322599E+03  0.95401322600E+03  0.50400001928E-02 0.  1.
    10030    2    1    2    0    0  0.00000000000E+00  0.00000000000E+00  0.22237221532E+03  0.21303986673E+04  0.21187612134E+04 0.  0.
        5    1    3    3  502    0  0.92263244995E+03 -0.27275140346E+03 -0.33466931644E+03  0.10186606928E+04  0.46999998093E+01 0.  1.
       -5    1    3    3    0  502 -0.92263244995E+03  0.27275140346E+03  0.55704153177E+03  0.11117379745E+04  0.46999998093E+01 0. -1.
</event>
<event>
 5   0  0.8271069E-05  0.2081178E+04  0.7818609E-02  0.8569580E-01
       -1   -1    0    0    0  501  0.00000000000E+00  0.00000000000E+00  0.71575348485E+03  0.71575348486E+03  0.50400001928E-02 0. -1.
        1   -1    0    0  501    0  0.00000000000E+00  0.00000000000E+00 -0.15128465235E+04  0.15128465235E+04  0.50400001928E-02 0.  1.
    10030    2    1    2    0    0  0.00000000000E+00  0.00000000000E+00 -0.79709303861E+03  0.22286000083E+04  0.20811777158E+04 0.  0.
        2    1    3    3  502    0  0.29602871569E+02  0.29581389126E+03  0.66931000289E+03  0.73236470986E+03  0.25500000920E-02 0. -1.
       -2    1    3    3    0  502 -0.29602871569E+02 -0.29581389126E+03 -0.14664030415E+04  0.14962352985E+04  0.25500000920E-02 0.  1.
</event>
<event>
 5   0  0.1921687E-04  0.2064299E+04  0.7818609E-02  0.8577135E-01
       -2   -1    0    0    0  501  0.00000000000E+00  0.00000000000E+00  0.63419342561E+03  0.63419342562E+03  0.25500000920E-02 0.  1.
        2   -1    0    0  501    0  0.00000000000E+00  0.00000000000E+00 -0.16798230817E+04  0.16798230817E+04  0.25500000920E-02 0. -1.
    10030    2    1    2    0    0  0.00000000000E+00  0.00000000000E+00 -0.10456296561E+04  0.23140165073E+04  0.20642991591E+04 0.  0.
        5    1    3    3  502    0  0.34261016147E+03  0.46082740812E+02  0.56735634502E+03  0.66439495330E+03  0.46999998093E+01 0.  1.
       -5    1    3    3    0  502 -0.34261016147E+03 -0.46082740812E+02 -0.16129860011E+04  0.16496215540E+04  0.46999998093E+01 0. -1.
</event>
<event>
 5   0  0.1810875E-04  0.2129538E+04  0.7818609E-02  0.8548342E-01
       -2   -1    0    0    0  501  0.00000000000E+00  0.00000000000E+00  0.51639592419E+03  0.51639592420E+03  0.25500000920E-02 0.  1.
        2   -1    0    0  501    0  0.00000000000E+00  0.00000000000E+00 -0.21954720672E+04  0.21954720672E+04  0.25500000920E-02 0. -1.
    10030    2    1    2    0    0  0.00000000000E+00  0.00000000000E+00 -0.16790761430E+04  0.27118679914E+04  0.21295378158E+04 0.  0.
        1    1    3    3  502    0 -0.91550615873E+03 -0.50804289439E+03 -0.10860549049E+04  0.15085669908E+04  0.50400001928E-02 0. -1.
       -1    1    3    3    0  502  0.91550615873E+03  0.50804289439E+03 -0.59302123813E+03  0.12033010006E+04  0.50400001928E-02 0.  1.
</event>
<event>
 5   0  0.8271069E-05  0.2117568E+04  0.7818609E-02  0.8553544E-01
       -1   -1    0    0    0  501  0.00000000000E+00  0.00000000000E+00  0.98833203511E+03  0.98833203512E+03  0.50400001928E-02 0.  1.
        1   -1    0    0  501    0  0.00000000000E+00  0.00000000000E+00 -0.11342582476E+04  0.11342582476E+04  0.50400001928E-02 0. -1.
    10030    2    1    2    0    0  0.00000000000E+00  0.00000000000E+00 -0.14592621244E+03  0.21225902827E+04  0.21175681922E+04 0.  0.
        2    1    3    3  502    0 -0.48997517068E+02 -0.56535124793E+03 -0.96895157549E+03  0.11228935595E+04  0.25500000920E-02 0. -1.
       -2    1    3    3    0  502  0.48997517068E+02  0.56535124793E+03  0.82302536305E+03  0.99969672323E+03  0.25500000920E-02 0.  1.
</event>
<event>
 5   0  0.1810875E-04  0.2102133E+04  0.7818609E-02  0.8560304E-01
       -2   -1    0    0    0  501  0.00000000000E+00  0.00000000000E+00  0.90364385981E+03  0.90364385981E+03  0.25500000920E-02 0.  1.
        2   -1    0    0  501    0  0.00000000000E+00  0.00000000000E+00 -0.12225403238E+04  0.12225403238E+04  0.25500000920E-02 0. -1.
    10030    2    1    2    0    0  0.00000000000E+00  0.00000000000E+00 -0.31889646402E+03  0.21261841836E+04  0.21021332565E+04 0.  0.
        1    1    3    3  502    0 -0.98714640655E+03 -0.11182233037E+03  0.18766741778E+03  0.10110298320E+04  0.50400001928E-02 0.  1.
       -1    1    3    3    0  502  0.98714640655E+03  0.11182233037E+03 -0.50656388180E+03  0.11151543516E+04  0.50400001928E-02 0. -1.
</event>
<event>
 5   0  0.8525278E-05  0.1292793E+04  0.7818609E-02  0.9035300E-01
        1   -1    0    0  501    0  0.00000000000E+00  0.00000000000E+00  0.62353816352E+03  0.62353816354E+03  0.50400001928E-02 0. -1.
       -1   -1    0    0    0  501  0.00000000000E+00  0.00000000000E+00 -0.67009281406E+03  0.67009281408E+03  0.50400001928E-02 0.  1.
    10030    2    1    2    0    0  0.00000000000E+00  0.00000000000E+00 -0.46554650536E+02  0.12936309776E+04  0.12927930116E+04 0.  0.
        4    1    3    3  502    0 -0.61674041937E+03 -0.82742397980E+02 -0.19835295863E+03  0.65311603748E+03  0.12699999809E+01 0.  1.
       -4    1    3    3    0  502  0.61674041937E+03  0.82742397980E+02  0.15179830809E+03  0.64051494015E+03  0.12699999809E+01 0. -1.
</event>
<event>
 5   0  0.1815400E-04  0.2084234E+04  0.7818609E-02  0.8568220E-01
        2   -1    0    0  501    0  0.00000000000E+00  0.00000000000E+00  0.12942607982E+04  0.12942607982E+04  0.25500000920E-02 0. -1.
       -2   -1    0    0    0  501  0.00000000000E+00  0.00000000000E+00 -0.83909507753E+03  0.83909507754E+03  0.25500000920E-02 0.  1.
    10030    2    1    2    0    0  0.00000000000E+00  0.00000000000E+00  0.45516572067E+03  0.21333558757E+04  0.20842340222E+04 0.  0.
        3    1    3    3  502    0 -0.22509124962E+03 -0.24375690328E+03 -0.78358883847E+03  0.85093770426E+03  0.10100000352E+00 0.  1.
       -3    1    3    3    0  502  0.22509124962E+03  0.24375690328E+03  0.12387545591E+04  0.12824181715E+04  0.10100000352E+00 0. -1.
</event>
<event>
 5   0  0.8525278E-05  0.2052808E+04  0.7818609E-02  0.8582321E-01
        1   -1    0    0  501    0  0.00000000000E+00  0.00000000000E+00  0.18997122555E+04  0.18997122555E+04  0.50400001928E-02 0. -1.
       -1   -1    0    0    0  501  0.00000000000E+00  0.00000000000E+00 -0.55456046454E+03  0.55456046457E+03  0.50400001928E-02 0.  1.
    10030    2    1    2    0    0  0.00000000000E+00  0.00000000000E+00  0.13451517909E+04  0.24542727201E+04  0.20528081361E+04 0.  0.
        4    1    3    3  502    0  0.59177949448E+03  0.73680053265E+03  0.19371272634E+03  0.96467830298E+03  0.12699999809E+01 0.  1.
       -4    1    3    3    0  502 -0.59177949448E+03 -0.73680053265E+03  0.11514390646E+04  0.14895944171E+04  0.12699999809E+01 0. -1.
</event>
<event>
 5   0  0.1815400E-04  0.2265992E+04  0.7818609E-02  0.8491452E-01
        2   -1    0    0  501    0  0.00000000000E+00  0.00000000000E+00  0.11514011264E+04  0.11514011264E+04  0.25500000920E-02 0.  1.
       -2   -1    0    0    0  501  0.00000000000E+00  0.00000000000E+00 -0.11148846708E+04  0.11148846708E+04  0.25500000920E-02 0. -1.
    10030    2    1    2    0    0  0.00000000000E+00  0.00000000000E+00  0.36516455605E+02  0.22662857972E+04  0.22659915850E+04 0.  0.
        3    1    3    3  502    0 -0.15865630899E+03 -0.10921279562E+04 -0.23822030352E+03  0.11290102835E+04  0.10100000352E+00 0.  1.
       -3    1    3    3    0  502  0.15865630899E+03  0.10921279562E+04  0.27473675913E+03  0.11372755137E+04  0.10100000352E+00 0. -1.
</event>
<event>
 5   0  0.1777590E-04  0.1834007E+04  0.7818609E-02  0.8688421E-01
        2   -1    0    0  501    0  0.00000000000E+00  0.00000000000E+00  0.17123956170E+04  0.17123956170E+04  0.25500000920E-02 0.  1.
       -2   -1    0    0    0  501  0.00000000000E+00  0.00000000000E+00 -0.49106367546E+03  0.49106367546E+03  0.25500000920E-02 0. -1.
    10030    2    1    2    0    0  0.00000000000E+00  0.00000000000E+00  0.12213319416E+04  0.22034592925E+04  0.18340068544E+04 0.  0.
        4    1    3    3  502    0 -0.64430219727E+02  0.89066103761E+03  0.86114743612E+03  0.12405663452E+04  0.12699999809E+01 0. -1.
       -4    1    3    3    0  502  0.64430219727E+02 -0.89066103761E+03  0.36018450543E+03  0.96289294731E+03  0.12699999809E+01 0.  1.
</event>
<event>
 5   0  0.1886323E-04  0.2101173E+04  0.7818609E-02  0.8560727E-01
        2   -1    0    0  501    0  0.00000000000E+00  0.00000000000E+00  0.18688891414E+04  0.18688891414E+04  0.25500000920E-02 0. -1.
       -2   -1    0    0    0  501  0.00000000000E+00  0.00000000000E+00 -0.59058181152E+03  0.59058181152E+03  0.25500000920E-02 0.  1.
    10030    2    1    2    0    0  0.00000000000E+00  0.00000000000E+00  0.12783073299E+04  0.24594709529E+04  0.21011729435E+04 0.  0.
        2    1    3    3  502    0 -0.45593648155E+03 -0.42774710092E+03  0.16274564639E+04  0.17434047721E+04  0.25500000920E-02 0. -1.
       -2    1    3    3    0  502  0.45593648155E+03  0.42774710092E+03 -0.34914913399E+03  0.71606618083E+03  0.25500000920E-02 0.  1.
</event>
<event>
 5   0  0.1886323E-04  0.1971704E+04  0.7818609E-02  0.8619965E-01
        2   -1    0    0  501    0  0.00000000000E+00  0.00000000000E+00  0.11185910337E+04  0.11185910337E+04  0.25500000920E-02 0.  1.
       -2   -1    0    0    0  501  0.00000000000E+00  0.00000000000E+00 -0.86886505166E+03  0.86886505166E+03  0.25500000920E-02 0. -1.
    10030    2    1    2    0    0  0.00000000000E+00  0.00000000000E+00  0.24972598205E+03  0.19874560854E+04  0.19717044974E+04 0.  0.
        2    1    3    3  502    0 -0.21425060410E+03  0.49674632787E+03  0.95560993847E+03  0.10981122848E+04  0.25500000920E-02 0.  1.
       -2    1    3    3    0  502  0.21425060410E+03 -0.49674632787E+03 -0.70588395642E+03  0.88934380053E+03  0.25500000920E-02 0. -1.
</event>
<event>
 5   0  0.8525278E-05  0.2055756E+04  0.7818609E-02  0.8580988E-01
       -1   -1    0    0    0  501  0.00000000000E+00  0.00000000000E+00  0.78326913287E+03  0.78326913289E+03  0.50400001928E-02 0.  1.
        1   -1    0    0  501    0  0.00000000000E+00  0.00000000000E+00 -0.13488758826E+04  0.13488758827E+04  0.50400001928E-02 0. -1.
    10030    2    1    2    0    0  0.00000000000E+00  0.00000000000E+00 -0.56560674977E+03  0.21321450155E+04  0.20557556693E+04 0.  0.
        4    1    3    3  502    0 -0.70452484323E+02  0.80697029878E+03  0.37345396017E+03  0.89198323354E+03  0.12699999809E+01 0.  1.
       -4    1    3    3    0  502  0.70452484323E+02 -0.80697029878E+03 -0.93906070995E+03  0.12401617820E+04  0.12699999809E+01 0. -1.
</event>
<event>
 5   0  0.1886323E-04  0.1295761E+04  0.7818609E-02  0.9032933E-01
        2   -1    0    0  501    0  0.00000000000E+00  0.00000000000E+00  0.69035255607E+03  0.69035255608E+03  0.25500000920E-02 0. -1.
       -2   -1    0    0    0  501  0.00000000000E+00  0.00000000000E+00 -0.60802143863E+03  0.60802143864E+03  0.25500000920E-02 0.  1.
    10030    2    1    2    0    0  0.00000000000E+00  0.00000000000E+00  0.82331117441E+02  0.12983739947E+04  0.12957610186E+04 0.  0.
        2    1    3    3  502    0  0.14416216685E+03 -0.62352082907E+03  0.14230571531E+03  0.65560038991E+03  0.25500000920E-02 0. -1.
       -2    1    3    3    0  502 -0.14416216685E+03  0.62352082907E+03 -0.59974597872E+02  0.64277360480E+03  0.25500000920E-02 0.  1.
</event>
<event>
 5   0  0.1921687E-04  0.2242013E+04  0.7818609E-02  0.8501142E-01
        2   -1    0    0  501    0  0.00000000000E+00  0.00000000000E+00  0.99957908682E+03  0.99957908683E+03  0.25500000920E-02 0.  1.
       -2   -1    0    0    0  501  0.00000000000E+00  0.00000000000E+00 -0.12571843815E+04  0.12571843815E+04  0.25500000920E-02 0. -1.
    10030    2    1    2    0    0  0.00000000000E+00  0.00000000000E+00 -0.25760529472E+03  0.22567634684E+04  0.22420126816E+04 0.  0.
        5    1    3    3  502    0  0.72559766062E+03  0.22671091488E+03  0.70047653461E+03  0.10337210792E+04  0.46999998093E+01 0.  1.
       -5    1    3    3    0  502 -0.72559766062E+03 -0.22671091488E+03 -0.95808182934E+03  0.12230423892E+04  0.46999998093E+01 0. -1.
</event>
<event>
 5   0  0.1921687E-04  0.1979113E+04  0.7818609E-02  0.8616449E-01
        2   -1    0    0  501    0  0.00000000000E+00  0.00000000000E+00  0.76483821445E+03  0.76483821446E+03  0.25500000920E-02 0. -1.
       -2   -1    0    0    0  501  0.00000000000E+00  0.00000000000E+00 -0.12802997477E+04  0.12802997477E+04  0.25500000920E-02 0.  1.
    10030    2    1    2    0    0  0.00000000000E+00  0.00000000000E+00 -0.51546153323E+03  0.20451379621E+04  0.19791131074E+04 0.  0.
        5    1    3    3  502    0  0.19566112923E+03 -0.17855334248E+03  0.72751010390E+03  0.77424648199E+03  0.46999998093E+01 0. -1.
       -5    1    3    3    0  502 -0.19566112923E+03  0.17855334248E+03 -0.12429716371E+04  0.12708914802E+04  0.46999998093E+01 0.  1.
</event>
<event>
 5   0  0.1815400E-04  0.1779665E+04  0.7818609E-02  0.8717189E-01
        2   -1    0    0  501    0  0.00000000000E+00  0.00000000000E+00  0.18367336077E+04  0.18367336077E+04  0.25500000920E-02 0.  1.
       -2   -1    0    0    0  501  0.00000000000E+00  0.00000000000E+00 -0.43109248833E+03  0.43109248834E+03  0.25500000920E-02 0. -1.
    10030    2    1    2    0    0  0.00000000000E+00  0.00000000000E+00  0.14056411194E+04  0.22678260961E+04  0.17796652060E+04 0.  0.
        3    1    3    3  502    0 -0.54416573512E+03 -0.47600337520E+03  0.41771753652E+02  0.72418260825E+03  0.10100000352E+00 0. -1.
       -3    1    3    3    0  502  0.54416573512E+03  0.47600337520E+03  0.13638693657E+04  0.15436434878E+04  0.10100000352E+00 0.  1.
</event>
<event>
 5   0  0.8486612E-05  0.1850612E+04  0.7818609E-02  0.8679838E-01
       -1   -1    0    0    0  501  0.00000000000E+00  0.00000000000E+00  0.50833242554E+03  0.50833242556E+03  0.50400001928E-02 0.  1.
        1   -1    0    0  501    0  0.00000000000E+00  0.00000000000E+00 -0.16843138826E+04  0.16843138826E+04  0.50400001928E-02 0. -1.
    10030    2    1    2    0    0  0.00000000000E+00  0.00000000000E+00 -0.11759814570E+04  0.21926463081E+04  0.18506121812E+04 0.  0.
        5    1    3    3  502    0 -0.25109045967E+03 -0.73518653853E+02 -0.16395615131E+04  0.16603118552E+04  0.46999998093E+01 0. -1.
       -5    1    3    3    0  502  0.25109045967E+03  0.73518653853E+02  0.46358005605E+03  0.53233445292E+03  0.46999998093E+01 0.  1.
</event>
<event>
 5   0  0.8237966E-05  0.2095905E+04  0.7818609E-02  0.8563049E-01
       -1   -1    0    0    0  501  0.00000000000E+00  0.00000000000E+00  0.14001490213E+04  0.14001490213E+04  0.50400001928E-02 0. -1.
        1   -1    0    0  501    0  0.00000000000E+00  0.00000000000E+00 -0.78434817031E+03  0.78434817032E+03  0.50400001928E-02 0.  1.
    10030    2    1    2    0    0  0.00000000000E+00  0.00000000000E+00  0.61580085102E+03  0.21844971917E+04  0.20959048863E+04 0.  0.
        1    1    3    3  502    0  0.58317092013E+03  0.11597359031E+03 -0.59151580483E+03  0.83870682787E+03  0.50400001928E-02 0.  1.
       -1    1    3    3    0  502 -0.58317092013E+03 -0.11597359031E+03  0.12073166558E+04  0.13457903638E+04  0.50400001928E-02 0. -1.
</event>
<event>
 5   0  0.1815400E-04  0.2236182E+04  0.7818609E-02  0.8503518E-01
       -2   -1    0    0    0  501  0.00000000000E+00  0.00000000000E+00  0.21925963312E+04  0.21925963312E+04  0.25500000920E-02 0. -1.
        2   -1    0    0  501    0  0.00000000000E+00  0.00000000000E+00 -0.57015851043E+03  0.57015851044E+03  0.25500000920E-02 0.  1.
    10030    2    1    2    0    0  0.00000000000E+00  0.00000000000E+00  0.16224378208E+04  0.27627548417E+04  0.22361819767E+04 0.  0.
        3    1    3    3  502    0 -0.71177812867E+03  0.34585392942E+03 -0.16464053522E+03  0.80830041506E+03  0.10100000352E+00 0.  1.
       -3    1    3    3    0  502  0.71177812867E+03 -0.34585392942E+03  0.17870783560E+04  0.19544544266E+04  0.10100000352E+00 0. -1.
</event>
<event>
 5   0  0.8271069E-05  0.2042614E+04  0.7818609E-02  0.8586952E-01
        1   -1    0    0  501    0  0.00000000000E+00  0.00000000000E+00  0.10086449661E+04  0.10086449661E+04  0.50400001928E-02 0. -1.
       -1   -1    0    0    0  501  0.00000000000E+00  0.00000000000E+00 -0.10341284181E+04  0.10341284181E+04  0.50400001928E-02 0.  1.
    10030    2    1    2    0    0  0.00000000000E+00  0.00000000000E+00 -0.25483452065E+02  0.20427733842E+04  0.20426144259E+04 0.  0.
        2    1    3    3  502    0  0.53175927040E+02 -0.34743452234E+03 -0.97173761744E+03  0.10333500973E+04  0.25500000920E-02 0.  1.
       -2    1    3    3    0  502 -0.53175927040E+02  0.34743452234E+03  0.94625416538E+03  0.10094232868E+04  0.25500000920E-02 0. -1.
</event>
<event>
 5   0  0.1777590E-04  0.2113431E+04  0.7818609E-02  0.8555350E-01
       -2   -1    0    0    0  501  0.00000000000E+00  0.00000000000E+00  0.86049469270E+03  0.86049469271E+03  0.25500000920E-02 0. -1.
        2   -1    0    0  501    0  0.00000000000E+00  0.00000000000E+00 -0.12976806267E+04  0.12976806267E+04  0.25500000920E-02 0.  1.
    10030    2    1    2    0    0  0.00000000000E+00  0.00000000000E+00 -0.43718593398E+03  0.21581753194E+04  0.21134306633E+04 0.  0.
        4    1    3    3  502    0  0.10234286010E+04  0.83687193184E+02  0.36160242196E+02  0.10274817875E+04  0.12699999809E+01 0. -1.
       -4    1    3    3    0  502 -0.10234286010E+04 -0.83687193184E+02 -0.47334617618E+03  0.11306935319E+04  0.12699999809E+01 0.  1.
</event>
<event>
 5   0  0.8525278E-05  0.2084291E+04  0.7818609E-02  0.8568195E-01
        1   -1    0    0  501    0  0.00000000000E+00  0.00000000000E+00  0.10146305510E+04  0.10146305510E+04  0.50400001928E-02 0. -1.
       -1   -1    0    0    0  501  0.00000000000E+00  0.00000000000E+00 -0.10704064195E+04  0.10704064195E+04  0.50400001928E-02 0.  1.
    10030    2    1    2    0    0  0.00000000000E+00  0.00000000000E+00 -0.55775868481E+02  0.20850369705E+04  0.20842908197E+04 0.  0.
        4    1    3    3  502    0  0.20748652694E+03  0.25654775488E+02  0.99343623155E+03  0.10151975106E+04  0.12699999809E+01 0. -1.
       -4    1    3    3    0  502 -0.20748652694E+03 -0.25654775488E+02 -0.10492121000E+04  0.10698394600E+04  0.12699999809E+01 0.  1.
</event>
<event>
 5   0  0.1777590E-04  0.1876944E+04  0.7818609E-02  0.8666419E-01
        2   -1    0    0  501    0  0.00000000000E+00  0.00000000000E+00  0.17083236987E+04  0.17083236987E+04  0.25500000920E-02 0. -1.
       -2   -1    0    0    0  501  0.00000000000E+00  0.00000000000E+00 -0.51555200931E+03  0.51555200932E+03  0.25500000920E-02 0.  1.
    10030    2    1    2    0    0  0.00000000000E+00  0.00000000000E+00  0.11927716894E+04  0.22238757080E+04  0.18769440220E+04 0.  0.
        4    1    3    3  502    0  0.58498751327E+03 -0.51065086270E+02  0.14637573464E+04  0.15771509807E+04  0.12699999809E+01 0. -1.
       -4    1    3    3    0  502 -0.58498751327E+03  0.51065086270E+02 -0.27098565705E+03  0.64672472733E+03  0.12699999809E+01 0.  1.
</event>
<event>
 5   0  0.1810875E-04  0.1969505E+04  0.7818609E-02  0.8621012E-01
        2   -1    0    0  501    0  0.00000000000E+00  0.00000000000E+00  0.11961271701E+04  0.11961271701E+04  0.25500000920E-02 0.  1.
       -2   -1    0    0    0  501  0.00000000000E+00  0.00000000000E+00 -0.81073072316E+03  0.81073072316E+03  0.25500000920E-02 0. -1.
    10030    2    1    2    0    0  0.00000000000E+00  0.00000000000E+00  0.38539644696E+03  0.20068578933E+04  0.19695045525E+04 0.  0.
        1    1    3    3  502    0 -0.35365282013E+03  0.87946451562E+03  0.46460920820E+03  0.10556466586E+04  0.50400001928E-02 0.  1.
       -1    1    3    3    0  502  0.35365282013E+03 -0.87946451562E+03 -0.79212761237E+02  0.95121123469E+03  0.50400001928E-02 0. -1.
</event>
<event>
 5   0  0.1886323E-04  0.2186613E+04  0.7818609E-02  0.8524021E-01
       -2   -1    0    0    0  501  0.00000000000E+00  0.00000000000E+00  0.13695629487E+04  0.13695629487E+04  0.25500000920E-02 0. -1.
        2   -1    0    0  501    0  0.00000000000E+00  0.00000000000E+00 -0.87277429417E+03  0.87277429417E+03  0.25500000920E-02 0.  1.
    10030    2    1    2    0    0  0.00000000000E+00  0.00000000000E+00  0.49678865457E+03  0.22423372429E+04  0.21866132131E+04 0.  0.
        2    1    3    3  502    0 -0.98645830739E+02 -0.10300460160E+04 -0.11357913048E+03  0.10409735894E+04  0.25500000920E-02 0.  1.
       -2    1    3    3    0  502  0.98645830739E+02  0.10300460160E+04  0.61036778505E+03  0.12013636535E+04  0.25500000920E-02 0. -1.
</event>
<event>
 5   0  0.8755004E-05  0.2093108E+04  0.7818609E-02  0.8564285E-01
        1   -1    0    0  501    0  0.00000000000E+00  0.00000000000E+00  0.18321019700E+04  0.18321019700E+04  0.50400001928E-02 0.  1.
       -1   -1    0    0    0  501  0.00000000000E+00  0.00000000000E+00 -0.59782437647E+03  0.59782437650E+03  0.50400001928E-02 0. -1.
    10030    2    1    2    0    0  0.00000000000E+00  0.00000000000E+00  0.12342775935E+04  0.24299263465E+04  0.20931079455E+04 0.  0.
        3    1    3    3  502    0 -0.76818604998E+03  0.57814458669E+03  0.13719475544E+03  0.97117628761E+03  0.10100000352E+00 0. -1.
       -3    1    3    3    0  502  0.76818604998E+03 -0.57814458669E+03  0.10970828381E+04  0.14587500589E+04  0.10100000352E+00 0.  1.
</event>
<event>
 5   0  0.8237966E-05  0.2098177E+04  0.7818609E-02  0.8562047E-01
        1   -1    0    0  501    0  0.00000000000E+00  0.00000000000E+00  0.11877020951E+04  0.11877020952E+04  0.50400001928E-02 0. -1.
       -1   -1    0    0    0  501  0.00000000000E+00  0.00000000000E+00 -0.92665197683E+03  0.92665197684E+03  0.50400001928E-02 0.  1.
    10030    2    1    2    0    0  0.00000000000E+00  0.00000000000E+00  0.26105011832E+03  0.21143540720E+04  0.20981768223E+04 0.  0.
        1    1    3    3  502    0  0.79772399640E+03 -0.30647901577E+03 -0.48268418721E+03  0.98146675245E+03  0.50400001928E-02 0.  1.
       -1    1    3    3    0  502 -0.79772399640E+03  0.30647901577E+03  0.74373430553E+03  0.11328873195E+04  0.50400001928E-02 0. -1.
</event>
<event>
 5   0  0.8271069E-05  0.2152431E+04  0.7818609E-02  0.8538492E-01
        1   -1    0    0  501    0  0.00000000000E+00  0.00000000000E+00  0.95621925736E+03  0.95621925738E+03  0.50400001928E-02 0.  1.
       -1   -1    0    0    0  501  0.00000000000E+00  0.00000000000E+00 -0.12112705297E+04  0.12112705297E+04  0.50400001928E-02 0. -1.
    10030    2    1    2    0    0  0.00000000000E+00  0.00000000000E+00 -0.25505127233E+03  0.21674897871E+04  0.21524313753E+04 0.  0.
        2    1    3    3  502    0  0.10081206841E+04 -0.95008838506E+02  0.23958789157E+03  0.10405461791E+04  0.25500000920E-02 0.  1.
       -2    1    3    3    0  502 -0.10081206841E+04  0.95008838506E+02 -0.49463916390E+03  0.11269436080E+04  0.25500000920E-02 0. -1.
</event>
<event>
 5   0  0.1886323E-04  0.2395366E+04  0.7818609E-02  0.8441241E-01
        2   -1    0    0  501    0  0.00000000000E+00  0.00000000000E+00  0.20328417151E+04  0.20328417151E+04  0.25500000920E-02 0.  1.
       -2   -1    0    0    0  501  0.00000000000E+00  0.00000000000E+00 -0.70563504016E+03  0.70563504017E+03  0.25500000920E-02 0. -1.
    10030    2    1    2    0    0  0.00000000000E+00  0.00000000000E+00  0.13272066750E+04  0.27384767553E+04  0.23953658137E+04 0.  0.
        2    1    3    3  502    0  0.51216517595E+03 -0.57412477061E+03 -0.38575843792E+03  0.86066369281E+03  0.25500000920E-02 0. -1.
       -2    1    3    3    0  502 -0.51216517595E+03  0.57412477061E+03  0.17129651129E+04  0.18778130625E+04  0.25500000920E-02 0.  1.
</event>
<event>
 5   0  0.1921687E-04  0.2125199E+04  0.7818609E-02  0.8550224E-01
        2   -1    0    0  501    0  0.00000000000E+00  0.00000000000E+00  0.16035248874E+04  0.16035248874E+04  0.25500000920E-02 0.  1.
       -2   -1    0    0    0  501  0.00000000000E+00  0.00000000000E+00 -0.70414724237E+03  0.70414724238E+03  0.25500000920E-02 0. -1.
    10030    2    1    2    0    0  0.00000000000E+00  0.00000000000E+00  0.89937764506E+03  0.23076721298E+04  0.21251989343E+04 0.  0.
        5    1    3    3  502    0 -0.54373338756E+03 -0.11445579599E+03 -0.53381024171E+03  0.77053331540E+03  0.46999998093E+01 0. -1.
       -5    1    3    3    0  502  0.54373338756E+03  0.11445579599E+03  0.14331878868E+04  0.15371388144E+04  0.46999998093E+01 0.  1.
</event>
<event>
 5   0  0.8237966E-05  0.2116536E+04  0.7818609E-02  0.8553994E-01
        1   -1    0    0  501    0  0.00000000000E+00  0.00000000000E+00  0.18069287020E+04  0.18069287020E+04  0.50400001928E-02 0. -1.
       -1   -1    0    0    0  501  0.00000000000E+00  0.00000000000E+00 -0.61979792102E+03  0.61979792104E+03  0.50400001928E-02 0.  1.
    10030    2    1    2    0    0  0.00000000000E+00  0.00000000000E+00  0.11871307810E+04  0.24267266231E+04  0.21165355211E+04 0.  0.
        1    1    3    3  502    0 -0.90630486635E+03 -0.47963278693E+03  0.29349493042E+03  0.10665717956E+04  0.50400001928E-02 0.  1.
       -1    1    3    3    0  502  0.90630486635E+03  0.47963278693E+03  0.89363585057E+03  0.13601548274E+04  0.50400001928E-02 0. -1.
</event>
<event>
 5   0  0.1810875E-04  0.2121882E+04  0.7818609E-02  0.8551665E-01
        2   -1    0    0  501    0  0.00000000000E+00  0.00000000000E+00  0.27087472909E+04  0.27087472909E+04  0.25500000920E-02 0. -1.
       -2   -1    0    0    0  501  0.00000000000E+00  0.00000000000E+00 -0.41554100573E+03  0.41554100574E+03  0.25500000920E-02 0.  1.
    10030    2    1    2    0    0  0.00000000000E+00  0.00000000000E+00  0.22932062851E+04  0.31242882966E+04  0.21218817814E+04 0.  0.
        1    1    3    3  502    0 -0.23045427392E+03  0.10354473320E+04  0.11196445460E+04  0.15423567224E+04  0.50400001928E-02 0. -1.
       -1    1    3    3    0  502  0.23045427392E+03 -0.10354473320E+04  0.11735617392E+04  0.15819315742E+04  0.50400001928E-02 0.  1.
</event>
<event>
 5   0  0.8237966E-05  0.1932941E+04  0.7818609E-02  0.8638631E-01
        1   -1    0    0  501    0  0.00000000000E+00  0.00000000000E+00  0.10855526780E+04  0.10855526781E+04  0.50400001928E-02 0. -1.
       -1   -1    0    0    0  501  0.00000000000E+00  0.00000000000E+00 -0.86045168701E+03  0.86045168703E+03  0.50400001928E-02 0.  1.
    10030    2    1    2    0    0  0.00000000000E+00  0.00000000000E+00  0.22510099103E+03  0.19460043651E+04  0.19329414199E+04 0.  0.
        1    1    3    3  502    0  0.40087306364E+03 -0.87233381962E+03  0.22465890395E+03  0.98597014618E+03  0.50400001928E-02 0. -1.
       -1    1    3    3    0  502 -0.40087306364E+03  0.87233381962E+03  0.44208708507E+00  0.96003421891E+03  0.50400001928E-02 0.  1.
</event>
<event>
 5   0  0.1921687E-04  0.2119441E+04  0.7818609E-02  0.8552727E-01
       -2   -1    0    0    0  501  0.00000000000E+00  0.00000000000E+00  0.92171773491E+03  0.92171773491E+03  0.25500000920E-02 0.  1.
        2   -1    0    0  501    0  0.00000000000E+00  0.00000000000E+00 -0.12183855397E+04  0.12183855397E+04  0.25500000920E-02 0. -1.
    10030    2    1    2    0    0  0.00000000000E+00  0.00000000000E+00 -0.29666780475E+03  0.21401032746E+04  0.21194410205E+04 0.  0.
        5    1    3    3  502    0  0.50166418274E+03 -0.38825740925E+03  0.70880834472E+03  0.95123190002E+03  0.46999998093E+01 0.  1.
       -5    1    3    3    0  502 -0.50166418274E+03  0.38825740925E+03 -0.10054761495E+04  0.11888713746E+04  0.46999998093E+01 0. -1.
</event>
<event>
 5   0  0.1810875E-04  0.2095687E+04  0.7818609E-02  0.8563146E-01
        2   -1    0    0  501    0  0.00000000000E+00  0.00000000000E+00  0.16345839760E+04  0.16345839760E+04  0.25500000920E-02 0. -1.
       -2   -1    0    0    0  501  0.00000000000E+00  0.00000000000E+00 -0.67171555267E+03  0.67171555268E+03  0.25500000920E-02 0.  1.
    10030    2    1    2    0    0  0.00000000000E+00  0.00000000000E+00  0.96286842335E+03  0.23062995287E+04  0.20956865022E+04 0.  0.
        1    1    3    3  502    0 -0.33815028137E+03  0.22190597502E+03  0.15452169239E+04  0.15972736824E+04  0.50400001928E-02 0. -1.
       -1    1    3    3    0  502  0.33815028137E+03 -0.22190597502E+03 -0.58234850058E+03  0.70902584628E+03  0.50400001928E-02 0.  1.
</event>
<event>
 5   0  0.1921687E-04  0.2080116E+04  0.7818609E-02  0.8570053E-01
        2   -1    0    0  501    0  0.00000000000E+00  0.00000000000E+00  0.12513274959E+04  0.12513274959E+04  0.25500000920E-02 0. -1.
       -2   -1    0    0    0  501  0.00000000000E+00  0.00000000000E+00 -0.86445832629E+03  0.86445832630E+03  0.25500000920E-02 0.  1.
    10030    2    1    2    0    0  0.00000000000E+00  0.00000000000E+00  0.38686916963E+03  0.21157858222E+04  0.20801158360E+04 0.  0.
        5    1    3    3  502    0  0.83276421182E+03  0.53669695182E+03 -0.12847073806E+03  0.99903286788E+03  0.46999998093E+01 0.  1.
       -5    1    3    3    0  502 -0.83276421182E+03 -0.53669695182E+03  0.51533990770E+03  0.11167529543E+04  0.46999998093E+01 0. -1.
</event>
<event>
 5   0  0.1921687E-04  0.2267961E+04  0.7818609E-02  0.8490662E-01
        2   -1    0    0  501    0  0.00000000000E+00  0.00000000000E+00  0.10627281307E+04  0.10627281307E+04  0.25500000920E-02 0. -1.
       -2   -1    0    0    0  501  0.00000000000E+00  0.00000000000E+00 -0.12100101821E+04  0.12100101821E+04  0.25500000920E-02 0.  1.
    10030    2    1    2    0    0  0.00000000000E+00  0.00000000000E+00 -0.14728205138E+03  0.22727383127E+04  0.22679610745E+04 0.  0.
        5    1    3    3  502    0  0.25771021079E+03 -0.45789582565E+02  0.10320318506E+04  0.10647173659E+04  0.46999998093E+01 0. -1.
       -5    1    3    3    0  502 -0.25771021079E+03  0.45789582565E+02 -0.11793139020E+04  0.12080209468E+04  0.46999998093E+01 0.  1.
</event>
<event>
 5   0  0.8271069E-05  0.2079055E+04  0.7818609E-02  0.8570526E-01
       -1   -1    0    0    0  501  0.00000000000E+00  0.00000000000E+00  0.51614890458E+03  0.51614890460E+03  0.50400001928E-02 0. -1.
        1   -1    0    0  501    0  0.00000000000E+00  0.00000000000E+00 -0.20936151522E+04  0.20936151522E+04  0.50400001928E-02 0.  1.
    10030    2    1    2    0    0  0.00000000000E+00  0.00000000000E+00 -0.15774662476E+04  0.26097640568E+04  0.20790547539E+04 0.  0.
        2    1    3    3  502    0  0.28543260236E+03  0.99786578401E+03 -0.71543948675E+03  0.12605798478E+04  0.25500000920E-02 0.  1.
       -2    1    3    3    0  502 -0.28543260236E+03 -0.99786578401E+03 -0.86202676083E+03  0.13491842090E+04  0.25500000920E-02 0. -1.
</event>
<event>
 5   0  0.1810875E-04  0.2100234E+04  0.7818609E-02  0.8561140E-01
       -2   -1    0    0    0  501  0.00000000000E+00  0.00000000000E+00  0.98759242609E+03  0.98759242609E+03  0.25500000920E-02 0. -1.
        2   -1    0    0  501    0  0.00000000000E+00  0.00000000000E+00 -0.11165998217E+04  0.11165998217E+04  0.25500000920E-02 0.  1.
    10030    2    1    2    0    0  0.00000000000E+00  0.00000000000E+00 -0.12900739559E+03  0.21041922478E+04  0.21002338221E+04 0.  0.
        1    1    3    3  502    0  0.94926072717E+03  0.17457767247E+03  0.35000574526E+03  0.10266826743E+04  0.50400001928E-02 0. -1.
       -1    1    3    3    0  502 -0.94926072717E+03 -0.17457767247E+03 -0.47901314085E+03  0.10775095735E+04  0.50400001928E-02 0.  1.
</event>
<event>
 5   0  0.8271069E-05  0.2134637E+04  0.7818609E-02  0.8546137E-01
       -1   -1    0    0    0  501  0.00000000000E+00  0.00000000000E+00  0.12587092185E+04  0.12587092185E+04  0.50400001928E-02 0.  1.
        1   -1    0    0  501    0  0.00000000000E+00  0.00000000000E+00 -0.90502974158E+03  0.90502974160E+03  0.50400001928E-02 0. -1.
    10030    2    1    2    0    0  0.00000000000E+00  0.00000000000E+00  0.35367947691E+03  0.21637389601E+04  0.21346374669E+04 0.  0.
        2    1    3    3  502    0 -0.24837244427E+03 -0.89706473067E+03  0.70621948019E+03  0.11684005975E+04  0.25500000920E-02 0.  1.
       -2    1    3    3    0  502  0.24837244427E+03  0.89706473067E+03 -0.35254000328E+03  0.99533836257E+03  0.25500000920E-02 0. -1.
</event>
<event>
 5   0  0.1777590E-04  0.2093261E+04  0.7818609E-02  0.8564218E-01
        2   -1    0    0  501    0  0.00000000000E+00  0.00000000000E+00  0.93821474561E+03  0.93821474561E+03  0.25500000920E-02 0. -1.
       -2   -1    0    0    0  501  0.00000000000E+00  0.00000000000E+00 -0.11675737385E+04  0.11675737385E+04  0.25500000920E-02 0.  1.
    10030    2    1    2    0    0  0.00000000000E+00  0.00000000000E+00 -0.22935899286E+03  0.21057884841E+04  0.20932605170E+04 0.  0.
        4    1    3    3  502    0 -0.17491229338E+03 -0.10316984655E+04 -0.93643802740E+02  0.10506030691E+04  0.12699999809E+01 0.  1.
       -4    1    3    3    0  502  0.17491229338E+03  0.10316984655E+04 -0.13571519012E+03  0.10551854149E+04  0.12699999809E+01 0. -1.
</event>
<event>
 5   0  0.8755004E-05  0.2107274E+04  0.7818609E-02  0.8558046E-01
        1   -1    0    0  501    0  0.00000000000E+00  0.00000000000E+00  0.21884655029E+04  0.21884655029E+04  0.50400001928E-02 0. -1.
       -1   -1    0    0    0  501  0.00000000000E+00  0.00000000000E+00 -0.50727351192E+03  0.50727351194E+03  0.50400001928E-02 0.  1.
    10030    2    1    2    0    0  0.00000000000E+00  0.00000000000E+00  0.16811919910E+04  0.26957390148E+04  0.21072736713E+04 0.  0.
        3    1    3    3  502    0  0.99861270649E+03 -0.32789411449E+03  0.93467715912E+03  0.14065430281E+04  0.10100000352E+00 0.  1.
       -3    1    3    3    0  502 -0.99861270649E+03  0.32789411449E+03  0.74651483185E+03  0.12891959867E+04  0.10100000352E+00 0. -1.
</event>
<event>
 5   0  0.1815400E-04  0.1506716E+04  0.7818609E-02  0.8879999E-01
        2   -1    0    0  501    0  0.00000000000E+00  0.00000000000E+00  0.13443420227E+04  0.13443420227E+04  0.25500000920E-02 0.  1.
       -2   -1    0    0    0  501  0.00000000000E+00  0.00000000000E+00 -0.42217555658E+03  0.42217555659E+03  0.25500000920E-02 0. -1.
    10030    2    1    2    0    0  0.00000000000E+00  0.00000000000E+00  0.92216646611E+03  0.17665175793E+04  0.15067160869E+04 0.  0.
        3    1    3    3  502    0  0.18484893562E+03 -0.72389374744E+03  0.34767204633E+03  0.82405530675E+03  0.10100000352E+00 0. -1.
       -3    1    3    3    0  502 -0.18484893562E+03  0.72389374744E+03  0.57449441978E+03  0.94246227253E+03  0.10100000352E+00 0.  1.
</event>
<event>
 5   0  0.8525278E-05  0.2158613E+04  0.7818609E-02  0.8535855E-01
        1   -1    0    0  501    0  0.00000000000E+00  0.00000000000E+00  0.80905032054E+03  0.80905032055E+03  0.50400001928E-02 0.  1.
       -1   -1    0    0    0  501  0.00000000000E+00  0.00000000000E+00 -0.14398391019E+04  0.14398391019E+04  0.50400001928E-02 0. -1.
    10030    2    1    2    0    0  0.00000000000E+00  0.00000000000E+00 -0.63078878135E+03  0.22488894224E+04  0.21586127832E+04 0.  0.
        4    1    3    3  502    0  0.34798618206E+03  0.34102482354E+03 -0.13187439719E+04  0.14058732480E+04  0.12699999809E+01 0. -1.
       -4    1    3    3    0  502 -0.34798618206E+03 -0.34102482354E+03  0.68795519057E+03  0.84301617441E+03  0.12699999809E+01 0.  1.
</event>
<event>
 5   0  0.1810875E-04  0.2063292E+04  0.7818609E-02  0.8577588E-01
        2   -1    0    0  501    0  0.00000000000E+00  0.00000000000E+00  0.20412936953E+04  0.20412936953E+04  0.25500000920E-02 0.  1.
       -2   -1    0    0    0  501  0.00000000000E+00  0.00000000000E+00 -0.52138200379E+03  0.52138200380E+03  0.25500000920E-02 0. -1.
    10030    2    1    2    0    0  0.00000000000E+00  0.00000000000E+00  0.15199116915E+04  0.25626756991E+04  0.20632923178E+04 0.  0.
        1    1    3    3  502    0  0.91611401789E+03 -0.23430349203E+03  0.24765587365E+03  0.97749498819E+03  0.50400001928E-02 0. -1.
       -1    1    3    3    0  502 -0.91611401789E+03  0.23430349203E+03  0.12722558178E+04  0.15851807109E+04  0.50400001928E-02 0.  1.
</event>
<event>
 5   0  0.8486612E-05  0.2114383E+04  0.7818609E-02  0.8554934E-01
        1   -1    0    0  501    0  0.00000000000E+00  0.00000000000E+00  0.10555610609E+04  0.10555610609E+04  0.50400001928E-02 0. -1.
       -1   -1    0    0    0  501  0.00000000000E+00  0.00000000000E+00 -0.10588247702E+04  0.10588247702E+04  0.50400001928E-02 0.  1.
    10030    2    1    2    0    0  0.00000000000E+00  0.00000000000E+00 -0.32637093275E+01  0.21143858311E+04  0.21143833123E+04 0.  0.
        5    1    3    3  502    0  0.34526495351E+03 -0.36909587435E+03  0.92691244126E+03  0.10557596395E+04  0.46999998093E+01 0. -1.
       -5    1    3    3    0  502 -0.34526495351E+03  0.36909587435E+03 -0.93017615058E+03  0.10586261917E+04  0.46999998093E+01 0.  1.
</event>
<event>
 5   0  0.8525278E-05  0.2073654E+04  0.7818609E-02  0.8572939E-01
        1   -1    0    0  501    0  0.00000000000E+00  0.00000000000E+00  0.94633432787E+03  0.94633432788E+03  0.50400001928E-02 0.  1.
       -1   -1    0    0    0  501  0.00000000000E+00  0.00000000000E+00 -0.11359729630E+04  0.11359729630E+04  0.50400001928E-02 0. -1.
    10030    2    1    2    0    0  0.00000000000E+00  0.00000000000E+00 -0.18963863513E+03  0.20823072909E+04  0.20736539831E+04 0.  0.
        4    1    3    3  502    0  0.76379174896E+03  0.66799791146E+03 -0.30880372987E+03  0.10606415049E+04  0.12699999809E+01 0. -1.
       -4    1    3    3    0  502 -0.76379174896E+03 -0.66799791146E+03  0.11916509474E+03  0.10216657860E+04  0.12699999809E+01 0.  1.
</event>
<event>
 5   0  0.1815400E-04  0.2115981E+04  0.7818609E-02  0.8554236E-01
       -2   -1    0    0    0  501  0.00000000000E+00  0.00000000000E+00  0.92296025608E+03  0.92296025609E+03  0.25500000920E-02 0. -1.
        2   -1    0    0  501    0  0.00000000000E+00  0.00000000000E+00 -0.12127752752E+04  0.12127752752E+04  0.25500000920E-02 0.  1.
    10030    2    1    2    0    0  0.00000000000E+00  0.00000000000E+00 -0.28981501910E+03  0.21357355313E+04  0.21159805089E+04 0.  0.
        3    1    3    3  502    0  0.10089704127E+04 -0.31740627577E+03 -0.12069751856E+03  0.10645825185E+04  0.10100000352E+00 0. -1.
       -3    1    3    3    0  502 -0.10089704127E+04  0.31740627577E+03 -0.16911750055E+03  0.10711530128E+04  0.10100000352E+00 0.  1.
</event>
<event>
 5   0  0.8486612E-05  0.2087690E+04  0.7818609E-02  0.8566686E-01
        1   -1    0    0  501    0  0.00000000000E+00  0.00000000000E+00  0.10607178708E+04  0.10607178708E+04  0.50400001928E-02 0.  1.
       -1   -1    0    0    0  501  0.00000000000E+00  0.00000000000E+00 -0.10272403650E+04  0.10272403650E+04  0.50400001928E-02 0. -1.
    10030    2    1    2    0    0  0.00000000000E+00  0.00000000000E+00  0.33477505766E+02  0.20879582358E+04  0.20876898359E+04 0.  0.
        5    1    3    3  502    0 -0.18502944932E+03  0.50657515455E+03 -0.87709637035E+03  0.10296477151E+04  0.46999998093E+01 0. -1.
       -5    1    3    3    0  502  0.18502944932E+03 -0.50657515455E+03  0.91057387612E+03  0.10583105207E+04  0.46999998093E+01 0.  1.
</event>
<event>
 5   0  0.8755004E-05  0.2130942E+04  0.7818609E-02  0.8547735E-01
        1   -1    0    0  501    0  0.00000000000E+00  0.00000000000E+00  0.88454967741E+03  0.88454967742E+03  0.50400001928E-02 0.  1.
       -1   -1    0    0    0  501  0.00000000000E+00  0.00000000000E+00 -0.12833964950E+04  0.12833964950E+04  0.50400001928E-02 0. -1.
    10030    2    1    2    0    0  0.00000000000E+00  0.00000000000E+00 -0.39884681760E+03  0.21679461724E+04  0.21309415343E+04 0.  0.
        3    1    3    3  502    0  0.36441517984E+03  0.97005103341E+03  0.52732435205E+02  0.10375828404E+04  0.10100000352E+00 0. -1.
       -3    1    3    3    0  502 -0.36441517984E+03 -0.97005103341E+03 -0.45157925280E+03  0.11303633321E+04  0.10100000352E+00 0.  1.
</event>
<event>
 5   0  0.8271069E-05  0.2080345E+04  0.7818609E-02  0.8569951E-01
        1   -1    0    0  501    0  0.00000000000E+00  0.00000000000E+00  0.16303834548E+04  0.16303834549E+04  0.50400001928E-02 0. -1.
       -1   -1    0    0    0  501  0.00000000000E+00  0.00000000000E+00 -0.66362221529E+03  0.66362221530E+03  0.50400001928E-02 0.  1.
    10030    2    1    2    0    0  0.00000000000E+00  0.00000000000E+00  0.96676123956E+03  0.22940056702E+04  0.20803448561E+04 0.  0.
        2    1    3    3  502    0  0.77854784355E+03 -0.60096764465E+03  0.10998880636E+03  0.98964457870E+03  0.25500000920E-02 0.  1.
       -2    1    3    3    0  502 -0.77854784355E+03  0.60096764465E+03  0.85677243320E+03  0.13043610915E+04  0.25500000920E-02 0. -1.
</event>
<event>
 5   0  0.1886323E-04  0.2095086E+04  0.7818609E-02  0.8563411E-01
        2   -1    0    0  501    0  0.00000000000E+00  0.00000000000E+00  0.68546289790E+03  0.68546289790E+03  0.25500000920E-02 0.  1.
       -2   -1    0    0    0  501  0.00000000000E+00  0.00000000000E+00 -0.16008840429E+04  0.16008840429E+04  0.25500000920E-02 0. -1.
    10030    2    1    2    0    0  0.00000000000E+00  0.00000000000E+00 -0.91542114504E+03  0.22863469408E+04  0.20950862658E+04 0.  0.
        2    1    3    3  502    0  0.40622634688E+03 -0.22809151818E+03 -0.14816065291E+04  0.15531270047E+04  0.25500000920E-02 0. -1.
       -2    1    3    3    0  502 -0.40622634688E+03  0.22809151818E+03  0.56618538410E+03  0.73321993613E+03  0.25500000920E-02 0.  1.
</event>
<event>
 5   0  0.8525278E-05  0.2072732E+04  0.7818609E-02  0.8573351E-01
        1   -1    0    0  501    0  0.00000000000E+00  0.00000000000E+00  0.15058982832E+04  0.15058982832E+04  0.50400001928E-02 0.  1.
       -1   -1    0    0    0  501  0.00000000000E+00  0.00000000000E+00 -0.71323188100E+03  0.71323188102E+03  0.50400001928E-02 0. -1.
    10030    2    1    2    0    0  0.00000000000E+00  0.00000000000E+00  0.79266640223E+03  0.22191301643E+04  0.20727321729E+04 0.  0.
        4    1    3    3  502    0 -0.27624588593E+03 -0.49399711312E+03 -0.53314922693E+03  0.77755684573E+03  0.12699999809E+01 0. -1.
       -4    1    3    3    0  502  0.27624588593E+03  0.49399711312E+03  0.13258156292E+04  0.14415733185E+04  0.12699999809E+01 0.  1.
</event>
<event>
 5   0  0.8271069E-05  0.2131825E+04  0.7818609E-02  0.8547352E-01
       -1   -1    0    0    0  501  0.00000000000E+00  0.00000000000E+00  0.53851443825E+03  0.53851443828E+03  0.50400001928E-02 0. -1.
        1   -1    0    0  501    0  0.00000000000E+00  0.00000000000E+00 -0.21098212272E+04  0.21098212272E+04  0.50400001928E-02 0.  1.
    10030    2    1    2    0    0  0.00000000000E+00  0.00000000000E+00 -0.15713067889E+04  0.26483356654E+04  0.21318247517E+04 0.  0.
        2    1    3    3  502    0  0.48071583903E+03  0.35305037704E+02  0.39539070298E+03  0.62343241141E+03  0.25500000920E-02 0. -1.
       -2    1    3    3    0  502 -0.48071583903E+03 -0.35305037704E+02 -0.19666974919E+04  0.20249032540E+04  0.25500000920E-02 0.  1.
</event>
<event>
 5   0  0.8755004E-05  0.2046524E+04  0.7818609E-02  0.8585173E-01
       -1   -1    0    0    0  501  0.00000000000E+00  0.00000000000E+00  0.55051009354E+03  0.55051009356E+03  0.50400001928E-02 0.  1.
        1   -1    0    0  501    0  0.00000000000E+00  0.00000000000E+00 -0.19019904886E+04  0.19019904886E+04  0.50400001928E-02 0. -1.
    10030    2    1    2    0    0  0.00000000000E+00  0.00000000000E+00 -0.13514803951E+04  0.24525005822E+04  0.20465238448E+04 0.  0.
        3    1    3    3  502    0 -0.34681943199E+03 -0.67944415965E+03  0.14156204722E+03  0.77586590845E+03  0.10100000352E+00 0.  1.
       -3    1    3    3    0  502  0.34681943199E+03  0.67944415965E+03 -0.14930424423E+04  0.16766346738E+04  0.10100000352E+00 0. -1.
</event>
<event>
 5   0  0.1810875E-04  0.2111541E+04  0.7818609E-02  0.8556176E-01
        2   -1    0    0  501    0  0.00000000000E+00  0.00000000000E+00  0.16099756783E+04  0.16099756783E+04  0.25500000920E-02 0.  1.
       -2   -1    0    0    0  501  0.00000000000E+00  0.00000000000E+00 -0.69234046355E+03  0.69234046355E+03  0.25500000920E-02 0. -1.
    10030    2    1    2    0    0  0.00000000000E+00  0.00000000000E+00  0.91763521480E+03  0.23023161419E+04  0.21115409610E+04 0.  0.
        1    1    3    3  502    0  0.50490593049E+03  0.62558581761E+02 -0.54986272056E+03  0.74912788380E+03  0.50400001928E-02 0. -1.
       -1    1    3    3    0  502 -0.50490593049E+03 -0.62558581761E+02  0.14674979354E+04  0.15531882581E+04  0.50400001928E-02 0.  1.
</event>
<event>
 5   0  0.1777590E-04  0.2106602E+04  0.7818609E-02  0.8558341E-01
       -2   -1    0    0    0  501  0.00000000000E+00  0.00000000000E+00  0.12289010466E+04  0.12289010466E+04  0.25500000920E-02 0. -1.
        2   -1    0    0  501    0  0.00000000000E+00  0.00000000000E+00 -0.90279265632E+03  0.90279265632E+03  0.25500000920E-02 0.  1.
    10030    2    1    2    0    0  0.00000000000E+00  0.00000000000E+00  0.32610839027E+03  0.21316937029E+04  0.21066018515E+04 0.  0.
        4    1    3    3  502    0  0.21273745454E+03 -0.29922642987E+03 -0.83594729871E+03  0.91301871832E+03  0.12699999809E+01 0.  1.
       -4    1    3    3    0  502 -0.21273745454E+03  0.29922642987E+03  0.11620556890E+04  0.12186749846E+04  0.12699999809E+01 0. -1.
</event>
<event>
 5   0  0.8237966E-05  0.2144177E+04  0.7818609E-02  0.8542029E-01
        1   -1    0    0  501    0  0.00000000000E+00  0.00000000000E+00  0.21760427095E+04  0.21760427095E+04  0.50400001928E-02 0. -1.
       -1   -1    0    0    0  501  0.00000000000E+00  0.00000000000E+00 -0.52819447620E+03  0.52819447622E+03  0.50400001928E-02 0.  1.
    10030    2    1    2    0    0  0.00000000000E+00  0.00000000000E+00  0.16478482333E+04  0.27042371857E+04  0.21441769882E+04 0.  0.
        1    1    3    3  502    0 -0.97202839243E+02 -0.69935995100E+03  0.18413784614E+04  0.19721124134E+04  0.50400001928E-02 0. -1.
       -1    1    3    3    0  502  0.97202839243E+02  0.69935995100E+03 -0.19353022809E+03  0.73212477231E+03  0.50400001928E-02 0.  1.
</event>
<event>
 5   0  0.1810875E-04  0.2116462E+04  0.7818609E-02  0.8554026E-01
       -2   -1    0    0    0  501  0.00000000000E+00  0.00000000000E+00  0.41523058449E+03  0.41523058450E+03  0.25500000920E-02 0. -1.
        2   -1    0    0  501    0  0.00000000000E+00  0.00000000000E+00 -0.26969424029E+04  0.26969424029E+04  0.25500000920E-02 0.  1.
    10030    2    1    2    0    0  0.00000000000E+00  0.00000000000E+00 -0.22817118184E+04  0.31121729874E+04  0.21164621143E+04 0.  0.
        1    1    3    3  502    0 -0.27257950077E+03 -0.45904407848E+03 -0.24844025676E+04  0.25411173070E+04  0.50400001928E-02 0.  1.
       -1    1    3    3    0  502  0.27257950077E+03  0.45904407848E+03  0.20269074920E+03  0.57105568035E+03  0.50400001928E-02 0. -1.
</event>
<event>
 5   0  0.1777590E-04  0.2084054E+04  0.7818609E-02  0.8568300E-01
        2   -1    0    0  501    0  0.00000000000E+00  0.00000000000E+00  0.16412282693E+04  0.16412282693E+04  0.25500000920E-02 0.  1.
       -2   -1    0    0    0  501  0.00000000000E+00  0.00000000000E+00 -0.66158996656E+03  0.66158996656E+03  0.25500000920E-02 0. -1.
    10030    2    1    2    0    0  0.00000000000E+00  0.00000000000E+00  0.97963830278E+03  0.23028182359E+04  0.20840538917E+04 0.  0.
        4    1    3    3  502    0 -0.50978792970E+03  0.25875262190E+02 -0.51398156649E+03  0.72438382509E+03  0.12699999809E+01 0. -1.
       -4    1    3    3    0  502  0.50978792970E+03 -0.25875262190E+02  0.14936198693E+04  0.15784344108E+04  0.12699999809E+01 0.  1.
</event>
<event>
 5   0  0.1921687E-04  0.2381042E+04  0.7818609E-02  0.8446635E-01
        2   -1    0    0  501    0  0.00000000000E+00  0.00000000000E+00  0.11188153075E+04  0.11188153075E+04  0.25500000920E-02 0. -1.
       -2   -1    0    0    0  501  0.00000000000E+00  0.00000000000E+00 -0.12668221789E+04  0.12668221789E+04  0.25500000920E-02 0.  1.
    10030    2    1    2    0    0  0.00000000000E+00  0.00000000000E+00 -0.14800687142E+03  0.23856374865E+04  0.23810418272E+04 0.  0.
        5    1    3    3  502    0 -0.40674659555E+03 -0.86945146768E+03  0.63157827198E+03  0.11490438857E+04  0.46999998093E+01 0.  1.
       -5    1    3    3    0  502  0.40674659555E+03  0.86945146768E+03 -0.77958514341E+03  0.12365936008E+04  0.46999998093E+01 0. -1.
</event>
<event>
 5   0  0.1810875E-04  0.2174009E+04  0.7818609E-02  0.8529325E-01
       -2   -1    0    0    0  501  0.00000000000E+00  0.00000000000E+00  0.48354989943E+03  0.48354989944E+03  0.25500000920E-02 0. -1.
        2   -1    0    0  501    0  0.00000000000E+00  0.00000000000E+00 -0.24435506060E+04  0.24435506060E+04  0.25500000920E-02 0.  1.
    10030    2    1    2    0    0  0.00000000000E+00  0.00000000000E+00 -0.19600007066E+04  0.29271005055E+04  0.21740088775E+04 0.  0.
        1    1    3    3  502    0  0.43556573419E+03 -0.24032659060E+03  0.32128937108E+03  0.59220033683E+03  0.50400001928E-02 0. -1.
       -1    1    3    3    0  502 -0.43556573419E+03  0.24032659060E+03 -0.22812900777E+04  0.23349001686E+04  0.50400001928E-02 0.  1.
</event>
<event>
 5   0  0.1921687E-04  0.2102802E+04  0.7818609E-02  0.8560010E-01
       -2   -1    0    0    0  501  0.00000000000E+00  0.00000000000E+00  0.68880734656E+03  0.68880734656E+03  0.25500000920E-02 0.  1.
        2   -1    0    0  501    0  0.00000000000E+00  0.00000000000E+00 -0.16048668206E+04  0.16048668206E+04  0.25500000920E-02 0. -1.
    10030    2    1    2    0    0  0.00000000000E+00  0.00000000000E+00 -0.91605947400E+03  0.22936741671E+04  0.21028019938E+04 0.  0.
        5    1    3    3  502    0 -0.87796804341E+03  0.56133426120E+03 -0.61033944189E+03  0.12076673227E+04  0.46999998093E+01 0. -1.
       -5    1    3    3    0  502  0.87796804341E+03 -0.56133426120E+03 -0.30572003210E+03  0.10860068444E+04  0.46999998093E+01 0.  1.
</event>
<event>
 5   0  0.1810875E-04  0.2092282E+04  0.7818609E-02  0.8564651E-01
        2   -1    0    0  501    0  0.00000000000E+00  0.00000000000E+00  0.69194729563E+03  0.69194729563E+03  0.25500000920E-02 0. -1.
       -2   -1    0    0    0  501  0.00000000000E+00  0.00000000000E+00 -0.15816392438E+04  0.15816392438E+04  0.25500000920E-02 0.  1.
    10030    2    1    2    0    0  0.00000000000E+00  0.00000000000E+00 -0.88969194815E+03  0.22735865394E+04  0.20922820053E+04 0.  0.
        1    1    3    3  502    0 -0.80088892844E+03 -0.67187334075E+03 -0.48795938137E+03  0.11536642577E+04  0.50400001928E-02 0.  1.
       -1    1    3    3    0  502  0.80088892844E+03  0.67187334075E+03 -0.40173256678E+03  0.11199222817E+04  0.50400001928E-02 0. -1.
</event>
<event>
 5   0  0.8525278E-05  0.2015539E+04  0.7818609E-02  0.8599390E-01
        1   -1    0    0  501    0  0.00000000000E+00  0.00000000000E+00  0.75549685249E+03  0.75549685251E+03  0.50400001928E-02 0.  1.
       -1   -1    0    0    0  501  0.00000000000E+00  0.00000000000E+00 -0.13442806993E+04  0.13442806993E+04  0.50400001928E-02 0. -1.
    10030    2    1    2    0    0  0.00000000000E+00  0.00000000000E+00 -0.58878384676E+03  0.20997775518E+04  0.20155394684E+04 0.  0.
        4    1    3    3  502    0 -0.51796154866E+03 -0.69945559769E+03 -0.82363566123E+03  0.11982902880E+04  0.12699999809E+01 0. -1.
       -4    1    3    3    0  502  0.51796154866E+03  0.69945559769E+03  0.23485181447E+03  0.90148726374E+03  0.12699999809E+01 0.  1.
</event>
<event>
 5   0  0.8755004E-05  0.2097903E+04  0.7818609E-02  0.8562168E-01
       -1   -1    0    0    0  501  0.00000000000E+00  0.00000000000E+00  0.10236822811E+04  0.10236822811E+04  0.50400001928E-02 0.  1.
        1   -1    0    0  501    0  0.00000000000E+00  0.00000000000E+00 -0.10748439805E+04  0.10748439806E+04  0.50400001928E-02 0. -1.
    10030    2    1    2    0    0  0.00000000000E+00  0.00000000000E+00 -0.51161699430E+02  0.20985262617E+04  0.20979025124E+04 0.  0.
        3    1    3    3  502    0 -0.62563225382E+03  0.25657453766E+03  0.77656312702E+03  0.10297070024E+04  0.10100000352E+00 0.  1.
       -3    1    3    3    0  502  0.62563225382E+03 -0.25657453766E+03 -0.82772482645E+03  0.10688192592E+04  0.10100000352E+00 0. -1.
</event>
<event>
 5   0  0.1810875E-04  0.2095086E+04  0.7818609E-02  0.8563411E-01
        2   -1    0    0  501    0  0.00000000000E+00  0.00000000000E+00  0.10330616333E+04  0.10330616333E+04  0.25500000920E-02 0. -1.
       -2   -1    0    0    0  501  0.00000000000E+00  0.00000000000E+00 -0.10622276128E+04  0.10622276128E+04  0.25500000920E-02 0.  1.
    10030    2    1    2    0    0  0.00000000000E+00  0.00000000000E+00 -0.29165979446E+02  0.20952892461E+04  0.20950862441E+04 0.  0.
        1    1    3    3  502    0  0.75779118841E+03 -0.17048892924E+03 -0.71752564376E+03  0.10574294349E+04  0.50400001928E-02 0.  1.
       -1    1    3    3    0  502 -0.75779118841E+03  0.17048892924E+03  0.68835966432E+03  0.10378598112E+04  0.50400001928E-02 0. -1.
</event>
<event>
 5   0  0.8271069E-05  0.2118796E+04  0.7818609E-02  0.8553009E-01
       -1   -1    0    0    0  501  0.00000000000E+00  0.00000000000E+00  0.92061767478E+03  0.92061767479E+03  0.50400001928E-02 0. -1.
        1   -1    0    0  501    0  0.00000000000E+00  0.00000000000E+00 -0.12190989660E+04  0.12190989660E+04  0.50400001928E-02 0.  1.
    10030    2    1    2    0    0  0.00000000000E+00  0.00000000000E+00 -0.29848129123E+03  0.21397166408E+04  0.21187959368E+04 0.  0.
        2    1    3    3  502    0 -0.50502483724E+03 -0.92045920530E+03 -0.63200488909E+01  0.10499215103E+04  0.25500000920E-02 0. -1.
       -2    1    3    3    0  502  0.50502483724E+03  0.92045920530E+03 -0.29216124234E+03  0.10897951305E+04  0.25500000920E-02 0.  1.
</event>
<event>
 5   0  0.1886323E-04  0.2062453E+04  0.7818609E-02  0.8577966E-01
        2   -1    0    0  501    0  0.00000000000E+00  0.00000000000E+00  0.23026970060E+04  0.23026970060E+04  0.25500000920E-02 0.  1.
       -2   -1    0    0    0  501  0.00000000000E+00  0.00000000000E+00 -0.46181860384E+03  0.46181860384E+03  0.25500000920E-02 0. -1.
    10030    2    1    2    0    0  0.00000000000E+00  0.00000000000E+00  0.18408784021E+04  0.27645156098E+04  0.20624532153E+04 0.  0.
        2    1    3    3  502    0 -0.79099039853E+03 -0.49991310891E+03  0.15013906437E+04  0.17691107348E+04  0.25500000920E-02 0.  1.
       -2    1    3    3    0  502  0.79099039853E+03  0.49991310891E+03  0.33948775843E+03  0.99540487500E+03  0.25500000920E-02 0. -1.
</event>
<event>
 5   0  0.8525278E-05  0.1934103E+04  0.7818609E-02  0.8638065E-01
       -1   -1    0    0    0  501  0.00000000000E+00  0.00000000000E+00  0.91446741594E+03  0.91446741596E+03  0.50400001928E-02 0.  1.
        1   -1    0    0  501    0  0.00000000000E+00  0.00000000000E+00 -0.10226589682E+04  0.10226589682E+04  0.50400001928E-02 0. -1.
    10030    2    1    2    0    0  0.00000000000E+00  0.00000000000E+00 -0.10819155228E+03  0.19371263842E+04  0.19341026902E+04 0.  0.
        4    1    3    3  502    0 -0.57087242475E+03  0.65059755769E+03  0.37787210664E+03  0.94443710711E+03  0.12699999809E+01 0.  1.
       -4    1    3    3    0  502  0.57087242475E+03 -0.65059755769E+03 -0.48606365892E+03  0.99268927708E+03  0.12699999809E+01 0. -1.
</event>
<event>
 5   0  0.1921687E-04  0.2223220E+04  0.7818609E-02  0.8508825E-01
       -2   -1    0    0    0  501  0.00000000000E+00  0.00000000000E+00  0.11134777197E+04  0.11134777197E+04  0.25500000920E-02 0. -1.
        2   -1    0    0  501    0  0.00000000000E+00  0.00000000000E+00 -0.11097454808E+04  0.11097454808E+04  0.25500000920E-02 0.  1.
    10030    2    1    2    0    0  0.00000000000E+00  0.00000000000E+00  0.37322388767E+01  0.22232232005E+04  0.22232200678E+04 0.  0.
        5    1    3    3  502    0 -0.12108040045E+03  0.30517955547E+03  0.10638750326E+04  0.11133944491E+04  0.46999998093E+01 0. -1.
       -5    1    3    3    0  502  0.12108040045E+03 -0.30517955547E+03 -0.10601427937E+04  0.11098287514E+04  0.46999998093E+01 0.  1.
</event>
<event>
 5   0  0.8237966E-05  0.1572336E+04  0.7818609E-02  0.8837726E-01
       -1   -1    0    0    0  501  0.00000000000E+00  0.00000000000E+00  0.50534138569E+03  0.50534138572E+03  0.50400001928E-02 0. -1.
        1   -1    0    0  501    0  0.00000000000E+00  0.00000000000E+00 -0.12230539675E+04  0.12230539675E+04  0.50400001928E-02 0.  1.
    10030    2    1    2    0    0  0.00000000000E+00  0.00000000000E+00 -0.71771258180E+03  0.17283953532E+04  0.15723355707E+04 0.  0.
        1    1    3    3  502    0 -0.36917556449E+03  0.21656044397E+03 -0.10837560508E+04  0.11652107968E+04  0.50400001928E-02 0.  1.
       -1    1    3    3    0  502  0.36917556449E+03 -0.21656044397E+03  0.36604346903E+03  0.56318455639E+03  0.50400001928E-02 0. -1.
</event>
<event>
 5   0  0.1810875E-04  0.2042351E+04  0.7818609E-02  0.8587072E-01
        2   -1    0    0  501    0  0.00000000000E+00  0.00000000000E+00  0.11071385279E+04  0.11071385279E+04  0.25500000920E-02 0.  1.
       -2   -1    0    0    0  501  0.00000000000E+00  0.00000000000E+00 -0.94188679691E+03  0.94188679692E+03  0.25500000920E-02 0. -1.
    10030    2    1    2    0    0  0.00000000000E+00  0.00000000000E+00  0.16525173101E+03  0.20490253248E+04  0.20423507650E+04 0.  0.
        1    1    3    3  502    0  0.98954129749E+03  0.23497245263E+03 -0.92985076258E+01  0.10170990587E+04  0.50400001928E-02 0. -1.
       -1    1    3    3    0  502 -0.98954129749E+03 -0.23497245263E+03  0.17455023863E+03  0.10319262661E+04  0.50400001928E-02 0.  1.
</event>
<event>
 5   0  0.8271069E-05  0.2096748E+04  0.7818609E-02  0.8562677E-01
        1   -1    0    0  501    0  0.00000000000E+00  0.00000000000E+00  0.11599129712E+04  0.11599129712E+04  0.50400001928E-02 0.  1.
       -1   -1    0    0    0  501  0.00000000000E+00  0.00000000000E+00 -0.94756077367E+03  0.94756077369E+03  0.50400001928E-02 0. -1.
    10030    2    1    2    0    0  0.00000000000E+00  0.00000000000E+00  0.21235219749E+03  0.21074737449E+04  0.20967479890E+04 0.  0.
        2    1    3    3  502    0  0.40227835402E+03 -0.91512004868E+03  0.42372808428E+03  0.10857338841E+04  0.25500000920E-02 0.  1.
       -2    1    3    3    0  502 -0.40227835402E+03  0.91512004868E+03 -0.21137588679E+03  0.10217398608E+04  0.25500000920E-02 0. -1.
</event>
<event>
 5   0  0.8271069E-05  0.2078861E+04  0.7818609E-02  0.8570613E-01
        1   -1    0    0  501    0  0.00000000000E+00  0.00000000000E+00  0.84406967876E+03  0.84406967878E+03  0.50400001928E-02 0. -1.
       -1   -1    0    0    0  501  0.00000000000E+00  0.00000000000E+00 -0.12800080101E+04  0.12800080101E+04  0.50400001928E-02 0.  1.
    10030    2    1    2    0    0  0.00000000000E+00  0.00000000000E+00 -0.43593833130E+03  0.21240776888E+04  0.20788611785E+04 0.  0.
        2    1    3    3  502    0  0.28170202743E+03  0.57917930994E+02  0.80260853801E+03  0.85257901937E+03  0.25500000920E-02 0. -1.
       -2    1    3    3    0  502 -0.28170202743E+03 -0.57917930994E+02 -0.12385468693E+04  0.12714986695E+04  0.25500000920E-02 0.  1.
</event>
<event>
 5   0  0.8486612E-05  0.1597186E+04  0.7818609E-02  0.8822279E-01
       -1   -1    0    0    0  501  0.00000000000E+00  0.00000000000E+00  0.47460053235E+03  0.47460053237E+03  0.50400001928E-02 0.  1.
        1   -1    0    0  501    0  0.00000000000E+00  0.00000000000E+00 -0.13437635744E+04  0.13437635744E+04  0.50400001928E-02 0. -1.
    10030    2    1    2    0    0  0.00000000000E+00  0.00000000000E+00 -0.86916304205E+03  0.18183641068E+04  0.15971861605E+04 0.  0.
        5    1    3    3  502    0 -0.53164179999E+03 -0.20989715181E+03  0.20034834164E+03  0.60569081703E+03  0.46999998093E+01 0.  1.
       -5    1    3    3    0  502  0.53164179999E+03  0.20989715181E+03 -0.10695113837E+04  0.12126732898E+04  0.46999998093E+01 0. -1.
</event>
<event>
 5   0  0.8486612E-05  0.2132688E+04  0.7818609E-02  0.8546979E-01
        1   -1    0    0  501    0  0.00000000000E+00  0.00000000000E+00  0.16919937753E+04  0.16919937753E+04  0.50400001928E-02 0. -1.
       -1   -1    0    0    0  501  0.00000000000E+00  0.00000000000E+00 -0.67204134174E+03  0.67204134176E+03  0.50400001928E-02 0.  1.
    10030    2    1    2    0    0  0.00000000000E+00  0.00000000000E+00  0.10199524335E+04  0.23640351170E+04  0.21326882257E+04 0.  0.
        5    1    3    3  502    0 -0.72935105029E+03 -0.65607726231E+03  0.97325759886E+03  0.13818982497E+04  0.46999998093E+01 0. -1.
       -5    1    3    3    0  502  0.72935105029E+03  0.65607726231E+03  0.46694834658E+02  0.98213686737E+03  0.46999998093E+01 0.  1.
</event>
<event>
 5   0  0.8525278E-05  0.2072258E+04  0.7818609E-02  0.8573563E-01
       -1   -1    0    0    0  501  0.00000000000E+00  0.00000000000E+00  0.55644010065E+03  0.55644010067E+03  0.50400001928E-02 0. -1.
        1   -1    0    0  501    0  0.00000000000E+00  0.00000000000E+00 -0.19293415333E+04  0.19293415333E+04  0.50400001928E-02 0.  1.
    10030    2    1    2    0    0  0.00000000000E+00  0.00000000000E+00 -0.13729014327E+04  0.24857816340E+04  0.20722577031E+04 0.  0.
        4    1    3    3  502    0 -0.70592340897E+03  0.72105816467E+03 -0.96855893152E+03  0.13986996650E+04  0.12699999809E+01 0.  1.
       -4    1    3    3    0  502  0.70592340897E+03 -0.72105816467E+03 -0.40434250116E+03  0.10870819690E+04  0.12699999809E+01 0. -1.
</event>
<event>
 5   0  0.1777590E-04  0.2103711E+04  0.7818609E-02  0.8559610E-01
       -2   -1    0    0    0  501  0.00000000000E+00  0.00000000000E+00  0.11858084374E+04  0.11858084374E+04  0.25500000920E-02 0.  1.
        2   -1    0    0  501    0  0.00000000000E+00  0.00000000000E+00 -0.93303428614E+03  0.93303428615E+03  0.25500000920E-02 0. -1.
    10030    2    1    2    0    0  0.00000000000E+00  0.00000000000E+00  0.25277415128E+03  0.21188427236E+04  0.21037109392E+04 0.  0.
        4    1    3    3  502    0 -0.72700645376E+03 -0.74088429293E+03  0.29775909554E+03  0.10798657376E+04  0.12699999809E+01 0. -1.
       -4    1    3    3    0  502  0.72700645376E+03  0.74088429293E+03 -0.44984944261E+02  0.10389769860E+04  0.12699999809E+01 0.  1.
</event>
<event>
 5   0  0.1810875E-04  0.1551109E+04  0.7818609E-02  0.8851159E-01
        2   -1    0    0  501    0  0.00000000000E+00  0.00000000000E+00  0.10723182504E+04  0.10723182504E+04  0.25500000920E-02 0.  1.
       -2   -1    0    0    0  501  0.00000000000E+00  0.00000000000E+00 -0.56092025932E+03  0.56092025932E+03  0.25500000920E-02 0. -1.
    10030    2    1    2    0    0  0.00000000000E+00  0.00000000000E+00  0.51139799110E+03  0.16332385097E+04  0.15511093206E+04 0.  0.
        1    1    3    3  502    0  0.54129100365E+03 -0.32947253029E+03 -0.21511971769E+03  0.66919697534E+03  0.50400001928E-02 0. -1.
       -1    1    3    3    0  502 -0.54129100365E+03  0.32947253029E+03  0.72651770879E+03  0.96404153440E+03  0.50400001928E-02 0.  1.
</event>
<event>
 5   0  0.1921687E-04  0.2088098E+04  0.7818609E-02  0.8566505E-01
       -2   -1    0    0    0  501  0.00000000000E+00  0.00000000000E+00  0.67122469214E+03  0.67122469214E+03  0.25500000920E-02 0. -1.
        2   -1    0    0  501    0  0.00000000000E+00  0.00000000000E+00 -0.16239542116E+04  0.16239542116E+04  0.25500000920E-02 0.  1.
    10030    2    1    2    0    0  0.00000000000E+00  0.00000000000E+00 -0.95272951944E+03  0.22951789037E+04  0.20880978576E+04 0.  0.
        5    1    3    3  502    0  0.41121178611E+03  0.74520804667E+03  0.18823536767E+03  0.87171371993E+03  0.46999998093E+01 0. -1.
       -5    1    3    3    0  502 -0.41121178611E+03 -0.74520804667E+03 -0.11409648871E+04  0.14234651838E+04  0.46999998093E+01 0.  1.
</event>
<event>
 5   0  0.1886323E-04  0.2067663E+04  0.7818609E-02  0.8575623E-01
       -2   -1    0    0    0  501  0.00000000000E+00  0.00000000000E+00  0.62575011483E+03  0.62575011483E+03  0.25500000920E-02 0. -1.
        2   -1    0    0  501    0  0.00000000000E+00  0.00000000000E+00 -0.17080421958E+04  0.17080421958E+04  0.25500000920E-02 0.  1.
    10030    2    1    2    0    0  0.00000000000E+00  0.00000000000E+00 -0.10822920809E+04  0.23337923106E+04  0.20676630288E+04 0.  0.
        2    1    3    3  502    0 -0.19427881513E+03  0.36513093950E+03  0.52829880820E+03  0.67094298695E+03  0.25500000920E-02 0. -1.
       -2    1    3    3    0  502  0.19427881513E+03 -0.36513093950E+03 -0.16105908891E+04  0.16628493236E+04  0.25500000920E-02 0.  1.
</event>
<event>
 5   0  0.8271069E-05  0.2104659E+04  0.7818609E-02  0.8559194E-01
        1   -1    0    0  501    0  0.00000000000E+00  0.00000000000E+00  0.81445614130E+03  0.81445614132E+03  0.50400001928E-02 0. -1.
       -1   -1    0    0    0  501  0.00000000000E+00  0.00000000000E+00 -0.13596774837E+04  0.13596774837E+04  0.50400001928E-02 0.  1.
    10030    2    1    2    0    0  0.00000000000E+00  0.00000000000E+00 -0.54522134240E+03  0.21741336250E+04  0.21046592853E+04 0.  0.
        2    1    3    3  502    0 -0.32281687051E+03  0.22997224986E+03  0.73440152709E+03  0.83453194702E+03  0.25500000920E-02 0. -1.
       -2    1    3    3    0  502  0.32281687051E+03 -0.22997224986E+03 -0.12796228695E+04  0.13396016780E+04  0.25500000920E-02 0.  1.
</event>
<event>
 5   0  0.8237966E-05  0.2188649E+04  0.7818609E-02  0.8523167E-01
       -1   -1    0    0    0  501  0.00000000000E+00  0.00000000000E+00  0.76159262045E+03  0.76159262046E+03  0.50400001928E-02 0.  1.
        1   -1    0    0  501    0  0.00000000000E+00  0.00000000000E+00 -0.15724241388E+04  0.15724241388E+04  0.50400001928E-02 0. -1.
    10030    2    1    2    0    0  0.00000000000E+00  0.00000000000E+00 -0.81083151835E+03  0.23340167593E+04  0.21886494652E+04 0.  0.
        1    1    3    3  502    0  0.47360002775E+03  0.69133571879E+03  0.34510709592E+03  0.90627863820E+03  0.50400001928E-02 0.  1.
       -1    1    3    3    0  502 -0.47360002775E+03 -0.69133571879E+03 -0.11559386143E+04  0.14277381211E+04  0.50400001928E-02 0. -1.
</event>
<event>
 5   0  0.1921687E-04  0.2025384E+04  0.7818609E-02  0.8594844E-01
       -2   -1    0    0    0  501  0.00000000000E+00  0.00000000000E+00  0.79233872891E+03  0.79233872892E+03  0.25500000920E-02 0.  1.
        2   -1    0    0  501    0  0.00000000000E+00  0.00000000000E+00 -0.12943259560E+04  0.12943259560E+04  0.25500000920E-02 0. -1.
    10030    2    1    2    0    0  0.00000000000E+00  0.00000000000E+00 -0.50198722707E+03  0.20866646849E+04  0.20253835022E+04 0.  0.
        5    1    3    3  502    0 -0.71981679539E+03  0.50025633168E+02  0.48105694631E+03  0.86722353433E+03  0.46999998093E+01 0.  1.
       -5    1    3    3    0  502  0.71981679539E+03 -0.50025633168E+02 -0.98304417338E+03  0.12194411506E+04  0.46999998093E+01 0. -1.
</event>
<event>
 5   0  0.1810875E-04  0.2158259E+04  0.7818609E-02  0.8536005E-01
        2   -1    0    0  501    0  0.00000000000E+00  0.00000000000E+00  0.26813989126E+04  0.26813989126E+04  0.25500000920E-02 0.  1.
       -2   -1    0    0    0  501  0.00000000000E+00  0.00000000000E+00 -0.43429574102E+03  0.43429574103E+03  0.25500000920E-02 0. -1.
    10030    2    1    2    0    0  0.00000000000E+00  0.00000000000E+00  0.22471031716E+04  0.31156946537E+04  0.21582586757E+04 0.  0.
        1    1    3    3  502    0 -0.47498028826E+03  0.59493853439E+03  0.19434275654E+02  0.76153517649E+03  0.50400001928E-02 0. -1.
       -1    1    3    3    0  502  0.47498028826E+03 -0.59493853439E+03  0.22276688960E+04  0.23541594772E+04  0.50400001928E-02 0.  1.
</event>
<event>
 5   0  0.8486612E-05  0.2184561E+04  0.7818609E-02  0.8524882E-01
        1   -1    0    0  501    0  0.00000000000E+00  0.00000000000E+00  0.15945736908E+04  0.15945736908E+04  0.50400001928E-02 0.  1.
       -1   -1    0    0    0  501  0.00000000000E+00  0.00000000000E+00 -0.74821056210E+03  0.74821056212E+03  0.50400001928E-02 0. -1.
    10030    2    1    2    0    0  0.00000000000E+00  0.00000000000E+00  0.84636312870E+03  0.23427842529E+04  0.21845611711E+04 0.  0.
        5    1    3    3  502    0  0.84521977992E+02  0.11236719212E+03 -0.73845357552E+03  0.75173540812E+03  0.46999998093E+01 0. -1.
       -5    1    3    3    0  502 -0.84521977992E+02 -0.11236719212E+03  0.15848167042E+04  0.15910488448E+04  0.46999998093E+01 0.  1.
</event>
<event>
 5   0  0.8755004E-05  0.2085618E+04  0.7818609E-02  0.8567605E-01
        1   -1    0    0  501    0  0.00000000000E+00  0.00000000000E+00  0.79904854111E+03  0.79904854112E+03  0.50400001928E-02 0. -1.
       -1   -1    0    0    0  501  0.00000000000E+00  0.00000000000E+00 -0.13609320504E+04  0.13609320505E+04  0.50400001928E-02 0.  1.
    10030    2    1    2    0    0  0.00000000000E+00  0.00000000000E+00 -0.56188350933E+03  0.21599805916E+04  0.20856181525E+04 0.  0.
        3    1    3    3  502    0 -0.31528331411E+03  0.84046468863E+03  0.26870351388E+03  0.93700909791E+03  0.10100000352E+00 0. -1.
       -3    1    3    3    0  502  0.31528331411E+03 -0.84046468863E+03 -0.83058702321E+03  0.12229714937E+04  0.10100000352E+00 0.  1.
</event>
<event>
 5   0  0.1921687E-04  0.2074708E+04  0.7818609E-02  0.8572467E-01
       -2   -1    0    0    0  501  0.00000000000E+00  0.00000000000E+00  0.46258614143E+03  0.46258614144E+03  0.25500000920E-02 0. -1.
        2   -1    0    0  501    0  0.00000000000E+00  0.00000000000E+00 -0.23262773242E+04  0.23262773242E+04  0.25500000920E-02 0.  1.
    10030    2    1    2    0    0  0.00000000000E+00  0.00000000000E+00 -0.18636911827E+04  0.27888634656E+04  0.20747083181E+04 0.  0.
        5    1    3    3  502    0  0.45587915224E+03 -0.45507925196E+02 -0.21828979361E+04  0.22304623427E+04  0.46999998093E+01 0.  1.
       -5    1    3    3    0  502 -0.45587915224E+03  0.45507925196E+02  0.31920675335E+03  0.55840112293E+03  0.46999998093E+01 0. -1.
</event>
<event>
 5   0  0.8755004E-05  0.1312119E+04  0.7818609E-02  0.9020009E-01
       -1   -1    0    0    0  501  0.00000000000E+00  0.00000000000E+00  0.30095345842E+03  0.30095345847E+03  0.50400001928E-02 0.  1.
        1   -1    0    0  501    0  0.00000000000E+00  0.00000000000E+00 -0.14301690029E+04  0.14301690029E+04  0.50400001928E-02 0. -1.
    10030    2    1    2    0    0  0.00000000000E+00  0.00000000000E+00 -0.11292155445E+04  0.17311224614E+04  0.13121193659E+04 0.  0.
        3    1    3    3  502    0  0.20568670950E+03  0.15850713654E+03 -0.13594802261E+04  0.13840585356E+04  0.10100000352E+00 0. -1.
       -3    1    3    3    0  502 -0.20568670950E+03 -0.15850713654E+03  0.23026468156E+03  0.34706392577E+03  0.10100000352E+00 0.  1.
</event>
<event>
 5   0  0.1921687E-04  0.2016708E+04  0.7818609E-02  0.8598849E-01
        2   -1    0    0  501    0  0.00000000000E+00  0.00000000000E+00  0.15016251785E+04  0.15016251785E+04  0.25500000920E-02 0.  1.
       -2   -1    0    0    0  501  0.00000000000E+00  0.00000000000E+00 -0.67711842940E+03  0.67711842941E+03  0.25500000920E-02 0. -1.
    10030    2    1    2    0    0  0.00000000000E+00  0.00000000000E+00  0.82450674910E+03  0.21787436079E+04  0.20167082907E+04 0.  0.
        5    1    3    3  502    0 -0.75549488720E+03 -0.24211195021E+02  0.11332559655E+04  0.13622224047E+04  0.46999998093E+01 0.  1.
       -5    1    3    3    0  502  0.75549488720E+03  0.24211195021E+02 -0.30874921645E+03  0.81652120316E+03  0.46999998093E+01 0. -1.
</event>
<event>
 5   0  0.8271069E-05  0.2087937E+04  0.7818609E-02  0.8566576E-01
        1   -1    0    0  501    0  0.00000000000E+00  0.00000000000E+00  0.11128760179E+04  0.11128760179E+04  0.50400001928E-02 0. -1.
       -1   -1    0    0    0  501  0.00000000000E+00  0.00000000000E+00 -0.97932737857E+03  0.97932737858E+03  0.50400001928E-02 0.  1.
    10030    2    1    2    0    0  0.00000000000E+00  0.00000000000E+00  0.13354863937E+03  0.20922033965E+04  0.20879367360E+04 0.  0.
        2    1    3    3  502    0  0.24433710410E+03  0.50334011356E+03 -0.81639957818E+03  0.98972731680E+03  0.25500000920E-02 0.  1.
       -2    1    3    3    0  502 -0.24433710410E+03 -0.50334011356E+03  0.94994821755E+03  0.11024760797E+04  0.25500000920E-02 0. -1.
</event>
<event>
 5   0  0.1810875E-04  0.2080963E+04  0.7818609E-02  0.8569676E-01
       -2   -1    0    0    0  501  0.00000000000E+00  0.00000000000E+00  0.68751883130E+03  0.68751883131E+03  0.25500000920E-02 0.  1.
        2   -1    0    0  501    0  0.00000000000E+00  0.00000000000E+00 -0.15746496799E+04  0.15746496799E+04  0.25500000920E-02 0. -1.
    10030    2    1    2    0    0  0.00000000000E+00  0.00000000000E+00 -0.88713084859E+03  0.22621685112E+04  0.20809625731E+04 0.  0.
        1    1    3    3  502    0 -0.67142646197E+03 -0.37005679571E+03  0.32114255135E+03  0.83119676623E+03  0.50400001928E-02 0.  1.
       -1    1    3    3    0  502  0.67142646197E+03  0.37005679571E+03 -0.12082733999E+04  0.14309717450E+04  0.50400001928E-02 0. -1.
</event>
<event>
 5   0  0.8271069E-05  0.1531656E+04  0.7818609E-02  0.8863671E-01
       -1   -1    0    0    0  501  0.00000000000E+00  0.00000000000E+00  0.29619647790E+03  0.29619647794E+03  0.50400001928E-02 0. -1.
        1   -1    0    0  501    0  0.00000000000E+00  0.00000000000E+00 -0.19800794073E+04  0.19800794073E+04  0.50400001928E-02 0.  1.
    10030    2    1    2    0    0  0.00000000000E+00  0.00000000000E+00 -0.16838829294E+04  0.22762758853E+04  0.15316560273E+04 0.  0.
        2    1    3    3  502    0  0.30269527676E+02 -0.75958258648E+03 -0.97984654701E+03  0.12401537024E+04  0.25500000920E-02 0.  1.
       -2    1    3    3    0  502 -0.30269527676E+02  0.75958258648E+03 -0.70403638243E+03  0.10361221828E+04  0.25500000920E-02 0. -1.
</event>
<event>
 5   0  0.1777590E-04  0.2069480E+04  0.7818609E-02  0.8574808E-01
        2   -1    0    0  501    0  0.00000000000E+00  0.00000000000E+00  0.19830282172E+04  0.19830282172E+04  0.25500000920E-02 0.  1.
       -2   -1    0    0    0  501  0.00000000000E+00  0.00000000000E+00 -0.53992525162E+03  0.53992525162E+03  0.25500000920E-02 0. -1.
    10030    2    1    2    0    0  0.00000000000E+00  0.00000000000E+00  0.14431029656E+04  0.25229534688E+04  0.20694801368E+04 0.  0.
        4    1    3    3  502    0  0.24877408123E+03  0.43148442957E+03  0.18272763917E+04  0.18939398039E+04  0.12699999809E+01 0.  1.
       -4    1    3    3    0  502 -0.24877408123E+03 -0.43148442957E+03 -0.38417342607E+03  0.62901366491E+03  0.12699999809E+01 0. -1.
</event>
<event>
 5   0  0.8525278E-05  0.2107752E+04  0.7818609E-02  0.8557836E-01
       -1   -1    0    0    0  501  0.00000000000E+00  0.00000000000E+00  0.53791097993E+03  0.53791097995E+03  0.50400001928E-02 0.  1.
        1   -1    0    0  501    0  0.00000000000E+00  0.00000000000E+00 -0.20647545733E+04  0.20647545733E+04  0.50400001928E-02 0. -1.
    10030    2    1    2    0    0  0.00000000000E+00  0.00000000000E+00 -0.15268435934E+04  0.26026655533E+04  0.21077515564E+04 0.  0.
        4    1    3    3  502    0 -0.10478278072E+04 -0.91714139454E+02 -0.84437414034E+03  0.13488231532E+04  0.12699999809E+01 0.  1.
       -4    1    3    3    0  502  0.10478278072E+04  0.91714139454E+02 -0.68246945306E+03  0.12538424001E+04  0.12699999809E+01 0. -1.
</event>
<event>
 5   0  0.8271069E-05  0.2079204E+04  0.7818609E-02  0.8570460E-01
       -1   -1    0    0    0  501  0.00000000000E+00  0.00000000000E+00  0.77273198190E+03  0.77273198192E+03  0.50400001928E-02 0.  1.
        1   -1    0    0  501    0  0.00000000000E+00  0.00000000000E+00 -0.13986375567E+04  0.13986375567E+04  0.50400001928E-02 0. -1.
    10030    2    1    2    0    0  0.00000000000E+00  0.00000000000E+00 -0.62590557475E+03  0.21713695386E+04  0.20792036660E+04 0.  0.
        2    1    3    3  502    0 -0.21841894265E+03  0.79786399215E+03 -0.97052939887E+03  0.12752337427E+04  0.25500000920E-02 0. -1.
       -2    1    3    3    0  502  0.21841894265E+03 -0.79786399215E+03  0.34462382412E+03  0.89613579586E+03  0.25500000920E-02 0.  1.
</event>
<event>
 5   0  0.8486612E-05  0.1838347E+04  0.7818609E-02  0.8686169E-01
       -1   -1    0    0    0  501  0.00000000000E+00  0.00000000000E+00  0.44460662208E+03  0.44460662211E+03  0.50400001928E-02 0.  1.
        1   -1    0    0  501    0  0.00000000000E+00  0.00000000000E+00 -0.19002859735E+04  0.19002859735E+04  0.50400001928E-02 0. -1.
    10030    2    1    2    0    0  0.00000000000E+00  0.00000000000E+00 -0.14556793514E+04  0.23448925956E+04  0.18383467874E+04 0.  0.
        5    1    3    3  502    0 -0.77822211148E+03  0.48413744943E+03 -0.63910989249E+03  0.11173639825E+04  0.46999998093E+01 0.  1.
       -5    1    3    3    0  502  0.77822211148E+03 -0.48413744943E+03 -0.81656945892E+03  0.12275286131E+04  0.46999998093E+01 0. -1.
</event>
<event>
 5   0  0.8271069E-05  0.2202384E+04  0.7818609E-02  0.8517437E-01
       -1   -1    0    0    0  501  0.00000000000E+00  0.00000000000E+00  0.14930507580E+04  0.14930507580E+04  0.50400001928E-02 0.  1.
        1   -1    0    0  501    0  0.00000000000E+00  0.00000000000E+00 -0.81217849969E+03  0.81217849971E+03  0.50400001928E-02 0. -1.
    10030    2    1    2    0    0  0.00000000000E+00  0.00000000000E+00  0.68087225833E+03  0.23052292577E+04  0.22023839126E+04 0.  0.
        2    1    3    3  502    0  0.80325071534E+03 -0.67160783907E+03  0.69747333844E+03  0.12580690995E+04  0.25500000920E-02 0.  1.
       -2    1    3    3    0  502 -0.80325071534E+03  0.67160783907E+03 -0.16601080113E+02  0.10471601583E+04  0.25500000920E-02 0. -1.
</event>
<event>
 5   0  0.8755004E-05  0.2175539E+04  0.7818609E-02  0.8528679E-01
       -1   -1    0    0    0  501  0.00000000000E+00  0.00000000000E+00  0.82354614682E+03  0.82354614683E+03  0.50400001928E-02 0. -1.
        1   -1    0    0  501    0  0.00000000000E+00  0.00000000000E+00 -0.14367648926E+04  0.14367648926E+04  0.50400001928E-02 0.  1.
    10030    2    1    2    0    0  0.00000000000E+00  0.00000000000E+00 -0.61321874582E+03  0.22603110395E+04  0.21755387298E+04 0.  0.
        3    1    3    3  502    0  0.85332874501E+03  0.23159200179E+03 -0.96488881293E+03  0.13087456720E+04  0.10100000352E+00 0.  1.
       -3    1    3    3    0  502 -0.85332874501E+03 -0.23159200179E+03  0.35167006711E+03  0.95156536752E+03  0.10100000352E+00 0. -1.
</event>
<event>
 5   0  0.8486612E-05  0.2104863E+04  0.7818609E-02  0.8559104E-01
        1   -1    0    0  501    0  0.00000000000E+00  0.00000000000E+00  0.74325776057E+03  0.74325776059E+03  0.50400001928E-02 0. -1.
       -1   -1    0    0    0  501  0.00000000000E+00  0.00000000000E+00 -0.14902131110E+04  0.14902131110E+04  0.50400001928E-02 0.  1.
    10030    2    1    2    0    0  0.00000000000E+00  0.00000000000E+00 -0.74695535046E+03  0.22334708716E+04  0.21048633777E+04 0.  0.
        5    1    3    3  502    0  0.80685313394E+03 -0.67566845095E+03 -0.36593457679E+03  0.11142127444E+04  0.46999998093E+01 0.  1.
       -5    1    3    3    0  502 -0.80685313394E+03  0.67566845095E+03 -0.38102077367E+03  0.11192581272E+04  0.46999998093E+01 0. -1.
</event>
<event>
 5   0  0.8486612E-05  0.2029833E+04  0.7818609E-02  0.8592798E-01
        1   -1    0    0  501    0  0.00000000000E+00  0.00000000000E+00  0.16964070512E+04  0.16964070512E+04  0.50400001928E-02 0.  1.
       -1   -1    0    0    0  501  0.00000000000E+00  0.00000000000E+00 -0.60719838787E+03  0.60719838789E+03  0.50400001928E-02 0. -1.
    10030    2    1    2    0    0  0.00000000000E+00  0.00000000000E+00  0.10892086633E+04  0.23036054390E+04  0.20298331229E+04 0.  0.
        5    1    3    3  502    0 -0.84760957827E+03  0.22536161435E+03 -0.34963963445E+02  0.87776672479E+03  0.46999998093E+01 0. -1.
       -5    1    3    3    0  502  0.84760957827E+03 -0.22536161435E+03  0.11241726267E+04  0.14258387143E+04  0.46999998093E+01 0.  1.
</event>
<event>
 5   0  0.8486612E-05  0.2070402E+04  0.7818609E-02  0.8574395E-01
       -1   -1    0    0    0  501  0.00000000000E+00  0.00000000000E+00  0.74995784439E+03  0.74995784441E+03  0.50400001928E-02 0.  1.
        1   -1    0    0  501    0  0.00000000000E+00  0.00000000000E+00 -0.14289352080E+04  0.14289352080E+04  0.50400001928E-02 0. -1.
    10030    2    1    2    0    0  0.00000000000E+00  0.00000000000E+00 -0.67897736357E+03  0.21788930524E+04  0.20704020560E+04 0.  0.
        5    1    3    3  502    0 -0.18520698374E+03  0.53101869768E+03  0.57515404810E+03  0.80442945816E+03  0.46999998093E+01 0.  1.
       -5    1    3    3    0  502  0.18520698374E+03 -0.53101869768E+03 -0.12541314117E+04  0.13744635942E+04  0.46999998093E+01 0. -1.
</event>
<event>
 5   0  0.1777590E-04  0.2127199E+04  0.7818609E-02  0.8549356E-01
       -2   -1    0    0    0  501  0.00000000000E+00  0.00000000000E+00  0.87492476590E+03  0.87492476591E+03  0.25500000920E-02 0.  1.
        2   -1    0    0  501    0  0.00000000000E+00  0.00000000000E+00 -0.12929617423E+04  0.12929617424E+04  0.25500000920E-02 0. -1.
    10030    2    1    2    0    0  0.00000000000E+00  0.00000000000E+00 -0.41803697645E+03  0.21678865083E+04  0.21271993322E+04 0.  0.
        4    1    3    3  502    0  0.86411302302E+03 -0.33322659141E+03 -0.74200477887E+03  0.11867198416E+04  0.12699999809E+01 0. -1.
       -4    1    3    3    0  502 -0.86411302302E+03  0.33322659141E+03  0.32396780242E+03  0.98116666662E+03  0.12699999809E+01 0.  1.
</event>
<event>
 5   0  0.8525278E-05  0.2152067E+04  0.7818609E-02  0.8538648E-01
        1   -1    0    0  501    0  0.00000000000E+00  0.00000000000E+00  0.32865184759E+03  0.32865184763E+03  0.50400001928E-02 0. -1.
       -1   -1    0    0    0  501  0.00000000000E+00  0.00000000000E+00 -0.35230235627E+04  0.35230235627E+04  0.50400001928E-02 0.  1.
    10030    2    1    2    0    0  0.00000000000E+00  0.00000000000E+00 -0.31943717151E+04  0.38516754104E+04  0.21520671022E+04 0.  0.
        4    1    3    3  502    0  0.22562862199E+03 -0.30392069316E+03  0.20556202210E+03  0.43073590589E+03  0.12699999809E+01 0. -1.
       -4    1    3    3    0  502 -0.22562862199E+03  0.30392069316E+03 -0.33999337372E+04  0.34209395045E+04  0.12699999809E+01 0.  1.
</event>
<event>
 5   0  0.1815400E-04  0.2045435E+04  0.7818609E-02  0.8585668E-01
        2   -1    0    0  501    0  0.00000000000E+00  0.00000000000E+00  0.21703887286E+04  0.21703887286E+04  0.25500000920E-02 0.  1.
       -2   -1    0    0    0  501  0.00000000000E+00  0.00000000000E+00 -0.48191884717E+03  0.48191884718E+03  0.25500000920E-02 0. -1.
    10030    2    1    2    0    0  0.00000000000E+00  0.00000000000E+00  0.16884698814E+04  0.26523075758E+04  0.20454351459E+04 0.  0.
        3    1    3    3  502    0  0.46325095313E+03  0.89990199876E+03  0.65398629973E+03  0.12050407227E+04  0.10100000352E+00 0.  1.
       -3    1    3    3    0  502 -0.46325095313E+03 -0.89990199876E+03  0.10344835817E+04  0.14472668530E+04  0.10100000352E+00 0. -1.
</event>
<event>
 5   0  0.1810875E-04  0.1935843E+04  0.7818609E-02  0.8637218E-01
        2   -1    0    0  501    0  0.00000000000E+00  0.00000000000E+00  0.96132618011E+03  0.96132618011E+03  0.25500000920E-02 0. -1.
       -2   -1    0    0    0  501  0.00000000000E+00  0.00000000000E+00 -0.97456209282E+03  0.97456209283E+03  0.25500000920E-02 0.  1.
    10030    2    1    2    0    0  0.00000000000E+00  0.00000000000E+00 -0.13235912714E+02  0.19358882729E+04  0.19358430246E+04 0.  0.
        1    1    3    3  502    0 -0.94476221579E+03  0.19832137160E+03  0.63846752856E+02  0.96746236035E+03  0.50400001928E-02 0. -1.
       -1    1    3    3    0  502  0.94476221579E+03 -0.19832137160E+03 -0.77082665570E+02  0.96842591259E+03  0.50400001928E-02 0.  1.
</event>
<event>
 5   0  0.8525278E-05  0.2062426E+04  0.7818609E-02  0.8577978E-01
       -1   -1    0    0    0  501  0.00000000000E+00  0.00000000000E+00  0.45962337152E+03  0.45962337155E+03  0.50400001928E-02 0.  1.
        1   -1    0    0  501    0  0.00000000000E+00  0.00000000000E+00 -0.23136344266E+04  0.23136344266E+04  0.50400001928E-02 0. -1.
    10030    2    1    2    0    0  0.00000000000E+00  0.00000000000E+00 -0.18540110551E+04  0.27732577981E+04  0.20624261981E+04 0.  0.
        4    1    3    3  502    0  0.87999153449E+03  0.53043039024E+03 -0.80933955745E+03  0.13079654551E+04  0.12699999809E+01 0.  1.
       -4    1    3    3    0  502 -0.87999153449E+03 -0.53043039024E+03 -0.10446714976E+04  0.14652923430E+04  0.12699999809E+01 0. -1.
</event>
<event>
 5   0  0.1810875E-04  0.2089567E+04  0.7818609E-02  0.8565853E-01
        2   -1    0    0  501    0  0.00000000000E+00  0.00000000000E+00  0.21124061151E+04  0.21124061151E+04  0.25500000920E-02 0.  1.
       -2   -1    0    0    0  501  0.00000000000E+00  0.00000000000E+00 -0.51674358280E+03  0.51674358280E+03  0.25500000920E-02 0. -1.
    10030    2    1    2    0    0  0.00000000000E+00  0.00000000000E+00  0.15956625323E+04  0.26291496979E+04  0.20895667534E+04 0.  0.
        1    1    3    3  502    0 -0.77796050788E+03 -0.35265310431E+03  0.15548465997E+04  0.17740165479E+04  0.50400001928E-02 0.  1.
       -1    1    3    3    0  502  0.77796050788E+03  0.35265310431E+03  0.40815932626E+02  0.85513314997E+03  0.50400001928E-02 0. -1.
</event>
<event>
 5   0  0.1815400E-04  0.1751093E+04  0.7818609E-02  0.8732749E-01
       -2   -1    0    0    0  501  0.00000000000E+00  0.00000000000E+00  0.94889195874E+03  0.94889195874E+03  0.25500000920E-02 0.  1.
        2   -1    0    0  501    0  0.00000000000E+00  0.00000000000E+00 -0.80787071310E+03  0.80787071311E+03  0.25500000920E-02 0. -1.
    10030    2    1    2    0    0  0.00000000000E+00  0.00000000000E+00  0.14102124564E+03  0.17567626718E+04  0.17510933994E+04 0.  0.
        3    1    3    3  502    0 -0.47625178658E+03 -0.78790186587E+01 -0.66651344591E+03  0.81921793616E+03  0.10100000352E+00 0. -1.
       -3    1    3    3    0  502  0.47625178658E+03  0.78790186587E+01  0.80753469155E+03  0.93754473568E+03  0.10100000352E+00 0.  1.
</event>
<event>
 5   0  0.8271069E-05  0.2018607E+04  0.7818609E-02  0.8597970E-01
       -1   -1    0    0    0  501  0.00000000000E+00  0.00000000000E+00  0.13088541972E+04  0.13088541972E+04  0.50400001928E-02 0.  1.
        1   -1    0    0  501    0  0.00000000000E+00  0.00000000000E+00 -0.77830926888E+03  0.77830926890E+03  0.50400001928E-02 0. -1.
    10030    2    1    2    0    0  0.00000000000E+00  0.00000000000E+00  0.53054492830E+03  0.20871634661E+04  0.20186068001E+04 0.  0.
        2    1    3    3  502    0 -0.13182716240E+01  0.69616600254E+03  0.10208750938E+04  0.12356515682E+04  0.25500000920E-02 0.  1.
       -2    1    3    3    0  502  0.13182716240E+01 -0.69616600254E+03 -0.49033016552E+03  0.85151189784E+03  0.25500000920E-02 0. -1.
</event>
<event>
 5   0  0.1815400E-04  0.2078540E+04  0.7818609E-02  0.8570756E-01
        2   -1    0    0  501    0  0.00000000000E+00  0.00000000000E+00  0.17313413975E+04  0.17313413975E+04  0.25500000920E-02 0.  1.
       -2   -1    0    0    0  501  0.00000000000E+00  0.00000000000E+00 -0.62384111757E+03  0.62384111758E+03  0.25500000920E-02 0. -1.
    10030    2    1    2    0    0  0.00000000000E+00  0.00000000000E+00  0.11075002799E+04  0.23551825150E+04  0.20785398262E+04 0.  0.
        3    1    3    3  502    0  0.60768186309E+03  0.37239536832E+03 -0.30331179406E+03  0.77456672514E+03  0.10100000352E+00 0. -1.
       -3    1    3    3    0  502 -0.60768186309E+03 -0.37239536832E+03  0.14108120739E+04  0.15806157899E+04  0.10100000352E+00 0.  1.
</event>
<event>
 5   0  0.8237966E-05  0.2106729E+04  0.7818609E-02  0.8558285E-01
       -1   -1    0    0    0  501  0.00000000000E+00  0.00000000000E+00  0.10948557224E+04  0.10948557224E+04  0.50400001928E-02 0. -1.
        1   -1    0    0  501    0  0.00000000000E+00  0.00000000000E+00 -0.10134458723E+04  0.10134458723E+04  0.50400001928E-02 0.  1.
    10030    2    1    2    0    0  0.00000000000E+00  0.00000000000E+00  0.81409850136E+02  0.21083015947E+04  0.21067292305E+04 0.  0.
        1    1    3    3  502    0  0.93071248345E+03  0.42500288234E+03  0.29133911861E+03  0.10638287733E+04  0.50400001928E-02 0.  1.
       -1    1    3    3    0  502 -0.93071248345E+03 -0.42500288234E+03 -0.20992926847E+03  0.10444728214E+04  0.50400001928E-02 0. -1.
</event>
<event>
 5   0  0.8271069E-05  0.2068140E+04  0.7818609E-02  0.8575409E-01
        1   -1    0    0  501    0  0.00000000000E+00  0.00000000000E+00  0.13871367164E+04  0.13871367164E+04  0.50400001928E-02 0. -1.
       -1   -1    0    0    0  501  0.00000000000E+00  0.00000000000E+00 -0.77086875508E+03  0.77086875510E+03  0.50400001928E-02 0.  1.
    10030    2    1    2    0    0  0.00000000000E+00  0.00000000000E+00  0.61626796134E+03  0.21580054715E+04  0.20681396024E+04 0.  0.
        2    1    3    3  502    0 -0.64058062784E+03 -0.63627308079E+03  0.83413484365E+03  0.12292143473E+04  0.25500000920E-02 0.  1.
       -2    1    3    3    0  502  0.64058062784E+03  0.63627308079E+03 -0.21786688231E+03  0.92879112427E+03  0.25500000920E-02 0. -1.
</event>
<event>
 5   0  0.8237966E-05  0.2239190E+04  0.7818609E-02  0.8502291E-01
       -1   -1    0    0    0  501  0.00000000000E+00  0.00000000000E+00  0.10667142308E+04  0.10667142309E+04  0.50400001928E-02 0. -1.
        1   -1    0    0  501    0  0.00000000000E+00  0.00000000000E+00 -0.11750973016E+04  0.11750973016E+04  0.50400001928E-02 0.  1.
    10030    2    1    2    0    0  0.00000000000E+00  0.00000000000E+00 -0.10838307078E+03  0.22418115325E+04  0.22391900449E+04 0.  0.
        1    1    3    3  502    0 -0.50111144661E+01 -0.19911576915E+03  0.10488336641E+04  0.10675786883E+04  0.50400001928E-02 0. -1.
       -1    1    3    3    0  502  0.50111144661E+01  0.19911576915E+03 -0.11572167349E+04  0.11742328442E+04  0.50400001928E-02 0.  1.
</event>
<event>
 5   0  0.1810875E-04  0.2102195E+04  0.7818609E-02  0.8560277E-01
       -2   -1    0    0    0  501  0.00000000000E+00  0.00000000000E+00  0.84202968753E+03  0.84202968754E+03  0.25500000920E-02 0.  1.
        2   -1    0    0  501    0  0.00000000000E+00  0.00000000000E+00 -0.13120752737E+04  0.13120752737E+04  0.25500000920E-02 0. -1.
    10030    2    1    2    0    0  0.00000000000E+00  0.00000000000E+00 -0.47004558616E+03  0.21541049612E+04  0.21021953598E+04 0.  0.
        1    1    3    3  502    0  0.90169811025E+03  0.19238118511E+03  0.28215424179E+03  0.96419967777E+03  0.50400001928E-02 0.  1.
       -1    1    3    3    0  502 -0.90169811025E+03 -0.19238118511E+03 -0.75219982795E+03  0.11899052835E+04  0.50400001928E-02 0. -1.
</event>
<event>
 5   0  0.8237966E-05  0.2073969E+04  0.7818609E-02  0.8572798E-01
        1   -1    0    0  501    0  0.00000000000E+00  0.00000000000E+00  0.91127747342E+03  0.91127747343E+03  0.50400001928E-02 0.  1.
       -1   -1    0    0    0  501  0.00000000000E+00  0.00000000000E+00 -0.11800320472E+04  0.11800320472E+04  0.50400001928E-02 0. -1.
    10030    2    1    2    0    0  0.00000000000E+00  0.00000000000E+00 -0.26875457376E+03  0.20913095206E+04  0.20739687775E+04 0.  0.
        1    1    3    3  502    0  0.67054982316E+03  0.69748575950E+03  0.24185517623E+03  0.99730505681E+03  0.50400001928E-02 0.  1.
       -1    1    3    3    0  502 -0.67054982316E+03 -0.69748575950E+03 -0.51060974999E+03  0.10940044638E+04  0.50400001928E-02 0. -1.
</event>
<event>
 5   0  0.8525278E-05  0.1972207E+04  0.7818609E-02  0.8619726E-01
        1   -1    0    0  501    0  0.00000000000E+00  0.00000000000E+00  0.20829389603E+04  0.20829389603E+04  0.50400001928E-02 0.  1.
       -1   -1    0    0    0  501  0.00000000000E+00  0.00000000000E+00 -0.46684025533E+03  0.46684025536E+03  0.50400001928E-02 0. -1.
    10030    2    1    2    0    0  0.00000000000E+00  0.00000000000E+00  0.16160987050E+04  0.25497792157E+04  0.19722066384E+04 0.  0.
        4    1    3    3  502    0 -0.71722012460E+03 -0.50972276607E+03  0.23250891763E+03  0.91010110156E+03  0.12699999809E+01 0.  1.
       -4    1    3    3    0  502  0.71722012460E+03  0.50972276607E+03  0.13835897873E+04  0.16396781141E+04  0.12699999809E+01 0. -1.
</event>
<event>
 5   0  0.1886323E-04  0.1911661E+04  0.7818609E-02  0.8649073E-01
        2   -1    0    0  501    0  0.00000000000E+00  0.00000000000E+00  0.23326481498E+04  0.23326481498E+04  0.25500000920E-02 0. -1.
       -2   -1    0    0    0  501  0.00000000000E+00  0.00000000000E+00 -0.39166311562E+03  0.39166311563E+03  0.25500000920E-02 0.  1.
    10030    2    1    2    0    0  0.00000000000E+00  0.00000000000E+00  0.19409850342E+04  0.27243112654E+04  0.19116613110E+04 0.  0.
        2    1    3    3  502    0 -0.64596996200E+03  0.69398833630E+03  0.11433664210E+04  0.14853227849E+04  0.25500000920E-02 0. -1.
       -2    1    3    3    0  502  0.64596996200E+03 -0.69398833630E+03  0.79761861314E+03  0.12389884805E+04  0.25500000920E-02 0.  1.
</event>
<event>
 5   0  0.1886323E-04  0.2103008E+04  0.7818609E-02  0.8559920E-01
        2   -1    0    0  501    0  0.00000000000E+00  0.00000000000E+00  0.10609081039E+04  0.10609081039E+04  0.25500000920E-02 0.  1.
       -2   -1    0    0    0  501  0.00000000000E+00  0.00000000000E+00 -0.10421831761E+04  0.10421831761E+04  0.25500000920E-02 0. -1.
    10030    2    1    2    0    0  0.00000000000E+00  0.00000000000E+00  0.18724927838E+02  0.21030912801E+04  0.21030079195E+04 0.  0.
        2    1    3    3  502    0 -0.12537759657E+03 -0.10424878929E+04  0.65578824839E+02  0.10520461639E+04  0.25500000920E-02 0.  1.
       -2    1    3    3    0  502  0.12537759657E+03  0.10424878929E+04 -0.46853897001E+02  0.10510451162E+04  0.25500000920E-02 0. -1.
</event>
<event>
 5   0  0.6441125E-05  0.1380778E+04  0.7818609E-02  0.8967851E-01
       -4   -1    0    0    0  501  0.00000000000E+00  0.00000000000E+00  0.11581166824E+04  0.11581173787E+04  0.12699999809E+01 0.  1.
        4   -1    0    0  501    0  0.00000000000E+00  0.00000000000E+00 -0.41156028810E+03  0.41156224759E+03  0.12699999809E+01 0. -1.
    10030    2    1    2    0    0  0.00000000000E+00  0.00000000000E+00  0.74655639430E+03  0.15696796263E+04  0.13807779255E+04 0.  0.
        3    1    3    3  502    0  0.29198766988E+03  0.24920792706E+03 -0.27905113597E+03  0.47458501552E+03  0.10100000352E+00 0. -1.
       -3    1    3    3    0  502 -0.29198766988E+03 -0.24920792706E+03  0.10256075303E+04  0.10950946108E+04  0.10100000352E+00 0.  1.
</event>
<event>
 5   0  0.1810875E-04  0.2134808E+04  0.7818609E-02  0.8546063E-01
       -2   -1    0    0    0  501  0.00000000000E+00  0.00000000000E+00  0.57039117726E+03  0.57039117726E+03  0.25500000920E-02 0. -1.
        2   -1    0    0  501    0  0.00000000000E+00  0.00000000000E+00 -0.19974917335E+04  0.19974917335E+04  0.25500000920E-02 0.  1.
    10030    2    1    2    0    0  0.00000000000E+00  0.00000000000E+00 -0.14271005563E+04  0.25678829108E+04  0.21348083394E+04 0.  0.
        1    1    3    3  502    0  0.50633794223E+03  0.54063231575E+03  0.21092696956E+03  0.77016335870E+03  0.50400001928E-02 0. -1.
       -1    1    3    3    0  502 -0.50633794223E+03 -0.54063231575E+03 -0.16380275258E+04  0.17977195521E+04  0.50400001928E-02 0.  1.
</event>
<event>
 5   0  0.8755004E-05  0.2102089E+04  0.7818609E-02  0.8560324E-01
        1   -1    0    0  501    0  0.00000000000E+00  0.00000000000E+00  0.15988723167E+04  0.15988723167E+04  0.50400001928E-02 0.  1.
       -1   -1    0    0    0  501  0.00000000000E+00  0.00000000000E+00 -0.69092080567E+03  0.69092080569E+03  0.50400001928E-02 0. -1.
    10030    2    1    2    0    0  0.00000000000E+00  0.00000000000E+00  0.90795151103E+03  0.22897931224E+04  0.21020886273E+04 0.  0.
        3    1    3    3  502    0 -0.58775639434E+01  0.94721824858E+03 -0.42146291398E+02  0.94817365302E+03  0.10100000352E+00 0. -1.
       -3    1    3    3    0  502  0.58775639434E+01 -0.94721824858E+03  0.95009780243E+03  0.13416194694E+04  0.10100000352E+00 0.  1.
</event>
<event>
 5   0  0.1777590E-04  0.2050401E+04  0.7818609E-02  0.8583412E-01
        2   -1    0    0  501    0  0.00000000000E+00  0.00000000000E+00  0.28831396604E+04  0.28831396604E+04  0.25500000920E-02 0.  1.
       -2   -1    0    0    0  501  0.00000000000E+00  0.00000000000E+00 -0.36454582139E+03  0.36454582139E+03  0.25500000920E-02 0. -1.
    10030    2    1    2    0    0  0.00000000000E+00  0.00000000000E+00  0.25185938390E+04  0.32476854818E+04  0.20504014394E+04 0.  0.
        4    1    3    3  502    0 -0.72846851283E+03  0.41056354162E+02  0.24000352450E+04  0.25084901412E+04  0.12699999809E+01 0.  1.
       -4    1    3    3    0  502  0.72846851283E+03 -0.41056354162E+02  0.11855859399E+03  0.73919534057E+03  0.12699999809E+01 0. -1.
</event>
<event>
 5   0  0.1921687E-04  0.2112281E+04  0.7818609E-02  0.8555853E-01
       -2   -1    0    0    0  501  0.00000000000E+00  0.00000000000E+00  0.83340465587E+03  0.83340465587E+03  0.25500000920E-02 0.  1.
        2   -1    0    0  501    0  0.00000000000E+00  0.00000000000E+00 -0.13384041700E+04  0.13384041700E+04  0.25500000920E-02 0. -1.
    10030    2    1    2    0    0  0.00000000000E+00  0.00000000000E+00 -0.50499951412E+03  0.21718088259E+04  0.21122805370E+04 0.  0.
        5    1    3    3  502    0  0.39802863714E+03 -0.95309042819E+03 -0.25828141370E+02  0.10331976303E+04  0.46999998093E+01 0.  1.
       -5    1    3    3    0  502 -0.39802863714E+03  0.95309042819E+03 -0.47917137275E+03  0.11386111956E+04  0.46999998093E+01 0. -1.
</event>
<event>
 5   0  0.1815400E-04  0.2104871E+04  0.7818609E-02  0.8559100E-01
       -2   -1    0    0    0  501  0.00000000000E+00  0.00000000000E+00  0.45504901989E+03  0.45504901990E+03  0.25500000920E-02 0.  1.
        2   -1    0    0  501    0  0.00000000000E+00  0.00000000000E+00 -0.24340695365E+04  0.24340695365E+04  0.25500000920E-02 0. -1.
    10030    2    1    2    0    0  0.00000000000E+00  0.00000000000E+00 -0.19790205166E+04  0.28891185564E+04  0.21048714516E+04 0.  0.
        3    1    3    3  502    0  0.70274503846E+03 -0.57749588623E+03 -0.26285702777E+03  0.94680827782E+03  0.10100000352E+00 0.  1.
       -3    1    3    3    0  502 -0.70274503846E+03  0.57749588623E+03 -0.17161634889E+04  0.19423102786E+04  0.10100000352E+00 0. -1.
</event>
<event>
 5   0  0.8237966E-05  0.1879600E+04  0.7818609E-02  0.8665078E-01
        1   -1    0    0  501    0  0.00000000000E+00  0.00000000000E+00  0.10547311995E+04  0.10547311995E+04  0.50400001928E-02 0. -1.
       -1   -1    0    0    0  501  0.00000000000E+00  0.00000000000E+00 -0.83739234462E+03  0.83739234464E+03  0.50400001928E-02 0.  1.
    10030    2    1    2    0    0  0.00000000000E+00  0.00000000000E+00  0.21733885490E+03  0.18921235442E+04  0.18795997788E+04 0.  0.
        1    1    3    3  502    0  0.90000065715E+03 -0.17375901030E+03  0.31748942034E+03  0.97004788984E+03  0.50400001928E-02 0. -1.
       -1    1    3    3    0  502 -0.90000065715E+03  0.17375901030E+03 -0.10015056544E+03  0.92207565433E+03  0.50400001928E-02 0.  1.
</event>
<event>
 5   0  0.8271069E-05  0.2132058E+04  0.7818609E-02  0.8547251E-01
       -1   -1    0    0    0  501  0.00000000000E+00  0.00000000000E+00  0.16329933642E+04  0.16329933642E+04  0.50400001928E-02 0. -1.
        1   -1    0    0  501    0  0.00000000000E+00  0.00000000000E+00 -0.69591113947E+03  0.69591113949E+03  0.50400001928E-02 0.  1.
    10030    2    1    2    0    0  0.00000000000E+00  0.00000000000E+00  0.93708222472E+03  0.23289045037E+04  0.21320584165E+04 0.  0.
        2    1    3    3  502    0  0.55315084022E+03 -0.55044840026E+03 -0.32476866905E+03  0.84524788186E+03  0.25500000920E-02 0.  1.
       -2    1    3    3    0  502 -0.55315084022E+03  0.55044840026E+03  0.12618508938E+04  0.14836566218E+04  0.25500000920E-02 0. -1.
</event>
<event>
 5   0  0.8271069E-05  0.2030642E+04  0.7818609E-02  0.8592427E-01
        1   -1    0    0  501    0  0.00000000000E+00  0.00000000000E+00  0.15480796680E+04  0.15480796680E+04  0.50400001928E-02 0.  1.
       -1   -1    0    0    0  501  0.00000000000E+00  0.00000000000E+00 -0.66590660566E+03  0.66590660568E+03  0.50400001928E-02 0. -1.
    10030    2    1    2    0    0  0.00000000000E+00  0.00000000000E+00  0.88217306234E+03  0.22139862737E+04  0.20306417479E+04 0.  0.
        2    1    3    3  502    0  0.93072354548E+03  0.10041039416E+03  0.86970727332E+03  0.12777790524E+04  0.25500000920E-02 0. -1.
       -2    1    3    3    0  502 -0.93072354548E+03 -0.10041039416E+03  0.12465789020E+02  0.93620722133E+03  0.25500000920E-02 0.  1.
</event>
<event>
 5   0  0.1886323E-04  0.2141907E+04  0.7818609E-02  0.8543004E-01
        2   -1    0    0  501    0  0.00000000000E+00  0.00000000000E+00  0.66327090130E+03  0.66327090131E+03  0.25500000920E-02 0.  1.
       -2   -1    0    0    0  501  0.00000000000E+00  0.00000000000E+00 -0.17292198930E+04  0.17292198930E+04  0.25500000920E-02 0. -1.
    10030    2    1    2    0    0  0.00000000000E+00  0.00000000000E+00 -0.10659489917E+04  0.23924907943E+04  0.21419068486E+04 0.  0.
        2    1    3    3  502    0 -0.96880794907E+03 -0.36288181117E+03 -0.22368859550E+03  0.10584463325E+04  0.25500000920E-02 0.  1.
       -2    1    3    3    0  502  0.96880794907E+03  0.36288181117E+03 -0.84226039622E+03  0.13340444618E+04  0.25500000920E-02 0. -1.
</event>
<event>
 5   0  0.1777590E-04  0.2095848E+04  0.7818609E-02  0.8563075E-01
        2   -1    0    0  501    0  0.00000000000E+00  0.00000000000E+00  0.16254070106E+04  0.16254070106E+04  0.25500000920E-02 0.  1.
       -2   -1    0    0    0  501  0.00000000000E+00  0.00000000000E+00 -0.67561223716E+03  0.67561223716E+03  0.25500000920E-02 0. -1.
    10030    2    1    2    0    0  0.00000000000E+00  0.00000000000E+00  0.94979477345E+03  0.23010192478E+04  0.20958481498E+04 0.  0.
        4    1    3    3  502    0  0.32364043848E+03 -0.98605967664E+03  0.63432443807E+03  0.12163165398E+04  0.12699999809E+01 0.  1.
       -4    1    3    3    0  502 -0.32364043848E+03  0.98605967664E+03  0.31547033538E+03  0.10847027080E+04  0.12699999809E+01 0. -1.
</event>
<event>
 5   0  0.1921687E-04  0.1689596E+04  0.7818609E-02  0.8767321E-01
       -2   -1    0    0    0  501  0.00000000000E+00  0.00000000000E+00  0.15014946710E+04  0.15014946710E+04  0.25500000920E-02 0.  1.
        2   -1    0    0  501    0  0.00000000000E+00  0.00000000000E+00 -0.47531526835E+03  0.47531526836E+03  0.25500000920E-02 0. -1.
    10030    2    1    2    0    0  0.00000000000E+00  0.00000000000E+00  0.10261794026E+04  0.19768099394E+04  0.16895956232E+04 0.  0.
        5    1    3    3  502    0 -0.32227994808E+03 -0.69349378427E+03  0.93308719139E+03  0.12064293558E+04  0.46999998093E+01 0.  1.
       -5    1    3    3    0  502  0.32227994808E+03  0.69349378427E+03  0.93092211261E+02  0.77038058358E+03  0.46999998093E+01 0. -1.
</event>
<event>
 5   0  0.8237966E-05  0.2035363E+04  0.7818609E-02  0.8590263E-01
        1   -1    0    0  501    0  0.00000000000E+00  0.00000000000E+00  0.21398220400E+04  0.21398220400E+04  0.50400001928E-02 0. -1.
       -1   -1    0    0    0  501  0.00000000000E+00  0.00000000000E+00 -0.48400090210E+03  0.48400090212E+03  0.50400001928E-02 0.  1.
    10030    2    1    2    0    0  0.00000000000E+00  0.00000000000E+00  0.16558211379E+04  0.26238229421E+04  0.20353631595E+04 0.  0.
        1    1    3    3  502    0 -0.94411323674E+03 -0.18592105112E+03  0.40082647993E+03  0.10423906696E+04  0.50400001928E-02 0. -1.
       -1    1    3    3    0  502  0.94411323674E+03  0.18592105112E+03  0.12549946580E+04  0.15814322725E+04  0.50400001928E-02 0.  1.
</event>
<event>
 5   0  0.8525278E-05  0.2110422E+04  0.7818609E-02  0.8556666E-01
        1   -1    0    0  501    0  0.00000000000E+00  0.00000000000E+00  0.15046040353E+04  0.15046040353E+04  0.50400001928E-02 0.  1.
       -1   -1    0    0    0  501  0.00000000000E+00  0.00000000000E+00 -0.74004239526E+03  0.74004239528E+03  0.50400001928E-02 0. -1.
    10030    2    1    2    0    0  0.00000000000E+00  0.00000000000E+00  0.76456163999E+03  0.22446464305E+04  0.21104224925E+04 0.  0.
        4    1    3    3  502    0  0.58650018317E+03  0.35879417215E+03  0.12336619258E+04  0.14123169201E+04  0.12699999809E+01 0.  1.
       -4    1    3    3    0  502 -0.58650018317E+03 -0.35879417215E+03 -0.46910028582E+03  0.83232951040E+03  0.12699999809E+01 0. -1.
</event>
<event>
 5   0  0.1886323E-04  0.2093541E+04  0.7818609E-02  0.8564094E-01
       -2   -1    0    0    0  501  0.00000000000E+00  0.00000000000E+00  0.61218797943E+03  0.61218797944E+03  0.25500000920E-02 0.  1.
        2   -1    0    0  501    0  0.00000000000E+00  0.00000000000E+00 -0.17898561765E+04  0.17898561765E+04  0.25500000920E-02 0. -1.
    10030    2    1    2    0    0  0.00000000000E+00  0.00000000000E+00 -0.11776681971E+04  0.24020441559E+04  0.20935409584E+04 0.  0.
        2    1    3    3  502    0  0.42997067220E+03 -0.31531042809E+03 -0.16223706858E+04  0.17077418093E+04  0.25500000920E-02 0. -1.
       -2    1    3    3    0  502 -0.42997067220E+03  0.31531042809E+03  0.44470248876E+03  0.69430234663E+03  0.25500000920E-02 0.  1.
</event>
<event>
 5   0  0.1810875E-04  0.2077562E+04  0.7818609E-02  0.8571192E-01
        2   -1    0    0  501    0  0.00000000000E+00  0.00000000000E+00  0.10648282135E+04  0.10648282135E+04  0.25500000920E-02 0.  1.
       -2   -1    0    0    0  501  0.00000000000E+00  0.00000000000E+00 -0.10133708945E+04  0.10133708945E+04  0.25500000920E-02 0. -1.
    10030    2    1    2    0    0  0.00000000000E+00  0.00000000000E+00  0.51457318945E+02  0.20781991080E+04  0.20775619550E+04 0.  0.
        1    1    3    3  502    0  0.51431099217E+03  0.54589033345E+03  0.74466589706E+03  0.10569008237E+04  0.50400001928E-02 0.  1.
       -1    1    3    3    0  502 -0.51431099217E+03 -0.54589033345E+03 -0.69320857811E+03  0.10212982844E+04  0.50400001928E-02 0. -1.
</event>
<event>
 5   0  0.1810875E-04  0.2072672E+04  0.7818609E-02  0.8573378E-01
       -2   -1    0    0    0  501  0.00000000000E+00  0.00000000000E+00  0.73958267219E+03  0.73958267219E+03  0.25500000920E-02 0. -1.
        2   -1    0    0  501    0  0.00000000000E+00  0.00000000000E+00 -0.14521594354E+04  0.14521594354E+04  0.25500000920E-02 0.  1.
    10030    2    1    2    0    0  0.00000000000E+00  0.00000000000E+00 -0.71257676319E+03  0.21917421076E+04  0.20726716630E+04 0.  0.
        1    1    3    3  502    0  0.37596333084E+03 -0.31141067130E+03 -0.13229523874E+04  0.14101517833E+04  0.50400001928E-02 0.  1.
       -1    1    3    3    0  502 -0.37596333084E+03  0.31141067130E+03  0.61037562426E+03  0.78159032431E+03  0.50400001928E-02 0. -1.
</event>
<event>
 5   0  0.8271069E-05  0.2137714E+04  0.7818609E-02  0.8544809E-01
        1   -1    0    0  501    0  0.00000000000E+00  0.00000000000E+00  0.13137648877E+04  0.13137648877E+04  0.50400001928E-02 0.  1.
       -1   -1    0    0    0  501  0.00000000000E+00  0.00000000000E+00 -0.86960444392E+03  0.86960444393E+03  0.50400001928E-02 0. -1.
    10030    2    1    2    0    0  0.00000000000E+00  0.00000000000E+00  0.44416044374E+03  0.21833693316E+04  0.21377144661E+04 0.  0.
        2    1    3    3  502    0 -0.35568997215E+03  0.40230931746E+03 -0.72182573842E+03  0.89966690495E+03  0.25500000920E-02 0. -1.
       -2    1    3    3    0  502  0.35568997215E+03 -0.40230931746E+03  0.11659861822E+04  0.12837024267E+04  0.25500000920E-02 0.  1.
</event>
<event>
 5   0  0.1921687E-04  0.2139306E+04  0.7818609E-02  0.8544124E-01
       -2   -1    0    0    0  501  0.00000000000E+00  0.00000000000E+00  0.13131478557E+04  0.13131478557E+04  0.25500000920E-02 0.  1.
        2   -1    0    0  501    0  0.00000000000E+00  0.00000000000E+00 -0.87130901882E+03  0.87130901883E+03  0.25500000920E-02 0. -1.
    10030    2    1    2    0    0  0.00000000000E+00  0.00000000000E+00  0.44183883684E+03  0.21844568745E+04  0.21393060274E+04 0.  0.
        5    1    3    3  502    0 -0.23712311966E+03  0.35215020461E+03  0.12234235624E+04  0.12949997852E+04  0.46999998093E+01 0.  1.
       -5    1    3    3    0  502  0.23712311966E+03 -0.35215020461E+03 -0.78158472558E+03  0.88945708932E+03  0.46999998093E+01 0. -1.
</event>
<event>
 5   0  0.8525278E-05  0.2050171E+04  0.7818609E-02  0.8583517E-01
        1   -1    0    0  501    0  0.00000000000E+00  0.00000000000E+00  0.90061188452E+03  0.90061188453E+03  0.50400001928E-02 0. -1.
       -1   -1    0    0    0  501  0.00000000000E+00  0.00000000000E+00 -0.11667625932E+04  0.11667625932E+04  0.50400001928E-02 0.  1.
    10030    2    1    2    0    0  0.00000000000E+00  0.00000000000E+00 -0.26615070863E+03  0.20673744777E+04  0.20501709761E+04 0.  0.
        4    1    3    3  502    0  0.78792393464E+03 -0.12185004289E+03  0.51663472539E+03  0.95004453165E+03  0.12699999809E+01 0. -1.
       -4    1    3    3    0  502 -0.78792393464E+03  0.12185004289E+03 -0.78278543402E+03  0.11173299461E+04  0.12699999809E+01 0.  1.
</event>
<event>
 5   0  0.8237966E-05  0.2103243E+04  0.7818609E-02  0.8559816E-01
        1   -1    0    0  501    0  0.00000000000E+00  0.00000000000E+00  0.10044173397E+04  0.10044173398E+04  0.50400001928E-02 0. -1.
       -1   -1    0    0    0  501  0.00000000000E+00  0.00000000000E+00 -0.11010436574E+04  0.11010436574E+04  0.50400001928E-02 0.  1.
    10030    2    1    2    0    0  0.00000000000E+00  0.00000000000E+00 -0.96626317651E+02  0.21054609972E+04  0.21032425836E+04 0.  0.
        1    1    3    3  502    0 -0.83214817603E+02 -0.10352258014E+04  0.11705846833E+03  0.10451410674E+04  0.50400001928E-02 0. -1.
       -1    1    3    3    0  502  0.83214817603E+02  0.10352258014E+04 -0.21368478598E+03  0.10603199298E+04  0.50400001928E-02 0.  1.
</event>
<event>
 5   0  0.8237966E-05  0.2057639E+04  0.7818609E-02  0.8580137E-01
        1   -1    0    0  501    0  0.00000000000E+00  0.00000000000E+00  0.16122115705E+04  0.16122115705E+04  0.50400001928E-02 0.  1.
       -1   -1    0    0    0  501  0.00000000000E+00  0.00000000000E+00 -0.65653252216E+03  0.65653252218E+03  0.50400001928E-02 0. -1.
    10030    2    1    2    0    0  0.00000000000E+00  0.00000000000E+00  0.95567904837E+03  0.22687440927E+04  0.20576387717E+04 0.  0.
        1    1    3    3  502    0  0.40965637080E+03 -0.82701311702E+03 -0.23448028310E+02  0.92321116106E+03  0.50400001928E-02 0. -1.
       -1    1    3    3    0  502 -0.40965637080E+03  0.82701311702E+03  0.97912707668E+03  0.13455329317E+04  0.50400001928E-02 0.  1.
</event>
<event>
 5   0  0.8271069E-05  0.2076379E+04  0.7818609E-02  0.8571721E-01
       -1   -1    0    0    0  501  0.00000000000E+00  0.00000000000E+00  0.15767143929E+04  0.15767143929E+04  0.50400001928E-02 0.  1.
        1   -1    0    0  501    0  0.00000000000E+00  0.00000000000E+00 -0.68359693096E+03  0.68359693098E+03  0.50400001928E-02 0. -1.
    10030    2    1    2    0    0  0.00000000000E+00  0.00000000000E+00  0.89311746196E+03  0.22603113239E+04  0.20763786938E+04 0.  0.
        2    1    3    3  502    0  0.70946388883E+03  0.13852034064E+03 -0.36464423964E+03  0.80962479942E+03  0.25500000920E-02 0. -1.
       -2    1    3    3    0  502 -0.70946388883E+03 -0.13852034064E+03  0.12577617016E+04  0.14506865245E+04  0.25500000920E-02 0.  1.
</event>
<event>
 5   0  0.8755004E-05  0.2059125E+04  0.7818609E-02  0.8579466E-01
        1   -1    0    0  501    0  0.00000000000E+00  0.00000000000E+00  0.11628047591E+04  0.11628047591E+04  0.50400001928E-02 0.  1.
       -1   -1    0    0    0  501  0.00000000000E+00  0.00000000000E+00 -0.91158799150E+03  0.91158799152E+03  0.50400001928E-02 0. -1.
    10030    2    1    2    0    0  0.00000000000E+00  0.00000000000E+00  0.25121676756E+03  0.20743927506E+04  0.20591249159E+04 0.  0.
        3    1    3    3  502    0 -0.85989777030E+03 -0.93489891213E+02  0.68817018638E+03  0.11053247264E+04  0.10100000352E+00 0.  1.
       -3    1    3    3    0  502  0.85989777030E+03  0.93489891213E+02 -0.43695341882E+03  0.96906802421E+03  0.10100000352E+00 0. -1.
</event>
<event>
 5   0  0.1815400E-04  0.2032321E+04  0.7818609E-02  0.8591657E-01
       -2   -1    0    0    0  501  0.00000000000E+00  0.00000000000E+00  0.96707285784E+03  0.96707285784E+03  0.25500000920E-02 0.  1.
        2   -1    0    0  501    0  0.00000000000E+00  0.00000000000E+00 -0.10677402723E+04  0.10677402723E+04  0.25500000920E-02 0. -1.
    10030    2    1    2    0    0  0.00000000000E+00  0.00000000000E+00 -0.10066741451E+03  0.20348131302E+04  0.20323214673E+04 0.  0.
        3    1    3    3  502    0  0.20371666171E+03  0.29170222006E+03 -0.10033367764E+04  0.10645540665E+04  0.10100000352E+00 0. -1.
       -3    1    3    3    0  502 -0.20371666171E+03 -0.29170222006E+03  0.90266936192E+03  0.97025906365E+03  0.10100000352E+00 0.  1.
</event>
<event>
 5   0  0.8755004E-05  0.2051616E+04  0.7818609E-02  0.8582862E-01
       -1   -1    0    0    0  501  0.00000000000E+00  0.00000000000E+00  0.54415407827E+03  0.54415407829E+03  0.50400001928E-02 0. -1.
        1   -1    0    0  501    0  0.00000000000E+00  0.00000000000E+00 -0.19337933572E+04  0.19337933572E+04  0.50400001928E-02 0.  1.
    10030    2    1    2    0    0  0.00000000000E+00  0.00000000000E+00 -0.13896392790E+04  0.24779474355E+04  0.20516155019E+04 0.  0.
        3    1    3    3  502    0  0.58805597879E+03 -0.75015830891E+03 -0.11527254868E+04  0.14957684917E+04  0.10100000352E+00 0.  1.
       -3    1    3    3    0  502 -0.58805597879E+03  0.75015830891E+03 -0.23691379219E+03  0.98217894385E+03  0.10100000352E+00 0. -1.
</event>
<event>
 5   0  0.1777590E-04  0.2051463E+04  0.7818609E-02  0.8582931E-01
       -2   -1    0    0    0  501  0.00000000000E+00  0.00000000000E+00  0.75129709495E+03  0.75129709495E+03  0.25500000920E-02 0.  1.
        2   -1    0    0  501    0  0.00000000000E+00  0.00000000000E+00 -0.14004113433E+04  0.14004113433E+04  0.25500000920E-02 0. -1.
    10030    2    1    2    0    0  0.00000000000E+00  0.00000000000E+00 -0.64911424836E+03  0.21517084383E+04  0.20514628673E+04 0.  0.
        4    1    3    3  502    0  0.54441752959E+03 -0.34281823798E+03 -0.11624742726E+04  0.13286319423E+04  0.12699999809E+01 0. -1.
       -4    1    3    3    0  502 -0.54441752959E+03  0.34281823798E+03  0.51336002422E+03  0.82307649595E+03  0.12699999809E+01 0.  1.
</event>
<event>
 5   0  0.1815400E-04  0.2123880E+04  0.7818609E-02  0.8550797E-01
       -2   -1    0    0    0  501  0.00000000000E+00  0.00000000000E+00  0.65959048252E+03  0.65959048253E+03  0.25500000920E-02 0. -1.
        2   -1    0    0  501    0  0.00000000000E+00  0.00000000000E+00 -0.17097216249E+04  0.17097216249E+04  0.25500000920E-02 0.  1.
    10030    2    1    2    0    0  0.00000000000E+00  0.00000000000E+00 -0.10501311424E+04  0.23693121074E+04  0.21238795743E+04 0.  0.
        3    1    3    3  502    0 -0.29693325423E+03  0.90263966521E+03 -0.10539725688E+04  0.14190792468E+04  0.10100000352E+00 0.  1.
       -3    1    3    3    0  502  0.29693325423E+03 -0.90263966521E+03  0.38414264156E+01  0.95023286064E+03  0.10100000352E+00 0. -1.
</event>
<event>
 5   0  0.1886323E-04  0.2194304E+04  0.7818609E-02  0.8520803E-01
       -2   -1    0    0    0  501  0.00000000000E+00  0.00000000000E+00  0.12416103561E+04  0.12416103561E+04  0.25500000920E-02 0.  1.
        2   -1    0    0  501    0  0.00000000000E+00  0.00000000000E+00 -0.96950067387E+03  0.96950067388E+03  0.25500000920E-02 0. -1.
    10030    2    1    2    0    0  0.00000000000E+00  0.00000000000E+00  0.27210968224E+03  0.22111110300E+04  0.21943036043E+04 0.  0.
        2    1    3    3  502    0  0.34463034734E+03  0.37039730094E+03  0.11170505546E+04  0.12262814434E+04  0.25500000920E-02 0.  1.
       -2    1    3    3    0  502 -0.34463034734E+03 -0.37039730094E+03 -0.84494087237E+03  0.98482958661E+03  0.25500000920E-02 0. -1.
</event>
<event>
 5   0  0.8486612E-05  0.2047443E+04  0.7818609E-02  0.8584755E-01
        1   -1    0    0  501    0  0.00000000000E+00  0.00000000000E+00  0.10909916761E+04  0.10909916762E+04  0.50400001928E-02 0. -1.
       -1   -1    0    0    0  501  0.00000000000E+00  0.00000000000E+00 -0.96059908464E+03  0.96059908465E+03  0.50400001928E-02 0.  1.
    10030    2    1    2    0    0  0.00000000000E+00  0.00000000000E+00  0.13039259151E+03  0.20515907608E+04  0.20474428983E+04 0.  0.
        5    1    3    3  502    0 -0.69510073143E+03 -0.28966891572E+03  0.76007823535E+03  0.10699598691E+04  0.46999998093E+01 0. -1.
       -5    1    3    3    0  502  0.69510073143E+03  0.28966891572E+03 -0.62968564384E+03  0.98163089174E+03  0.46999998093E+01 0.  1.
</event>
<event>
 5   0  0.8237966E-05  0.2069098E+04  0.7818609E-02  0.8574979E-01
        1   -1    0    0  501    0  0.00000000000E+00  0.00000000000E+00  0.69343971069E+03  0.69343971071E+03  0.50400001928E-02 0.  1.
       -1   -1    0    0    0  501  0.00000000000E+00  0.00000000000E+00 -0.15434531114E+04  0.15434531114E+04  0.50400001928E-02 0. -1.
    10030    2    1    2    0    0  0.00000000000E+00  0.00000000000E+00 -0.85001340073E+03  0.22368928221E+04  0.20690980441E+04 0.  0.
        1    1    3    3  502    0 -0.85088056284E+03  0.45841663358E+03 -0.82391213861E+03  0.12700294305E+04  0.50400001928E-02 0. -1.
       -1    1    3    3    0  502  0.85088056284E+03 -0.45841663358E+03 -0.26101262113E+02  0.96686339163E+03  0.50400001928E-02 0.  1.
</event>
<event>
 5   0  0.1777590E-04  0.2085034E+04  0.7818609E-02  0.8567865E-01
        2   -1    0    0  501    0  0.00000000000E+00  0.00000000000E+00  0.67931302284E+03  0.67931302285E+03  0.25500000920E-02 0. -1.
       -2   -1    0    0    0  501  0.00000000000E+00  0.00000000000E+00 -0.15999135279E+04  0.15999135279E+04  0.25500000920E-02 0.  1.
    10030    2    1    2    0    0  0.00000000000E+00  0.00000000000E+00 -0.92060050509E+03  0.22792265508E+04  0.20850343834E+04 0.  0.
        4    1    3    3  502    0  0.83399355628E+03  0.45600784923E+03 -0.92837712663E+03  0.13286738172E+04  0.12699999809E+01 0.  1.
       -4    1    3    3    0  502 -0.83399355628E+03 -0.45600784923E+03  0.77766215437E+01  0.95055273353E+03  0.12699999809E+01 0. -1.
</event>
<event>
 5   0  0.1777590E-04  0.2038685E+04  0.7818609E-02  0.8588745E-01
       -2   -1    0    0    0  501  0.00000000000E+00  0.00000000000E+00  0.11141335512E+04  0.11141335512E+04  0.25500000920E-02 0.  1.
        2   -1    0    0  501    0  0.00000000000E+00  0.00000000000E+00 -0.93261640341E+03  0.93261640341E+03  0.25500000920E-02 0. -1.
    10030    2    1    2    0    0  0.00000000000E+00  0.00000000000E+00  0.18151714776E+03  0.20467499546E+04  0.20386850913E+04 0.  0.
        4    1    3    3  502    0 -0.10084616458E+04  0.12743150429E+02  0.23933161302E+03  0.10365512592E+04  0.12699999809E+01 0. -1.
       -4    1    3    3    0  502  0.10084616458E+04 -0.12743150429E+02 -0.57814465261E+02  0.10101986954E+04  0.12699999809E+01 0.  1.
</event>
<event>
 5   0  0.6441125E-05  0.2119789E+04  0.7818609E-02  0.8552576E-01
       -4   -1    0    0    0  501  0.00000000000E+00  0.00000000000E+00  0.14047056112E+04  0.14047061853E+04  0.12699999809E+01 0.  1.
        4   -1    0    0  501    0  0.00000000000E+00  0.00000000000E+00 -0.79972277568E+03  0.79972378409E+03  0.12699999809E+01 0. -1.
    10030    2    1    2    0    0  0.00000000000E+00  0.00000000000E+00  0.60498283552E+03  0.22044299694E+04  0.21197894374E+04 0.  0.
        4    1    3    3  502    0 -0.66942148102E+03 -0.61410823078E+03 -0.26531459423E+03  0.94638654110E+03  0.12699999809E+01 0. -1.
       -4    1    3    3    0  502  0.66942148102E+03  0.61410823078E+03  0.87029742976E+03  0.12580434283E+04  0.12699999809E+01 0.  1.
</event>
<event>
 5   0  0.1815400E-04  0.2145375E+04  0.7818609E-02  0.8541514E-01
        2   -1    0    0  501    0  0.00000000000E+00  0.00000000000E+00  0.11123918301E+04  0.11123918301E+04  0.25500000920E-02 0.  1.
       -2   -1    0    0    0  501  0.00000000000E+00  0.00000000000E+00 -0.10344005621E+04  0.10344005621E+04  0.25500000920E-02 0. -1.
    10030    2    1    2    0    0  0.00000000000E+00  0.00000000000E+00  0.77991267946E+02  0.21467923922E+04  0.21453752439E+04 0.  0.
        3    1    3    3  502    0  0.94951415445E+03 -0.60654248843E+02  0.53470418742E+03  0.10914048954E+04  0.10100000352E+00 0.  1.
       -3    1    3    3    0  502 -0.94951415445E+03  0.60654248843E+02 -0.45671291948E+03  0.10553874968E+04  0.10100000352E+00 0. -1.
</event>
<event>
 5   0  0.1777590E-04  0.1956066E+04  0.7818609E-02  0.8627441E-01
       -2   -1    0    0    0  501  0.00000000000E+00  0.00000000000E+00  0.13257288961E+04  0.13257288961E+04  0.25500000920E-02 0. -1.
        2   -1    0    0  501    0  0.00000000000E+00  0.00000000000E+00 -0.72152626956E+03  0.72152626957E+03  0.25500000920E-02 0.  1.
    10030    2    1    2    0    0  0.00000000000E+00  0.00000000000E+00  0.60420262651E+03  0.20472551656E+04  0.19560656685E+04 0.  0.
        4    1    3    3  502    0  0.13094039360E+03 -0.25631605855E+02  0.13161578967E+04  0.13229042248E+04  0.12699999809E+01 0. -1.
       -4    1    3    3    0  502 -0.13094039360E+03  0.25631605855E+02 -0.71195527020E+03  0.72435094089E+03  0.12699999809E+01 0.  1.
</event>
<event>
 5   0  0.8486612E-05  0.1891072E+04  0.7818609E-02  0.8659313E-01
       -1   -1    0    0    0  501  0.00000000000E+00  0.00000000000E+00  0.75149613082E+03  0.75149613084E+03  0.50400001928E-02 0.  1.
        1   -1    0    0  501    0  0.00000000000E+00  0.00000000000E+00 -0.11896781518E+04  0.11896781518E+04  0.50400001928E-02 0. -1.
    10030    2    1    2    0    0  0.00000000000E+00  0.00000000000E+00 -0.43818202101E+03  0.19411742827E+04  0.18910722123E+04 0.  0.
        5    1    3    3  502    0  0.55404721664E+03  0.26817685480E+03  0.51764948174E+03  0.80428242531E+03  0.46999998093E+01 0.  1.
       -5    1    3    3    0  502 -0.55404721664E+03 -0.26817685480E+03 -0.95583150274E+03  0.11368918574E+04  0.46999998093E+01 0. -1.
</event>
<event>
 5   0  0.8271069E-05  0.2148562E+04  0.7818609E-02  0.8540148E-01
        1   -1    0    0  501    0  0.00000000000E+00  0.00000000000E+00  0.12450592885E+04  0.12450592885E+04  0.50400001928E-02 0.  1.
       -1   -1    0    0    0  501  0.00000000000E+00  0.00000000000E+00 -0.92692748663E+03  0.92692748665E+03  0.50400001928E-02 0. -1.
    10030    2    1    2    0    0  0.00000000000E+00  0.00000000000E+00  0.31813180188E+03  0.21719867752E+04  0.21485620094E+04 0.  0.
        2    1    3    3  502    0  0.18827293953E+03  0.10022731838E+04  0.50050777842E+03  0.11360045207E+04  0.25500000920E-02 0.  1.
       -2    1    3    3    0  502 -0.18827293953E+03 -0.10022731838E+04 -0.18237597654E+03  0.10359822545E+04  0.25500000920E-02 0. -1.
</event>
<event>
 5   0  0.1777590E-04  0.2115073E+04  0.7818609E-02  0.8554632E-01
        2   -1    0    0  501    0  0.00000000000E+00  0.00000000000E+00  0.30297310737E+04  0.30297310737E+04  0.25500000920E-02 0. -1.
       -2   -1    0    0    0  501  0.00000000000E+00  0.00000000000E+00 -0.36913629452E+03  0.36913629453E+03  0.25500000920E-02 0.  1.
    10030    2    1    2    0    0  0.00000000000E+00  0.00000000000E+00  0.26605947791E+04  0.33988673682E+04  0.21150732393E+04 0.  0.
        4    1    3    3  502    0 -0.17539671558E+03  0.76884484687E+03  0.19798425391E+03  0.81307181976E+03  0.12699999809E+01 0.  1.
       -4    1    3    3    0  502  0.17539671558E+03 -0.76884484687E+03  0.24626105252E+04  0.25857955484E+04  0.12699999809E+01 0. -1.
</event>
<event>
 5   0  0.1815400E-04  0.2128656E+04  0.7818609E-02  0.8548724E-01
       -2   -1    0    0    0  501  0.00000000000E+00  0.00000000000E+00  0.94092289936E+03  0.94092289936E+03  0.25500000920E-02 0. -1.
        2   -1    0    0  501    0  0.00000000000E+00  0.00000000000E+00 -0.12039179339E+04  0.12039179339E+04  0.25500000920E-02 0.  1.
    10030    2    1    2    0    0  0.00000000000E+00  0.00000000000E+00 -0.26299503452E+03  0.21448408332E+04  0.21286558697E+04 0.  0.
        3    1    3    3  502    0  0.20862026171E+03 -0.66466682371E+03 -0.94228305189E+03  0.11718369171E+04  0.10100000352E+00 0.  1.
       -3    1    3    3    0  502 -0.20862026171E+03  0.66466682371E+03  0.67928801737E+03  0.97300391617E+03  0.10100000352E+00 0. -1.
</event>
<event>
 5   0  0.6441125E-05  0.2111925E+04  0.7818609E-02  0.8556009E-01
       -3   -1    0    0    0  501  0.00000000000E+00  0.00000000000E+00  0.63563207212E+03  0.63563208015E+03  0.10100000352E+00 0.  1.
        3   -1    0    0  501    0  0.00000000000E+00  0.00000000000E+00 -0.17542482888E+04  0.17542482917E+04  0.10100000352E+00 0. -1.
    10030    2    1    2    0    0  0.00000000000E+00  0.00000000000E+00 -0.11186162167E+04  0.23898803719E+04  0.21119247031E+04 0.  0.
        1    1    3    3  502    0 -0.48448385144E+03  0.80347901834E+03 -0.11075896610E+04  0.14515708706E+04  0.50400001928E-02 0. -1.
       -1    1    3    3    0  502  0.48448385144E+03 -0.80347901834E+03 -0.11026555691E+02  0.93830950127E+03  0.50400001928E-02 0.  1.
</event>
<event>
 5   0  0.1886323E-04  0.2096475E+04  0.7818609E-02  0.8562798E-01
        2   -1    0    0  501    0  0.00000000000E+00  0.00000000000E+00  0.18189370192E+04  0.18189370192E+04  0.25500000920E-02 0.  1.
       -2   -1    0    0    0  501  0.00000000000E+00  0.00000000000E+00 -0.60408999756E+03  0.60408999756E+03  0.25500000920E-02 0. -1.
    10030    2    1    2    0    0  0.00000000000E+00  0.00000000000E+00  0.12148470217E+04  0.24230270168E+04  0.20964748122E+04 0.  0.
        2    1    3    3  502    0 -0.61449908597E+03 -0.84137427616E+03  0.47422540137E+03  0.11447312045E+04  0.25500000920E-02 0.  1.
       -2    1    3    3    0  502  0.61449908597E+03  0.84137427616E+03  0.74062162029E+03  0.12782958123E+04  0.25500000920E-02 0. -1.
</event>
<event>
 5   0  0.1777590E-04  0.2034510E+04  0.7818609E-02  0.8590654E-01
        2   -1    0    0  501    0  0.00000000000E+00  0.00000000000E+00  0.12453827593E+04  0.12453827593E+04  0.25500000920E-02 0. -1.
       -2   -1    0    0    0  501  0.00000000000E+00  0.00000000000E+00 -0.83091566029E+03  0.83091566029E+03  0.25500000920E-02 0.  1.
    10030    2    1    2    0    0  0.00000000000E+00  0.00000000000E+00  0.41446709905E+03  0.20762984196E+04  0.20345102976E+04 0.  0.
        4    1    3    3  502    0 -0.22283743346E+03 -0.94123245043E+03 -0.11424676970E+03  0.97397586457E+03  0.12699999809E+01 0.  1.
       -4    1    3    3    0  502  0.22283743346E+03  0.94123245043E+03  0.52871386875E+03  0.11023225551E+04  0.12699999809E+01 0. -1.
</event>
<event>
 5   0  0.8237966E-05  0.2110882E+04  0.7818609E-02  0.8556465E-01
       -1   -1    0    0    0  501  0.00000000000E+00  0.00000000000E+00  0.10854321273E+04  0.10854321273E+04  0.50400001928E-02 0.  1.
        1   -1    0    0  501    0  0.00000000000E+00  0.00000000000E+00 -0.10262789203E+04  0.10262789203E+04  0.50400001928E-02 0. -1.
    10030    2    1    2    0    0  0.00000000000E+00  0.00000000000E+00  0.59153207029E+02  0.21117110476E+04  0.21108823858E+04 0.  0.
        1    1    3    3  502    0 -0.48729043780E+03  0.84972088874E+03  0.42276849322E+03  0.10668696070E+04  0.50400001928E-02 0. -1.
       -1    1    3    3    0  502  0.48729043780E+03 -0.84972088874E+03 -0.36361528619E+03  0.10448414406E+04  0.50400001928E-02 0.  1.
</event>
<event>
 5   0  0.1886323E-04  0.2020082E+04  0.7818609E-02  0.8597289E-01
        2   -1    0    0  501    0  0.00000000000E+00  0.00000000000E+00  0.10642866899E+04  0.10642866899E+04  0.25500000920E-02 0.  1.
       -2   -1    0    0    0  501  0.00000000000E+00  0.00000000000E+00 -0.95855989240E+03  0.95855989240E+03  0.25500000920E-02 0. -1.
    10030    2    1    2    0    0  0.00000000000E+00  0.00000000000E+00  0.10572679750E+03  0.20228465823E+04  0.20200817161E+04 0.  0.
        2    1    3    3  502    0 -0.71173612280E+03  0.29875856981E+02 -0.66416249646E+03  0.97394696829E+03  0.25500000920E-02 0. -1.
       -2    1    3    3    0  502  0.71173612280E+03 -0.29875856981E+02  0.76988929396E+03  0.10488996140E+04  0.25500000920E-02 0.  1.
</event>
<event>
 5   0  0.8486612E-05  0.2101237E+04  0.7818609E-02  0.8560699E-01
        1   -1    0    0  501    0  0.00000000000E+00  0.00000000000E+00  0.20153975746E+04  0.20153975746E+04  0.50400001928E-02 0.  1.
       -1   -1    0    0    0  501  0.00000000000E+00  0.00000000000E+00 -0.54768297948E+03  0.54768297950E+03  0.50400001928E-02 0. -1.
    10030    2    1    2    0    0  0.00000000000E+00  0.00000000000E+00  0.14677145952E+04  0.25630805541E+04  0.21012367297E+04 0.  0.
        5    1    3    3  502    0  0.96833789308E+03  0.19844398866E+03  0.29963972206E+03  0.10328912551E+04  0.46999998093E+01 0. -1.
       -5    1    3    3    0  502 -0.96833789308E+03 -0.19844398866E+03  0.11680748731E+04  0.15301892991E+04  0.46999998093E+01 0.  1.
</event>
<event>
 5   0  0.8755004E-05  0.2071119E+04  0.7818609E-02  0.8574073E-01
       -1   -1    0    0    0  501  0.00000000000E+00  0.00000000000E+00  0.68249636782E+03  0.68249636784E+03  0.50400001928E-02 0. -1.
        1   -1    0    0  501    0  0.00000000000E+00  0.00000000000E+00 -0.15712662280E+04  0.15712662280E+04  0.50400001928E-02 0.  1.
    10030    2    1    2    0    0  0.00000000000E+00  0.00000000000E+00 -0.88876986021E+03  0.22537625959E+04  0.20711190150E+04 0.  0.
        3    1    3    3  502    0  0.67163332206E+03  0.68532861631E+03 -0.86810286616E+03  0.12939741992E+04  0.10100000352E+00 0.  1.
       -3    1    3    3    0  502 -0.67163332206E+03 -0.68532861631E+03 -0.20666994049E+02  0.95978839672E+03  0.10100000352E+00 0. -1.
</event>
<event>
 5   0  0.1921687E-04  0.2083087E+04  0.7818609E-02  0.8568730E-01
       -2   -1    0    0    0  501  0.00000000000E+00  0.00000000000E+00  0.57528414176E+03  0.57528414177E+03  0.25500000920E-02 0. -1.
        2   -1    0    0  501    0  0.00000000000E+00  0.00000000000E+00 -0.18856993256E+04  0.18856993256E+04  0.25500000920E-02 0.  1.
    10030    2    1    2    0    0  0.00000000000E+00  0.00000000000E+00 -0.13104151839E+04  0.24609834674E+04  0.20830870536E+04 0.  0.
        5    1    3    3  502    0  0.31625349610E+03 -0.93269410884E+03 -0.25482185343E+03  0.10172958476E+04  0.46999998093E+01 0.  1.
       -5    1    3    3    0  502 -0.31625349610E+03  0.93269410884E+03 -0.10555933304E+04  0.14436876198E+04  0.46999998093E+01 0. -1.
</event>
<event>
 5   0  0.8486612E-05  0.1584265E+04  0.7818609E-02  0.8830274E-01
        1   -1    0    0  501    0  0.00000000000E+00  0.00000000000E+00  0.60820323687E+03  0.60820323689E+03  0.50400001928E-02 0. -1.
       -1   -1    0    0    0  501  0.00000000000E+00  0.00000000000E+00 -0.10316840451E+04  0.10316840451E+04  0.50400001928E-02 0.  1.
    10030    2    1    2    0    0  0.00000000000E+00  0.00000000000E+00 -0.42348080824E+03  0.16398872820E+04  0.15842645937E+04 0.  0.
        5    1    3    3  502    0 -0.49931197480E+03  0.61205860108E+03 -0.27318185826E+03  0.83581014412E+03  0.46999998093E+01 0.  1.
       -5    1    3    3    0  502  0.49931197480E+03 -0.61205860108E+03 -0.15029894997E+03  0.80407713790E+03  0.46999998093E+01 0. -1.
</event>
<event>
 5   0  0.1815400E-04  0.1941069E+04  0.7818609E-02  0.8634679E-01
       -2   -1    0    0    0  501  0.00000000000E+00  0.00000000000E+00  0.10013344683E+04  0.10013344683E+04  0.25500000920E-02 0. -1.
        2   -1    0    0  501    0  0.00000000000E+00  0.00000000000E+00 -0.94068236322E+03  0.94068236323E+03  0.25500000920E-02 0.  1.
    10030    2    1    2    0    0  0.00000000000E+00  0.00000000000E+00  0.60652105037E+02  0.19420168315E+04  0.19410694722E+04 0.  0.
        3    1    3    3  502    0  0.57391945372E+03 -0.69568728443E+03  0.38907228659E+03  0.98221259993E+03  0.10100000352E+00 0. -1.
       -3    1    3    3    0  502 -0.57391945372E+03  0.69568728443E+03 -0.32842018155E+03  0.95980423156E+03  0.10100000352E+00 0.  1.
</event>
<event>
 5   0  0.8237966E-05  0.2111631E+04  0.7818609E-02  0.8556137E-01
       -1   -1    0    0    0  501  0.00000000000E+00  0.00000000000E+00  0.80454605524E+03  0.80454605525E+03  0.50400001928E-02 0.  1.
        1   -1    0    0  501    0  0.00000000000E+00  0.00000000000E+00 -0.13855595875E+04  0.13855595875E+04  0.50400001928E-02 0. -1.
    10030    2    1    2    0    0  0.00000000000E+00  0.00000000000E+00 -0.58101353228E+03  0.21901056428E+04  0.21116311235E+04 0.  0.
        1    1    3    3  502    0  0.73704294614E+03  0.74839640875E+03 -0.40132806250E+03  0.11244526237E+04  0.50400001928E-02 0.  1.
       -1    1    3    3    0  502 -0.73704294614E+03 -0.74839640875E+03 -0.17968546978E+03  0.10656530191E+04  0.50400001928E-02 0. -1.
</event>
<event>
 5   0  0.8486612E-05  0.2216434E+04  0.7818609E-02  0.8511619E-01
       -1   -1    0    0    0  501  0.00000000000E+00  0.00000000000E+00  0.15684124770E+04  0.15684124770E+04  0.50400001928E-02 0.  1.
        1   -1    0    0  501    0  0.00000000000E+00  0.00000000000E+00 -0.78304940325E+03  0.78304940326E+03  0.50400001928E-02 0. -1.
    10030    2    1    2    0    0  0.00000000000E+00  0.00000000000E+00  0.78536307378E+03  0.23514618803E+04  0.22164335805E+04 0.  0.
        5    1    3    3  502    0 -0.11582255876E+03 -0.92567416889E+03 -0.24195420579E+03  0.96376940176E+03  0.46999998093E+01 0. -1.
       -5    1    3    3    0  502  0.11582255876E+03  0.92567416889E+03  0.10273172796E+04  0.13876924785E+04  0.46999998093E+01 0.  1.
</event>
<event>
 5   0  0.1815400E-04  0.2070099E+04  0.7818609E-02  0.8574530E-01
        2   -1    0    0  501    0  0.00000000000E+00  0.00000000000E+00  0.93856816329E+03  0.93856816330E+03  0.25500000920E-02 0. -1.
       -2   -1    0    0    0  501  0.00000000000E+00  0.00000000000E+00 -0.11414491410E+04  0.11414491410E+04  0.25500000920E-02 0.  1.
    10030    2    1    2    0    0  0.00000000000E+00  0.00000000000E+00 -0.20288097766E+03  0.20800173043E+04  0.20700993442E+04 0.  0.
        3    1    3    3  502    0  0.12317494776E+03 -0.99853738872E+03 -0.34566637825E+03  0.10638299863E+04  0.10100000352E+00 0.  1.
       -3    1    3    3    0  502 -0.12317494776E+03  0.99853738872E+03  0.14278540059E+03  0.10161873180E+04  0.10100000352E+00 0. -1.
</event>
<event>
 5   0  0.1921687E-04  0.2036971E+04  0.7818609E-02  0.8589528E-01
        2   -1    0    0  501    0  0.00000000000E+00  0.00000000000E+00  0.11840330471E+04  0.11840330471E+04  0.25500000920E-02 0.  1.
       -2   -1    0    0    0  501  0.00000000000E+00  0.00000000000E+00 -0.87608435657E+03  0.87608435657E+03  0.25500000920E-02 0. -1.
    10030    2    1    2    0    0  0.00000000000E+00  0.00000000000E+00  0.30794869051E+03  0.20601174036E+04  0.20369711144E+04 0.  0.
        5    1    3    3  502    0  0.62396049382E+03 -0.18506189038E+03 -0.63832787448E+03  0.91162446569E+03  0.46999998093E+01 0. -1.
       -5    1    3    3    0  502 -0.62396049382E+03  0.18506189038E+03  0.94627656498E+03  0.11484929380E+04  0.46999998093E+01 0.  1.
</event>
<event>
 5   0  0.1921687E-04  0.2056405E+04  0.7818609E-02  0.8580694E-01
       -2   -1    0    0    0  501  0.00000000000E+00  0.00000000000E+00  0.54144067205E+03  0.54144067206E+03  0.25500000920E-02 0.  1.
        2   -1    0    0  501    0  0.00000000000E+00  0.00000000000E+00 -0.19525684165E+04  0.19525684165E+04  0.25500000920E-02 0. -1.
    10030    2    1    2    0    0  0.00000000000E+00  0.00000000000E+00 -0.14111277444E+04  0.24940090885E+04  0.20564045863E+04 0.  0.
        5    1    3    3  502    0 -0.27986651595E+03  0.42996639078E+03 -0.17862377658E+04  0.18584573738E+04  0.46999998093E+01 0. -1.
       -5    1    3    3    0  502  0.27986651595E+03 -0.42996639078E+03  0.37511002143E+03  0.63555171476E+03  0.46999998093E+01 0.  1.
</event>
<event>
 5   0  0.8525278E-05  0.2136047E+04  0.7818609E-02  0.8545528E-01
        1   -1    0    0  501    0  0.00000000000E+00  0.00000000000E+00  0.83717175727E+03  0.83717175728E+03  0.50400001928E-02 0. -1.
       -1   -1    0    0    0  501  0.00000000000E+00  0.00000000000E+00 -0.13625332979E+04  0.13625332979E+04  0.50400001928E-02 0.  1.
    10030    2    1    2    0    0  0.00000000000E+00  0.00000000000E+00 -0.52536154064E+03  0.21997050552E+04  0.21360471862E+04 0.  0.
        4    1    3    3  502    0  0.90828236146E+03 -0.41163327021E+03  0.13114802323E+03  0.10057933258E+04  0.12699999809E+01 0. -1.
       -4    1    3    3    0  502 -0.90828236146E+03  0.41163327021E+03 -0.65650956387E+03  0.11939117294E+04  0.12699999809E+01 0.  1.
</event>
<event>
 5   0  0.6441125E-05  0.2130745E+04  0.7818609E-02  0.8547819E-01
        3   -1    0    0  501    0  0.00000000000E+00  0.00000000000E+00  0.10257271198E+04  0.10257271248E+04  0.10100000352E+00 0. -1.
       -3   -1    0    0    0  501  0.00000000000E+00  0.00000000000E+00 -0.11065507135E+04  0.11065507181E+04  0.10100000352E+00 0.  1.
    10030    2    1    2    0    0  0.00000000000E+00  0.00000000000E+00 -0.80823593637E+02  0.21322778429E+04  0.21307454907E+04 0.  0.
        4    1    3    3  502    0 -0.48460201191E+02 -0.22113222172E+03  0.10013794474E+04  0.10266500188E+04  0.12699999809E+01 0. -1.
       -4    1    3    3    0  502  0.48460201191E+02  0.22113222172E+03 -0.10822030410E+04  0.11056278241E+04  0.12699999809E+01 0.  1.
</event>
<event>
 5   0  0.8525278E-05  0.2068094E+04  0.7818609E-02  0.8575430E-01
       -1   -1    0    0    0  501  0.00000000000E+00  0.00000000000E+00  0.17999316761E+04  0.17999316761E+04  0.50400001928E-02 0.  1.
        1   -1    0    0  501    0  0.00000000000E+00  0.00000000000E+00 -0.59405232132E+03  0.59405232134E+03  0.50400001928E-02 0. -1.
    10030    2    1    2    0    0  0.00000000000E+00  0.00000000000E+00  0.12058793547E+04  0.23939839974E+04  0.20680943793E+04 0.  0.
        4    1    3    3  502    0  0.63121637378E+03  0.11677706349E+03 -0.33547195606E+03  0.72430245014E+03  0.12699999809E+01 0. -1.
       -4    1    3    3    0  502 -0.63121637378E+03 -0.11677706349E+03  0.15413513108E+04  0.16696815473E+04  0.12699999809E+01 0.  1.
</event>
<event>
 5   0  0.8755004E-05  0.2102254E+04  0.7818609E-02  0.8560251E-01
       -1   -1    0    0    0  501  0.00000000000E+00  0.00000000000E+00  0.10804619324E+04  0.10804619324E+04  0.50400001928E-02 0. -1.
        1   -1    0    0  501    0  0.00000000000E+00  0.00000000000E+00 -0.10225880898E+04  0.10225880898E+04  0.50400001928E-02 0.  1.
    10030    2    1    2    0    0  0.00000000000E+00  0.00000000000E+00  0.57873842571E+02  0.21030500222E+04  0.21022535561E+04 0.  0.
        3    1    3    3  502    0 -0.10418397833E+04 -0.10762116596E+03  0.11759918515E+03  0.10539649083E+04  0.10100000352E+00 0. -1.
       -3    1    3    3    0  502  0.10418397833E+04  0.10762116596E+03 -0.59725342581E+02  0.10490851139E+04  0.10100000352E+00 0.  1.
</event>
<event>
 5   0  0.8237966E-05  0.2139157E+04  0.7818609E-02  0.8544188E-01
        1   -1    0    0  501    0  0.00000000000E+00  0.00000000000E+00  0.18088930154E+04  0.18088930154E+04  0.50400001928E-02 0. -1.
       -1   -1    0    0    0  501  0.00000000000E+00  0.00000000000E+00 -0.63243001363E+03  0.63243001365E+03  0.50400001928E-02 0.  1.
    10030    2    1    2    0    0  0.00000000000E+00  0.00000000000E+00  0.11764630018E+04  0.24413230291E+04  0.21391570624E+04 0.  0.
        1    1    3    3  502    0  0.47490298615E+03  0.90680194868E+03  0.94215961255E+03  0.13912179398E+04  0.50400001928E-02 0. -1.
       -1    1    3    3    0  502 -0.47490298615E+03 -0.90680194868E+03  0.23430338926E+03  0.10501050893E+04  0.50400001928E-02 0.  1.
</event>
<event>
 5   0  0.1815400E-04  0.2065885E+04  0.7818609E-02  0.8576422E-01
       -2   -1    0    0    0  501  0.00000000000E+00  0.00000000000E+00  0.14734933540E+04  0.14734933540E+04  0.25500000920E-02 0. -1.
        2   -1    0    0  501    0  0.00000000000E+00  0.00000000000E+00 -0.72410899118E+03  0.72410899118E+03  0.25500000920E-02 0.  1.
    10030    2    1    2    0    0  0.00000000000E+00  0.00000000000E+00  0.74938436279E+03  0.21976023451E+04  0.20658845912E+04 0.  0.
        3    1    3    3  502    0 -0.85315736177E+03 -0.19778892339E+03  0.95730936895E+03  0.12974741540E+04  0.10100000352E+00 0. -1.
       -3    1    3    3    0  502  0.85315736177E+03  0.19778892339E+03 -0.20792500616E+03  0.90012819117E+03  0.10100000352E+00 0.  1.
</event>
<event>
 5   0  0.1921687E-04  0.2065495E+04  0.7818609E-02  0.8576597E-01
        2   -1    0    0  501    0  0.00000000000E+00  0.00000000000E+00  0.17457980027E+04  0.17457980027E+04  0.25500000920E-02 0. -1.
       -2   -1    0    0    0  501  0.00000000000E+00  0.00000000000E+00 -0.61093401634E+03  0.61093401634E+03  0.25500000920E-02 0.  1.
    10030    2    1    2    0    0  0.00000000000E+00  0.00000000000E+00  0.11348639864E+04  0.23567320190E+04  0.20654949872E+04 0.  0.
        5    1    3    3  502    0 -0.84779778932E+03  0.32449848132E+02  0.12392977786E+04  0.15018971863E+04  0.46999998093E+01 0. -1.
       -5    1    3    3    0  502  0.84779778932E+03 -0.32449848132E+02 -0.10443379227E+03  0.85483483270E+03  0.46999998093E+01 0.  1.
</event>
<event>
 5   0  0.1921687E-04  0.2065490E+04  0.7818609E-02  0.8576600E-01
       -2   -1    0    0    0  501  0.00000000000E+00  0.00000000000E+00  0.61971081226E+03  0.61971081226E+03  0.25500000920E-02 0.  1.
        2   -1    0    0  501    0  0.00000000000E+00  0.00000000000E+00 -0.17210637307E+04  0.17210637307E+04  0.25500000920E-02 0. -1.
    10030    2    1    2    0    0  0.00000000000E+00  0.00000000000E+00 -0.11013529184E+04  0.23407745429E+04  0.20654895812E+04 0.  0.
        5    1    3    3  502    0 -0.37853360287E+03 -0.43245826004E+03 -0.15230740760E+04  0.16279080337E+04  0.46999998093E+01 0. -1.
       -5    1    3    3    0  502  0.37853360287E+03  0.43245826004E+03  0.42172115762E+03  0.71286650921E+03  0.46999998093E+01 0.  1.
</event>
<event>
 5   0  0.8237966E-05  0.2144098E+04  0.7818609E-02  0.8542063E-01
        1   -1    0    0  501    0  0.00000000000E+00  0.00000000000E+00  0.74617347455E+03  0.74617347457E+03  0.50400001928E-02 0. -1.
       -1   -1    0    0    0  501  0.00000000000E+00  0.00000000000E+00 -0.15402434162E+04  0.15402434162E+04  0.50400001928E-02 0.  1.
    10030    2    1    2    0    0  0.00000000000E+00  0.00000000000E+00 -0.79406994163E+03  0.22864168908E+04  0.21440977417E+04 0.  0.
        1    1    3    3  502    0 -0.60690384274E+03 -0.75635463540E+02 -0.13359531456E+04  0.14692936415E+04  0.50400001928E-02 0.  1.
       -1    1    3    3    0  502  0.60690384274E+03  0.75635463540E+02  0.54188320398E+03  0.81712324925E+03  0.50400001928E-02 0. -1.
</event>
<event>
 5   0  0.1810875E-04  0.2083032E+04  0.7818609E-02  0.8568755E-01
       -2   -1    0    0    0  501  0.00000000000E+00  0.00000000000E+00  0.82879879754E+03  0.82879879754E+03  0.25500000920E-02 0.  1.
        2   -1    0    0  501    0  0.00000000000E+00  0.00000000000E+00 -0.13088289732E+04  0.13088289732E+04  0.25500000920E-02 0. -1.
    10030    2    1    2    0    0  0.00000000000E+00  0.00000000000E+00 -0.48003017570E+03  0.21376277708E+04  0.20830322890E+04 0.  0.
        1    1    3    3  502    0 -0.31056074960E+03  0.91893245556E+03 -0.62925984858E+03  0.11562235053E+04  0.50400001928E-02 0. -1.
       -1    1    3    3    0  502  0.31056074960E+03 -0.91893245556E+03  0.14922967288E+03  0.98140426551E+03  0.50400001928E-02 0.  1.
</event>
<event>
 5   0  0.1810875E-04  0.2037393E+04  0.7818609E-02  0.8589335E-01
       -2   -1    0    0    0  501  0.00000000000E+00  0.00000000000E+00  0.16589215724E+04  0.16589215724E+04  0.25500000920E-02 0.  1.
        2   -1    0    0  501    0  0.00000000000E+00  0.00000000000E+00 -0.62555223903E+03  0.62555223904E+03  0.25500000920E-02 0. -1.
    10030    2    1    2    0    0  0.00000000000E+00  0.00000000000E+00  0.10333693334E+04  0.22844738115E+04  0.20373925533E+04 0.  0.
        1    1    3    3  502    0  0.45804094169E+03 -0.83175122632E+03  0.10298117654E+03  0.95510037666E+03  0.50400001928E-02 0. -1.
       -1    1    3    3    0  502 -0.45804094169E+03  0.83175122632E+03  0.93038815686E+03  0.13293734348E+04  0.50400001928E-02 0.  1.
</event>
<event>
 5   0  0.8755004E-05  0.2068856E+04  0.7818609E-02  0.8575088E-01
       -1   -1    0    0    0  501  0.00000000000E+00  0.00000000000E+00  0.93185708377E+03  0.93185708378E+03  0.50400001928E-02 0. -1.
        1   -1    0    0  501    0  0.00000000000E+00  0.00000000000E+00 -0.11482891950E+04  0.11482891950E+04  0.50400001928E-02 0.  1.
    10030    2    1    2    0    0  0.00000000000E+00  0.00000000000E+00 -0.21643211125E+03  0.20801462788E+04  0.20688561290E+04 0.  0.
        3    1    3    3  502    0  0.20385744950E+03 -0.67097013254E+03  0.65638282947E+03  0.96051923848E+03  0.10100000352E+00 0. -1.
       -3    1    3    3    0  502 -0.20385744950E+03  0.67097013254E+03 -0.87281494072E+03  0.11196270403E+04  0.10100000352E+00 0.  1.
</event>
<event>
 5   0  0.1777590E-04  0.2090059E+04  0.7818609E-02  0.8565635E-01
       -2   -1    0    0    0  501  0.00000000000E+00  0.00000000000E+00  0.80150451251E+03  0.80150451251E+03  0.25500000920E-02 0.  1.
        2   -1    0    0  501    0  0.00000000000E+00  0.00000000000E+00 -0.13625452672E+04  0.13625452672E+04  0.25500000920E-02 0. -1.
    10030    2    1    2    0    0  0.00000000000E+00  0.00000000000E+00 -0.56104075464E+03  0.21640497797E+04  0.20900585448E+04 0.  0.
        4    1    3    3  502    0 -0.60126849220E+03 -0.72497417688E+03 -0.74928771847E+03  0.12035551731E+04  0.12699999809E+01 0. -1.
       -4    1    3    3    0  502  0.60126849220E+03  0.72497417688E+03  0.18824696383E+03  0.96049460652E+03  0.12699999809E+01 0.  1.
</event>
<event>
 5   0  0.8271069E-05  0.2077472E+04  0.7818609E-02  0.8571233E-01
        1   -1    0    0  501    0  0.00000000000E+00  0.00000000000E+00  0.11565831232E+04  0.11565831232E+04  0.50400001928E-02 0.  1.
       -1   -1    0    0    0  501  0.00000000000E+00  0.00000000000E+00 -0.93289633070E+03  0.93289633072E+03  0.50400001928E-02 0. -1.
    10030    2    1    2    0    0  0.00000000000E+00  0.00000000000E+00  0.22368679249E+03  0.20894794539E+04  0.20774716863E+04 0.  0.
        2    1    3    3  502    0  0.71523886038E+03 -0.74660995891E+03  0.21231620447E+03  0.10554957266E+04  0.25500000920E-02 0.  1.
       -2    1    3    3    0  502 -0.71523886038E+03  0.74660995891E+03  0.11370588014E+02  0.10339837273E+04  0.25500000920E-02 0. -1.
</event>
<event>
 5   0  0.1886323E-04  0.2077781E+04  0.7818609E-02  0.8571095E-01
        2   -1    0    0  501    0  0.00000000000E+00  0.00000000000E+00  0.11956671703E+04  0.11956671703E+04  0.25500000920E-02 0.  1.
       -2   -1    0    0    0  501  0.00000000000E+00  0.00000000000E+00 -0.90267033371E+03  0.90267033372E+03  0.25500000920E-02 0. -1.
    10030    2    1    2    0    0  0.00000000000E+00  0.00000000000E+00  0.29299683656E+03  0.20983375040E+04  0.20777808196E+04 0.  0.
        2    1    3    3  502    0 -0.67533626474E+03 -0.74969276371E+03  0.39628120346E+03  0.10840466331E+04  0.25500000920E-02 0.  1.
       -2    1    3    3    0  502  0.67533626474E+03  0.74969276371E+03 -0.10328436689E+03  0.10142908709E+04  0.25500000920E-02 0. -1.
</event>
<event>
 5   0  0.8237966E-05  0.2075206E+04  0.7818609E-02  0.8572245E-01
        1   -1    0    0  501    0  0.00000000000E+00  0.00000000000E+00  0.97620540537E+03  0.97620540538E+03  0.50400001928E-02 0.  1.
       -1   -1    0    0    0  501  0.00000000000E+00  0.00000000000E+00 -0.11028618416E+04  0.11028618416E+04  0.50400001928E-02 0. -1.
    10030    2    1    2    0    0  0.00000000000E+00  0.00000000000E+00 -0.12665643619E+03  0.20790672470E+04  0.20752057162E+04 0.  0.
        1    1    3    3  502    0 -0.51624028088E+03  0.51978362047E+03 -0.79950208196E+03  0.10843812147E+04  0.50400001928E-02 0. -1.
       -1    1    3    3    0  502  0.51624028088E+03 -0.51978362047E+03  0.67284564577E+03  0.99468603226E+03  0.50400001928E-02 0.  1.
</event>
<event>
 5   0  0.1886323E-04  0.2105813E+04  0.7818609E-02  0.8558687E-01
       -2   -1    0    0    0  501  0.00000000000E+00  0.00000000000E+00  0.61451194505E+03  0.61451194506E+03  0.25500000920E-02 0. -1.
        2   -1    0    0  501    0  0.00000000000E+00  0.00000000000E+00 -0.18040529082E+04  0.18040529082E+04  0.25500000920E-02 0.  1.
    10030    2    1    2    0    0  0.00000000000E+00  0.00000000000E+00 -0.11895409631E+04  0.24185648533E+04  0.21058129657E+04 0.  0.
        2    1    3    3  502    0  0.27852894131E+03  0.21464675959E+03  0.54507856460E+03  0.64866188738E+03  0.25500000920E-02 0. -1.
       -2    1    3    3    0  502 -0.27852894131E+03 -0.21464675959E+03 -0.17346195277E+04  0.17699029659E+04  0.25500000920E-02 0.  1.
</event>
<event>
 5   0  0.1921687E-04  0.2099623E+04  0.7818609E-02  0.8561410E-01
       -2   -1    0    0    0  501  0.00000000000E+00  0.00000000000E+00  0.13964312331E+04  0.13964312331E+04  0.25500000920E-02 0. -1.
        2   -1    0    0  501    0  0.00000000000E+00  0.00000000000E+00 -0.78922884257E+03  0.78922884257E+03  0.25500000920E-02 0.  1.
    10030    2    1    2    0    0  0.00000000000E+00  0.00000000000E+00  0.60720239051E+03  0.21856600757E+04  0.20996226383E+04 0.  0.
        5    1    3    3  502    0 -0.10060337380E+03  0.51052918968E+02  0.13900917218E+04  0.13946700414E+04  0.46999998093E+01 0. -1.
       -5    1    3    3    0  502  0.10060337380E+03 -0.51052918968E+02 -0.78288933125E+03  0.79099003429E+03  0.46999998093E+01 0.  1.
</event>
<event>
 5   0  0.1921687E-04  0.2178379E+04  0.7818609E-02  0.8527481E-01
       -2   -1    0    0    0  501  0.00000000000E+00  0.00000000000E+00  0.79904595950E+03  0.79904595950E+03  0.25500000920E-02 0. -1.
        2   -1    0    0  501    0  0.00000000000E+00  0.00000000000E+00 -0.14846877319E+04  0.14846877319E+04  0.25500000920E-02 0.  1.
    10030    2    1    2    0    0  0.00000000000E+00  0.00000000000E+00 -0.68564177236E+03  0.22837336914E+04  0.21783789691E+04 0.  0.
        5    1    3    3  502    0 -0.38154533412E+03 -0.26242287964E+03 -0.13763337719E+04  0.14521567930E+04  0.46999998093E+01 0.  1.
       -5    1    3    3    0  502  0.38154533412E+03  0.26242287964E+03  0.69069199952E+03  0.83157689839E+03  0.46999998093E+01 0. -1.
</event>
<event>
 5   0  0.6441125E-05  0.1854624E+04  0.7818609E-02  0.8677779E-01
        4   -1    0    0  501    0  0.00000000000E+00  0.00000000000E+00  0.76391910053E+03  0.76392015621E+03  0.12699999809E+01 0. -1.
       -4   -1    0    0    0  501  0.00000000000E+00  0.00000000000E+00 -0.11256500159E+04  0.11256507323E+04  0.12699999809E+01 0.  1.
    10030    2    1    2    0    0  0.00000000000E+00  0.00000000000E+00 -0.36173091536E+03  0.18895708885E+04  0.18546236512E+04 0.  0.
        3    1    3    3  502    0  0.51301592253E+03 -0.56376840207E+03 -0.71891415036E+03  0.10477870555E+04  0.10100000352E+00 0.  1.
       -3    1    3    3    0  502 -0.51301592253E+03  0.56376840207E+03  0.35718323500E+03  0.84178383301E+03  0.10100000352E+00 0. -1.
</event>
<event>
 5   0  0.8237966E-05  0.2139662E+04  0.7818609E-02  0.8543970E-01
        1   -1    0    0  501    0  0.00000000000E+00  0.00000000000E+00  0.15513838665E+04  0.15513838665E+04  0.50400001928E-02 0.  1.
       -1   -1    0    0    0  501  0.00000000000E+00  0.00000000000E+00 -0.73775312442E+03  0.73775312444E+03  0.50400001928E-02 0. -1.
    10030    2    1    2    0    0  0.00000000000E+00  0.00000000000E+00  0.81363074211E+03  0.22891369910E+04  0.21396619310E+04 0.  0.
        1    1    3    3  502    0 -0.46562768338E+03  0.14076217016E+03  0.14262262385E+04  0.15068989387E+04  0.50400001928E-02 0.  1.
       -1    1    3    3    0  502  0.46562768338E+03 -0.14076217016E+03 -0.61259549643E+03  0.78223805222E+03  0.50400001928E-02 0. -1.
</event>
<event>
 5   0  0.8755004E-05  0.2093425E+04  0.7818609E-02  0.8564145E-01
        1   -1    0    0  501    0  0.00000000000E+00  0.00000000000E+00  0.23732534596E+04  0.23732534596E+04  0.50400001928E-02 0. -1.
       -1   -1    0    0    0  501  0.00000000000E+00  0.00000000000E+00 -0.46164786923E+03  0.46164786925E+03  0.50400001928E-02 0.  1.
    10030    2    1    2    0    0  0.00000000000E+00  0.00000000000E+00  0.19116055904E+04  0.28349013289E+04  0.20934253297E+04 0.  0.
        3    1    3    3  502    0 -0.52884272793E+03  0.31981459394E+03  0.20997962244E+04  0.21888581954E+04  0.10100000352E+00 0. -1.
       -3    1    3    3    0  502  0.52884272793E+03 -0.31981459394E+03 -0.18819063400E+03  0.64604313348E+03  0.10100000352E+00 0.  1.
</event>
<event>
 5   0  0.8755004E-05  0.1835074E+04  0.7818609E-02  0.8687867E-01
        1   -1    0    0  501    0  0.00000000000E+00  0.00000000000E+00  0.12876621199E+04  0.12876621199E+04  0.50400001928E-02 0. -1.
       -1   -1    0    0    0  501  0.00000000000E+00  0.00000000000E+00 -0.65380078259E+03  0.65380078261E+03  0.50400001928E-02 0.  1.
    10030    2    1    2    0    0  0.00000000000E+00  0.00000000000E+00  0.63386133731E+03  0.19414629025E+04  0.18350743873E+04 0.  0.
        3    1    3    3  502    0  0.64793534051E+03  0.52409404981E+03  0.72308798049E+03  0.11033363115E+04  0.10100000352E+00 0. -1.
       -3    1    3    3    0  502 -0.64793534051E+03 -0.52409404981E+03 -0.89226643180E+02  0.83812659102E+03  0.10100000352E+00 0.  1.
</event>
<event>
 5   0  0.1810875E-04  0.1583082E+04  0.7818609E-02  0.8831009E-01
       -2   -1    0    0    0  501  0.00000000000E+00  0.00000000000E+00  0.53396318989E+03  0.53396318990E+03  0.25500000920E-02 0.  1.
        2   -1    0    0  501    0  0.00000000000E+00  0.00000000000E+00 -0.11733721064E+04  0.11733721064E+04  0.25500000920E-02 0. -1.
    10030    2    1    2    0    0  0.00000000000E+00  0.00000000000E+00 -0.63940891653E+03  0.17073352963E+04  0.15830824525E+04 0.  0.
        1    1    3    3  502    0  0.47625203116E+03  0.54032617377E+03  0.34343827161E+02  0.72107410835E+03  0.50400001928E-02 0.  1.
       -1    1    3    3    0  502 -0.47625203116E+03 -0.54032617377E+03 -0.67375274369E+03  0.98626118798E+03  0.50400001928E-02 0. -1.
</event>
<event>
 5   0  0.8486612E-05  0.1985582E+04  0.7818609E-02  0.8613391E-01
        1   -1    0    0  501    0  0.00000000000E+00  0.00000000000E+00  0.54690243814E+03  0.54690243816E+03  0.50400001928E-02 0.  1.
       -1   -1    0    0    0  501  0.00000000000E+00  0.00000000000E+00 -0.18022112304E+04  0.18022112304E+04  0.50400001928E-02 0. -1.
    10030    2    1    2    0    0  0.00000000000E+00  0.00000000000E+00 -0.12553087922E+04  0.23491136686E+04  0.19855817445E+04 0.  0.
        5    1    3    3  502    0  0.71543093128E+03 -0.56081185949E+03 -0.15551528280E+03  0.92225725931E+03  0.46999998093E+01 0.  1.
       -5    1    3    3    0  502 -0.71543093128E+03  0.56081185949E+03 -0.10997935094E+04  0.14268564092E+04  0.46999998093E+01 0. -1.
</event>
<event>
 5   0  0.1810875E-04  0.1946690E+04  0.7818609E-02  0.8631958E-01
        2   -1    0    0  501    0  0.00000000000E+00  0.00000000000E+00  0.89359369571E+03  0.89359369571E+03  0.25500000920E-02 0. -1.
       -2   -1    0    0    0  501  0.00000000000E+00  0.00000000000E+00 -0.10602144152E+04  0.10602144152E+04  0.25500000920E-02 0.  1.
    10030    2    1    2    0    0  0.00000000000E+00  0.00000000000E+00 -0.16662071950E+03  0.19538081109E+04  0.19466904402E+04 0.  0.
        1    1    3    3  502    0  0.18965745016E+03  0.82434751613E+03 -0.56661243898E+03  0.10181200478E+04  0.50400001928E-02 0.  1.
       -1    1    3    3    0  502 -0.18965745016E+03 -0.82434751613E+03  0.39999171949E+03  0.93568806310E+03  0.50400001928E-02 0. -1.
</event>
<event>
 5   0  0.1815400E-04  0.2122303E+04  0.7818609E-02  0.8551482E-01
        2   -1    0    0  501    0  0.00000000000E+00  0.00000000000E+00  0.17260650612E+04  0.17260650612E+04  0.25500000920E-02 0.  1.
       -2   -1    0    0    0  501  0.00000000000E+00  0.00000000000E+00 -0.65237554360E+03  0.65237554361E+03  0.25500000920E-02 0. -1.
    10030    2    1    2    0    0  0.00000000000E+00  0.00000000000E+00  0.10736895176E+04  0.23784406048E+04  0.21223031193E+04 0.  0.
        3    1    3    3  502    0 -0.17991296687E+03 -0.21633782441E+03 -0.60980733375E+03  0.67159193296E+03  0.10100000352E+00 0. -1.
       -3    1    3    3    0  502  0.17991296687E+03  0.21633782441E+03  0.16834968513E+04  0.17068486719E+04  0.10100000352E+00 0.  1.
</event>
<event>
 5   0  0.1886323E-04  0.2087130E+04  0.7818609E-02  0.8566934E-01
       -2   -1    0    0    0  501  0.00000000000E+00  0.00000000000E+00  0.15159289202E+04  0.15159289202E+04  0.25500000920E-02 0.  1.
        2   -1    0    0  501    0  0.00000000000E+00  0.00000000000E+00 -0.71839009087E+03  0.71839009087E+03  0.25500000920E-02 0. -1.
    10030    2    1    2    0    0  0.00000000000E+00  0.00000000000E+00  0.79753882932E+03  0.22343190111E+04  0.20871303886E+04 0.  0.
        2    1    3    3  502    0  0.65551217708E+03 -0.56438998641E+03  0.10237159598E+04  0.13402337996E+04  0.25500000920E-02 0.  1.
       -2    1    3    3    0  502 -0.65551217708E+03  0.56438998641E+03 -0.22617713051E+03  0.89408521151E+03  0.25500000920E-02 0. -1.
</event>
<event>
 5   0  0.8271069E-05  0.2145977E+04  0.7818609E-02  0.8541256E-01
        1   -1    0    0  501    0  0.00000000000E+00  0.00000000000E+00  0.98873650118E+03  0.98873650119E+03  0.50400001928E-02 0.  1.
       -1   -1    0    0    0  501  0.00000000000E+00  0.00000000000E+00 -0.11644194679E+04  0.11644194679E+04  0.50400001928E-02 0. -1.
    10030    2    1    2    0    0  0.00000000000E+00  0.00000000000E+00 -0.17568296671E+03  0.21531559691E+04  0.21459767292E+04 0.  0.
        2    1    3    3  502    0 -0.66788216409E+03 -0.70015043094E+03  0.37741967499E+03  0.10386158203E+04  0.25500000920E-02 0.  1.
       -2    1    3    3    0  502  0.66788216409E+03  0.70015043094E+03 -0.55310264171E+03  0.11145401488E+04  0.25500000920E-02 0. -1.
</event>
<event>
 5   0  0.1921687E-04  0.2078219E+04  0.7818609E-02  0.8570899E-01
        2   -1    0    0  501    0  0.00000000000E+00  0.00000000000E+00  0.19873904701E+04  0.19873904701E+04  0.25500000920E-02 0. -1.
       -2   -1    0    0    0  501  0.00000000000E+00  0.00000000000E+00 -0.54329985327E+03  0.54329985327E+03  0.25500000920E-02 0.  1.
    10030    2    1    2    0    0  0.00000000000E+00  0.00000000000E+00  0.14440906168E+04  0.25306903234E+04  0.20782193828E+04 0.  0.
        5    1    3    3  502    0 -0.52288257916E+03 -0.23969101047E+03  0.17758266575E+04  0.18666655778E+04  0.46999998093E+01 0. -1.
       -5    1    3    3    0  502  0.52288257916E+03  0.23969101047E+03 -0.33173604061E+03  0.66402474556E+03  0.46999998093E+01 0.  1.
</event>
<event>
 5   0  0.6441125E-05  0.2098348E+04  0.7818609E-02  0.8561971E-01
        3   -1    0    0  501    0  0.00000000000E+00  0.00000000000E+00  0.20189744982E+04  0.20189745007E+04  0.10100000352E+00 0. -1.
       -3   -1    0    0    0  501  0.00000000000E+00  0.00000000000E+00 -0.54521072598E+03  0.54521073533E+03  0.10100000352E+00 0.  1.
    10030    2    1    2    0    0  0.00000000000E+00  0.00000000000E+00  0.14737637722E+04  0.25641852361E+04  0.20983484621E+04 0.  0.
        5    1    3    3  502    0  0.18364354527E+03  0.18506569967E+03 -0.50498096536E+03  0.56833276369E+03  0.46999998093E+01 0.  1.
       -5    1    3    3    0  502 -0.18364354527E+03 -0.18506569967E+03  0.19787447376E+04  0.19958524724E+04  0.46999998093E+01 0. -1.
</event>
<event>
 5   0  0.1921687E-04  0.2128494E+04  0.7818609E-02  0.8548794E-01
        2   -1    0    0  501    0  0.00000000000E+00  0.00000000000E+00  0.10092938134E+04  0.10092938134E+04  0.25500000920E-02 0. -1.
       -2   -1    0    0    0  501  0.00000000000E+00  0.00000000000E+00 -0.11221920255E+04  0.11221920255E+04  0.25500000920E-02 0.  1.
    10030    2    1    2    0    0  0.00000000000E+00  0.00000000000E+00 -0.11289821214E+03  0.21314858389E+04  0.21284938044E+04 0.  0.
        5    1    3    3  502    0  0.87301483670E+03  0.45120643864E+03  0.35260670581E+03  0.10440764983E+04  0.46999998093E+01 0. -1.
       -5    1    3    3    0  502 -0.87301483670E+03 -0.45120643864E+03 -0.46550491795E+03  0.10874093406E+04  0.46999998093E+01 0.  1.
</event>
<event>
 5   0  0.1810875E-04  0.1840713E+04  0.7818609E-02  0.8684943E-01
       -2   -1    0    0    0  501  0.00000000000E+00  0.00000000000E+00  0.98136948869E+03  0.98136948870E+03  0.25500000920E-02 0.  1.
        2   -1    0    0  501    0  0.00000000000E+00  0.00000000000E+00 -0.86313676144E+03  0.86313676144E+03  0.25500000920E-02 0. -1.
    10030    2    1    2    0    0  0.00000000000E+00  0.00000000000E+00  0.11823272726E+03  0.18445062501E+04  0.18407129947E+04 0.  0.
        1    1    3    3  502    0 -0.44378675590E+03  0.18618304071E+03  0.84523623251E+03  0.97264335608E+03  0.50400001928E-02 0.  1.
       -1    1    3    3    0  502  0.44378675590E+03 -0.18618304071E+03 -0.72700350525E+03  0.87186289405E+03  0.50400001928E-02 0. -1.
</event>
<event>
 5   0  0.1777590E-04  0.2224525E+04  0.7818609E-02  0.8508289E-01
       -2   -1    0    0    0  501  0.00000000000E+00  0.00000000000E+00  0.82866888522E+03  0.82866888523E+03  0.25500000920E-02 0. -1.
        2   -1    0    0  501    0  0.00000000000E+00  0.00000000000E+00 -0.14929102997E+04  0.14929102997E+04  0.25500000920E-02 0.  1.
    10030    2    1    2    0    0  0.00000000000E+00  0.00000000000E+00 -0.66424141446E+03  0.23215791849E+04  0.22245254000E+04 0.  0.
        4    1    3    3  502    0 -0.57867589298E+02 -0.11100177153E+04 -0.28987351956E+03  0.11487019877E+04  0.12699999809E+01 0. -1.
       -4    1    3    3    0  502  0.57867589298E+02  0.11100177153E+04 -0.37436789489E+03  0.11728771973E+04  0.12699999809E+01 0.  1.
</event>
<event>
 5   0  0.8271069E-05  0.2183498E+04  0.7818609E-02  0.8525328E-01
        1   -1    0    0  501    0  0.00000000000E+00  0.00000000000E+00  0.17081440125E+04  0.17081440125E+04  0.50400001928E-02 0.  1.
       -1   -1    0    0    0  501  0.00000000000E+00  0.00000000000E+00 -0.69778391012E+03  0.69778391014E+03  0.50400001928E-02 0. -1.
    10030    2    1    2    0    0  0.00000000000E+00  0.00000000000E+00  0.10103601023E+04  0.24059279226E+04  0.21834975687E+04 0.  0.
        2    1    3    3  502    0 -0.16567469305E+03 -0.10493685369E+04  0.22797083489E+03  0.10865510258E+04  0.25500000920E-02 0. -1.
       -2    1    3    3    0  502  0.16567469305E+03  0.10493685369E+04  0.78238926744E+03  0.13193768968E+04  0.25500000920E-02 0.  1.
</event>
<event>
 5   0  0.8271069E-05  0.2123137E+04  0.7818609E-02  0.8551119E-01
       -1   -1    0    0    0  501  0.00000000000E+00  0.00000000000E+00  0.43048331909E+03  0.43048331912E+03  0.50400001928E-02 0.  1.
        1   -1    0    0  501    0  0.00000000000E+00  0.00000000000E+00 -0.26178198354E+04  0.26178198354E+04  0.50400001928E-02 0. -1.
    10030    2    1    2    0    0  0.00000000000E+00  0.00000000000E+00 -0.21873365163E+04  0.30483031545E+04  0.21231370861E+04 0.  0.
        2    1    3    3  502    0 -0.58161704219E+02  0.50663187828E+03  0.24310234749E+03  0.56494016966E+03  0.25500000920E-02 0.  1.
       -2    1    3    3    0  502  0.58161704219E+02 -0.50663187828E+03 -0.24304388638E+04  0.24833629849E+04  0.25500000920E-02 0. -1.
</event>
<event>
 5   0  0.1921687E-04  0.2109917E+04  0.7818609E-02  0.8556887E-01
       -2   -1    0    0    0  501  0.00000000000E+00  0.00000000000E+00  0.14944485356E+04  0.14944485356E+04  0.25500000920E-02 0.  1.
        2   -1    0    0  501    0  0.00000000000E+00  0.00000000000E+00 -0.74471464370E+03  0.74471464371E+03  0.25500000920E-02 0. -1.
    10030    2    1    2    0    0  0.00000000000E+00  0.00000000000E+00  0.74973389191E+03  0.22391631793E+04  0.21099172578E+04 0.  0.
        5    1    3    3  502    0 -0.56005255096E+03 -0.84957285823E+03  0.67027527867E+03  0.12184924868E+04  0.46999998093E+01 0.  1.
       -5    1    3    3    0  502  0.56005255096E+03  0.84957285823E+03  0.79458613241E+02  0.10206706925E+04  0.46999998093E+01 0. -1.
</event>
<event>
 5   0  0.1815400E-04  0.2109292E+04  0.7818609E-02  0.8557161E-01
       -2   -1    0    0    0  501  0.00000000000E+00  0.00000000000E+00  0.56819819979E+03  0.56819819980E+03  0.25500000920E-02 0.  1.
        2   -1    0    0  501    0  0.00000000000E+00  0.00000000000E+00 -0.19575533112E+04  0.19575533112E+04  0.25500000920E-02 0. -1.
    10030    2    1    2    0    0  0.00000000000E+00  0.00000000000E+00 -0.13893551114E+04  0.25257515110E+04  0.21092920779E+04 0.  0.
        3    1    3    3  502    0  0.15998902302E+03  0.47713998675E+03  0.41514957188E+03  0.65238656614E+03  0.10100000352E+00 0.  1.
       -3    1    3    3    0  502 -0.15998902302E+03 -0.47713998675E+03 -0.18045046833E+04  0.18733649449E+04  0.10100000352E+00 0. -1.
</event>
<event>
 5   0  0.8271069E-05  0.1990261E+04  0.7818609E-02  0.8611188E-01
       -1   -1    0    0    0  501  0.00000000000E+00  0.00000000000E+00  0.46911198622E+03  0.46911198624E+03  0.50400001928E-02 0. -1.
        1   -1    0    0  501    0  0.00000000000E+00  0.00000000000E+00 -0.21109772977E+04  0.21109772977E+04  0.50400001928E-02 0.  1.
    10030    2    1    2    0    0  0.00000000000E+00  0.00000000000E+00 -0.16418653115E+04  0.25800892839E+04  0.19902610412E+04 0.  0.
        2    1    3    3  502    0  0.87670840499E+03 -0.34757617732E+03 -0.40923375161E+03  0.10280559760E+04  0.25500000920E-02 0.  1.
       -2    1    3    3    0  502 -0.87670840499E+03  0.34757617732E+03 -0.12326315599E+04  0.15520333079E+04  0.25500000920E-02 0. -1.
</event>
<event>
 5   0  0.1777590E-04  0.2100990E+04  0.7818609E-02  0.8560807E-01
       -2   -1    0    0    0  501  0.00000000000E+00  0.00000000000E+00  0.54794952438E+03  0.54794952438E+03  0.25500000920E-02 0. -1.
        2   -1    0    0  501    0  0.00000000000E+00  0.00000000000E+00 -0.20139437875E+04  0.20139437875E+04  0.25500000920E-02 0.  1.
    10030    2    1    2    0    0  0.00000000000E+00  0.00000000000E+00 -0.14659942631E+04  0.25618933119E+04  0.21009898053E+04 0.  0.
        4    1    3    3  502    0  0.62024624685E+03 -0.41135274037E+03 -0.16369981696E+04  0.17982438945E+04  0.12699999809E+01 0.  1.
       -4    1    3    3    0  502 -0.62024624685E+03  0.41135274037E+03  0.17100390652E+03  0.76364941740E+03  0.12699999809E+01 0. -1.
</event>
<event>
 5   0  0.8525278E-05  0.1972095E+04  0.7818609E-02  0.8619780E-01
        1   -1    0    0  501    0  0.00000000000E+00  0.00000000000E+00  0.16257287843E+04  0.16257287843E+04  0.50400001928E-02 0.  1.
       -1   -1    0    0    0  501  0.00000000000E+00  0.00000000000E+00 -0.59806370698E+03  0.59806370700E+03  0.50400001928E-02 0. -1.
    10030    2    1    2    0    0  0.00000000000E+00  0.00000000000E+00  0.10276650774E+04  0.22237924913E+04  0.19720947070E+04 0.  0.
        4    1    3    3  502    0  0.70266097793E+03 -0.15584401346E+03  0.12738482097E+04  0.14631167694E+04  0.12699999809E+01 0.  1.
       -4    1    3    3    0  502 -0.70266097793E+03  0.15584401346E+03 -0.24618313238E+03  0.76067572198E+03  0.12699999809E+01 0. -1.
</event>
<event>
 5   0  0.8755004E-05  0.2112175E+04  0.7818609E-02  0.8555899E-01
       -1   -1    0    0    0  501  0.00000000000E+00  0.00000000000E+00  0.12972314652E+04  0.12972314652E+04  0.50400001928E-02 0.  1.
        1   -1    0    0  501    0  0.00000000000E+00  0.00000000000E+00 -0.85977043493E+03  0.85977043494E+03  0.50400001928E-02 0. -1.
    10030    2    1    2    0    0  0.00000000000E+00  0.00000000000E+00  0.43746103031E+03  0.21570019002E+04  0.21121754293E+04 0.  0.
        3    1    3    3  502    0  0.73681006221E+03  0.22875520012E+03  0.95521791598E+03  0.12278677806E+04  0.10100000352E+00 0. -1.
       -3    1    3    3    0  502 -0.73681006221E+03 -0.22875520012E+03 -0.51775688568E+03  0.92913411961E+03  0.10100000352E+00 0.  1.
</event>
<event>
 5   0  0.1810875E-04  0.1421143E+04  0.7818609E-02  0.8938655E-01
        2   -1    0    0  501    0  0.00000000000E+00  0.00000000000E+00  0.14746948611E+04  0.14746948611E+04  0.25500000920E-02 0.  1.
       -2   -1    0    0    0  501  0.00000000000E+00  0.00000000000E+00 -0.34238401793E+03  0.34238401794E+03  0.25500000920E-02 0. -1.
    10030    2    1    2    0    0  0.00000000000E+00  0.00000000000E+00  0.11323108431E+04  0.18170788790E+04  0.14211431339E+04 0.  0.
        1    1    3    3  502    0 -0.48705628468E+03 -0.19498010985E+02 -0.94906133306E+02  0.49659960838E+03  0.50400001928E-02 0. -1.
       -1    1    3    3    0  502  0.48705628468E+03  0.19498010985E+02  0.12272169765E+04  0.13204792706E+04  0.50400001928E-02 0.  1.
</event>
<event>
 5   0  0.8271069E-05  0.1985253E+04  0.7818609E-02  0.8613546E-01
       -1   -1    0    0    0  501  0.00000000000E+00  0.00000000000E+00  0.12259106097E+04  0.12259106098E+04  0.50400001928E-02 0.  1.
        1   -1    0    0  501    0  0.00000000000E+00  0.00000000000E+00 -0.80373536313E+03  0.80373536315E+03  0.50400001928E-02 0. -1.
    10030    2    1    2    0    0  0.00000000000E+00  0.00000000000E+00  0.42217524661E+03  0.20296459729E+04  0.19852533431E+04 0.  0.
        2    1    3    3  502    0 -0.40981432863E+03  0.52998229387E+03  0.95991307048E+03  0.11705819573E+04  0.25500000920E-02 0.  1.
       -2    1    3    3    0  502  0.40981432863E+03 -0.52998229387E+03 -0.53773782387E+03  0.85906401565E+03  0.25500000920E-02 0. -1.
</event>
<event>
 5   0  0.1810875E-04  0.2066105E+04  0.7818609E-02  0.8576323E-01
        2   -1    0    0  501    0  0.00000000000E+00  0.00000000000E+00  0.10400999399E+04  0.10400999399E+04  0.25500000920E-02 0. -1.
       -2   -1    0    0    0  501  0.00000000000E+00  0.00000000000E+00 -0.10260524055E+04  0.10260524055E+04  0.25500000920E-02 0.  1.
    10030    2    1    2    0    0  0.00000000000E+00  0.00000000000E+00  0.14047534420E+02  0.20661523454E+04  0.20661045911E+04 0.  0.
        1    1    3    3  502    0  0.10105689399E+04  0.12627602922E+03 -0.16619059210E+03  0.10318985080E+04  0.50400001928E-02 0.  1.
       -1    1    3    3    0  502 -0.10105689399E+04 -0.12627602922E+03  0.18023812652E+03  0.10342538374E+04  0.50400001928E-02 0. -1.
</event>
<event>
 5   0  0.1815400E-04  0.2043428E+04  0.7818609E-02  0.8586581E-01
        2   -1    0    0  501    0  0.00000000000E+00  0.00000000000E+00  0.12260972658E+04  0.12260972658E+04  0.25500000920E-02 0.  1.
       -2   -1    0    0    0  501  0.00000000000E+00  0.00000000000E+00 -0.85140059231E+03  0.85140059231E+03  0.25500000920E-02 0. -1.
    10030    2    1    2    0    0  0.00000000000E+00  0.00000000000E+00  0.37469667353E+03  0.20774978581E+04  0.20434284312E+04 0.  0.
        3    1    3    3  502    0 -0.58884283158E+03  0.35489024913E+03  0.95573832835E+03  0.11773354372E+04  0.10100000352E+00 0.  1.
       -3    1    3    3    0  502  0.58884283158E+03 -0.35489024913E+03 -0.58104165483E+03  0.90016242094E+03  0.10100000352E+00 0. -1.
</event>
<event>
 5   0  0.8237966E-05  0.2044862E+04  0.7818609E-02  0.8585929E-01
        1   -1    0    0  501    0  0.00000000000E+00  0.00000000000E+00  0.11684188001E+04  0.11684188001E+04  0.50400001928E-02 0. -1.
       -1   -1    0    0    0  501  0.00000000000E+00  0.00000000000E+00 -0.89468324750E+03  0.89468324751E+03  0.50400001928E-02 0.  1.
    10030    2    1    2    0    0  0.00000000000E+00  0.00000000000E+00  0.27373555260E+03  0.20631020476E+04  0.20448615861E+04 0.  0.
        1    1    3    3  502    0  0.41421146564E+02 -0.54527654730E+03  0.10084734761E+04  0.11471970085E+04  0.50400001928E-02 0. -1.
       -1    1    3    3    0  502 -0.41421146564E+02  0.54527654730E+03 -0.73473792347E+03  0.91590503909E+03  0.50400001928E-02 0.  1.
</event>
<event>
 5   0  0.8237966E-05  0.2094298E+04  0.7818609E-02  0.8563759E-01
       -1   -1    0    0    0  501  0.00000000000E+00  0.00000000000E+00  0.83533779520E+03  0.83533779521E+03  0.50400001928E-02 0. -1.
        1   -1    0    0  501    0  0.00000000000E+00  0.00000000000E+00 -0.13126681160E+04  0.13126681160E+04  0.50400001928E-02 0.  1.
    10030    2    1    2    0    0  0.00000000000E+00  0.00000000000E+00 -0.47733032084E+03  0.21480059113E+04  0.20942982499E+04 0.  0.
        1    1    3    3  502    0 -0.58322214521E+03  0.86621515202E+03 -0.31840552144E+03  0.10917228753E+04  0.50400001928E-02 0.  1.
       -1    1    3    3    0  502  0.58322214521E+03 -0.86621515202E+03 -0.15892479940E+03  0.10562830360E+04  0.50400001928E-02 0. -1.
</event>
<event>
 5   0  0.1810875E-04  0.2114665E+04  0.7818609E-02  0.8554811E-01
       -2   -1    0    0    0  501  0.00000000000E+00  0.00000000000E+00  0.90617413844E+03  0.90617413845E+03  0.25500000920E-02 0.  1.
        2   -1    0    0  501    0  0.00000000000E+00  0.00000000000E+00 -0.12337055919E+04  0.12337055919E+04  0.25500000920E-02 0. -1.
    10030    2    1    2    0    0  0.00000000000E+00  0.00000000000E+00 -0.32753145342E+03  0.21398797303E+04  0.21146650816E+04 0.  0.
        1    1    3    3  502    0  0.19547145211E+03  0.94573690009E+01  0.88768756209E+03  0.90900370645E+03  0.50400001928E-02 0.  1.
       -1    1    3    3    0  502 -0.19547145211E+03 -0.94573690009E+01 -0.12152190155E+04  0.12308760239E+04  0.50400001928E-02 0. -1.
</event>
<event>
 5   0  0.8271069E-05  0.2081849E+04  0.7818609E-02  0.8569282E-01
       -1   -1    0    0    0  501  0.00000000000E+00  0.00000000000E+00  0.48588885020E+03  0.48588885023E+03  0.50400001928E-02 0. -1.
        1   -1    0    0  501    0  0.00000000000E+00  0.00000000000E+00 -0.22299821588E+04  0.22299821588E+04  0.50400001928E-02 0.  1.
    10030    2    1    2    0    0  0.00000000000E+00  0.00000000000E+00 -0.17440933086E+04  0.27158710090E+04  0.20818486661E+04 0.  0.
        2    1    3    3  502    0 -0.92604449500E+03  0.21239383904E+03 -0.14268306740E+04  0.17142098243E+04  0.25500000920E-02 0. -1.
       -2    1    3    3    0  502  0.92604449500E+03 -0.21239383904E+03 -0.31726263457E+03  0.10016611847E+04  0.25500000920E-02 0.  1.
</event>
<event>
 5   0  0.8237966E-05  0.2075248E+04  0.7818609E-02  0.8572226E-01
       -1   -1    0    0    0  501  0.00000000000E+00  0.00000000000E+00  0.12222218477E+04  0.12222218477E+04  0.50400001928E-02 0.  1.
        1   -1    0    0  501    0  0.00000000000E+00  0.00000000000E+00 -0.88090669049E+03  0.88090669051E+03  0.50400001928E-02 0. -1.
    10030    2    1    2    0    0  0.00000000000E+00  0.00000000000E+00  0.34131515717E+03  0.21031285382E+04  0.20752478434E+04 0.  0.
        1    1    3    3  502    0 -0.71200476590E+03  0.15198620319E+03 -0.57860794233E+03  0.92996652820E+03  0.50400001928E-02 0. -1.
       -1    1    3    3    0  502  0.71200476590E+03 -0.15198620319E+03  0.91992309951E+03  0.11731620100E+04  0.50400001928E-02 0.  1.
</event>
<event>
 5   0  0.1815400E-04  0.2038164E+04  0.7818609E-02  0.8588983E-01
       -2   -1    0    0    0  501  0.00000000000E+00  0.00000000000E+00  0.13443717052E+04  0.13443717052E+04  0.25500000920E-02 0. -1.
        2   -1    0    0  501    0  0.00000000000E+00  0.00000000000E+00 -0.77250045532E+03  0.77250045532E+03  0.25500000920E-02 0.  1.
    10030    2    1    2    0    0  0.00000000000E+00  0.00000000000E+00  0.57187124983E+03  0.21168721605E+04  0.20381636385E+04 0.  0.
        3    1    3    3  502    0  0.56432963805E+03 -0.68169598553E+03 -0.23890064752E+03  0.91665199867E+03  0.10100000352E+00 0.  1.
       -3    1    3    3    0  502 -0.56432963805E+03  0.68169598553E+03  0.81077189736E+03  0.12002201618E+04  0.10100000352E+00 0. -1.
</event>
<event>
 5   0  0.8525278E-05  0.2101042E+04  0.7818609E-02  0.8560784E-01
       -1   -1    0    0    0  501  0.00000000000E+00  0.00000000000E+00  0.71270684432E+03  0.71270684434E+03  0.50400001928E-02 0.  1.
        1   -1    0    0  501    0  0.00000000000E+00  0.00000000000E+00 -0.15484552120E+04  0.15484552120E+04  0.50400001928E-02 0. -1.
    10030    2    1    2    0    0  0.00000000000E+00  0.00000000000E+00 -0.83574836765E+03  0.22611620563E+04  0.21010422440E+04 0.  0.
        4    1    3    3  502    0  0.52430372201E+03  0.56597237834E+03 -0.11852153941E+04  0.14141981011E+04  0.12699999809E+01 0. -1.
       -4    1    3    3    0  502 -0.52430372201E+03 -0.56597237834E+03  0.34946702641E+03  0.84696395520E+03  0.12699999809E+01 0.  1.
</event>
<event>
 5   0  0.8237966E-05  0.2198864E+04  0.7818609E-02  0.8518901E-01
       -1   -1    0    0    0  501  0.00000000000E+00  0.00000000000E+00  0.61789981020E+03  0.61789981022E+03  0.50400001928E-02 0.  1.
        1   -1    0    0  501    0  0.00000000000E+00  0.00000000000E+00 -0.19562250550E+04  0.19562250550E+04  0.50400001928E-02 0. -1.
    10030    2    1    2    0    0  0.00000000000E+00  0.00000000000E+00 -0.13383252448E+04  0.25741248652E+04  0.21988643344E+04 0.  0.
        1    1    3    3  502    0 -0.65442540586E+03 -0.66041129100E+03  0.17782453177E+02  0.92990961969E+03  0.50400001928E-02 0.  1.
       -1    1    3    3    0  502  0.65442540586E+03  0.66041129100E+03 -0.13561076980E+04  0.16442152456E+04  0.50400001928E-02 0. -1.
</event>
<event>
 5   0  0.8237966E-05  0.2028500E+04  0.7818609E-02  0.8593411E-01
       -1   -1    0    0    0  501  0.00000000000E+00  0.00000000000E+00  0.11659510125E+04  0.11659510125E+04  0.50400001928E-02 0. -1.
        1   -1    0    0  501    0  0.00000000000E+00  0.00000000000E+00 -0.88228627552E+03  0.88228627553E+03  0.50400001928E-02 0.  1.
    10030    2    1    2    0    0  0.00000000000E+00  0.00000000000E+00  0.28366473697E+03  0.20482372880E+04  0.20284995206E+04 0.  0.
        1    1    3    3  502    0  0.60568545988E+03 -0.47247573672E+03 -0.52689144805E+03  0.93150566083E+03  0.50400001928E-02 0.  1.
       -1    1    3    3    0  502 -0.60568545988E+03  0.47247573672E+03  0.81055618502E+03  0.11167316272E+04  0.50400001928E-02 0. -1.
</event>
<event>
 5   0  0.1886323E-04  0.1522382E+04  0.7818609E-02  0.8869704E-01
        2   -1    0    0  501    0  0.00000000000E+00  0.00000000000E+00  0.75874936995E+03  0.75874936996E+03  0.25500000920E-02 0. -1.
       -2   -1    0    0    0  501  0.00000000000E+00  0.00000000000E+00 -0.76364082988E+03  0.76364082989E+03  0.25500000920E-02 0.  1.
    10030    2    1    2    0    0  0.00000000000E+00  0.00000000000E+00 -0.48914599274E+01  0.15223901998E+04  0.15223823417E+04 0.  0.
        2    1    3    3  502    0 -0.15103852954E+03 -0.71041039749E+03  0.22540721435E+03  0.76046300539E+03  0.25500000920E-02 0. -1.
       -2    1    3    3    0  502  0.15103852954E+03  0.71041039749E+03 -0.23029867428E+03  0.76192719446E+03  0.25500000920E-02 0.  1.
</event>
<event>
 5   0  0.1777590E-04  0.1978640E+04  0.7818609E-02  0.8616673E-01
       -2   -1    0    0    0  501  0.00000000000E+00  0.00000000000E+00  0.63552490094E+03  0.63552490095E+03  0.25500000920E-02 0. -1.
        2   -1    0    0  501    0  0.00000000000E+00  0.00000000000E+00 -0.15400715908E+04  0.15400715908E+04  0.25500000920E-02 0.  1.
    10030    2    1    2    0    0  0.00000000000E+00  0.00000000000E+00 -0.90454668981E+03  0.21755964917E+04  0.19786397804E+04 0.  0.
        4    1    3    3  502    0 -0.51924188540E+03  0.47816528214E+03 -0.12144531416E+04  0.14046893674E+04  0.12699999809E+01 0.  1.
       -4    1    3    3    0  502  0.51924188540E+03 -0.47816528214E+03  0.30990645184E+03  0.77090712436E+03  0.12699999809E+01 0. -1.
</event>
<event>
 5   0  0.1815400E-04  0.2088916E+04  0.7818609E-02  0.8566142E-01
        2   -1    0    0  501    0  0.00000000000E+00  0.00000000000E+00  0.11572483565E+04  0.11572483565E+04  0.25500000920E-02 0.  1.
       -2   -1    0    0    0  501  0.00000000000E+00  0.00000000000E+00 -0.94266087410E+03  0.94266087410E+03  0.25500000920E-02 0. -1.
    10030    2    1    2    0    0  0.00000000000E+00  0.00000000000E+00  0.21458748240E+03  0.20999092306E+04  0.20889162236E+04 0.  0.
        3    1    3    3  502    0 -0.67927830897E+03  0.61007741823E+03  0.61719007403E+03  0.11020603772E+04  0.10100000352E+00 0.  1.
       -3    1    3    3    0  502  0.67927830897E+03 -0.61007741823E+03 -0.40260259163E+03  0.99784885342E+03  0.10100000352E+00 0. -1.
</event>
<event>
 5   0  0.8755004E-05  0.2081217E+04  0.7818609E-02  0.8569563E-01
       -1   -1    0    0    0  501  0.00000000000E+00  0.00000000000E+00  0.12704024494E+04  0.12704024494E+04  0.50400001928E-02 0.  1.
        1   -1    0    0  501    0  0.00000000000E+00  0.00000000000E+00 -0.85238038776E+03  0.85238038778E+03  0.50400001928E-02 0. -1.
    10030    2    1    2    0    0  0.00000000000E+00  0.00000000000E+00  0.41802206162E+03  0.21227828372E+04  0.20812170790E+04 0.  0.
        3    1    3    3  502    0  0.34429962986E+03 -0.16708825043E+03  0.11960178248E+04  0.12557545007E+04  0.10100000352E+00 0.  1.
       -3    1    3    3    0  502 -0.34429962986E+03  0.16708825043E+03 -0.77799576317E+03  0.86702833649E+03  0.10100000352E+00 0. -1.
</event>
<event>
 5   0  0.1921687E-04  0.2098895E+04  0.7818609E-02  0.8561730E-01
        2   -1    0    0  501    0  0.00000000000E+00  0.00000000000E+00  0.17771895834E+04  0.17771895834E+04  0.25500000920E-02 0.  1.
       -2   -1    0    0    0  501  0.00000000000E+00  0.00000000000E+00 -0.61970886458E+03  0.61970886458E+03  0.25500000920E-02 0. -1.
    10030    2    1    2    0    0  0.00000000000E+00  0.00000000000E+00  0.11574807188E+04  0.23968984480E+04  0.20988950797E+04 0.  0.
        5    1    3    3  502    0 -0.46075218029E+03  0.63556995873E+03 -0.21661998712E+03  0.81436358765E+03  0.46999998093E+01 0. -1.
       -5    1    3    3    0  502  0.46075218029E+03 -0.63556995873E+03  0.13741007059E+04  0.15825348603E+04  0.46999998093E+01 0.  1.
</event>
<event>
 5   0  0.1886323E-04  0.2113814E+04  0.7818609E-02  0.8555183E-01
       -2   -1    0    0    0  501  0.00000000000E+00  0.00000000000E+00  0.11402943156E+04  0.11402943156E+04  0.25500000920E-02 0.  1.
        2   -1    0    0  501    0  0.00000000000E+00  0.00000000000E+00 -0.97961747701E+03  0.97961747701E+03  0.25500000920E-02 0. -1.
    10030    2    1    2    0    0  0.00000000000E+00  0.00000000000E+00  0.16067683856E+03  0.21199117926E+04  0.21138138428E+04 0.  0.
        2    1    3    3  502    0 -0.44479603290E+03  0.15474606801E+03 -0.86857419892E+03  0.98803390402E+03  0.25500000920E-02 0. -1.
       -2    1    3    3    0  502  0.44479603290E+03 -0.15474606801E+03  0.10292510375E+04  0.11318778886E+04  0.25500000920E-02 0.  1.
</event>
<event>
 5   0  0.8755004E-05  0.2066983E+04  0.7818609E-02  0.8575929E-01
        1   -1    0    0  501    0  0.00000000000E+00  0.00000000000E+00  0.19680662769E+04  0.19680662769E+04  0.50400001928E-02 0. -1.
       -1   -1    0    0    0  501  0.00000000000E+00  0.00000000000E+00 -0.54271775154E+03  0.54271775156E+03  0.50400001928E-02 0.  1.
    10030    2    1    2    0    0  0.00000000000E+00  0.00000000000E+00  0.14253485254E+04  0.25107840285E+04  0.20669828299E+04 0.  0.
        3    1    3    3  502    0  0.42862876966E+03 -0.91239632607E+03  0.43590481311E+03  0.10982725956E+04  0.10100000352E+00 0. -1.
       -3    1    3    3    0  502 -0.42862876966E+03  0.91239632607E+03  0.98944371230E+03  0.14125114329E+04  0.10100000352E+00 0.  1.
</event>
<event>
 5   0  0.1921687E-04  0.1771524E+04  0.7818609E-02  0.8721591E-01
        2   -1    0    0  501    0  0.00000000000E+00  0.00000000000E+00  0.14074611323E+04  0.14074611323E+04  0.25500000920E-02 0. -1.
       -2   -1    0    0    0  501  0.00000000000E+00  0.00000000000E+00 -0.55743952532E+03  0.55743952532E+03  0.25500000920E-02 0.  1.
    10030    2    1    2    0    0  0.00000000000E+00  0.00000000000E+00  0.85002160696E+03  0.19649006576E+04  0.17715241635E+04 0.  0.
        5    1    3    3  502    0 -0.29348124917E+03 -0.39455500996E+02 -0.50089681050E+03  0.58190006439E+03  0.46999998093E+01 0.  1.
       -5    1    3    3    0  502  0.29348124917E+03  0.39455500996E+02  0.13509184175E+04  0.13830005932E+04  0.46999998093E+01 0. -1.
</event>
<event>
 5   0  0.6441125E-05  0.2150910E+04  0.7818609E-02  0.8539143E-01
        3   -1    0    0  501    0  0.00000000000E+00  0.00000000000E+00  0.10664151467E+04  0.10664151515E+04  0.10100000352E+00 0. -1.
       -3   -1    0    0    0  501  0.00000000000E+00  0.00000000000E+00 -0.10845716299E+04  0.10845716346E+04  0.10100000352E+00 0.  1.
    10030    2    1    2    0    0  0.00000000000E+00  0.00000000000E+00 -0.18156483269E+02  0.21509867861E+04  0.21509101553E+04 0.  0.
        4    1    3    3  502    0 -0.23034670160E+03 -0.93339953453E+03  0.47292203881E+03  0.10714248278E+04  0.12699999809E+01 0. -1.
       -4    1    3    3    0  502  0.23034670160E+03  0.93339953453E+03 -0.49107852208E+03  0.10795619583E+04  0.12699999809E+01 0.  1.
</event>
<event>
 5   0  0.1921687E-04  0.1957698E+04  0.7818609E-02  0.8626658E-01
       -2   -1    0    0    0  501  0.00000000000E+00  0.00000000000E+00  0.71693655681E+03  0.71693655682E+03  0.25500000920E-02 0. -1.
        2   -1    0    0  501    0  0.00000000000E+00  0.00000000000E+00 -0.13364439638E+04  0.13364439638E+04  0.25500000920E-02 0.  1.
    10030    2    1    2    0    0  0.00000000000E+00  0.00000000000E+00 -0.61950740695E+03  0.20533805206E+04  0.19576981726E+04 0.  0.
        5    1    3    3  502    0  0.15763523528E+03 -0.96267514768E+03 -0.22498840826E+03  0.10011164674E+04  0.46999998093E+01 0. -1.
       -5    1    3    3    0  502 -0.15763523528E+03  0.96267514768E+03 -0.39451899869E+03  0.10522640532E+04  0.46999998093E+01 0.  1.
</event>
<event>
 5   0  0.1810875E-04  0.2081446E+04  0.7818609E-02  0.8569461E-01
        2   -1    0    0  501    0  0.00000000000E+00  0.00000000000E+00  0.14405140771E+04  0.14405140771E+04  0.25500000920E-02 0.  1.
       -2   -1    0    0    0  501  0.00000000000E+00  0.00000000000E+00 -0.75188773573E+03  0.75188773573E+03  0.25500000920E-02 0. -1.
    10030    2    1    2    0    0  0.00000000000E+00  0.00000000000E+00  0.68862634141E+03  0.21924018129E+04  0.20814464853E+04 0.  0.
        1    1    3    3  502    0 -0.22002728303E+03 -0.91483602781E+03 -0.12410400277E+03  0.94907258236E+03  0.50400001928E-02 0.  1.
       -1    1    3    3    0  502  0.22002728303E+03  0.91483602781E+03  0.81273034418E+03  0.12433292305E+04  0.50400001928E-02 0. -1.
</event>
<event>
 5   0  0.1777590E-04  0.2081430E+04  0.7818609E-02  0.8569468E-01
       -2   -1    0    0    0  501  0.00000000000E+00  0.00000000000E+00  0.71357801072E+03  0.71357801072E+03  0.25500000920E-02 0.  1.
        2   -1    0    0  501    0  0.00000000000E+00  0.00000000000E+00 -0.15178272175E+04  0.15178272175E+04  0.25500000920E-02 0. -1.
    10030    2    1    2    0    0  0.00000000000E+00  0.00000000000E+00 -0.80424920677E+03  0.22314052282E+04  0.20814303990E+04 0.  0.
        4    1    3    3  502    0 -0.74591190287E+03 -0.60206067659E+03  0.32321634707E+02  0.95911830662E+03  0.12699999809E+01 0.  1.
       -4    1    3    3    0  502  0.74591190287E+03  0.60206067659E+03 -0.83657084148E+03  0.12722869216E+04  0.12699999809E+01 0. -1.
</event>
<event>
 5   0  0.8755004E-05  0.2103746E+04  0.7818609E-02  0.8559595E-01
        1   -1    0    0  501    0  0.00000000000E+00  0.00000000000E+00  0.12449201601E+04  0.12449201601E+04  0.50400001928E-02 0.  1.
       -1   -1    0    0    0  501  0.00000000000E+00  0.00000000000E+00 -0.88876139411E+03  0.88876139413E+03  0.50400001928E-02 0. -1.
    10030    2    1    2    0    0  0.00000000000E+00  0.00000000000E+00  0.35615876595E+03  0.21336815542E+04  0.21037461606E+04 0.  0.
        3    1    3    3  502    0 -0.75855228611E+03 -0.48979956830E+03  0.72532346460E+03  0.11581879495E+04  0.10100000352E+00 0.  1.
       -3    1    3    3    0  502  0.75855228611E+03  0.48979956830E+03 -0.36916469865E+03  0.97549360470E+03  0.10100000352E+00 0. -1.
</event>
<event>
 5   0  0.8525278E-05  0.1953431E+04  0.7818609E-02  0.8628708E-01
       -1   -1    0    0    0  501  0.00000000000E+00  0.00000000000E+00  0.91813465948E+03  0.91813465950E+03  0.50400001928E-02 0. -1.
        1   -1    0    0  501    0  0.00000000000E+00  0.00000000000E+00 -0.10390338892E+04  0.10390338892E+04  0.50400001928E-02 0.  1.
    10030    2    1    2    0    0  0.00000000000E+00  0.00000000000E+00 -0.12089922975E+03  0.19571685487E+04  0.19534308548E+04 0.  0.
        4    1    3    3  502    0 -0.57324320276E+03 -0.28142168219E+03 -0.80089376926E+03  0.10243233744E+04  0.12699999809E+01 0.  1.
       -4    1    3    3    0  502  0.57324320276E+03  0.28142168219E+03  0.67999453951E+03  0.93284517439E+03  0.12699999809E+01 0. -1.
</event>
<event>
 5   0  0.1810875E-04  0.2089683E+04  0.7818609E-02  0.8565802E-01
        2   -1    0    0  501    0  0.00000000000E+00  0.00000000000E+00  0.17195899299E+04  0.17195899300E+04  0.25500000920E-02 0. -1.
       -2   -1    0    0    0  501  0.00000000000E+00  0.00000000000E+00 -0.63485701583E+03  0.63485701583E+03  0.25500000920E-02 0.  1.
    10030    2    1    2    0    0  0.00000000000E+00  0.00000000000E+00  0.10847329141E+04  0.23544469458E+04  0.20896829725E+04 0.  0.
        1    1    3    3  502    0  0.10258727952E+02 -0.10438890148E+04  0.49345915631E+03  0.11546910650E+04  0.50400001928E-02 0. -1.
       -1    1    3    3    0  502 -0.10258727952E+02  0.10438890148E+04  0.59127375782E+03  0.11997558808E+04  0.50400001928E-02 0.  1.
</event>
<event>
 5   0  0.8237966E-05  0.2130230E+04  0.7818609E-02  0.8548042E-01
       -1   -1    0    0    0  501  0.00000000000E+00  0.00000000000E+00  0.14988991873E+04  0.14988991873E+04  0.50400001928E-02 0. -1.
        1   -1    0    0  501    0  0.00000000000E+00  0.00000000000E+00 -0.75686889236E+03  0.75686889238E+03  0.50400001928E-02 0.  1.
    10030    2    1    2    0    0  0.00000000000E+00  0.00000000000E+00  0.74203029489E+03  0.22557680796E+04  0.21302301919E+04 0.  0.
        1    1    3    3  502    0  0.25187189704E+03 -0.33554360665E+03 -0.66567900531E+03  0.78686561916E+03  0.50400001928E-02 0.  1.
       -1    1    3    3    0  502 -0.25187189704E+03  0.33554360665E+03  0.14077093002E+04  0.14689024605E+04  0.50400001928E-02 0. -1.
</event>
<event>
 5   0  0.1777590E-04  0.2101790E+04  0.7818609E-02  0.8560455E-01
       -2   -1    0    0    0  501  0.00000000000E+00  0.00000000000E+00  0.50742371584E+03  0.50742371584E+03  0.25500000920E-02 0.  1.
        2   -1    0    0  501    0  0.00000000000E+00  0.00000000000E+00 -0.21764460754E+04  0.21764460754E+04  0.25500000920E-02 0. -1.
    10030    2    1    2    0    0  0.00000000000E+00  0.00000000000E+00 -0.16690223595E+04  0.26838697912E+04  0.21017900513E+04 0.  0.
        4    1    3    3  502    0  0.90961676704E+03 -0.52298655450E+03 -0.90963572847E+03  0.13886527177E+04  0.12699999809E+01 0.  1.
       -4    1    3    3    0  502 -0.90961676704E+03  0.52298655450E+03 -0.75938663106E+03  0.12952170735E+04  0.12699999809E+01 0. -1.
</event>
<event>
 5   0  0.1921687E-04  0.2017388E+04  0.7818609E-02  0.8598534E-01
       -2   -1    0    0    0  501  0.00000000000E+00  0.00000000000E+00  0.88307491830E+03  0.88307491831E+03  0.25500000920E-02 0.  1.
        2   -1    0    0  501    0  0.00000000000E+00  0.00000000000E+00 -0.11521825578E+04  0.11521825578E+04  0.25500000920E-02 0. -1.
    10030    2    1    2    0    0  0.00000000000E+00  0.00000000000E+00 -0.26910763945E+03  0.20352574761E+04  0.20173879330E+04 0.  0.
        5    1    3    3  502    0 -0.36206189633E+03  0.87623938506E+03  0.21281738737E+03  0.97169831073E+03  0.46999998093E+01 0.  1.
       -5    1    3    3    0  502  0.36206189633E+03 -0.87623938506E+03 -0.48192502681E+03  0.10635591653E+04  0.46999998093E+01 0. -1.
</event>
<event>
 5   0  0.1921687E-04  0.2044082E+04  0.7818609E-02  0.8586284E-01
       -2   -1    0    0    0  501  0.00000000000E+00  0.00000000000E+00  0.59908268688E+03  0.59908268688E+03  0.25500000920E-02 0. -1.
        2   -1    0    0  501    0  0.00000000000E+00  0.00000000000E+00 -0.17436123846E+04  0.17436123846E+04  0.25500000920E-02 0.  1.
    10030    2    1    2    0    0  0.00000000000E+00  0.00000000000E+00 -0.11445296977E+04  0.23426950715E+04  0.20440821825E+04 0.  0.
        5    1    3    3  502    0 -0.63071928679E+03  0.63903198605E+03 -0.12700840843E+02  0.89797110159E+03  0.46999998093E+01 0. -1.
       -5    1    3    3    0  502  0.63071928679E+03 -0.63903198605E+03 -0.11318288568E+04  0.14447239699E+04  0.46999998093E+01 0.  1.
</event>
<event>
 5   0  0.8525278E-05  0.2094255E+04  0.7818609E-02  0.8563778E-01
        1   -1    0    0  501    0  0.00000000000E+00  0.00000000000E+00  0.22275511387E+04  0.22275511387E+04  0.50400001928E-02 0.  1.
       -1   -1    0    0    0  501  0.00000000000E+00  0.00000000000E+00 -0.49223378968E+03  0.49223378970E+03  0.50400001928E-02 0. -1.
    10030    2    1    2    0    0  0.00000000000E+00  0.00000000000E+00  0.17353173490E+04  0.27197849284E+04  0.20942549403E+04 0.  0.
        4    1    3    3  502    0 -0.62170376226E+03  0.52834168062E+03  0.15246133343E+02  0.81602362525E+03  0.12699999809E+01 0.  1.
       -4    1    3    3    0  502  0.62170376226E+03 -0.52834168062E+03  0.17200712156E+04  0.19037613031E+04  0.12699999809E+01 0. -1.
</event>
<event>
 5   0  0.8525278E-05  0.2122883E+04  0.7818609E-02  0.8551230E-01
        1   -1    0    0  501    0  0.00000000000E+00  0.00000000000E+00  0.16396103213E+04  0.16396103213E+04  0.50400001928E-02 0. -1.
       -1   -1    0    0    0  501  0.00000000000E+00  0.00000000000E+00 -0.68714966052E+03  0.68714966053E+03  0.50400001928E-02 0.  1.
    10030    2    1    2    0    0  0.00000000000E+00  0.00000000000E+00  0.95246066077E+03  0.23267599818E+04  0.21228826399E+04 0.  0.
        4    1    3    3  502    0 -0.90080905544E+03  0.23641555044E+02 -0.13856802170E+03  0.91171189913E+03  0.12699999809E+01 0.  1.
       -4    1    3    3    0  502  0.90080905544E+03 -0.23641555044E+02  0.10910286825E+04  0.14150480827E+04  0.12699999809E+01 0. -1.
</event>
<event>
 5   0  0.8237966E-05  0.2087666E+04  0.7818609E-02  0.8566696E-01
       -1   -1    0    0    0  501  0.00000000000E+00  0.00000000000E+00  0.12649605000E+04  0.12649605000E+04  0.50400001928E-02 0. -1.
        1   -1    0    0  501    0  0.00000000000E+00  0.00000000000E+00 -0.86136107283E+03  0.86136107284E+03  0.50400001928E-02 0.  1.
    10030    2    1    2    0    0  0.00000000000E+00  0.00000000000E+00  0.40359942718E+03  0.21263215729E+04  0.20876663846E+04 0.  0.
        1    1    3    3  502    0  0.48282623110E+03  0.83813523656E+03 -0.19788948420E+03  0.98729534193E+03  0.50400001928E-02 0.  1.
       -1    1    3    3    0  502 -0.48282623110E+03 -0.83813523656E+03  0.60148891138E+03  0.11390262309E+04  0.50400001928E-02 0. -1.
</event>
<event>
 5   0  0.1921687E-04  0.2064140E+04  0.7818609E-02  0.8577207E-01
       -2   -1    0    0    0  501  0.00000000000E+00  0.00000000000E+00  0.65416497610E+03  0.65416497611E+03  0.25500000920E-02 0. -1.
        2   -1    0    0  501    0  0.00000000000E+00  0.00000000000E+00 -0.16282870084E+04  0.16282870084E+04  0.25500000920E-02 0.  1.
    10030    2    1    2    0    0  0.00000000000E+00  0.00000000000E+00 -0.97412203226E+03  0.22824519845E+04  0.20641398518E+04 0.  0.
        5    1    3    3  502    0  0.61769031047E+03  0.55256788645E+03  0.19302771412E+03  0.85097260661E+03  0.46999998093E+01 0. -1.
       -5    1    3    3    0  502 -0.61769031047E+03 -0.55256788645E+03 -0.11671497464E+04  0.14314793779E+04  0.46999998093E+01 0.  1.
</event>
<event>
 5   0  0.1777590E-04  0.2114457E+04  0.7818609E-02  0.8554901E-01
        2   -1    0    0  501    0  0.00000000000E+00  0.00000000000E+00  0.13223809036E+04  0.13223809036E+04  0.25500000920E-02 0.  1.
       -2   -1    0    0    0  501  0.00000000000E+00  0.00000000000E+00 -0.84524236050E+03  0.84524236051E+03  0.25500000920E-02 0. -1.
    10030    2    1    2    0    0  0.00000000000E+00  0.00000000000E+00  0.47713854309E+03  0.21676232641E+04  0.21144572414E+04 0.  0.
        4    1    3    3  502    0 -0.49064744290E+03 -0.42943077981E+03 -0.61457297468E+03  0.89601744514E+03  0.12699999809E+01 0. -1.
       -4    1    3    3    0  502  0.49064744290E+03  0.42943077981E+03  0.10917115178E+04  0.12716058190E+04  0.12699999809E+01 0.  1.
</event>
<event>
 5   0  0.1810875E-04  0.2082999E+04  0.7818609E-02  0.8568770E-01
        2   -1    0    0  501    0  0.00000000000E+00  0.00000000000E+00  0.15325166813E+04  0.15325166813E+04  0.25500000920E-02 0.  1.
       -2   -1    0    0    0  501  0.00000000000E+00  0.00000000000E+00 -0.70780397958E+03  0.70780397958E+03  0.25500000920E-02 0. -1.
    10030    2    1    2    0    0  0.00000000000E+00  0.00000000000E+00  0.82471270171E+03  0.22403206609E+04  0.20829991894E+04 0.  0.
        1    1    3    3  502    0 -0.23980917690E+03  0.75592622038E+03  0.11384669418E+04  0.13874580605E+04  0.50400001928E-02 0.  1.
       -1    1    3    3    0  502  0.23980917690E+03 -0.75592622038E+03 -0.31375424008E+03  0.85286260041E+03  0.50400001928E-02 0. -1.
</event>
<event>
 5   0  0.1810875E-04  0.2122221E+04  0.7818609E-02  0.8551518E-01
       -2   -1    0    0    0  501  0.00000000000E+00  0.00000000000E+00  0.89569999546E+03  0.89569999547E+03  0.25500000920E-02 0.  1.
        2   -1    0    0  501    0  0.00000000000E+00  0.00000000000E+00 -0.12570671572E+04  0.12570671572E+04  0.25500000920E-02 0. -1.
    10030    2    1    2    0    0  0.00000000000E+00  0.00000000000E+00 -0.36136716176E+03  0.21527671527E+04  0.21222205795E+04 0.  0.
        1    1    3    3  502    0  0.36182548734E+03  0.79390628116E+03  0.43195493135E+03  0.97354503198E+03  0.50400001928E-02 0.  1.
       -1    1    3    3    0  502 -0.36182548734E+03 -0.79390628116E+03 -0.79332209311E+03  0.11792221207E+04  0.50400001928E-02 0. -1.
</event>
<event>
 5   0  0.8271069E-05  0.2098861E+04  0.7818609E-02  0.8561745E-01
        1   -1    0    0  501    0  0.00000000000E+00  0.00000000000E+00  0.13422561289E+04  0.13422561290E+04  0.50400001928E-02 0.  1.
       -1   -1    0    0    0  501  0.00000000000E+00  0.00000000000E+00 -0.82048743373E+03  0.82048743375E+03  0.50400001928E-02 0. -1.
    10030    2    1    2    0    0  0.00000000000E+00  0.00000000000E+00  0.52176869521E+03  0.21627435627E+04  0.20988609165E+04 0.  0.
        2    1    3    3  502    0  0.37433419456E+03 -0.10306421366E+03  0.12655237639E+04  0.13237442042E+04  0.25500000920E-02 0.  1.
       -2    1    3    3    0  502 -0.37433419456E+03  0.10306421366E+03 -0.74375506865E+03  0.83899935846E+03  0.25500000920E-02 0. -1.
</event>
<event>
 5   0  0.8486612E-05  0.1475266E+04  0.7818609E-02  0.8901069E-01
       -1   -1    0    0    0  501  0.00000000000E+00  0.00000000000E+00  0.64638561338E+03  0.64638561340E+03  0.50400001928E-02 0. -1.
        1   -1    0    0  501    0  0.00000000000E+00  0.00000000000E+00 -0.84176176661E+03  0.84176176663E+03  0.50400001928E-02 0.  1.
    10030    2    1    2    0    0  0.00000000000E+00  0.00000000000E+00 -0.19537615323E+03  0.14881473800E+04  0.14752663432E+04 0.  0.
        5    1    3    3  502    0 -0.46081059356E+03 -0.56031858075E+03  0.36807591834E+02  0.72641599920E+03  0.46999998093E+01 0.  1.
       -5    1    3    3    0  502  0.46081059356E+03  0.56031858075E+03 -0.23218374506E+03  0.76173138083E+03  0.46999998093E+01 0. -1.
</event>
<event>
 5   0  0.1921687E-04  0.2041313E+04  0.7818609E-02  0.8587546E-01
       -2   -1    0    0    0  501  0.00000000000E+00  0.00000000000E+00  0.11251989960E+04  0.11251989960E+04  0.25500000920E-02 0. -1.
        2   -1    0    0  501    0  0.00000000000E+00  0.00000000000E+00 -0.92582687567E+03  0.92582687567E+03  0.25500000920E-02 0.  1.
    10030    2    1    2    0    0  0.00000000000E+00  0.00000000000E+00  0.19937212036E+03  0.20510258717E+04  0.20413127845E+04 0.  0.
        5    1    3    3  502    0 -0.24004113787E+03  0.22289297783E+03 -0.87156565420E+03  0.93110139460E+03  0.46999998093E+01 0.  1.
       -5    1    3    3    0  502  0.24004113787E+03 -0.22289297783E+03  0.10709377746E+04  0.11199244771E+04  0.46999998093E+01 0. -1.
</event>
<event>
 5   0  0.8525278E-05  0.2092190E+04  0.7818609E-02  0.8564691E-01
        1   -1    0    0  501    0  0.00000000000E+00  0.00000000000E+00  0.15624736795E+04  0.15624736795E+04  0.50400001928E-02 0. -1.
       -1   -1    0    0    0  501  0.00000000000E+00  0.00000000000E+00 -0.70037355972E+03  0.70037355974E+03  0.50400001928E-02 0.  1.
    10030    2    1    2    0    0  0.00000000000E+00  0.00000000000E+00  0.86210011973E+03  0.22628472392E+04  0.20921904817E+04 0.  0.
        4    1    3    3  502    0 -0.77656228663E+03 -0.58134807224E+03  0.85452116289E+03  0.12927577487E+04  0.12699999809E+01 0. -1.
       -4    1    3    3    0  502  0.77656228663E+03  0.58134807224E+03  0.75789568476E+01  0.97008949051E+03  0.12699999809E+01 0.  1.
</event>
<event>
 5   0  0.1886323E-04  0.2088063E+04  0.7818609E-02  0.8566520E-01
       -2   -1    0    0    0  501  0.00000000000E+00  0.00000000000E+00  0.44857512299E+03  0.44857512300E+03  0.25500000920E-02 0. -1.
        2   -1    0    0  501    0  0.00000000000E+00  0.00000000000E+00 -0.24299199080E+04  0.24299199080E+04  0.25500000920E-02 0.  1.
    10030    2    1    2    0    0  0.00000000000E+00  0.00000000000E+00 -0.19813447850E+04  0.28784950310E+04  0.20880628550E+04 0.  0.
        2    1    3    3  502    0 -0.80829522032E+03 -0.63385597321E+03 -0.73318609346E+03  0.12620128389E+04  0.25500000920E-02 0. -1.
       -2    1    3    3    0  502  0.80829522032E+03  0.63385597321E+03 -0.12481586915E+04  0.16164821920E+04  0.25500000920E-02 0.  1.
</event>
<event>
 5   0  0.8237966E-05  0.2083202E+04  0.7818609E-02  0.8568679E-01
        1   -1    0    0  501    0  0.00000000000E+00  0.00000000000E+00  0.11512221512E+04  0.11512221512E+04  0.50400001928E-02 0.  1.
       -1   -1    0    0    0  501  0.00000000000E+00  0.00000000000E+00 -0.94241851159E+03  0.94241851160E+03  0.50400001928E-02 0. -1.
    10030    2    1    2    0    0  0.00000000000E+00  0.00000000000E+00  0.20880363958E+03  0.20936406628E+04  0.20832024061E+04 0.  0.
        1    1    3    3  502    0  0.94614824847E+03 -0.23429345348E+03 -0.26464808520E+03  0.10100141283E+04  0.50400001928E-02 0. -1.
       -1    1    3    3    0  502 -0.94614824847E+03  0.23429345348E+03  0.47345172478E+03  0.10836265344E+04  0.50400001928E-02 0.  1.
</event>
<event>
 5   0  0.1815400E-04  0.2248231E+04  0.7818609E-02  0.8498617E-01
       -2   -1    0    0    0  501  0.00000000000E+00  0.00000000000E+00  0.67298192439E+03  0.67298192439E+03  0.25500000920E-02 0.  1.
        2   -1    0    0  501    0  0.00000000000E+00  0.00000000000E+00 -0.18776657866E+04  0.18776657866E+04  0.25500000920E-02 0. -1.
    10030    2    1    2    0    0  0.00000000000E+00  0.00000000000E+00 -0.12046838622E+04  0.25506477110E+04  0.22482305348E+04 0.  0.
        3    1    3    3  502    0 -0.73182674319E+03 -0.40417135695E+03 -0.14548970668E+04  0.16779899741E+04  0.10100000352E+00 0. -1.
       -3    1    3    3    0  502  0.73182674319E+03  0.40417135695E+03  0.25021320463E+03  0.87265773691E+03  0.10100000352E+00 0.  1.
</event>
<event>
 5   0  0.1921687E-04  0.2108952E+04  0.7818609E-02  0.8557310E-01
       -2   -1    0    0    0  501  0.00000000000E+00  0.00000000000E+00  0.75786481405E+03  0.75786481405E+03  0.25500000920E-02 0. -1.
        2   -1    0    0  501    0  0.00000000000E+00  0.00000000000E+00 -0.14671747794E+04  0.14671747794E+04  0.25500000920E-02 0.  1.
    10030    2    1    2    0    0  0.00000000000E+00  0.00000000000E+00 -0.70930996535E+03  0.22250395935E+04  0.21089524806E+04 0.  0.
        5    1    3    3  502    0 -0.42132931290E+03 -0.94552375802E+03 -0.56662315463E+03  0.11800921389E+04  0.46999998093E+01 0. -1.
       -5    1    3    3    0  502  0.42132931290E+03  0.94552375802E+03 -0.14268681072E+03  0.10449474546E+04  0.46999998093E+01 0.  1.
</event>
<event>
 5   0  0.8237966E-05  0.2133152E+04  0.7818609E-02  0.8546778E-01
       -1   -1    0    0    0  501  0.00000000000E+00  0.00000000000E+00  0.60933996184E+03  0.60933996186E+03  0.50400001928E-02 0.  1.
        1   -1    0    0  501    0  0.00000000000E+00  0.00000000000E+00 -0.18669131943E+04  0.18669131943E+04  0.50400001928E-02 0. -1.
    10030    2    1    2    0    0  0.00000000000E+00  0.00000000000E+00 -0.12575732324E+04  0.24762531561E+04  0.21331524227E+04 0.  0.
        1    1    3    3  502    0  0.58089941831E+03 -0.88151989047E+03 -0.45249385855E+03  0.11485957268E+04  0.50400001928E-02 0.  1.
       -1    1    3    3    0  502 -0.58089941831E+03  0.88151989047E+03 -0.80507937389E+03  0.13276574294E+04  0.50400001928E-02 0. -1.
</event>
<event>
 5   0  0.8525278E-05  0.2051670E+04  0.7818609E-02  0.8582837E-01
       -1   -1    0    0    0  501  0.00000000000E+00  0.00000000000E+00  0.12810182045E+04  0.12810182046E+04  0.50400001928E-02 0. -1.
        1   -1    0    0  501    0  0.00000000000E+00  0.00000000000E+00 -0.82148482153E+03  0.82148482154E+03  0.50400001928E-02 0.  1.
    10030    2    1    2    0    0  0.00000000000E+00  0.00000000000E+00  0.45953338301E+03  0.21025030261E+04  0.20516695749E+04 0.  0.
        4    1    3    3  502    0 -0.54641127351E+03 -0.82837587738E+03 -0.36603338020E+02  0.99303237173E+03  0.12699999809E+01 0. -1.
       -4    1    3    3    0  502  0.54641127351E+03  0.82837587738E+03  0.49613672103E+03  0.11094706544E+04  0.12699999809E+01 0.  1.
</event>
<event>
 5   0  0.6441125E-05  0.2109462E+04  0.7818609E-02  0.8557087E-01
       -3   -1    0    0    0  501  0.00000000000E+00  0.00000000000E+00  0.97667477244E+03  0.97667477766E+03  0.10100000352E+00 0.  1.
        3   -1    0    0  501    0  0.00000000000E+00  0.00000000000E+00 -0.11390254623E+04  0.11390254668E+04  0.10100000352E+00 0. -1.
    10030    2    1    2    0    0  0.00000000000E+00  0.00000000000E+00 -0.16235068986E+03  0.21157002444E+04  0.21094619641E+04 0.  0.
        4    1    3    3  502    0 -0.69652756013E+03  0.41278237176E+03  0.59677919649E+03  0.10058265013E+04  0.12699999809E+01 0.  1.
       -4    1    3    3    0  502  0.69652756013E+03 -0.41278237176E+03 -0.75912988635E+03  0.11098737431E+04  0.12699999809E+01 0. -1.
</event>
<event>
 5   0  0.8486612E-05  0.2112279E+04  0.7818609E-02  0.8555854E-01
        1   -1    0    0  501    0  0.00000000000E+00  0.00000000000E+00  0.11628495383E+04  0.11628495383E+04  0.50400001928E-02 0.  1.
       -1   -1    0    0    0  501  0.00000000000E+00  0.00000000000E+00 -0.95922188441E+03  0.95922188443E+03  0.50400001928E-02 0. -1.
    10030    2    1    2    0    0  0.00000000000E+00  0.00000000000E+00  0.20362765392E+03  0.21220714228E+04  0.21122790777E+04 0.  0.
        5    1    3    3  502    0 -0.11636201068E+03  0.54066464097E+03  0.10057351035E+04  0.11477733051E+04  0.46999998093E+01 0.  1.
       -5    1    3    3    0  502  0.11636201068E+03 -0.54066464097E+03 -0.80210744954E+03  0.97429811769E+03  0.46999998093E+01 0. -1.
</event>
<event>
 5   0  0.1921687E-04  0.1945008E+04  0.7818609E-02  0.8632772E-01
        2   -1    0    0  501    0  0.00000000000E+00  0.00000000000E+00  0.12729161562E+04  0.12729161562E+04  0.25500000920E-02 0.  1.
       -2   -1    0    0    0  501  0.00000000000E+00  0.00000000000E+00 -0.74298985287E+03  0.74298985287E+03  0.25500000920E-02 0. -1.
    10030    2    1    2    0    0  0.00000000000E+00  0.00000000000E+00  0.52992630334E+03  0.20159060091E+04  0.19450077508E+04 0.  0.
        5    1    3    3  502    0  0.70774042971E+03 -0.51969559762E+03  0.69824653428E+03  0.11218513015E+04  0.46999998093E+01 0.  1.
       -5    1    3    3    0  502 -0.70774042971E+03  0.51969559762E+03 -0.16832023094E+03  0.89405470759E+03  0.46999998093E+01 0. -1.
</event>
<event>
 5   0  0.1921687E-04  0.2242846E+04  0.7818609E-02  0.8500803E-01
       -2   -1    0    0    0  501  0.00000000000E+00  0.00000000000E+00  0.23173043172E+04  0.23173043172E+04  0.25500000920E-02 0.  1.
        2   -1    0    0  501    0  0.00000000000E+00  0.00000000000E+00 -0.54269499115E+03  0.54269499115E+03  0.25500000920E-02 0. -1.
    10030    2    1    2    0    0  0.00000000000E+00  0.00000000000E+00  0.17746093261E+04  0.28599993084E+04  0.22428459117E+04 0.  0.
        5    1    3    3  502    0  0.60506168679E+03  0.19972216521E+03 -0.28943096512E+03  0.69984352655E+03  0.46999998093E+01 0. -1.
       -5    1    3    3    0  502 -0.60506168679E+03 -0.19972216521E+03  0.20640402912E+04  0.21601557818E+04  0.46999998093E+01 0.  1.
</event>
<event>
 5   0  0.1815400E-04  0.1916117E+04  0.7818609E-02  0.8646875E-01
        2   -1    0    0  501    0  0.00000000000E+00  0.00000000000E+00  0.22872258540E+04  0.22872258540E+04  0.25500000920E-02 0.  1.
       -2   -1    0    0    0  501  0.00000000000E+00  0.00000000000E+00 -0.40130525043E+03  0.40130525044E+03  0.25500000920E-02 0. -1.
    10030    2    1    2    0    0  0.00000000000E+00  0.00000000000E+00  0.18859206036E+04  0.26885311045E+04  0.19161166396E+04 0.  0.
        3    1    3    3  502    0  0.16470890723E+03  0.94283484729E+03  0.88327990801E+03  0.13024016199E+04  0.10100000352E+00 0. -1.
       -3    1    3    3    0  502 -0.16470890723E+03 -0.94283484729E+03  0.10026406956E+04  0.13861294846E+04  0.10100000352E+00 0.  1.
</event>
<event>
 5   0  0.1921687E-04  0.2078327E+04  0.7818609E-02  0.8570851E-01
       -2   -1    0    0    0  501  0.00000000000E+00  0.00000000000E+00  0.55156754781E+03  0.55156754782E+03  0.25500000920E-02 0. -1.
        2   -1    0    0  501    0  0.00000000000E+00  0.00000000000E+00 -0.19578028216E+04  0.19578028216E+04  0.25500000920E-02 0.  1.
    10030    2    1    2    0    0  0.00000000000E+00  0.00000000000E+00 -0.14062352738E+04  0.25093703694E+04  0.20783267322E+04 0.  0.
        5    1    3    3  502    0  0.50631043745E+03  0.15896196631E+03  0.37561058062E+03  0.65017271864E+03  0.46999998093E+01 0. -1.
       -5    1    3    3    0  502 -0.50631043745E+03 -0.15896196631E+03 -0.17818458544E+04  0.18591976508E+04  0.46999998093E+01 0.  1.
</event>
<event>
 5   0  0.8271069E-05  0.2104262E+04  0.7818609E-02  0.8559368E-01
        1   -1    0    0  501    0  0.00000000000E+00  0.00000000000E+00  0.11516914332E+04  0.11516914332E+04  0.50400001928E-02 0. -1.
       -1   -1    0    0    0  501  0.00000000000E+00  0.00000000000E+00 -0.96117743846E+03  0.96117743847E+03  0.50400001928E-02 0.  1.
    10030    2    1    2    0    0  0.00000000000E+00  0.00000000000E+00  0.19051399473E+03  0.21128688717E+04  0.21042621716E+04 0.  0.
        2    1    3    3  502    0  0.31689914902E+03  0.25003078490E+03 -0.88033391733E+03  0.96846696901E+03  0.25500000920E-02 0.  1.
       -2    1    3    3    0  502 -0.31689914902E+03 -0.25003078490E+03  0.10708479121E+04  0.11444019027E+04  0.25500000920E-02 0. -1.
</event>
<event>
 5   0  0.1815400E-04  0.2094336E+04  0.7818609E-02  0.8563743E-01
       -2   -1    0    0    0  501  0.00000000000E+00  0.00000000000E+00  0.11217285649E+04  0.11217285649E+04  0.25500000920E-02 0.  1.
        2   -1    0    0  501    0  0.00000000000E+00  0.00000000000E+00 -0.97756329132E+03  0.97756329132E+03  0.25500000920E-02 0. -1.
    10030    2    1    2    0    0  0.00000000000E+00  0.00000000000E+00  0.14416527354E+03  0.20992918562E+04  0.20943358545E+04 0.  0.
        3    1    3    3  502    0  0.14212155729E+03  0.35994606334E+02 -0.96722509832E+03  0.97827324903E+03  0.10100000352E+00 0. -1.
       -3    1    3    3    0  502 -0.14212155729E+03 -0.35994606334E+02  0.11113903719E+04  0.11210186072E+04  0.10100000352E+00 0.  1.
</event>
<event>
 5   0  0.1777590E-04  0.1998646E+04  0.7818609E-02  0.8607254E-01
        2   -1    0    0  501    0  0.00000000000E+00  0.00000000000E+00  0.12577843371E+04  0.12577843371E+04  0.25500000920E-02 0. -1.
       -2   -1    0    0    0  501  0.00000000000E+00  0.00000000000E+00 -0.79397238712E+03  0.79397238713E+03  0.25500000920E-02 0.  1.
    10030    2    1    2    0    0  0.00000000000E+00  0.00000000000E+00  0.46381194999E+03  0.20517567242E+04  0.19986455740E+04 0.  0.
        4    1    3    3  502    0  0.55282776148E+02 -0.91186472359E+03 -0.18393990926E+03  0.93187389844E+03  0.12699999809E+01 0.  1.
       -4    1    3    3    0  502 -0.55282776148E+02  0.91186472359E+03  0.64775185925E+03  0.11198828258E+04  0.12699999809E+01 0. -1.
</event>
<event>
 5   0  0.1815400E-04  0.2086540E+04  0.7818609E-02  0.8567196E-01
        2   -1    0    0  501    0  0.00000000000E+00  0.00000000000E+00  0.17248334038E+04  0.17248334038E+04  0.25500000920E-02 0.  1.
       -2   -1    0    0    0  501  0.00000000000E+00  0.00000000000E+00 -0.63102458684E+03  0.63102458684E+03  0.25500000920E-02 0. -1.
    10030    2    1    2    0    0  0.00000000000E+00  0.00000000000E+00  0.10938088170E+04  0.23558579907E+04  0.20865399934E+04 0.  0.
        3    1    3    3  502    0  0.43299622844E+03 -0.87857694554E+03  0.95247477605E+03  0.13662325542E+04  0.10100000352E+00 0.  1.
       -3    1    3    3    0  502 -0.43299622844E+03  0.87857694554E+03  0.14133404093E+03  0.98962543642E+03  0.10100000352E+00 0. -1.
</event>
<event>
 5   0  0.8271069E-05  0.2117604E+04  0.7818609E-02  0.8553528E-01
        1   -1    0    0  501    0  0.00000000000E+00  0.00000000000E+00  0.91807418180E+03  0.91807418181E+03  0.50400001928E-02 0.  1.
       -1   -1    0    0    0  501  0.00000000000E+00  0.00000000000E+00 -0.12211011671E+04  0.12211011671E+04  0.50400001928E-02 0. -1.
    10030    2    1    2    0    0  0.00000000000E+00  0.00000000000E+00 -0.30302698526E+03  0.21391753489E+04  0.21176037919E+04 0.  0.
        2    1    3    3  502    0  0.56812352742E+03 -0.56810948529E+03  0.54511172254E+03  0.97090654532E+03  0.25500000920E-02 0.  1.
       -2    1    3    3    0  502 -0.56812352742E+03  0.56810948529E+03 -0.84813870781E+03  0.11682688036E+04  0.25500000920E-02 0. -1.
</event>
<event>
 5   0  0.1886323E-04  0.2093327E+04  0.7818609E-02  0.8564189E-01
       -2   -1    0    0    0  501  0.00000000000E+00  0.00000000000E+00  0.93719182087E+03  0.93719182088E+03  0.25500000920E-02 0.  1.
        2   -1    0    0  501    0  0.00000000000E+00  0.00000000000E+00 -0.11689222205E+04  0.11689222205E+04  0.25500000920E-02 0. -1.
    10030    2    1    2    0    0  0.00000000000E+00  0.00000000000E+00 -0.23173039958E+03  0.21061140413E+04  0.20933268682E+04 0.  0.
        2    1    3    3  502    0 -0.47889736454E+03 -0.79301844675E+03 -0.60595821795E+03  0.11069807155E+04  0.25500000920E-02 0. -1.
       -2    1    3    3    0  502  0.47889736454E+03  0.79301844675E+03  0.37422781837E+03  0.99913332579E+03  0.25500000920E-02 0.  1.
</event>
<event>
 5   0  0.8525278E-05  0.2015991E+04  0.7818609E-02  0.8599180E-01
        1   -1    0    0  501    0  0.00000000000E+00  0.00000000000E+00  0.14900241591E+04  0.14900241591E+04  0.50400001928E-02 0. -1.
       -1   -1    0    0    0  501  0.00000000000E+00  0.00000000000E+00 -0.68190529337E+03  0.68190529339E+03  0.50400001928E-02 0.  1.
    10030    2    1    2    0    0  0.00000000000E+00  0.00000000000E+00  0.80811886573E+03  0.21719294525E+04  0.20159914299E+04 0.  0.
        4    1    3    3  502    0 -0.19765644023E+02 -0.43431783501E+02 -0.68068691358E+03  0.68235862105E+03  0.12699999809E+01 0.  1.
       -4    1    3    3    0  502  0.19765644023E+02  0.43431783501E+02  0.14888057793E+04  0.14895708315E+04  0.12699999809E+01 0. -1.
</event>
<event>
 5   0  0.8525278E-05  0.2117521E+04  0.7818609E-02  0.8553564E-01
       -1   -1    0    0    0  501  0.00000000000E+00  0.00000000000E+00  0.51262157844E+03  0.51262157847E+03  0.50400001928E-02 0. -1.
        1   -1    0    0  501    0  0.00000000000E+00  0.00000000000E+00 -0.21867480610E+04  0.21867480610E+04  0.50400001928E-02 0.  1.
    10030    2    1    2    0    0  0.00000000000E+00  0.00000000000E+00 -0.16741264825E+04  0.26993696395E+04  0.21175214216E+04 0.  0.
        4    1    3    3  502    0  0.88255874391E+03  0.90410494208E+02 -0.10045704909E+03  0.89284781768E+03  0.12699999809E+01 0. -1.
       -4    1    3    3    0  502 -0.88255874391E+03 -0.90410494208E+02 -0.15736694335E+04  0.18065218218E+04  0.12699999809E+01 0.  1.
</event>
<event>
 5   0  0.1777590E-04  0.2074438E+04  0.7818609E-02  0.8572588E-01
        2   -1    0    0  501    0  0.00000000000E+00  0.00000000000E+00  0.16943270424E+04  0.16943270424E+04  0.25500000920E-02 0. -1.
       -2   -1    0    0    0  501  0.00000000000E+00  0.00000000000E+00 -0.63495605981E+03  0.63495605981E+03  0.25500000920E-02 0.  1.
    10030    2    1    2    0    0  0.00000000000E+00  0.00000000000E+00  0.10593709826E+04  0.23292831022E+04  0.20744379700E+04 0.  0.
        4    1    3    3  502    0 -0.19166841338E+03 -0.61991865956E+03 -0.37891174423E+03  0.75140644659E+03  0.12699999809E+01 0.  1.
       -4    1    3    3    0  502  0.19166841338E+03  0.61991865956E+03  0.14382827268E+04  0.15778766556E+04  0.12699999809E+01 0. -1.
</event>
<event>
 5   0  0.8755004E-05  0.2223749E+04  0.7818609E-02  0.8508608E-01
       -1   -1    0    0    0  501  0.00000000000E+00  0.00000000000E+00  0.10725789281E+04  0.10725789281E+04  0.50400001928E-02 0. -1.
        1   -1    0    0  501    0  0.00000000000E+00  0.00000000000E+00 -0.11526094702E+04  0.11526094702E+04  0.50400001928E-02 0.  1.
    10030    2    1    2    0    0  0.00000000000E+00  0.00000000000E+00 -0.80030542141E+02  0.22251883984E+04  0.22237487539E+04 0.  0.
        3    1    3    3  502    0  0.98506495964E+03 -0.50077422023E+03  0.83096186237E+02  0.11081664048E+04  0.10100000352E+00 0.  1.
       -3    1    3    3    0  502 -0.98506495964E+03  0.50077422023E+03 -0.16312672838E+03  0.11170219936E+04  0.10100000352E+00 0. -1.
</event>
<event>
 5   0  0.8271069E-05  0.2044981E+04  0.7818609E-02  0.8585874E-01
        1   -1    0    0  501    0  0.00000000000E+00  0.00000000000E+00  0.16310102605E+04  0.16310102606E+04  0.50400001928E-02 0. -1.
       -1   -1    0    0    0  501  0.00000000000E+00  0.00000000000E+00 -0.64100597264E+03  0.64100597266E+03  0.50400001928E-02 0.  1.
    10030    2    1    2    0    0  0.00000000000E+00  0.00000000000E+00  0.99000428791E+03  0.22720162332E+04  0.20449814850E+04 0.  0.
        2    1    3    3  502    0  0.50493718187E+03 -0.22144992667E+03 -0.46169270785E+03  0.71913961380E+03  0.25500000920E-02 0.  1.
       -2    1    3    3    0  502 -0.50493718187E+03  0.22144992667E+03  0.14516969958E+04  0.15528766194E+04  0.25500000920E-02 0. -1.
</event>
<event>
 5   0  0.1815400E-04  0.2095737E+04  0.7818609E-02  0.8563123E-01
       -2   -1    0    0    0  501  0.00000000000E+00  0.00000000000E+00  0.13868457575E+04  0.13868457575E+04  0.25500000920E-02 0. -1.
        2   -1    0    0  501    0  0.00000000000E+00  0.00000000000E+00 -0.79174551066E+03  0.79174551066E+03  0.25500000920E-02 0.  1.
    10030    2    1    2    0    0  0.00000000000E+00  0.00000000000E+00  0.59510024680E+03  0.21785912681E+04  0.20957374859E+04 0.  0.
        3    1    3    3  502    0  0.78859743257E+03  0.45843894996E+03  0.83366848602E+03  0.12357408047E+04  0.10100000352E+00 0. -1.
       -3    1    3    3    0  502 -0.78859743257E+03 -0.45843894996E+03 -0.23856823922E+03  0.94285046347E+03  0.10100000352E+00 0.  1.
</event>
<event>
 5   0  0.1815400E-04  0.2126944E+04  0.7818609E-02  0.8549466E-01
       -2   -1    0    0    0  501  0.00000000000E+00  0.00000000000E+00  0.75693216122E+03  0.75693216122E+03  0.25500000920E-02 0. -1.
        2   -1    0    0  501    0  0.00000000000E+00  0.00000000000E+00 -0.14941532160E+04  0.14941532160E+04  0.25500000920E-02 0.  1.
    10030    2    1    2    0    0  0.00000000000E+00  0.00000000000E+00 -0.73722105473E+03  0.22510853772E+04  0.21269439325E+04 0.  0.
        3    1    3    3  502    0  0.30622766831E+03 -0.98451344321E+02 -0.14414328567E+04  0.14768875186E+04  0.10100000352E+00 0.  1.
       -3    1    3    3    0  502 -0.30622766831E+03  0.98451344321E+02  0.70421180195E+03  0.77419785859E+03  0.10100000352E+00 0. -1.
</event>
<event>
 5   0  0.1777590E-04  0.2091461E+04  0.7818609E-02  0.8565014E-01
       -2   -1    0    0    0  501  0.00000000000E+00  0.00000000000E+00  0.93186729807E+03  0.93186729807E+03  0.25500000920E-02 0. -1.
        2   -1    0    0  501    0  0.00000000000E+00  0.00000000000E+00 -0.11735065389E+04  0.11735065389E+04  0.25500000920E-02 0.  1.
    10030    2    1    2    0    0  0.00000000000E+00  0.00000000000E+00 -0.24163924082E+03  0.21053738370E+04  0.20914610851E+04 0.  0.
        4    1    3    3  502    0 -0.27124390895E+03  0.77305863643E+02  0.89285527139E+03  0.93634481002E+03  0.12699999809E+01 0. -1.
       -4    1    3    3    0  502  0.27124390895E+03 -0.77305863643E+02 -0.11344945122E+04  0.11690290269E+04  0.12699999809E+01 0.  1.
</event>
<event>
 5   0  0.8237966E-05  0.2423166E+04  0.7818609E-02  0.8430881E-01
        1   -1    0    0  501    0  0.00000000000E+00  0.00000000000E+00  0.19193627449E+04  0.19193627449E+04  0.50400001928E-02 0. -1.
       -1   -1    0    0    0  501  0.00000000000E+00  0.00000000000E+00 -0.76480224736E+03  0.76480224738E+03  0.50400001928E-02 0.  1.
    10030    2    1    2    0    0  0.00000000000E+00  0.00000000000E+00  0.11545604976E+04  0.26841649923E+04  0.24231656492E+04 0.  0.
        1    1    3    3  502    0 -0.18573461061E+03  0.60805469400E+03 -0.56516848750E+03  0.85067224932E+03  0.50400001928E-02 0.  1.
       -1    1    3    3    0  502  0.18573461061E+03 -0.60805469400E+03  0.17197289851E+04  0.18334927430E+04  0.50400001928E-02 0. -1.
</event>
<event>
 5   0  0.1777590E-04  0.2096507E+04  0.7818609E-02  0.8562784E-01
       -2   -1    0    0    0  501  0.00000000000E+00  0.00000000000E+00  0.15031204391E+04  0.15031204391E+04  0.25500000920E-02 0. -1.
        2   -1    0    0  501    0  0.00000000000E+00  0.00000000000E+00 -0.73103628090E+03  0.73103628090E+03  0.25500000920E-02 0.  1.
    10030    2    1    2    0    0  0.00000000000E+00  0.00000000000E+00  0.77208415821E+03  0.22341567200E+04  0.20965071672E+04 0.  0.
        4    1    3    3  502    0  0.37499829298E+03 -0.93534969058E+03  0.78417452943E+02  0.10107688525E+04  0.12699999809E+01 0.  1.
       -4    1    3    3    0  502 -0.37499829298E+03  0.93534969058E+03  0.69366670526E+03  0.12233878675E+04  0.12699999809E+01 0. -1.
</event>
<event>
 5   0  0.8755004E-05  0.1973365E+04  0.7818609E-02  0.8619175E-01
       -1   -1    0    0    0  501  0.00000000000E+00  0.00000000000E+00  0.74144892041E+03  0.74144892043E+03  0.50400001928E-02 0. -1.
        1   -1    0    0  501    0  0.00000000000E+00  0.00000000000E+00 -0.13130274099E+04  0.13130274099E+04  0.50400001928E-02 0.  1.
    10030    2    1    2    0    0  0.00000000000E+00  0.00000000000E+00 -0.57157848945E+03  0.20544763303E+04  0.19733654051E+04 0.  0.
        3    1    3    3  502    0 -0.19090106463E+03  0.41191423632E+03  0.62624666901E+03  0.77349948624E+03  0.10100000352E+00 0. -1.
       -3    1    3    3    0  502  0.19090106463E+03 -0.41191423632E+03 -0.11978251585E+04  0.12809768441E+04  0.10100000352E+00 0.  1.
</event>
<event>
 5   0  0.1815400E-04  0.2094573E+04  0.7818609E-02  0.8563638E-01
        2   -1    0    0  501    0  0.00000000000E+00  0.00000000000E+00  0.21410471749E+04  0.21410471749E+04  0.25500000920E-02 0.  1.
       -2   -1    0    0    0  501  0.00000000000E+00  0.00000000000E+00 -0.51227684041E+03  0.51227684041E+03  0.25500000920E-02 0. -1.
    10030    2    1    2    0    0  0.00000000000E+00  0.00000000000E+00  0.16287703345E+04  0.26533240153E+04  0.20945728748E+04 0.  0.
        3    1    3    3  502    0 -0.94428734581E+03  0.44772937253E+03  0.90094019426E+03  0.13797947044E+04  0.10100000352E+00 0.  1.
       -3    1    3    3    0  502  0.94428734581E+03 -0.44772937253E+03  0.72783014022E+03  0.12735293109E+04  0.10100000352E+00 0. -1.
</event>
<event>
 5   0  0.1815400E-04  0.2117698E+04  0.7818609E-02  0.8553487E-01
        2   -1    0    0  501    0  0.00000000000E+00  0.00000000000E+00  0.10717561141E+04  0.10717561141E+04  0.25500000920E-02 0.  1.
       -2   -1    0    0    0  501  0.00000000000E+00  0.00000000000E+00 -0.10460972478E+04  0.10460972478E+04  0.25500000920E-02 0. -1.
    10030    2    1    2    0    0  0.00000000000E+00  0.00000000000E+00  0.25658866290E+02  0.21178533618E+04  0.21176979211E+04 0.  0.
        3    1    3    3  502    0 -0.93465747579E+02  0.74837827484E+02 -0.10393050897E+04  0.10461795382E+04  0.10100000352E+00 0. -1.
       -3    1    3    3    0  502  0.93465747579E+02 -0.74837827484E+02  0.10649639560E+04  0.10716738236E+04  0.10100000352E+00 0.  1.
</event>
<event>
 5   0  0.8237966E-05  0.1965542E+04  0.7818609E-02  0.8622903E-01
        1   -1    0    0  501    0  0.00000000000E+00  0.00000000000E+00  0.11632745539E+04  0.11632745539E+04  0.50400001928E-02 0. -1.
       -1   -1    0    0    0  501  0.00000000000E+00  0.00000000000E+00 -0.83027561778E+03  0.83027561780E+03  0.50400001928E-02 0.  1.
    10030    2    1    2    0    0  0.00000000000E+00  0.00000000000E+00  0.33299893614E+03  0.19935501717E+04  0.19655416545E+04 0.  0.
        1    1    3    3  502    0 -0.26650288416E+03  0.64606428095E+03  0.86729810217E+03  0.11138351945E+04  0.50400001928E-02 0. -1.
       -1    1    3    3    0  502  0.26650288416E+03 -0.64606428095E+03 -0.53429916603E+03  0.87971497727E+03  0.50400001928E-02 0.  1.
</event>
<event>
 5   0  0.8237966E-05  0.2092877E+04  0.7818609E-02  0.8564388E-01
        1   -1    0    0  501    0  0.00000000000E+00  0.00000000000E+00  0.14032121292E+04  0.14032121292E+04  0.50400001928E-02 0.  1.
       -1   -1    0    0    0  501  0.00000000000E+00  0.00000000000E+00 -0.78037643890E+03  0.78037643891E+03  0.50400001928E-02 0. -1.
    10030    2    1    2    0    0  0.00000000000E+00  0.00000000000E+00  0.62283569029E+03  0.21835885681E+04  0.20928771435E+04 0.  0.
        1    1    3    3  502    0 -0.39752911471E+03  0.96307596988E+03  0.41305124805E+03  0.11207836787E+04  0.50400001928E-02 0.  1.
       -1    1    3    3    0  502  0.39752911471E+03 -0.96307596988E+03  0.20978444224E+03  0.10628048894E+04  0.50400001928E-02 0. -1.
</event>
<event>
 5   0  0.1810875E-04  0.2130866E+04  0.7818609E-02  0.8547767E-01
        2   -1    0    0  501    0  0.00000000000E+00  0.00000000000E+00  0.16392991607E+04  0.16392991607E+04  0.25500000920E-02 0.  1.
       -2   -1    0    0    0  501  0.00000000000E+00  0.00000000000E+00 -0.69245898884E+03  0.69245898885E+03  0.25500000920E-02 0. -1.
    10030    2    1    2    0    0  0.00000000000E+00  0.00000000000E+00  0.94684017188E+03  0.23317581496E+04  0.21308659641E+04 0.  0.
        1    1    3    3  502    0 -0.79848960726E+03  0.52115228925E+03 -0.46749733411E+02  0.95465747736E+03  0.50400001928E-02 0. -1.
       -1    1    3    3    0  502  0.79848960726E+03 -0.52115228925E+03  0.99358990529E+03  0.13771006722E+04  0.50400001928E-02 0.  1.
</event>
<event>
 5   0  0.8525278E-05  0.2091034E+04  0.7818609E-02  0.8565203E-01
       -1   -1    0    0    0  501  0.00000000000E+00  0.00000000000E+00  0.73527608991E+03  0.73527608993E+03  0.50400001928E-02 0. -1.
        1   -1    0    0  501    0  0.00000000000E+00  0.00000000000E+00 -0.14866597455E+04  0.14866597455E+04  0.50400001928E-02 0.  1.
    10030    2    1    2    0    0  0.00000000000E+00  0.00000000000E+00 -0.75138365560E+03  0.22219358355E+04  0.20910335863E+04 0.  0.
        4    1    3    3  502    0  0.47648788305E+03  0.51812214586E+03 -0.11971403223E+04  0.13887540549E+04  0.12699999809E+01 0.  1.
       -4    1    3    3    0  502 -0.47648788305E+03 -0.51812214586E+03  0.44575666669E+03  0.83318178060E+03  0.12699999809E+01 0. -1.
</event>
<event>
 5   0  0.1921687E-04  0.2138155E+04  0.7818609E-02  0.8544619E-01
       -2   -1    0    0    0  501  0.00000000000E+00  0.00000000000E+00  0.10896876932E+04  0.10896876932E+04  0.25500000920E-02 0. -1.
        2   -1    0    0  501    0  0.00000000000E+00  0.00000000000E+00 -0.10488574810E+04  0.10488574810E+04  0.25500000920E-02 0.  1.
    10030    2    1    2    0    0  0.00000000000E+00  0.00000000000E+00  0.40830212182E+02  0.21385451742E+04  0.21381553629E+04 0.  0.
        5    1    3    3  502    0  0.43643989861E+03 -0.69791403548E+03 -0.66186848818E+03  0.10562460753E+04  0.46999998093E+01 0.  1.
       -5    1    3    3    0  502 -0.43643989861E+03  0.69791403548E+03  0.70269870037E+03  0.10822990989E+04  0.46999998093E+01 0. -1.
</event>
<event>
 5   0  0.8271069E-05  0.2225004E+04  0.7818609E-02  0.8508092E-01
        1   -1    0    0  501    0  0.00000000000E+00  0.00000000000E+00  0.91631395590E+03  0.91631395591E+03  0.50400001928E-02 0. -1.
       -1   -1    0    0    0  501  0.00000000000E+00  0.00000000000E+00 -0.13506954646E+04  0.13506954646E+04  0.50400001928E-02 0.  1.
    10030    2    1    2    0    0  0.00000000000E+00  0.00000000000E+00 -0.43438150867E+03  0.22670094205E+04  0.22250043635E+04 0.  0.
        2    1    3    3  502    0 -0.91475076325E+03  0.30335978362E+03  0.34905739763E+03  0.10250059434E+04  0.25500000920E-02 0. -1.
       -2    1    3    3    0  502  0.91475076325E+03 -0.30335978362E+03 -0.78343890630E+03  0.12420034771E+04  0.25500000920E-02 0.  1.
</event>
<event>
 5   0  0.8486612E-05  0.2141898E+04  0.7818609E-02  0.8543008E-01
       -1   -1    0    0    0  501  0.00000000000E+00  0.00000000000E+00  0.48402762741E+03  0.48402762743E+03  0.50400001928E-02 0.  1.
        1   -1    0    0  501    0  0.00000000000E+00  0.00000000000E+00 -0.23695580646E+04  0.23695580646E+04  0.50400001928E-02 0. -1.
    10030    2    1    2    0    0  0.00000000000E+00  0.00000000000E+00 -0.18855304372E+04  0.28535856920E+04  0.21418978202E+04 0.  0.
        5    1    3    3  502    0  0.20100460320E+03  0.65229295195E+03 -0.20422070903E+04  0.21532581906E+04  0.46999998093E+01 0. -1.
       -5    1    3    3    0  502 -0.20100460320E+03 -0.65229295195E+03  0.15667665310E+03  0.70032750146E+03  0.46999998093E+01 0.  1.
</event>
<event>
 5   0  0.8237966E-05  0.2096149E+04  0.7818609E-02  0.8562942E-01
        1   -1    0    0  501    0  0.00000000000E+00  0.00000000000E+00  0.10588300161E+04  0.10588300161E+04  0.50400001928E-02 0.  1.
       -1   -1    0    0    0  501  0.00000000000E+00  0.00000000000E+00 -0.10374282774E+04  0.10374282774E+04  0.50400001928E-02 0. -1.
    10030    2    1    2    0    0  0.00000000000E+00  0.00000000000E+00  0.21401738719E+02  0.20962582936E+04  0.20961490402E+04 0.  0.
        1    1    3    3  502    0  0.80180973242E+03 -0.23550445742E+02 -0.66387615458E+03  0.10412420560E+04  0.50400001928E-02 0. -1.
       -1    1    3    3    0  502 -0.80180973242E+03  0.23550445742E+02  0.68527789329E+03  0.10550162376E+04  0.50400001928E-02 0.  1.
</event>
<event>
 5   0  0.1921687E-04  0.2078174E+04  0.7818609E-02  0.8570919E-01
        2   -1    0    0  501    0  0.00000000000E+00  0.00000000000E+00  0.19851437111E+04  0.19851437111E+04  0.25500000920E-02 0. -1.
       -2   -1    0    0    0  501  0.00000000000E+00  0.00000000000E+00 -0.54389122966E+03  0.54389122967E+03  0.25500000920E-02 0.  1.
    10030    2    1    2    0    0  0.00000000000E+00  0.00000000000E+00  0.14412524814E+04  0.25290349407E+04  0.20781744432E+04 0.  0.
        5    1    3    3  502    0  0.48996877914E+03  0.87818707859E+03  0.10388958803E+04  0.14458937339E+04  0.46999998093E+01 0. -1.
       -5    1    3    3    0  502 -0.48996877914E+03 -0.87818707859E+03  0.40235660109E+03  0.10831412069E+04  0.46999998093E+01 0.  1.
</event>
<event>
 5   0  0.8271069E-05  0.2096391E+04  0.7818609E-02  0.8562835E-01
        1   -1    0    0  501    0  0.00000000000E+00  0.00000000000E+00  0.14227798001E+04  0.14227798001E+04  0.50400001928E-02 0.  1.
       -1   -1    0    0    0  501  0.00000000000E+00  0.00000000000E+00 -0.77223023356E+03  0.77223023358E+03  0.50400001928E-02 0. -1.
    10030    2    1    2    0    0  0.00000000000E+00  0.00000000000E+00  0.65054956653E+03  0.21950100337E+04  0.20963907817E+04 0.  0.
        2    1    3    3  502    0 -0.50857633407E+02 -0.20577801406E+03  0.14001047268E+04  0.14160594394E+04  0.25500000920E-02 0.  1.
       -2    1    3    3    0  502  0.50857633407E+02  0.20577801406E+03 -0.74955516029E+03  0.77895059424E+03  0.25500000920E-02 0. -1.
</event>
<event>
 5   0  0.8755004E-05  0.2099740E+04  0.7818609E-02  0.8561358E-01
        1   -1    0    0  501    0  0.00000000000E+00  0.00000000000E+00  0.17121723297E+04  0.17121723297E+04  0.50400001928E-02 0. -1.
       -1   -1    0    0    0  501  0.00000000000E+00  0.00000000000E+00 -0.64375923305E+03  0.64375923307E+03  0.50400001928E-02 0.  1.
    10030    2    1    2    0    0  0.00000000000E+00  0.00000000000E+00  0.10684130967E+04  0.23559315628E+04  0.20997397418E+04 0.  0.
        3    1    3    3  502    0  0.81269117622E+03 -0.48303888137E+03  0.10464550283E+04  0.14102700611E+04  0.10100000352E+00 0.  1.
       -3    1    3    3    0  502 -0.81269117622E+03  0.48303888137E+03  0.21958068396E+02  0.94566150170E+03  0.10100000352E+00 0. -1.
</event>
<event>
 5   0  0.1815400E-04  0.2123277E+04  0.7818609E-02  0.8551058E-01
        2   -1    0    0  501    0  0.00000000000E+00  0.00000000000E+00  0.14250341061E+04  0.14250341061E+04  0.25500000920E-02 0.  1.
       -2   -1    0    0    0  501  0.00000000000E+00  0.00000000000E+00 -0.79091169608E+03  0.79091169609E+03  0.25500000920E-02 0. -1.
    10030    2    1    2    0    0  0.00000000000E+00  0.00000000000E+00  0.63412241002E+03  0.22159458022E+04  0.21232768466E+04 0.  0.
        3    1    3    3  502    0  0.67459342430E+03 -0.56942016917E+03 -0.29838860934E+03  0.93185373828E+03  0.10100000352E+00 0. -1.
       -3    1    3    3    0  502 -0.67459342430E+03  0.56942016917E+03  0.93251101936E+03  0.12840920639E+04  0.10100000352E+00 0.  1.
</event>
<event>
 5   0  0.1921687E-04  0.1963511E+04  0.7818609E-02  0.8623873E-01
        2   -1    0    0  501    0  0.00000000000E+00  0.00000000000E+00  0.81381953314E+03  0.81381953314E+03  0.25500000920E-02 0. -1.
       -2   -1    0    0    0  501  0.00000000000E+00  0.00000000000E+00 -0.11843462559E+04  0.11843462559E+04  0.25500000920E-02 0.  1.
    10030    2    1    2    0    0  0.00000000000E+00  0.00000000000E+00 -0.37052672274E+03  0.19981657890E+04  0.19635112600E+04 0.  0.
        5    1    3    3  502    0  0.70426919522E+03  0.56612516936E+03 -0.57587265149E+03  0.10715149124E+04  0.46999998093E+01 0.  1.
       -5    1    3    3    0  502 -0.70426919522E+03 -0.56612516936E+03  0.20534592875E+03  0.92665087664E+03  0.46999998093E+01 0. -1.
</event>
<event>
 5   0  0.1810875E-04  0.2217122E+04  0.7818609E-02  0.8511335E-01
       -2   -1    0    0    0  501  0.00000000000E+00  0.00000000000E+00  0.98584596310E+03  0.98584596310E+03  0.25500000920E-02 0.  1.
        2   -1    0    0  501    0  0.00000000000E+00  0.00000000000E+00 -0.12465509346E+04  0.12465509346E+04  0.25500000920E-02 0. -1.
    10030    2    1    2    0    0  0.00000000000E+00  0.00000000000E+00 -0.26070497146E+03  0.22323968977E+04  0.22171217437E+04 0.  0.
        1    1    3    3  502    0  0.37297507551E+03 -0.10409653439E+04 -0.51146982939E+02  0.11069486293E+04  0.50400001928E-02 0.  1.
       -1    1    3    3    0  502 -0.37297507551E+03  0.10409653439E+04 -0.20955798852E+03  0.11254482683E+04  0.50400001928E-02 0. -1.
</event>
<event>
 5   0  0.8525278E-05  0.2031361E+04  0.7818609E-02  0.8592097E-01
       -1   -1    0    0    0  501  0.00000000000E+00  0.00000000000E+00  0.10469471307E+04  0.10469471307E+04  0.50400001928E-02 0.  1.
        1   -1    0    0  501    0  0.00000000000E+00  0.00000000000E+00 -0.98534804320E+03  0.98534804321E+03  0.50400001928E-02 0. -1.
    10030    2    1    2    0    0  0.00000000000E+00  0.00000000000E+00  0.61599087456E+02  0.20322951739E+04  0.20313614219E+04 0.  0.
        4    1    3    3  502    0  0.55086517697E+03 -0.54267815608E+03  0.68962610246E+03  0.10361166915E+04  0.12699999809E+01 0.  1.
       -4    1    3    3    0  502 -0.55086517697E+03  0.54267815608E+03 -0.62802701501E+03  0.99617848239E+03  0.12699999809E+01 0. -1.
</event>
<event>
 5   0  0.8486612E-05  0.2122232E+04  0.7818609E-02  0.8551513E-01
        1   -1    0    0  501    0  0.00000000000E+00  0.00000000000E+00  0.10903651666E+04  0.10903651666E+04  0.50400001928E-02 0.  1.
       -1   -1    0    0    0  501  0.00000000000E+00  0.00000000000E+00 -0.10326511547E+04  0.10326511547E+04  0.50400001928E-02 0. -1.
    10030    2    1    2    0    0  0.00000000000E+00  0.00000000000E+00  0.57714011924E+02  0.21230163213E+04  0.21222317012E+04 0.  0.
        5    1    3    3  502    0 -0.71152556551E+02  0.42422631602E+03 -0.94150889047E+03  0.10351288491E+04  0.46999998093E+01 0. -1.
       -5    1    3    3    0  502  0.71152556551E+02 -0.42422631602E+03  0.99922290239E+03  0.10878874722E+04  0.46999998093E+01 0.  1.
</event>
<event>
 5   0  0.8237966E-05  0.1349528E+04  0.7818609E-02  0.8991186E-01
       -1   -1    0    0    0  501  0.00000000000E+00  0.00000000000E+00  0.63554419866E+03  0.63554419868E+03  0.50400001928E-02 0. -1.
        1   -1    0    0  501    0  0.00000000000E+00  0.00000000000E+00 -0.71640397829E+03  0.71640397831E+03  0.50400001928E-02 0.  1.
    10030    2    1    2    0    0  0.00000000000E+00  0.00000000000E+00 -0.80859779630E+02  0.13519481770E+04  0.13495279061E+04 0.  0.
        1    1    3    3  502    0 -0.42675330356E+03  0.52255750917E+03 -0.29380157573E+02  0.67531320598E+03  0.50400001928E-02 0.  1.
       -1    1    3    3    0  502  0.42675330356E+03 -0.52255750917E+03 -0.51479622057E+02  0.67663497102E+03  0.50400001928E-02 0. -1.
</event>
<event>
 5   0  0.1886323E-04  0.2110138E+04  0.7818609E-02  0.8556791E-01
        2   -1    0    0  501    0  0.00000000000E+00  0.00000000000E+00  0.16628890857E+04  0.16628890857E+04  0.25500000920E-02 0.  1.
       -2   -1    0    0    0  501  0.00000000000E+00  0.00000000000E+00 -0.66941957634E+03  0.66941957635E+03  0.25500000920E-02 0. -1.
    10030    2    1    2    0    0  0.00000000000E+00  0.00000000000E+00  0.99346950937E+03  0.23323086621E+04  0.21101379171E+04 0.  0.
        2    1    3    3  502    0  0.79182966937E+03 -0.16023801571E+02 -0.27373812529E+03  0.83796393046E+03  0.25500000920E-02 0. -1.
       -2    1    3    3    0  502 -0.79182966937E+03  0.16023801571E+02  0.12672076347E+04  0.14943447316E+04  0.25500000920E-02 0.  1.
</event>
<event>
 5   0  0.8755004E-05  0.2166733E+04  0.7818609E-02  0.8532403E-01
        1   -1    0    0  501    0  0.00000000000E+00  0.00000000000E+00  0.16877288129E+04  0.16877288129E+04  0.50400001928E-02 0. -1.
       -1   -1    0    0    0  501  0.00000000000E+00  0.00000000000E+00 -0.69542170642E+03  0.69542170643E+03  0.50400001928E-02 0.  1.
    10030    2    1    2    0    0  0.00000000000E+00  0.00000000000E+00  0.99230710644E+03  0.23831505193E+04  0.21667332563E+04 0.  0.
        3    1    3    3  502    0 -0.38863961828E+03  0.56372052646E+03  0.14195707686E+04  0.15760719407E+04  0.10100000352E+00 0. -1.
       -3    1    3    3    0  502  0.38863961828E+03 -0.56372052646E+03 -0.42726366219E+03  0.80707857862E+03  0.10100000352E+00 0.  1.
</event>
<event>
 5   0  0.8271069E-05  0.2056120E+04  0.7818609E-02  0.8580823E-01
        1   -1    0    0  501    0  0.00000000000E+00  0.00000000000E+00  0.12203025934E+04  0.12203025934E+04  0.50400001928E-02 0. -1.
       -1   -1    0    0    0  501  0.00000000000E+00  0.00000000000E+00 -0.86610288027E+03  0.86610288029E+03  0.50400001928E-02 0.  1.
    10030    2    1    2    0    0  0.00000000000E+00  0.00000000000E+00  0.35419971315E+03  0.20864054737E+04  0.20561202212E+04 0.  0.
        2    1    3    3  502    0 -0.39158813232E+03  0.35607084748E+03  0.10714327255E+04  0.11950296227E+04  0.25500000920E-02 0. -1.
       -2    1    3    3    0  502  0.39158813232E+03 -0.35607084748E+03 -0.71723301235E+03  0.89137585104E+03  0.25500000920E-02 0.  1.
</event>
<event>
 5   0  0.8525278E-05  0.2028016E+04  0.7818609E-02  0.8593633E-01
       -1   -1    0    0    0  501  0.00000000000E+00  0.00000000000E+00  0.13278979213E+04  0.13278979213E+04  0.50400001928E-02 0. -1.
        1   -1    0    0  501    0  0.00000000000E+00  0.00000000000E+00 -0.77431598031E+03  0.77431598033E+03  0.50400001928E-02 0.  1.
    10030    2    1    2    0    0  0.00000000000E+00  0.00000000000E+00  0.55358194094E+03  0.21022139016E+04  0.20280163517E+04 0.  0.
        4    1    3    3  502    0 -0.62507608112E+03 -0.78811376608E+03  0.40940739661E+03  0.10860292099E+04  0.12699999809E+01 0.  1.
       -4    1    3    3    0  502  0.62507608112E+03  0.78811376608E+03  0.14417454433E+03  0.10161846917E+04  0.12699999809E+01 0. -1.
</event>
<event>
 5   0  0.1810875E-04  0.2104277E+04  0.7818609E-02  0.8559362E-01
        2   -1    0    0  501    0  0.00000000000E+00  0.00000000000E+00  0.22309989920E+04  0.22309989920E+04  0.25500000920E-02 0.  1.
       -2   -1    0    0    0  501  0.00000000000E+00  0.00000000000E+00 -0.49618802269E+03  0.49618802269E+03  0.25500000920E-02 0. -1.
    10030    2    1    2    0    0  0.00000000000E+00  0.00000000000E+00  0.17348109693E+04  0.27271870147E+04  0.21042765773E+04 0.  0.
        1    1    3    3  502    0  0.50248843404E+03 -0.88466552438E+03  0.51996721837E+03  0.11425819991E+04  0.50400001928E-02 0. -1.
       -1    1    3    3    0  502 -0.50248843404E+03  0.88466552438E+03  0.12148437510E+04  0.15846050157E+04  0.50400001928E-02 0.  1.
</event>
<event>
 5   0  0.1815400E-04  0.2067369E+04  0.7818609E-02  0.8575756E-01
        2   -1    0    0  501    0  0.00000000000E+00  0.00000000000E+00  0.11031785472E+04  0.11031785472E+04  0.25500000920E-02 0.  1.
       -2   -1    0    0    0  501  0.00000000000E+00  0.00000000000E+00 -0.96856774370E+03  0.96856774370E+03  0.25500000920E-02 0. -1.
    10030    2    1    2    0    0  0.00000000000E+00  0.00000000000E+00  0.13461080352E+03  0.20717462909E+04  0.20673685268E+04 0.  0.
        3    1    3    3  502    0  0.37548613756E+03 -0.61179196581E+03 -0.67805983803E+03  0.98744336702E+03  0.10100000352E+00 0. -1.
       -3    1    3    3    0  502 -0.37548613756E+03  0.61179196581E+03  0.81267064155E+03  0.10843029239E+04  0.10100000352E+00 0.  1.
</event>
<event>
 5   0  0.8271069E-05  0.2084696E+04  0.7818609E-02  0.8568015E-01
        1   -1    0    0  501    0  0.00000000000E+00  0.00000000000E+00  0.87484516390E+03  0.87484516392E+03  0.50400001928E-02 0.  1.
       -1   -1    0    0    0  501  0.00000000000E+00  0.00000000000E+00 -0.12419224617E+04  0.12419224617E+04  0.50400001928E-02 0. -1.
    10030    2    1    2    0    0  0.00000000000E+00  0.00000000000E+00 -0.36707729780E+03  0.21167676256E+04  0.20846964859E+04 0.  0.
        2    1    3    3  502    0  0.54632019506E+03  0.67282376947E+03 -0.77152606399E+03  0.11603491060E+04  0.25500000920E-02 0. -1.
       -2    1    3    3    0  502 -0.54632019506E+03 -0.67282376947E+03  0.40444876618E+03  0.95641851967E+03  0.25500000920E-02 0.  1.
</event>
<event>
 5   0  0.8486612E-05  0.2175857E+04  0.7818609E-02  0.8528544E-01
        1   -1    0    0  501    0  0.00000000000E+00  0.00000000000E+00  0.13198899424E+04  0.13198899424E+04  0.50400001928E-02 0.  1.
       -1   -1    0    0    0  501  0.00000000000E+00  0.00000000000E+00 -0.89673305309E+03  0.89673305311E+03  0.50400001928E-02 0. -1.
    10030    2    1    2    0    0  0.00000000000E+00  0.00000000000E+00  0.42315688929E+03  0.22166229955E+04  0.21758574749E+04 0.  0.
        5    1    3    3  502    0  0.65412901719E+03  0.41143710226E+03  0.99169403756E+03  0.12572368171E+04  0.46999998093E+01 0.  1.
       -5    1    3    3    0  502 -0.65412901719E+03 -0.41143710226E+03 -0.56853714827E+03  0.95938617835E+03  0.46999998093E+01 0. -1.
</event>
<event>
 5   0  0.1921687E-04  0.1828998E+04  0.7818609E-02  0.8691029E-01
       -2   -1    0    0    0  501  0.00000000000E+00  0.00000000000E+00  0.35496582539E+03  0.35496582540E+03  0.25500000920E-02 0. -1.
        2   -1    0    0  501    0  0.00000000000E+00  0.00000000000E+00 -0.23560243741E+04  0.23560243741E+04  0.25500000920E-02 0.  1.
    10030    2    1    2    0    0  0.00000000000E+00  0.00000000000E+00 -0.20010585487E+04  0.27109901995E+04  0.18289976890E+04 0.  0.
        5    1    3    3  502    0 -0.47377406250E+02 -0.64548773138E+03 -0.42929007017E+02  0.64866325596E+03  0.46999998093E+01 0. -1.
       -5    1    3    3    0  502  0.47377406250E+02  0.64548773138E+03 -0.19581295417E+04  0.20623269436E+04  0.46999998093E+01 0.  1.
</event>
<event>
 5   0  0.1810875E-04  0.2061602E+04  0.7818609E-02  0.8578349E-01
        2   -1    0    0  501    0  0.00000000000E+00  0.00000000000E+00  0.11147369184E+04  0.11147369184E+04  0.25500000920E-02 0. -1.
       -2   -1    0    0    0  501  0.00000000000E+00  0.00000000000E+00 -0.95318503186E+03  0.95318503186E+03  0.25500000920E-02 0.  1.
    10030    2    1    2    0    0  0.00000000000E+00  0.00000000000E+00  0.16155188652E+03  0.20679219502E+04  0.20616018481E+04 0.  0.
        1    1    3    3  502    0  0.21974658917E+03 -0.29387464958E+03  0.10470044777E+04  0.11094454694E+04  0.50400001928E-02 0. -1.
       -1    1    3    3    0  502 -0.21974658917E+03  0.29387464958E+03 -0.88545259119E+03  0.95847648088E+03  0.50400001928E-02 0.  1.
</event>
<event>
 5   0  0.6441125E-05  0.2106949E+04  0.7818609E-02  0.8558188E-01
        3   -1    0    0  501    0  0.00000000000E+00  0.00000000000E+00  0.15219767491E+04  0.15219767524E+04  0.10100000352E+00 0. -1.
       -3   -1    0    0    0  501  0.00000000000E+00  0.00000000000E+00 -0.72918903702E+03  0.72918904402E+03  0.10100000352E+00 0.  1.
    10030    2    1    2    0    0  0.00000000000E+00  0.00000000000E+00  0.79278771205E+03  0.22511657964E+04  0.21069492369E+04 0.  0.
        4    1    3    3  502    0  0.82495009071E+03 -0.45771393898E+03  0.89726978400E+03  0.13019751842E+04  0.12699999809E+01 0. -1.
       -4    1    3    3    0  502 -0.82495009071E+03  0.45771393898E+03 -0.10448207195E+03  0.94919061224E+03  0.12699999809E+01 0.  1.
</event>
<event>
 5   0  0.8525278E-05  0.1868187E+04  0.7818609E-02  0.8670856E-01
       -1   -1    0    0    0  501  0.00000000000E+00  0.00000000000E+00  0.55293531798E+03  0.55293531800E+03  0.50400001928E-02 0.  1.
        1   -1    0    0  501    0  0.00000000000E+00  0.00000000000E+00 -0.15779978750E+04  0.15779978750E+04  0.50400001928E-02 0. -1.
    10030    2    1    2    0    0  0.00000000000E+00  0.00000000000E+00 -0.10250625570E+04  0.21309331930E+04  0.18681870964E+04 0.  0.
        4    1    3    3  502    0  0.14675913770E+03 -0.22079819305E+03 -0.15341794622E+04  0.15569194975E+04  0.12699999809E+01 0. -1.
       -4    1    3    3    0  502 -0.14675913770E+03  0.22079819305E+03  0.50911690520E+03  0.57401369549E+03  0.12699999809E+01 0.  1.
</event>
<event>
 5   0  0.1777590E-04  0.2160733E+04  0.7818609E-02  0.8534952E-01
        2   -1    0    0  501    0  0.00000000000E+00  0.00000000000E+00  0.16647885124E+04  0.16647885124E+04  0.25500000920E-02 0. -1.
       -2   -1    0    0    0  501  0.00000000000E+00  0.00000000000E+00 -0.70110534065E+03  0.70110534066E+03  0.25500000920E-02 0.  1.
    10030    2    1    2    0    0  0.00000000000E+00  0.00000000000E+00  0.96368317179E+03  0.23658938531E+04  0.21607333173E+04 0.  0.
        4    1    3    3  502    0 -0.74591429690E+03  0.25517816749E+03  0.12906872835E+04  0.15124084476E+04  0.12699999809E+01 0. -1.
       -4    1    3    3    0  502  0.74591429690E+03 -0.25517816749E+03 -0.32700411174E+03  0.85348540554E+03  0.12699999809E+01 0.  1.
</event>
<event>
 5   0  0.1815400E-04  0.1353263E+04  0.7818609E-02  0.8988362E-01
       -2   -1    0    0    0  501  0.00000000000E+00  0.00000000000E+00  0.23169236859E+03  0.23169236860E+03  0.25500000920E-02 0.  1.
        2   -1    0    0  501    0  0.00000000000E+00  0.00000000000E+00 -0.19760253055E+04  0.19760253055E+04  0.25500000920E-02 0. -1.
    10030    2    1    2    0    0  0.00000000000E+00  0.00000000000E+00 -0.17443329370E+04  0.22077176741E+04  0.13532626995E+04 0.  0.
        3    1    3    3  502    0 -0.52914722806E+03  0.54913544236E+02 -0.15542759839E+04  0.16427982623E+04  0.10100000352E+00 0. -1.
       -3    1    3    3    0  502  0.52914722806E+03 -0.54913544236E+02 -0.19005695310E+03  0.56491941188E+03  0.10100000352E+00 0.  1.
</event>
<event>
 5   0  0.1921687E-04  0.2185366E+04  0.7818609E-02  0.8524544E-01
        2   -1    0    0  501    0  0.00000000000E+00  0.00000000000E+00  0.18172230472E+04  0.18172230472E+04  0.25500000920E-02 0.  1.
       -2   -1    0    0    0  501  0.00000000000E+00  0.00000000000E+00 -0.65702239892E+03  0.65702239893E+03  0.25500000920E-02 0. -1.
    10030    2    1    2    0    0  0.00000000000E+00  0.00000000000E+00  0.11602006483E+04  0.24742454461E+04  0.21853660982E+04 0.  0.
        5    1    3    3  502    0 -0.33642224533E+03  0.64480036174E+03 -0.34316189678E+03  0.80419500810E+03  0.46999998093E+01 0. -1.
       -5    1    3    3    0  502  0.33642224533E+03 -0.64480036174E+03  0.15033625450E+04  0.16700504380E+04  0.46999998093E+01 0.  1.
</event>
<event>
 5   0  0.1921687E-04  0.2070213E+04  0.7818609E-02  0.8574480E-01
        2   -1    0    0  501    0  0.00000000000E+00  0.00000000000E+00  0.16225806584E+04  0.16225806584E+04  0.25500000920E-02 0. -1.
       -2   -1    0    0    0  501  0.00000000000E+00  0.00000000000E+00 -0.66033386466E+03  0.66033386467E+03  0.25500000920E-02 0.  1.
    10030    2    1    2    0    0  0.00000000000E+00  0.00000000000E+00  0.96224679377E+03  0.22829145231E+04  0.20702125079E+04 0.  0.
        5    1    3    3  502    0 -0.42052248332E+03  0.80395962927E+03 -0.68296205742E+02  0.90987730282E+03  0.46999998093E+01 0.  1.
       -5    1    3    3    0  502  0.42052248332E+03 -0.80395962927E+03  0.10305429995E+04  0.13730372203E+04  0.46999998093E+01 0. -1.
</event>
<event>
 5   0  0.1921687E-04  0.2056101E+04  0.7818609E-02  0.8580832E-01
        2   -1    0    0  501    0  0.00000000000E+00  0.00000000000E+00  0.15406837735E+04  0.15406837735E+04  0.25500000920E-02 0. -1.
       -2   -1    0    0    0  501  0.00000000000E+00  0.00000000000E+00 -0.68598615466E+03  0.68598615467E+03  0.25500000920E-02 0.  1.
    10030    2    1    2    0    0  0.00000000000E+00  0.00000000000E+00  0.85469761883E+03  0.22266699282E+04  0.20561009093E+04 0.  0.
        5    1    3    3  502    0  0.91733444763E+03  0.10774791070E+02  0.92978398321E+03  0.13061925319E+04  0.46999998093E+01 0.  1.
       -5    1    3    3    0  502 -0.91733444763E+03 -0.10774791070E+02 -0.75086364380E+02  0.92047739627E+03  0.46999998093E+01 0. -1.
</event>
<event>
 5   0  0.8486612E-05  0.2128541E+04  0.7818609E-02  0.8548774E-01
       -1   -1    0    0    0  501  0.00000000000E+00  0.00000000000E+00  0.17153113357E+04  0.17153113357E+04  0.50400001928E-02 0. -1.
        1   -1    0    0  501    0  0.00000000000E+00  0.00000000000E+00 -0.66033016976E+03  0.66033016978E+03  0.50400001928E-02 0.  1.
    10030    2    1    2    0    0  0.00000000000E+00  0.00000000000E+00  0.10549811659E+04  0.23756415055E+04  0.21285411206E+04 0.  0.
        5    1    3    3  502    0  0.46749356256E+03 -0.19636805156E+03 -0.51683671623E+03  0.72405312232E+03  0.46999998093E+01 0.  1.
       -5    1    3    3    0  502 -0.46749356256E+03  0.19636805156E+03  0.15718178821E+04  0.16515883831E+04  0.46999998093E+01 0. -1.
</event>
<event>
 5   0  0.1810875E-04  0.2111828E+04  0.7818609E-02  0.8556051E-01
       -2   -1    0    0    0  501  0.00000000000E+00  0.00000000000E+00  0.65942711435E+03  0.65942711436E+03  0.25500000920E-02 0. -1.
        2   -1    0    0  501    0  0.00000000000E+00  0.00000000000E+00 -0.16907918802E+04  0.16907918802E+04  0.25500000920E-02 0.  1.
    10030    2    1    2    0    0  0.00000000000E+00  0.00000000000E+00 -0.10313647658E+04  0.23502189945E+04  0.21118276544E+04 0.  0.
        1    1    3    3  502    0  0.70025633958E+03  0.69185119298E+03 -0.90541802953E+02  0.98854177072E+03  0.50400001928E-02 0. -1.
       -1    1    3    3    0  502 -0.70025633958E+03 -0.69185119298E+03 -0.94082296287E+03  0.13616772238E+04  0.50400001928E-02 0.  1.
</event>
<event>
 5   0  0.8271069E-05  0.1856869E+04  0.7818609E-02  0.8676628E-01
       -1   -1    0    0    0  501  0.00000000000E+00  0.00000000000E+00  0.93448071964E+03  0.93448071965E+03  0.50400001928E-02 0.  1.
        1   -1    0    0  501    0  0.00000000000E+00  0.00000000000E+00 -0.92242755402E+03  0.92242755403E+03  0.50400001928E-02 0. -1.
    10030    2    1    2    0    0  0.00000000000E+00  0.00000000000E+00  0.12053165618E+02  0.18569082737E+04  0.18568691548E+04 0.  0.
        2    1    3    3  502    0 -0.35753366410E+03 -0.85487132787E+03  0.63954103950E+02  0.92883014357E+03  0.25500000920E-02 0.  1.
       -2    1    3    3    0  502  0.35753366410E+03  0.85487132787E+03 -0.51900938332E+02  0.92807813011E+03  0.25500000920E-02 0. -1.
</event>
<event>
 5   0  0.8525278E-05  0.2131549E+04  0.7818609E-02  0.8547472E-01
        1   -1    0    0  501    0  0.00000000000E+00  0.00000000000E+00  0.11253163453E+04  0.11253163453E+04  0.50400001928E-02 0. -1.
       -1   -1    0    0    0  501  0.00000000000E+00  0.00000000000E+00 -0.10093826797E+04  0.10093826797E+04  0.50400001928E-02 0.  1.
    10030    2    1    2    0    0  0.00000000000E+00  0.00000000000E+00  0.11593366556E+03  0.21346990250E+04  0.21315485715E+04 0.  0.
        4    1    3    3  502    0  0.47514798736E+03  0.23129857539E+03  0.98486628821E+03  0.11176886236E+04  0.12699999809E+01 0. -1.
       -4    1    3    3    0  502 -0.47514798736E+03 -0.23129857539E+03 -0.86893262264E+03  0.10170104014E+04  0.12699999809E+01 0.  1.
</event>
<event>
 5   0  0.8755004E-05  0.2102517E+04  0.7818609E-02  0.8560135E-01
       -1   -1    0    0    0  501  0.00000000000E+00  0.00000000000E+00  0.64165032702E+03  0.64165032704E+03  0.50400001928E-02 0. -1.
        1   -1    0    0  501    0  0.00000000000E+00  0.00000000000E+00 -0.17223467641E+04  0.17223467641E+04  0.50400001928E-02 0.  1.
    10030    2    1    2    0    0  0.00000000000E+00  0.00000000000E+00 -0.10806964370E+04  0.23639970911E+04  0.21025169340E+04 0.  0.
        3    1    3    3  502    0  0.12971521599E+03  0.17836366034E+03 -0.16960430116E+04  0.17103220574E+04  0.10100000352E+00 0.  1.
       -3    1    3    3    0  502 -0.12971521599E+03 -0.17836366034E+03  0.61534657459E+03  0.65367503368E+03  0.10100000352E+00 0. -1.
</event>
<event>
 5   0  0.1810875E-04  0.2053751E+04  0.7818609E-02  0.8581895E-01
       -2   -1    0    0    0  501  0.00000000000E+00  0.00000000000E+00  0.40433878730E+03  0.40433878731E+03  0.25500000920E-02 0.  1.
        2   -1    0    0  501    0  0.00000000000E+00  0.00000000000E+00 -0.26078952409E+04  0.26078952409E+04  0.25500000920E-02 0. -1.
    10030    2    1    2    0    0  0.00000000000E+00  0.00000000000E+00 -0.22035564536E+04  0.30122340282E+04  0.20537509091E+04 0.  0.
        1    1    3    3  502    0  0.21280097212E+03  0.90935028170E+03 -0.47559743376E+03  0.10480434665E+04  0.50400001928E-02 0.  1.
       -1    1    3    3    0  502 -0.21280097212E+03 -0.90935028170E+03 -0.17279590198E+04  0.19641905617E+04  0.50400001928E-02 0. -1.
</event>
<event>
 5   0  0.8525278E-05  0.2074681E+04  0.7818609E-02  0.8572479E-01
        1   -1    0    0  501    0  0.00000000000E+00  0.00000000000E+00  0.12009677379E+04  0.12009677379E+04  0.50400001928E-02 0. -1.
       -1   -1    0    0    0  501  0.00000000000E+00  0.00000000000E+00 -0.89600725067E+03  0.89600725069E+03  0.50400001928E-02 0.  1.
    10030    2    1    2    0    0  0.00000000000E+00  0.00000000000E+00  0.30496048722E+03  0.20969749886E+04  0.20746814705E+04 0.  0.
        4    1    3    3  502    0  0.96014904893E+03  0.30988168223E+03 -0.91277827984E+02  0.10130380585E+04  0.12699999809E+01 0. -1.
       -4    1    3    3    0  502 -0.96014904893E+03 -0.30988168223E+03  0.39623831521E+03  0.10839369301E+04  0.12699999809E+01 0.  1.
</event>
<event>
 5   0  0.8525278E-05  0.2107490E+04  0.7818609E-02  0.8557951E-01
        1   -1    0    0  501    0  0.00000000000E+00  0.00000000000E+00  0.25068019610E+04  0.25068019610E+04  0.50400001928E-02 0.  1.
       -1   -1    0    0    0  501  0.00000000000E+00  0.00000000000E+00 -0.44294621255E+03  0.44294621258E+03  0.50400001928E-02 0. -1.
    10030    2    1    2    0    0  0.00000000000E+00  0.00000000000E+00  0.20638557484E+04  0.29497481736E+04  0.21074899139E+04 0.  0.
        4    1    3    3  502    0  0.20290627436E+03  0.45589065011E+03 -0.26708723126E+03  0.56598979057E+03  0.12699999809E+01 0. -1.
       -4    1    3    3    0  502 -0.20290627436E+03 -0.45589065011E+03  0.23309429797E+04  0.23837583830E+04  0.12699999809E+01 0.  1.
</event>
<event>
 5   0  0.8486612E-05  0.2126719E+04  0.7818609E-02  0.8549564E-01
        1   -1    0    0  501    0  0.00000000000E+00  0.00000000000E+00  0.98462743223E+03  0.98462743224E+03  0.50400001928E-02 0.  1.
       -1   -1    0    0    0  501  0.00000000000E+00  0.00000000000E+00 -0.11483875022E+04  0.11483875023E+04  0.50400001928E-02 0. -1.
    10030    2    1    2    0    0  0.00000000000E+00  0.00000000000E+00 -0.16376007001E+03  0.21330149345E+04  0.21267193868E+04 0.  0.
        5    1    3    3  502    0  0.66356392062E+03 -0.79005568127E+03  0.17618825754E+03  0.10466945344E+04  0.46999998093E+01 0.  1.
       -5    1    3    3    0  502 -0.66356392062E+03  0.79005568127E+03 -0.33994832755E+03  0.10863204001E+04  0.46999998093E+01 0. -1.
</event>
<event>
 5   0  0.1886323E-04  0.2104786E+04  0.7818609E-02  0.8559138E-01
        2   -1    0    0  501    0  0.00000000000E+00  0.00000000000E+00  0.12806190389E+04  0.12806190389E+04  0.25500000920E-02 0.  1.
       -2   -1    0    0    0  501  0.00000000000E+00  0.00000000000E+00 -0.86484065283E+03  0.86484065283E+03  0.25500000920E-02 0. -1.
    10030    2    1    2    0    0  0.00000000000E+00  0.00000000000E+00  0.41577838606E+03  0.21454596917E+04  0.21047863603E+04 0.  0.
        2    1    3    3  502    0 -0.87806637161E+03 -0.49232010297E+03  0.52066026652E+03  0.11333431739E+04  0.25500000920E-02 0.  1.
       -2    1    3    3    0  502  0.87806637161E+03  0.49232010297E+03 -0.10488188046E+03  0.10121165178E+04  0.25500000920E-02 0. -1.
</event>
<event>
 5   0  0.1777590E-04  0.2108746E+04  0.7818609E-02  0.8557400E-01
       -2   -1    0    0    0  501  0.00000000000E+00  0.00000000000E+00  0.49807264652E+03  0.49807264653E+03  0.25500000920E-02 0. -1.
        2   -1    0    0  501    0  0.00000000000E+00  0.00000000000E+00 -0.22320093394E+04  0.22320093394E+04  0.25500000920E-02 0.  1.
    10030    2    1    2    0    0  0.00000000000E+00  0.00000000000E+00 -0.17339366929E+04  0.27300819859E+04  0.21087463562E+04 0.  0.
        4    1    3    3  502    0 -0.10533901049E+04  0.30581400006E+02 -0.82334718325E+03  0.13373362076E+04  0.12699999809E+01 0. -1.
       -4    1    3    3    0  502  0.10533901049E+04 -0.30581400006E+02 -0.91058950960E+03  0.13927457783E+04  0.12699999809E+01 0.  1.
</event>
<event>
 5   0  0.1921687E-04  0.1977172E+04  0.7818609E-02  0.8617368E-01
        2   -1    0    0  501    0  0.00000000000E+00  0.00000000000E+00  0.15111657700E+04  0.15111657700E+04  0.25500000920E-02 0. -1.
       -2   -1    0    0    0  501  0.00000000000E+00  0.00000000000E+00 -0.64672084197E+03  0.64672084197E+03  0.25500000920E-02 0.  1.
    10030    2    1    2    0    0  0.00000000000E+00  0.00000000000E+00  0.86444492801E+03  0.21578866119E+04  0.19771721211E+04 0.  0.
        5    1    3    3  502    0 -0.92576930289E+03  0.29058182252E+02  0.80932799018E+03  0.12300110023E+04  0.46999998093E+01 0. -1.
       -5    1    3    3    0  502  0.92576930289E+03 -0.29058182252E+02  0.55116937828E+02  0.92787560964E+03  0.46999998093E+01 0.  1.
</event>
<event>
 5   0  0.1815400E-04  0.2119482E+04  0.7818609E-02  0.8552709E-01
       -2   -1    0    0    0  501  0.00000000000E+00  0.00000000000E+00  0.64958987618E+03  0.64958987618E+03  0.25500000920E-02 0.  1.
        2   -1    0    0  501    0  0.00000000000E+00  0.00000000000E+00 -0.17288622465E+04  0.17288622465E+04  0.25500000920E-02 0. -1.
    10030    2    1    2    0    0  0.00000000000E+00  0.00000000000E+00 -0.10792723704E+04  0.23784521227E+04  0.21194824016E+04 0.  0.
        3    1    3    3  502    0  0.42324200334E+03 -0.41679153791E+03  0.44520689790E+03  0.74233292504E+03  0.10100000352E+00 0.  1.
       -3    1    3    3    0  502 -0.42324200334E+03  0.41679153791E+03 -0.15244792683E+04  0.16361191977E+04  0.10100000352E+00 0. -1.
</event>
<event>
 5   0  0.1921687E-04  0.2024247E+04  0.7818609E-02  0.8595367E-01
        2   -1    0    0  501    0  0.00000000000E+00  0.00000000000E+00  0.15409771212E+04  0.15409771212E+04  0.25500000920E-02 0.  1.
       -2   -1    0    0    0  501  0.00000000000E+00  0.00000000000E+00 -0.66476933958E+03  0.66476933959E+03  0.25500000920E-02 0. -1.
    10030    2    1    2    0    0  0.00000000000E+00  0.00000000000E+00  0.87620778158E+03  0.22057464608E+04  0.20242473595E+04 0.  0.
        5    1    3    3  502    0  0.82580305943E+03  0.45615919623E+03  0.38715677458E+02  0.94422078930E+03  0.46999998093E+01 0. -1.
       -5    1    3    3    0  502 -0.82580305943E+03 -0.45615919623E+03  0.83749210412E+03  0.12615256715E+04  0.46999998093E+01 0.  1.
</event>
<event>
 5   0  0.1886323E-04  0.2053616E+04  0.7818609E-02  0.8581956E-01
       -2   -1    0    0    0  501  0.00000000000E+00  0.00000000000E+00  0.95255694596E+03  0.95255694596E+03  0.25500000920E-02 0. -1.
        2   -1    0    0  501    0  0.00000000000E+00  0.00000000000E+00 -0.11068469469E+04  0.11068469469E+04  0.25500000920E-02 0.  1.
    10030    2    1    2    0    0  0.00000000000E+00  0.00000000000E+00 -0.15429000096E+03  0.20594038929E+04  0.20536160765E+04 0.  0.
        2    1    3    3  502    0 -0.10698799330E+03  0.10020933239E+04 -0.27441567624E+03  0.10444814139E+04  0.25500000920E-02 0.  1.
       -2    1    3    3    0  502  0.10698799330E+03 -0.10020933239E+04  0.12012567528E+03  0.10149224790E+04  0.25500000920E-02 0. -1.
</event>
<event>
 5   0  0.8237966E-05  0.2097353E+04  0.7818609E-02  0.8562410E-01
        1   -1    0    0  501    0  0.00000000000E+00  0.00000000000E+00  0.86290129729E+03  0.86290129731E+03  0.50400001928E-02 0.  1.
       -1   -1    0    0    0  501  0.00000000000E+00  0.00000000000E+00 -0.12744472489E+04  0.12744472489E+04  0.50400001928E-02 0. -1.
    10030    2    1    2    0    0  0.00000000000E+00  0.00000000000E+00 -0.41154595162E+03  0.21373485462E+04  0.20973527929E+04 0.  0.
        1    1    3    3  502    0  0.35956681695E+03 -0.24774031836E+03  0.76585454364E+03  0.88158762652E+03  0.50400001928E-02 0.  1.
       -1    1    3    3    0  502 -0.35956681695E+03  0.24774031836E+03 -0.11774004953E+04  0.12557609197E+04  0.50400001928E-02 0. -1.
</event>
<event>
 5   0  0.8525278E-05  0.2096590E+04  0.7818609E-02  0.8562747E-01
        1   -1    0    0  501    0  0.00000000000E+00  0.00000000000E+00  0.56012590586E+03  0.56012590588E+03  0.50400001928E-02 0.  1.
       -1   -1    0    0    0  501  0.00000000000E+00  0.00000000000E+00 -0.19619212716E+04  0.19619212716E+04  0.50400001928E-02 0. -1.
    10030    2    1    2    0    0  0.00000000000E+00  0.00000000000E+00 -0.14017953657E+04  0.25220471775E+04  0.20965904984E+04 0.  0.
        4    1    3    3  502    0 -0.59989933746E+03 -0.78413473454E+03 -0.11247907971E+04  0.14966303642E+04  0.12699999809E+01 0. -1.
       -4    1    3    3    0  502  0.59989933746E+03  0.78413473454E+03 -0.27700456869E+03  0.10254168133E+04  0.12699999809E+01 0.  1.
</event>
<event>
 5   0  0.1777590E-04  0.2104704E+04  0.7818609E-02  0.8559174E-01
       -2   -1    0    0    0  501  0.00000000000E+00  0.00000000000E+00  0.88194437457E+03  0.88194437458E+03  0.25500000920E-02 0. -1.
        2   -1    0    0  501    0  0.00000000000E+00  0.00000000000E+00 -0.12556859383E+04  0.12556859383E+04  0.25500000920E-02 0.  1.
    10030    2    1    2    0    0  0.00000000000E+00  0.00000000000E+00 -0.37374156371E+03  0.21376303129E+04  0.21047043968E+04 0.  0.
        4    1    3    3  502    0 -0.21854125593E+03 -0.75923613765E+03 -0.89290314869E+03  0.11922572873E+04  0.12699999809E+01 0.  1.
       -4    1    3    3    0  502  0.21854125593E+03  0.75923613765E+03  0.51916158498E+03  0.94537302557E+03  0.12699999809E+01 0. -1.
</event>
<event>
 5   0  0.1777590E-04  0.2077598E+04  0.7818609E-02  0.8571176E-01
        2   -1    0    0  501    0  0.00000000000E+00  0.00000000000E+00  0.10242566068E+04  0.10242566068E+04  0.25500000920E-02 0.  1.
       -2   -1    0    0    0  501  0.00000000000E+00  0.00000000000E+00 -0.10535481883E+04  0.10535481883E+04  0.25500000920E-02 0. -1.
    10030    2    1    2    0    0  0.00000000000E+00  0.00000000000E+00 -0.29291581524E+02  0.20778047952E+04  0.20775983178E+04 0.  0.
        4    1    3    3  502    0 -0.29016752424E+03  0.33088457832E+03  0.92641546284E+03  0.10256359096E+04  0.12699999809E+01 0.  1.
       -4    1    3    3    0  502  0.29016752424E+03 -0.33088457832E+03 -0.95570704437E+03  0.10521688856E+04  0.12699999809E+01 0. -1.
</event>
<event>
 5   0  0.8271069E-05  0.2049163E+04  0.7818609E-02  0.8583974E-01
       -1   -1    0    0    0  501  0.00000000000E+00  0.00000000000E+00  0.11162476928E+04  0.11162476929E+04  0.50400001928E-02 0.  1.
        1   -1    0    0  501    0  0.00000000000E+00  0.00000000000E+00 -0.94044278181E+03  0.94044278183E+03  0.50400001928E-02 0. -1.
    10030    2    1    2    0    0  0.00000000000E+00  0.00000000000E+00  0.17580491103E+03  0.20566904747E+04  0.20491628393E+04 0.  0.
        2    1    3    3  502    0 -0.11165622077E+03  0.12388977358E+03  0.11025321419E+04  0.11150752942E+04  0.25500000920E-02 0.  1.
       -2    1    3    3    0  502  0.11165622077E+03 -0.12388977358E+03 -0.92672723092E+03  0.94161518051E+03  0.25500000920E-02 0. -1.
</event>
<event>
 5   0  0.8271069E-05  0.2138336E+04  0.7818609E-02  0.8544542E-01
       -1   -1    0    0    0  501  0.00000000000E+00  0.00000000000E+00  0.55917844072E+03  0.55917844074E+03  0.50400001928E-02 0. -1.
        1   -1    0    0  501    0  0.00000000000E+00  0.00000000000E+00 -0.20442852535E+04  0.20442852535E+04  0.50400001928E-02 0.  1.
    10030    2    1    2    0    0  0.00000000000E+00  0.00000000000E+00 -0.14851068127E+04  0.26034636942E+04  0.21383360264E+04 0.  0.
        2    1    3    3  502    0 -0.72996622479E+02  0.59014261563E+03 -0.18243810714E+04  0.19188442114E+04  0.25500000920E-02 0.  1.
       -2    1    3    3    0  502  0.72996622479E+02 -0.59014261563E+03  0.33927425870E+03  0.68461948284E+03  0.25500000920E-02 0. -1.
</event>
<event>
 5   0  0.1886323E-04  0.2145692E+04  0.7818609E-02  0.8541378E-01
       -2   -1    0    0    0  501  0.00000000000E+00  0.00000000000E+00  0.13090233420E+04  0.13090233420E+04  0.25500000920E-02 0. -1.
        2   -1    0    0  501    0  0.00000000000E+00  0.00000000000E+00 -0.87928053023E+03  0.87928053024E+03  0.25500000920E-02 0.  1.
    10030    2    1    2    0    0  0.00000000000E+00  0.00000000000E+00  0.42974281173E+03  0.21883038722E+04  0.21456921850E+04 0.  0.
        2    1    3    3  502    0 -0.34488462580E+03  0.91262510026E+03  0.67001749834E+03  0.11835342947E+04  0.25500000920E-02 0. -1.
       -2    1    3    3    0  502  0.34488462580E+03 -0.91262510026E+03 -0.24027468662E+03  0.10047695775E+04  0.25500000920E-02 0.  1.
</event>
<event>
 5   0  0.1815400E-04  0.2099442E+04  0.7818609E-02  0.8561489E-01
        2   -1    0    0  501    0  0.00000000000E+00  0.00000000000E+00  0.79053647276E+03  0.79053647276E+03  0.25500000920E-02 0.  1.
       -2   -1    0    0    0  501  0.00000000000E+00  0.00000000000E+00 -0.13938811045E+04  0.13938811045E+04  0.25500000920E-02 0. -1.
    10030    2    1    2    0    0  0.00000000000E+00  0.00000000000E+00 -0.60334463172E+03  0.21844175772E+04  0.20994416894E+04 0.  0.
        3    1    3    3  502    0 -0.30335425803E+03 -0.88391311370E+03 -0.79913237885E+03  0.12296091930E+04  0.10100000352E+00 0.  1.
       -3    1    3    3    0  502  0.30335425803E+03  0.88391311370E+03  0.19578774713E+03  0.95480838422E+03  0.10100000352E+00 0. -1.
</event>
<event>
 5   0  0.1886323E-04  0.2105722E+04  0.7818609E-02  0.8558727E-01
        2   -1    0    0  501    0  0.00000000000E+00  0.00000000000E+00  0.16225133409E+04  0.16225133409E+04  0.25500000920E-02 0. -1.
       -2   -1    0    0    0  501  0.00000000000E+00  0.00000000000E+00 -0.68320919262E+03  0.68320919262E+03  0.25500000920E-02 0.  1.
    10030    2    1    2    0    0  0.00000000000E+00  0.00000000000E+00  0.93930414830E+03  0.23057225335E+04  0.21057217572E+04 0.  0.
        2    1    3    3  502    0  0.19532101248E+03 -0.33453221511E+03  0.15416444100E+04  0.15895689943E+04  0.25500000920E-02 0. -1.
       -2    1    3    3    0  502 -0.19532101248E+03  0.33453221511E+03 -0.60234026169E+03  0.71615353921E+03  0.25500000920E-02 0.  1.
</event>
<event>
 5   0  0.1810875E-04  0.2133816E+04  0.7818609E-02  0.8546492E-01
       -2   -1    0    0    0  501  0.00000000000E+00  0.00000000000E+00  0.12616898605E+04  0.12616898605E+04  0.25500000920E-02 0. -1.
        2   -1    0    0  501    0  0.00000000000E+00  0.00000000000E+00 -0.90219691521E+03  0.90219691521E+03  0.25500000920E-02 0.  1.
    10030    2    1    2    0    0  0.00000000000E+00  0.00000000000E+00  0.35949294527E+03  0.21638867757E+04  0.21338160184E+04 0.  0.
        1    1    3    3  502    0 -0.29896093284E+03 -0.43678129384E+03  0.11191580683E+04  0.12380106300E+04  0.50400001928E-02 0. -1.
       -1    1    3    3    0  502  0.29896093284E+03  0.43678129384E+03 -0.75966512305E+03  0.92587614572E+03  0.50400001928E-02 0.  1.
</event>
<event>
 5   0  0.8486612E-05  0.2115762E+04  0.7818609E-02  0.8554332E-01
       -1   -1    0    0    0  501  0.00000000000E+00  0.00000000000E+00  0.65885677890E+03  0.65885677892E+03  0.50400001928E-02 0.  1.
        1   -1    0    0  501    0  0.00000000000E+00  0.00000000000E+00 -0.16985665345E+04  0.16985665345E+04  0.50400001928E-02 0. -1.
    10030    2    1    2    0    0  0.00000000000E+00  0.00000000000E+00 -0.10397097556E+04  0.23574233134E+04  0.21157618729E+04 0.  0.
        5    1    3    3  502    0  0.36932480255E+03 -0.96531865313E+03 -0.77110848818E+03  0.12895236727E+04  0.46999998093E+01 0.  1.
       -5    1    3    3    0  502 -0.36932480255E+03  0.96531865313E+03 -0.26860126741E+03  0.10678996407E+04  0.46999998093E+01 0. -1.
</event>
<event>
 5   0  0.1921687E-04  0.2166490E+04  0.7818609E-02  0.8532506E-01
       -2   -1    0    0    0  501  0.00000000000E+00  0.00000000000E+00  0.85041220978E+03  0.85041220978E+03  0.25500000920E-02 0.  1.
        2   -1    0    0  501    0  0.00000000000E+00  0.00000000000E+00 -0.13798250029E+04  0.13798250029E+04  0.25500000920E-02 0. -1.
    10030    2    1    2    0    0  0.00000000000E+00  0.00000000000E+00 -0.52941279312E+03  0.22302372127E+04  0.21664902768E+04 0.  0.
        5    1    3    3  502    0 -0.82925047824E+02  0.64577469499E+03  0.62650164172E+03  0.90356400842E+03  0.46999998093E+01 0.  1.
       -5    1    3    3    0  502  0.82925047824E+02 -0.64577469499E+03 -0.11559144348E+04  0.13266732043E+04  0.46999998093E+01 0. -1.
</event>
<event>
 5   0  0.1777590E-04  0.2014064E+04  0.7818609E-02  0.8600074E-01
       -2   -1    0    0    0  501  0.00000000000E+00  0.00000000000E+00  0.61669589384E+03  0.61669589385E+03  0.25500000920E-02 0.  1.
        2   -1    0    0  501    0  0.00000000000E+00  0.00000000000E+00 -0.16444296090E+04  0.16444296090E+04  0.25500000920E-02 0. -1.
    10030    2    1    2    0    0  0.00000000000E+00  0.00000000000E+00 -0.10277337151E+04  0.22611255028E+04  0.20140635418E+04 0.  0.
        4    1    3    3  502    0 -0.22805188740E+03 -0.85306588690E+03 -0.10573848305E+04  0.13776042115E+04  0.12699999809E+01 0.  1.
       -4    1    3    3    0  502  0.22805188740E+03  0.85306588690E+03  0.29651115383E+02  0.88352129136E+03  0.12699999809E+01 0. -1.
</event>
<event>
 5   0  0.1886323E-04  0.2013433E+04  0.7818609E-02  0.8600366E-01
       -2   -1    0    0    0  501  0.00000000000E+00  0.00000000000E+00  0.13719857309E+04  0.13719857309E+04  0.25500000920E-02 0.  1.
        2   -1    0    0  501    0  0.00000000000E+00  0.00000000000E+00 -0.73869447532E+03  0.73869447533E+03  0.25500000920E-02 0. -1.
    10030    2    1    2    0    0  0.00000000000E+00  0.00000000000E+00  0.63329125560E+03  0.21106802063E+04  0.20134331672E+04 0.  0.
        2    1    3    3  502    0  0.16368422105E+03 -0.19100938191E+03 -0.70521813775E+03  0.74873875953E+03  0.25500000920E-02 0. -1.
       -2    1    3    3    0  502 -0.16368422105E+03  0.19100938191E+03  0.13385093934E+04  0.13619414467E+04  0.25500000920E-02 0.  1.
</event>
<event>
 5   0  0.8486612E-05  0.2150686E+04  0.7818609E-02  0.8539239E-01
        1   -1    0    0  501    0  0.00000000000E+00  0.00000000000E+00  0.88616849113E+03  0.88616849115E+03  0.50400001928E-02 0. -1.
       -1   -1    0    0    0  501  0.00000000000E+00  0.00000000000E+00 -0.13049012043E+04  0.13049012043E+04  0.50400001928E-02 0.  1.
    10030    2    1    2    0    0  0.00000000000E+00  0.00000000000E+00 -0.41873271321E+03  0.21910696955E+04  0.21506857803E+04 0.  0.
        5    1    3    3  502    0 -0.35981222410E+03 -0.16068035718E+03  0.80994926788E+03  0.90073465589E+03  0.46999998093E+01 0. -1.
       -5    1    3    3    0  502  0.35981222410E+03  0.16068035718E+03 -0.12286819811E+04  0.12903350396E+04  0.46999998093E+01 0.  1.
</event>
<event>
 5   0  0.8486612E-05  0.2044692E+04  0.7818609E-02  0.8586006E-01
       -1   -1    0    0    0  501  0.00000000000E+00  0.00000000000E+00  0.11024846713E+04  0.11024846713E+04  0.50400001928E-02 0.  1.
        1   -1    0    0  501    0  0.00000000000E+00  0.00000000000E+00 -0.94803264629E+03  0.94803264630E+03  0.50400001928E-02 0. -1.
    10030    2    1    2    0    0  0.00000000000E+00  0.00000000000E+00  0.15445202501E+03  0.20505173176E+04  0.20446921142E+04 0.  0.
        5    1    3    3  502    0  0.31699473748E+03  0.90068841025E+03  0.44356673614E+03  0.10528527035E+04  0.46999998093E+01 0. -1.
       -5    1    3    3    0  502 -0.31699473748E+03 -0.90068841025E+03 -0.28911471114E+03  0.99766461406E+03  0.46999998093E+01 0.  1.
</event>
<event>
 5   0  0.1810875E-04  0.1359201E+04  0.7818609E-02  0.8983892E-01
       -2   -1    0    0    0  501  0.00000000000E+00  0.00000000000E+00  0.16831155636E+03  0.16831155638E+03  0.25500000920E-02 0.  1.
        2   -1    0    0  501    0  0.00000000000E+00  0.00000000000E+00 -0.27440598112E+04  0.27440598112E+04  0.25500000920E-02 0. -1.
    10030    2    1    2    0    0  0.00000000000E+00  0.00000000000E+00 -0.25757482549E+04  0.29123713676E+04  0.13592012031E+04 0.  0.
        1    1    3    3  502    0  0.62626539195E+03 -0.26172892445E+03 -0.12153186494E+04  0.13920164477E+04  0.50400001928E-02 0.  1.
       -1    1    3    3    0  502 -0.62626539195E+03  0.26172892445E+03 -0.13604296054E+04  0.15203549199E+04  0.50400001928E-02 0. -1.
</event>
<event>
 5   0  0.1921687E-04  0.2099968E+04  0.7818609E-02  0.8561258E-01
        2   -1    0    0  501    0  0.00000000000E+00  0.00000000000E+00  0.15700488324E+04  0.15700488324E+04  0.25500000920E-02 0. -1.
       -2   -1    0    0    0  501  0.00000000000E+00  0.00000000000E+00 -0.70218594314E+03  0.70218594315E+03  0.25500000920E-02 0.  1.
    10030    2    1    2    0    0  0.00000000000E+00  0.00000000000E+00  0.86786288924E+03  0.22722347755E+04  0.20999678285E+04 0.  0.
        5    1    3    3  502    0 -0.26105151880E+03 -0.86640109450E+03 -0.14234174695E+03  0.91601420018E+03  0.46999998093E+01 0. -1.
       -5    1    3    3    0  502  0.26105151880E+03  0.86640109450E+03  0.10102046362E+04  0.13562205753E+04  0.46999998093E+01 0.  1.
</event>
<event>
 5   0  0.1921687E-04  0.2008789E+04  0.7818609E-02  0.8602522E-01
       -2   -1    0    0    0  501  0.00000000000E+00  0.00000000000E+00  0.17381471632E+04  0.17381471632E+04  0.25500000920E-02 0.  1.
        2   -1    0    0  501    0  0.00000000000E+00  0.00000000000E+00 -0.58039317483E+03  0.58039317483E+03  0.25500000920E-02 0. -1.
    10030    2    1    2    0    0  0.00000000000E+00  0.00000000000E+00  0.11577539884E+04  0.23185403381E+04  0.20087894368E+04 0.  0.
        5    1    3    3  502    0  0.33674259418E+03  0.64375148912E+02  0.16685075230E+04  0.17033728831E+04  0.46999998093E+01 0.  1.
       -5    1    3    3    0  502 -0.33674259418E+03 -0.64375148912E+02 -0.51075353461E+03  0.61516745496E+03  0.46999998093E+01 0. -1.
</event>
<event>
 5   0  0.8525278E-05  0.1521452E+04  0.7818609E-02  0.8870312E-01
        1   -1    0    0  501    0  0.00000000000E+00  0.00000000000E+00  0.10065744578E+04  0.10065744578E+04  0.50400001928E-02 0. -1.
       -1   -1    0    0    0  501  0.00000000000E+00  0.00000000000E+00 -0.57492388741E+03  0.57492388744E+03  0.50400001928E-02 0.  1.
    10030    2    1    2    0    0  0.00000000000E+00  0.00000000000E+00  0.43165057039E+03  0.15814983453E+04  0.15214515441E+04 0.  0.
        4    1    3    3  502    0  0.44712071860E+03 -0.53354679904E+03  0.53471120325E+03  0.87778517164E+03  0.12699999809E+01 0. -1.
       -4    1    3    3    0  502 -0.44712071860E+03  0.53354679904E+03 -0.10306063286E+03  0.70371317361E+03  0.12699999809E+01 0.  1.
</event>
<event>
 5   0  0.8525278E-05  0.2095084E+04  0.7818609E-02  0.8563412E-01
        1   -1    0    0  501    0  0.00000000000E+00  0.00000000000E+00  0.22218594208E+04  0.22218594208E+04  0.50400001928E-02 0. -1.
       -1   -1    0    0    0  501  0.00000000000E+00  0.00000000000E+00 -0.49388569314E+03  0.49388569317E+03  0.50400001928E-02 0.  1.
    10030    2    1    2    0    0  0.00000000000E+00  0.00000000000E+00  0.17279737276E+04  0.27157451139E+04  0.20950843230E+04 0.  0.
        4    1    3    3  502    0  0.10338447887E+04 -0.14368284743E+03  0.97893079386E+03  0.14310090565E+04  0.12699999809E+01 0.  1.
       -4    1    3    3    0  502 -0.10338447887E+04  0.14368284743E+03  0.74904293376E+03  0.12847360574E+04  0.12699999809E+01 0. -1.
</event>
<event>
 5   0  0.8271069E-05  0.1991523E+04  0.7818609E-02  0.8610594E-01
        1   -1    0    0  501    0  0.00000000000E+00  0.00000000000E+00  0.10234617435E+04  0.10234617435E+04  0.50400001928E-02 0. -1.
       -1   -1    0    0    0  501  0.00000000000E+00  0.00000000000E+00 -0.96881067954E+03  0.96881067955E+03  0.50400001928E-02 0.  1.
    10030    2    1    2    0    0  0.00000000000E+00  0.00000000000E+00  0.54651063927E+02  0.19922724230E+04  0.19915227010E+04 0.  0.
        2    1    3    3  502    0 -0.14551525302E+03  0.17484375505E+03 -0.94246999158E+03  0.96953324470E+03  0.25500000920E-02 0.  1.
       -2    1    3    3    0  502  0.14551525302E+03 -0.17484375505E+03  0.99712105551E+03  0.10227391783E+04  0.25500000920E-02 0. -1.
</event>
<event>
 5   0  0.1810875E-04  0.2084125E+04  0.7818609E-02  0.8568269E-01
       -2   -1    0    0    0  501  0.00000000000E+00  0.00000000000E+00  0.60367833803E+03  0.60367833804E+03  0.25500000920E-02 0. -1.
        2   -1    0    0  501    0  0.00000000000E+00  0.00000000000E+00 -0.17987966834E+04  0.17987966834E+04  0.25500000920E-02 0.  1.
    10030    2    1    2    0    0  0.00000000000E+00  0.00000000000E+00 -0.11951183453E+04  0.24024750214E+04  0.20841253247E+04 0.  0.
        1    1    3    3  502    0 -0.43506847081E+03  0.31912378977E+03  0.43011582261E+03  0.69001752758E+03  0.50400001928E-02 0. -1.
       -1    1    3    3    0  502  0.43506847081E+03 -0.31912378977E+03 -0.16252341679E+04  0.17124574938E+04  0.50400001928E-02 0.  1.
</event>
<event>
 5   0  0.1921687E-04  0.2126833E+04  0.7818609E-02  0.8549514E-01
       -2   -1    0    0    0  501  0.00000000000E+00  0.00000000000E+00  0.19075780972E+04  0.19075780972E+04  0.25500000920E-02 0. -1.
        2   -1    0    0  501    0  0.00000000000E+00  0.00000000000E+00 -0.59282228357E+03  0.59282228357E+03  0.25500000920E-02 0.  1.
    10030    2    1    2    0    0  0.00000000000E+00  0.00000000000E+00  0.13147558136E+04  0.25004003807E+04  0.21268331422E+04 0.  0.
        5    1    3    3  502    0 -0.10464143169E+04  0.39833304648E+02  0.43976259158E+03  0.11357741156E+04  0.46999998093E+01 0. -1.
       -5    1    3    3    0  502  0.10464143169E+04 -0.39833304648E+02  0.87499322202E+03  0.13646262651E+04  0.46999998093E+01 0.  1.
</event>
<event>
 5   0  0.1815400E-04  0.1833163E+04  0.7818609E-02  0.8688860E-01
        2   -1    0    0  501    0  0.00000000000E+00  0.00000000000E+00  0.69747068865E+03  0.69747068866E+03  0.25500000920E-02 0. -1.
       -2   -1    0    0    0  501  0.00000000000E+00  0.00000000000E+00 -0.12045267488E+04  0.12045267488E+04  0.25500000920E-02 0.  1.
    10030    2    1    2    0    0  0.00000000000E+00  0.00000000000E+00 -0.50705606018E+03  0.19019974375E+04  0.18331634963E+04 0.  0.
        3    1    3    3  502    0 -0.36888926472E+03  0.77970295012E+03 -0.57517852812E+03  0.10367479585E+04  0.10100000352E+00 0.  1.
       -3    1    3    3    0  502  0.36888926472E+03 -0.77970295012E+03  0.68122467940E+02  0.86524947899E+03  0.10100000352E+00 0. -1.
</event>
<event>
 5   0  0.8525278E-05  0.2174512E+04  0.7818609E-02  0.8529112E-01
        1   -1    0    0  501    0  0.00000000000E+00  0.00000000000E+00  0.96204814646E+03  0.96204814648E+03  0.50400001928E-02 0.  1.
       -1   -1    0    0    0  501  0.00000000000E+00  0.00000000000E+00 -0.12287597199E+04  0.12287597200E+04  0.50400001928E-02 0. -1.
    10030    2    1    2    0    0  0.00000000000E+00  0.00000000000E+00 -0.26671157348E+03  0.21908078664E+04  0.21745123693E+04 0.  0.
        4    1    3    3  502    0  0.62237912213E+02  0.97056775659E+03  0.35634123567E+03  0.10357876312E+04  0.12699999809E+01 0. -1.
       -4    1    3    3    0  502 -0.62237912213E+02 -0.97056775659E+03 -0.62305280916E+03  0.11550202352E+04  0.12699999809E+01 0.  1.
</event>
<event>
 5   0  0.1810875E-04  0.2091611E+04  0.7818609E-02  0.8564948E-01
       -2   -1    0    0    0  501  0.00000000000E+00  0.00000000000E+00  0.93154708033E+03  0.93154708034E+03  0.25500000920E-02 0. -1.
        2   -1    0    0  501    0  0.00000000000E+00  0.00000000000E+00 -0.11740778090E+04  0.11740778090E+04  0.25500000920E-02 0.  1.
    10030    2    1    2    0    0  0.00000000000E+00  0.00000000000E+00 -0.24253072870E+03  0.21056248894E+04  0.20916106283E+04 0.  0.
        1    1    3    3  502    0 -0.74881449037E+03 -0.50531725383E+03 -0.65171145310E+03  0.11139104480E+04  0.50400001928E-02 0. -1.
       -1    1    3    3    0  502  0.74881449037E+03  0.50531725383E+03  0.40918072441E+03  0.99171444138E+03  0.50400001928E-02 0.  1.
</event>
<event>
 5   0  0.8525278E-05  0.1800333E+04  0.7818609E-02  0.8706122E-01
       -1   -1    0    0    0  501  0.00000000000E+00  0.00000000000E+00  0.75244742099E+03  0.75244742100E+03  0.50400001928E-02 0.  1.
        1   -1    0    0  501    0  0.00000000000E+00  0.00000000000E+00 -0.10768860903E+04  0.10768860903E+04  0.50400001928E-02 0. -1.
    10030    2    1    2    0    0  0.00000000000E+00  0.00000000000E+00 -0.32443866930E+03  0.18293335113E+04  0.18003334817E+04 0.  0.
        4    1    3    3  502    0  0.39469942476E+03 -0.64613180515E+03 -0.65691333780E+03  0.10024024600E+04  0.12699999809E+01 0. -1.
       -4    1    3    3    0  502 -0.39469942476E+03  0.64613180515E+03  0.33247466850E+03  0.82693105131E+03  0.12699999809E+01 0.  1.
</event>
<event>
 5   0  0.1815400E-04  0.2097546E+04  0.7818609E-02  0.8562325E-01
       -2   -1    0    0    0  501  0.00000000000E+00  0.00000000000E+00  0.13530097936E+04  0.13530097936E+04  0.25500000920E-02 0. -1.
        2   -1    0    0  501    0  0.00000000000E+00  0.00000000000E+00 -0.81294661208E+03  0.81294661209E+03  0.25500000920E-02 0.  1.
    10030    2    1    2    0    0  0.00000000000E+00  0.00000000000E+00  0.54006318156E+03  0.21659564057E+04  0.20975459259E+04 0.  0.
        3    1    3    3  502    0  0.46753029439E+03 -0.24027055264E+03  0.12071599742E+04  0.13166433565E+04  0.10100000352E+00 0. -1.
       -3    1    3    3    0  502 -0.46753029439E+03  0.24027055264E+03 -0.66709679266E+03  0.84931304924E+03  0.10100000352E+00 0.  1.
</event>
<event>
 5   0  0.1777590E-04  0.2099841E+04  0.7818609E-02  0.8561313E-01
        2   -1    0    0  501    0  0.00000000000E+00  0.00000000000E+00  0.12344410676E+04  0.12344410676E+04  0.25500000920E-02 0.  1.
       -2   -1    0    0    0  501  0.00000000000E+00  0.00000000000E+00 -0.89298172180E+03  0.89298172181E+03  0.25500000920E-02 0. -1.
    10030    2    1    2    0    0  0.00000000000E+00  0.00000000000E+00  0.34145934583E+03  0.21274227894E+04  0.20998412417E+04 0.  0.
        4    1    3    3  502    0 -0.12708138866E+03 -0.22832465273E+03  0.12009689152E+04  0.12290686615E+04  0.12699999809E+01 0.  1.
       -4    1    3    3    0  502  0.12708138866E+03  0.22832465273E+03 -0.85950956941E+03  0.89835412795E+03  0.12699999809E+01 0. -1.
</event>
<event>
 5   0  0.8237966E-05  0.2093302E+04  0.7818609E-02  0.8564200E-01
        1   -1    0    0  501    0  0.00000000000E+00  0.00000000000E+00  0.12325154958E+04  0.12325154958E+04  0.50400001928E-02 0.  1.
       -1   -1    0    0    0  501  0.00000000000E+00  0.00000000000E+00 -0.88881493200E+03  0.88881493202E+03  0.50400001928E-02 0. -1.
    10030    2    1    2    0    0  0.00000000000E+00  0.00000000000E+00  0.34370056378E+03  0.21213304278E+04  0.20933018670E+04 0.  0.
        1    1    3    3  502    0  0.32552924942E+03  0.24825728076E+03  0.11480118693E+04  0.12188241143E+04  0.50400001928E-02 0.  1.
       -1    1    3    3    0  502 -0.32552924942E+03 -0.24825728076E+03 -0.80431130550E+03  0.90250631347E+03  0.50400001928E-02 0. -1.
</event>
<event>
 5   0  0.1810875E-04  0.2121839E+04  0.7818609E-02  0.8551684E-01
       -2   -1    0    0    0  501  0.00000000000E+00  0.00000000000E+00  0.86628214356E+03  0.86628214356E+03  0.25500000920E-02 0. -1.
        2   -1    0    0  501    0  0.00000000000E+00  0.00000000000E+00 -0.12992877713E+04  0.12992877713E+04  0.25500000920E-02 0.  1.
    10030    2    1    2    0    0  0.00000000000E+00  0.00000000000E+00 -0.43300562778E+03  0.21655699149E+04  0.21218386326E+04 0.  0.
        1    1    3    3  502    0 -0.37478291167E+03 -0.60084278903E+03  0.58976333500E+03  0.92157206954E+03  0.50400001928E-02 0. -1.
       -1    1    3    3    0  502  0.37478291167E+03  0.60084278903E+03 -0.10227689628E+04  0.12439978454E+04  0.50400001928E-02 0.  1.
</event>
<event>
 5   0  0.8486612E-05  0.2101717E+04  0.7818609E-02  0.8560487E-01
       -1   -1    0    0    0  501  0.00000000000E+00  0.00000000000E+00  0.72349597968E+03  0.72349597970E+03  0.50400001928E-02 0. -1.
        1   -1    0    0  501    0  0.00000000000E+00  0.00000000000E+00 -0.15263439781E+04  0.15263439781E+04  0.50400001928E-02 0.  1.
    10030    2    1    2    0    0  0.00000000000E+00  0.00000000000E+00 -0.80284799845E+03  0.22498399578E+04  0.21017171378E+04 0.  0.
        5    1    3    3  502    0  0.34535064632E+03 -0.51151571743E+03 -0.13118747939E+04  0.14498113542E+04  0.46999998093E+01 0.  1.
       -5    1    3    3    0  502 -0.34535064632E+03  0.51151571743E+03  0.50902679543E+03  0.80002860358E+03  0.46999998093E+01 0. -1.
</event>
<event>
 5   0  0.8486612E-05  0.2125909E+04  0.7818609E-02  0.8549915E-01
       -1   -1    0    0    0  501  0.00000000000E+00  0.00000000000E+00  0.92890496142E+03  0.92890496143E+03  0.50400001928E-02 0. -1.
        1   -1    0    0  501    0  0.00000000000E+00  0.00000000000E+00 -0.12163489505E+04  0.12163489505E+04  0.50400001928E-02 0.  1.
    10030    2    1    2    0    0  0.00000000000E+00  0.00000000000E+00 -0.28744398912E+03  0.21452539120E+04  0.21259092878E+04 0.  0.
        5    1    3    3  502    0  0.11981073231E+03  0.10481440536E+04 -0.12578206765E+02  0.10550549132E+04  0.46999998093E+01 0.  1.
       -5    1    3    3    0  502 -0.11981073231E+03 -0.10481440536E+04 -0.27486578236E+03  0.10901989988E+04  0.46999998093E+01 0. -1.
</event>
<event>
 5   0  0.8237966E-05  0.2092748E+04  0.7818609E-02  0.8564445E-01
       -1   -1    0    0    0  501  0.00000000000E+00  0.00000000000E+00  0.47203200957E+03  0.47203200960E+03  0.50400001928E-02 0. -1.
        1   -1    0    0  501    0  0.00000000000E+00  0.00000000000E+00 -0.23195432497E+04  0.23195432497E+04  0.50400001928E-02 0.  1.
    10030    2    1    2    0    0  0.00000000000E+00  0.00000000000E+00 -0.18475112402E+04  0.27915752593E+04  0.20927481086E+04 0.  0.
        1    1    3    3  502    0 -0.97406306984E+03 -0.28948439805E+03 -0.12566998241E+04  0.16161356777E+04  0.50400001928E-02 0. -1.
       -1    1    3    3    0  502  0.97406306984E+03  0.28948439805E+03 -0.59081141603E+03  0.11754395816E+04  0.50400001928E-02 0.  1.
</event>
<event>
 5   0  0.8755004E-05  0.2068275E+04  0.7818609E-02  0.8575349E-01
        1   -1    0    0  501    0  0.00000000000E+00  0.00000000000E+00  0.12267231690E+04  0.12267231691E+04  0.50400001928E-02 0. -1.
       -1   -1    0    0    0  501  0.00000000000E+00  0.00000000000E+00 -0.87178588687E+03  0.87178588689E+03  0.50400001928E-02 0.  1.
    10030    2    1    2    0    0  0.00000000000E+00  0.00000000000E+00  0.35493728217E+03  0.20985090559E+04  0.20682745910E+04 0.  0.
        3    1    3    3  502    0 -0.90060228116E+03  0.33723637301E+03 -0.20838933633E+03  0.98399134437E+03  0.10100000352E+00 0. -1.
       -3    1    3    3    0  502  0.90060228116E+03 -0.33723637301E+03  0.56332661850E+03  0.11145177116E+04  0.10100000352E+00 0.  1.
</event>
<event>
 5   0  0.8755004E-05  0.2164671E+04  0.7818609E-02  0.8533279E-01
       -1   -1    0    0    0  501  0.00000000000E+00  0.00000000000E+00  0.75475115947E+03  0.75475115949E+03  0.50400001928E-02 0. -1.
        1   -1    0    0  501    0  0.00000000000E+00  0.00000000000E+00 -0.15521005879E+04  0.15521005879E+04  0.50400001928E-02 0.  1.
    10030    2    1    2    0    0  0.00000000000E+00  0.00000000000E+00 -0.79734942844E+03  0.23068517474E+04  0.21646706155E+04 0.  0.
        3    1    3    3  502    0  0.12444542719E+03 -0.10089706915E+04 -0.79447385152E+03  0.12902314644E+04  0.10100000352E+00 0.  1.
       -3    1    3    3    0  502 -0.12444542719E+03  0.10089706915E+04 -0.28755769279E+01  0.10166202830E+04  0.10100000352E+00 0. -1.
</event>
<event>
 5   0  0.8525278E-05  0.2098512E+04  0.7818609E-02  0.8561899E-01
       -1   -1    0    0    0  501  0.00000000000E+00  0.00000000000E+00  0.11519033608E+04  0.11519033608E+04  0.50400001928E-02 0. -1.
        1   -1    0    0  501    0  0.00000000000E+00  0.00000000000E+00 -0.95575570307E+03  0.95575570308E+03  0.50400001928E-02 0.  1.
    10030    2    1    2    0    0  0.00000000000E+00  0.00000000000E+00  0.19614765771E+03  0.21076590639E+04  0.20985120505E+04 0.  0.
        4    1    3    3  502    0  0.17946116300E+03  0.10222354754E+04  0.25290451851E+03  0.10682387301E+04  0.12699999809E+01 0. -1.
       -4    1    3    3    0  502 -0.17946116300E+03 -0.10222354754E+04 -0.56756860804E+02  0.10394203338E+04  0.12699999809E+01 0.  1.
</event>
<event>
 5   0  0.8755004E-05  0.2115090E+04  0.7818609E-02  0.8554625E-01
        1   -1    0    0  501    0  0.00000000000E+00  0.00000000000E+00  0.16744247342E+04  0.16744247342E+04  0.50400001928E-02 0.  1.
       -1   -1    0    0    0  501  0.00000000000E+00  0.00000000000E+00 -0.66793205341E+03  0.66793205343E+03  0.50400001928E-02 0. -1.
    10030    2    1    2    0    0  0.00000000000E+00  0.00000000000E+00  0.10064926808E+04  0.23423567876E+04  0.21150904955E+04 0.  0.
        3    1    3    3  502    0  0.60438828369E+03 -0.54911453350E+03 -0.24096492318E+03  0.85139654260E+03  0.10100000352E+00 0. -1.
       -3    1    3    3    0  502 -0.60438828369E+03  0.54911453350E+03  0.12474576040E+04  0.14909602450E+04  0.10100000352E+00 0.  1.
</event>
<event>
 5   0  0.8237966E-05  0.2105765E+04  0.7818609E-02  0.8558708E-01
       -1   -1    0    0    0  501  0.00000000000E+00  0.00000000000E+00  0.11029269022E+04  0.11029269022E+04  0.50400001928E-02 0.  1.
        1   -1    0    0  501    0  0.00000000000E+00  0.00000000000E+00 -0.10051089591E+04  0.10051089591E+04  0.50400001928E-02 0. -1.
    10030    2    1    2    0    0  0.00000000000E+00  0.00000000000E+00  0.97817943067E+02  0.21080358613E+04  0.21057651442E+04 0.  0.
        1    1    3    3  502    0  0.44972366220E+03 -0.58449258796E+03  0.80117038454E+03  0.10889246727E+04  0.50400001928E-02 0.  1.
       -1    1    3    3    0  502 -0.44972366220E+03  0.58449258796E+03 -0.70335244147E+03  0.10191111886E+04  0.50400001928E-02 0. -1.
</event>
<event>
 5   0  0.8486612E-05  0.2110504E+04  0.7818609E-02  0.8556631E-01
        1   -1    0    0  501    0  0.00000000000E+00  0.00000000000E+00  0.11570325301E+04  0.11570325301E+04  0.50400001928E-02 0. -1.
       -1   -1    0    0    0  501  0.00000000000E+00  0.00000000000E+00 -0.96242436984E+03  0.96242436986E+03  0.50400001928E-02 0.  1.
    10030    2    1    2    0    0  0.00000000000E+00  0.00000000000E+00  0.19460816022E+03  0.21194568999E+04  0.21105035453E+04 0.  0.
        5    1    3    3  502    0  0.10895024808E+03 -0.10470430623E+04  0.17086016810E+03  0.10664823570E+04  0.46999998093E+01 0.  1.
       -5    1    3    3    0  502 -0.10895024808E+03  0.10470430623E+04  0.23747992120E+02  0.10529745429E+04  0.46999998093E+01 0. -1.
</event>
<event>
 5   0  0.1815400E-04  0.2084922E+04  0.7818609E-02  0.8567915E-01
       -2   -1    0    0    0  501  0.00000000000E+00  0.00000000000E+00  0.12432120081E+04  0.12432120081E+04  0.25500000920E-02 0.  1.
        2   -1    0    0  501    0  0.00000000000E+00  0.00000000000E+00 -0.87412655415E+03  0.87412655416E+03  0.25500000920E-02 0. -1.
    10030    2    1    2    0    0  0.00000000000E+00  0.00000000000E+00  0.36908545399E+03  0.21173385623E+04  0.20849217048E+04 0.  0.
        3    1    3    3  502    0  0.43052511327E+03 -0.92854411824E+03 -0.16470587247E+02  0.10236294950E+04  0.10100000352E+00 0. -1.
       -3    1    3    3    0  502 -0.43052511327E+03  0.92854411824E+03  0.38555604123E+03  0.10937090673E+04  0.10100000352E+00 0.  1.
</event>
<event>
 5   0  0.1886323E-04  0.2065906E+04  0.7818609E-02  0.8576413E-01
       -2   -1    0    0    0  501  0.00000000000E+00  0.00000000000E+00  0.73479788170E+03  0.73479788170E+03  0.25500000920E-02 0. -1.
        2   -1    0    0  501    0  0.00000000000E+00  0.00000000000E+00 -0.14520887387E+04  0.14520887387E+04  0.25500000920E-02 0.  1.
    10030    2    1    2    0    0  0.00000000000E+00  0.00000000000E+00 -0.71729085696E+03  0.21868866204E+04  0.20659058345E+04 0.  0.
        2    1    3    3  502    0 -0.21964302127E+03  0.16808240639E+02 -0.14269351408E+04  0.14438384501E+04  0.25500000920E-02 0.  1.
       -2    1    3    3    0  502  0.21964302127E+03 -0.16808240639E+02  0.70964428387E+03  0.74304817029E+03  0.25500000920E-02 0. -1.
</event>
<event>
 5   0  0.8486612E-05  0.2100506E+04  0.7818609E-02  0.8561021E-01
        1   -1    0    0  501    0  0.00000000000E+00  0.00000000000E+00  0.13601981206E+04  0.13601981206E+04  0.50400001928E-02 0. -1.
       -1   -1    0    0    0  501  0.00000000000E+00  0.00000000000E+00 -0.81093433229E+03  0.81093433230E+03  0.50400001928E-02 0.  1.
    10030    2    1    2    0    0  0.00000000000E+00  0.00000000000E+00  0.54926378828E+03  0.21711324529E+04  0.21005059911E+04 0.  0.
        5    1    3    3  502    0 -0.83863883411E+03 -0.34621620632E+03 -0.27214275895E+03  0.94724047994E+03  0.46999998093E+01 0. -1.
       -5    1    3    3    0  502  0.83863883411E+03  0.34621620632E+03  0.82140654723E+03  0.12238919729E+04  0.46999998093E+01 0.  1.
</event>
<event>
 5   0  0.1815400E-04  0.2077826E+04  0.7818609E-02  0.8571075E-01
       -2   -1    0    0    0  501  0.00000000000E+00  0.00000000000E+00  0.57282085698E+03  0.57282085699E+03  0.25500000920E-02 0. -1.
        2   -1    0    0  501    0  0.00000000000E+00  0.00000000000E+00 -0.18842541850E+04  0.18842541850E+04  0.25500000920E-02 0.  1.
    10030    2    1    2    0    0  0.00000000000E+00  0.00000000000E+00 -0.13114333281E+04  0.24570750420E+04  0.20778258802E+04 0.  0.
        3    1    3    3  502    0  0.89788416010E+03 -0.98205061003E+02 -0.48701575168E+02  0.90455074627E+03  0.10100000352E+00 0. -1.
       -3    1    3    3    0  502 -0.89788416010E+03  0.98205061003E+02 -0.12627317529E+04  0.15525242958E+04  0.10100000352E+00 0.  1.
</event>
<event>
 5   0  0.1810875E-04  0.2131168E+04  0.7818609E-02  0.8547637E-01
       -2   -1    0    0    0  501  0.00000000000E+00  0.00000000000E+00  0.87360996161E+03  0.87360996161E+03  0.25500000920E-02 0. -1.
        2   -1    0    0  501    0  0.00000000000E+00  0.00000000000E+00 -0.12997435230E+04  0.12997435230E+04  0.25500000920E-02 0.  1.
    10030    2    1    2    0    0  0.00000000000E+00  0.00000000000E+00 -0.42613356143E+03  0.21733534846E+04  0.21311676511E+04 0.  0.
        1    1    3    3  502    0  0.24289413517E+03 -0.19855668551E+03  0.82544608767E+03  0.88305354420E+03  0.50400001928E-02 0. -1.
       -1    1    3    3    0  502 -0.24289413517E+03  0.19855668551E+03 -0.12515796491E+04  0.12902999404E+04  0.50400001928E-02 0.  1.
</event>
<event>
 5   0  0.1777590E-04  0.2098996E+04  0.7818609E-02  0.8561686E-01
       -2   -1    0    0    0  501  0.00000000000E+00  0.00000000000E+00  0.50662524062E+03  0.50662524062E+03  0.25500000920E-02 0.  1.
        2   -1    0    0  501    0  0.00000000000E+00  0.00000000000E+00 -0.21740847818E+04  0.21740847818E+04  0.25500000920E-02 0. -1.
    10030    2    1    2    0    0  0.00000000000E+00  0.00000000000E+00 -0.16674595411E+04  0.26807100224E+04  0.20989961655E+04 0.  0.
        4    1    3    3  502    0  0.18113466954E+03  0.32944070351E+03  0.41767341762E+03  0.56195519601E+03  0.12699999809E+01 0.  1.
       -4    1    3    3    0  502 -0.18113466954E+03 -0.32944070351E+03 -0.20851329588E+04  0.21187548264E+04  0.12699999809E+01 0. -1.
</event>
<event>
 5   0  0.1886323E-04  0.2112359E+04  0.7818609E-02  0.8555819E-01
       -2   -1    0    0    0  501  0.00000000000E+00  0.00000000000E+00  0.85651437112E+03  0.85651437113E+03  0.25500000920E-02 0.  1.
        2   -1    0    0  501    0  0.00000000000E+00  0.00000000000E+00 -0.13023887399E+04  0.13023887399E+04  0.25500000920E-02 0. -1.
    10030    2    1    2    0    0  0.00000000000E+00  0.00000000000E+00 -0.44587436878E+03  0.21589031110E+04  0.21123585610E+04 0.  0.
        2    1    3    3  502    0 -0.20245775435E+03  0.58008205251E+03  0.65507920290E+03  0.89811641340E+03  0.25500000920E-02 0.  1.
       -2    1    3    3    0  502  0.20245775435E+03 -0.58008205251E+03 -0.11009535717E+04  0.12607866976E+04  0.25500000920E-02 0. -1.
</event>
<event>
 5   0  0.8486612E-05  0.2099846E+04  0.7818609E-02  0.8561311E-01
       -1   -1    0    0    0  501  0.00000000000E+00  0.00000000000E+00  0.52868179466E+03  0.52868179468E+03  0.50400001928E-02 0.  1.
        1   -1    0    0  501    0  0.00000000000E+00  0.00000000000E+00 -0.20850702951E+04  0.20850702951E+04  0.50400001928E-02 0. -1.
    10030    2    1    2    0    0  0.00000000000E+00  0.00000000000E+00 -0.15563885004E+04  0.26137520898E+04  0.20998463807E+04 0.  0.
        5    1    3    3  502    0 -0.90826056427E+03  0.35052854023E+03 -0.28891825595E+03  0.10155310723E+04  0.46999998093E+01 0.  1.
       -5    1    3    3    0  502  0.90826056427E+03 -0.35052854023E+03 -0.12674702445E+04  0.15982210175E+04  0.46999998093E+01 0. -1.
</event>
<event>
 5   0  0.1886323E-04  0.2075940E+04  0.7818609E-02  0.8571917E-01
       -2   -1    0    0    0  501  0.00000000000E+00  0.00000000000E+00  0.73357164740E+03  0.73357164741E+03  0.25500000920E-02 0.  1.
        2   -1    0    0  501    0  0.00000000000E+00  0.00000000000E+00 -0.14686795993E+04  0.14686795993E+04  0.25500000920E-02 0. -1.
    10030    2    1    2    0    0  0.00000000000E+00  0.00000000000E+00 -0.73510795187E+03  0.22022512467E+04  0.20759399925E+04 0.  0.
        2    1    3    3  502    0 -0.50542876778E+03  0.32094103143E+02  0.59360552253E+03  0.78029211654E+03  0.25500000920E-02 0.  1.
       -2    1    3    3    0  502  0.50542876778E+03 -0.32094103143E+02 -0.13287134744E+04  0.14219591301E+04  0.25500000920E-02 0. -1.
</event>
<event>
 5   0  0.8486612E-05  0.2103659E+04  0.7818609E-02  0.8559633E-01
        1   -1    0    0  501    0  0.00000000000E+00  0.00000000000E+00  0.14808965435E+04  0.14808965435E+04  0.50400001928E-02 0. -1.
       -1   -1    0    0    0  501  0.00000000000E+00  0.00000000000E+00 -0.74707805528E+03  0.74707805529E+03  0.50400001928E-02 0.  1.
    10030    2    1    2    0    0  0.00000000000E+00  0.00000000000E+00  0.73381848822E+03  0.22279745988E+04  0.21036590121E+04 0.  0.
        5    1    3    3  502    0 -0.68092656872E+03 -0.22787332973E+03  0.11809227284E+04  0.13820954478E+04  0.46999998093E+01 0. -1.
       -5    1    3    3    0  502  0.68092656872E+03  0.22787332973E+03 -0.44710424023E+03  0.84587915095E+03  0.46999998093E+01 0.  1.
</event>
<event>
 5   0  0.8525278E-05  0.2157376E+04  0.7818609E-02  0.8536382E-01
       -1   -1    0    0    0  501  0.00000000000E+00  0.00000000000E+00  0.11758765857E+04  0.11758765857E+04  0.50400001928E-02 0. -1.
        1   -1    0    0  501    0  0.00000000000E+00  0.00000000000E+00 -0.98953180176E+03  0.98953180177E+03  0.50400001928E-02 0.  1.
    10030    2    1    2    0    0  0.00000000000E+00  0.00000000000E+00  0.18634478393E+03  0.21654083875E+04  0.21573755135E+04 0.  0.
        4    1    3    3  502    0  0.31784747859E+03 -0.12043861585E+03 -0.93437434976E+03  0.99427839070E+03  0.12699999809E+01 0.  1.
       -4    1    3    3    0  502 -0.31784747859E+03  0.12043861585E+03  0.11207191337E+04  0.11711299968E+04  0.12699999809E+01 0. -1.
</event>
<event>
 5   0  0.8271069E-05  0.2069735E+04  0.7818609E-02  0.8574694E-01
        1   -1    0    0  501    0  0.00000000000E+00  0.00000000000E+00  0.73375681932E+03  0.73375681934E+03  0.50400001928E-02 0. -1.
       -1   -1    0    0    0  501  0.00000000000E+00  0.00000000000E+00 -0.14595438289E+04  0.14595438289E+04  0.50400001928E-02 0.  1.
    10030    2    1    2    0    0  0.00000000000E+00  0.00000000000E+00 -0.72578700954E+03  0.21933006482E+04  0.20697345120E+04 0.  0.
        2    1    3    3  502    0  0.88742413808E+03 -0.51250442251E+03 -0.51560767343E+03  0.11471851014E+04  0.25500000920E-02 0. -1.
       -2    1    3    3    0  502 -0.88742413808E+03  0.51250442251E+03 -0.21017933611E+03  0.10461155468E+04  0.25500000920E-02 0.  1.
</event>
<event>
 5   0  0.8525278E-05  0.2063984E+04  0.7818609E-02  0.8577277E-01
        1   -1    0    0  501    0  0.00000000000E+00  0.00000000000E+00  0.99315742121E+03  0.99315742123E+03  0.50400001928E-02 0.  1.
       -1   -1    0    0    0  501  0.00000000000E+00  0.00000000000E+00 -0.10723452100E+04  0.10723452100E+04  0.50400001928E-02 0. -1.
    10030    2    1    2    0    0  0.00000000000E+00  0.00000000000E+00 -0.79187788777E+02  0.20655026312E+04  0.20639841118E+04 0.  0.
        4    1    3    3  502    0 -0.22335187273E+03 -0.15746522734E+03 -0.10354766073E+04  0.10709317317E+04  0.12699999809E+01 0. -1.
       -4    1    3    3    0  502  0.22335187273E+03  0.15746522734E+03  0.95628881850E+03  0.99457089952E+03  0.12699999809E+01 0.  1.
</event>
<event>
 5   0  0.1810875E-04  0.2086130E+04  0.7818609E-02  0.8567378E-01
        2   -1    0    0  501    0  0.00000000000E+00  0.00000000000E+00  0.75083477318E+03  0.75083477319E+03  0.25500000920E-02 0. -1.
       -2   -1    0    0    0  501  0.00000000000E+00  0.00000000000E+00 -0.14490337668E+04  0.14490337668E+04  0.25500000920E-02 0.  1.
    10030    2    1    2    0    0  0.00000000000E+00  0.00000000000E+00 -0.69819899363E+03  0.21998685400E+04  0.20861303312E+04 0.  0.
        1    1    3    3  502    0  0.37444441478E+03 -0.47647199948E+03 -0.12443567413E+04  0.13840729336E+04  0.50400001928E-02 0.  1.
       -1    1    3    3    0  502 -0.37444441478E+03  0.47647199948E+03  0.54615774763E+03  0.81579560637E+03  0.50400001928E-02 0. -1.
</event>
<event>
 5   0  0.1777590E-04  0.2164865E+04  0.7818609E-02  0.8533196E-01
        2   -1    0    0  501    0  0.00000000000E+00  0.00000000000E+00  0.88441502157E+03  0.88441502157E+03  0.25500000920E-02 0. -1.
       -2   -1    0    0    0  501  0.00000000000E+00  0.00000000000E+00 -0.13247859821E+04  0.13247859821E+04  0.25500000920E-02 0.  1.
    10030    2    1    2    0    0  0.00000000000E+00  0.00000000000E+00 -0.44037096055E+03  0.22092010037E+04  0.21648654674E+04 0.  0.
        4    1    3    3  502    0 -0.70008952711E+03 -0.81787132960E+03 -0.10554536426E+03  0.10817487206E+04  0.12699999809E+01 0.  1.
       -4    1    3    3    0  502  0.70008952711E+03  0.81787132960E+03 -0.33482559629E+03  0.11274522831E+04  0.12699999809E+01 0. -1.
</event>
<event>
 5   0  0.8755004E-05  0.1993490E+04  0.7818609E-02  0.8609670E-01
       -1   -1    0    0    0  501  0.00000000000E+00  0.00000000000E+00  0.71761019731E+03  0.71761019733E+03  0.50400001928E-02 0. -1.
        1   -1    0    0  501    0  0.00000000000E+00  0.00000000000E+00 -0.13844578377E+04  0.13844578377E+04  0.50400001928E-02 0.  1.
    10030    2    1    2    0    0  0.00000000000E+00  0.00000000000E+00 -0.66684764040E+03  0.21020680350E+04  0.19934904686E+04 0.  0.
        3    1    3    3  502    0 -0.52537237796E+03 -0.73337433276E+03 -0.78035699715E+03  0.11928164572E+04  0.10100000352E+00 0.  1.
       -3    1    3    3    0  502  0.52537237796E+03  0.73337433276E+03  0.11350935674E+03  0.90925157780E+03  0.10100000352E+00 0. -1.
</event>
<event>
 5   0  0.1815400E-04  0.2111109E+04  0.7818609E-02  0.8556365E-01
       -2   -1    0    0    0  501  0.00000000000E+00  0.00000000000E+00  0.60832457732E+03  0.60832457732E+03  0.25500000920E-02 0.  1.
        2   -1    0    0  501    0  0.00000000000E+00  0.00000000000E+00 -0.18315807629E+04  0.18315807629E+04  0.25500000920E-02 0. -1.
    10030    2    1    2    0    0  0.00000000000E+00  0.00000000000E+00 -0.12232561856E+04  0.24399053402E+04  0.21111092756E+04 0.  0.
        3    1    3    3  502    0 -0.62857048603E+03  0.18960434335E+03  0.34362551219E+03  0.74103249979E+03  0.10100000352E+00 0.  1.
       -3    1    3    3    0  502  0.62857048603E+03 -0.18960434335E+03 -0.15668816978E+04  0.16988728404E+04  0.10100000352E+00 0. -1.
</event>
<event>
 5   0  0.8755004E-05  0.2122296E+04  0.7818609E-02  0.8551485E-01
        1   -1    0    0  501    0  0.00000000000E+00  0.00000000000E+00  0.16799744024E+04  0.16799744024E+04  0.50400001928E-02 0. -1.
       -1   -1    0    0    0  501  0.00000000000E+00  0.00000000000E+00 -0.67026891008E+03  0.67026891009E+03  0.50400001928E-02 0.  1.
    10030    2    1    2    0    0  0.00000000000E+00  0.00000000000E+00  0.10097054923E+04  0.23502433125E+04  0.21222955606E+04 0.  0.
        3    1    3    3  502    0  0.45325573755E+03  0.49527827462E+03 -0.40517193314E+03  0.78415919209E+03  0.10100000352E+00 0.  1.
       -3    1    3    3    0  502 -0.45325573755E+03 -0.49527827462E+03  0.14148774254E+04  0.15660841204E+04  0.10100000352E+00 0. -1.
</event>
<event>
 5   0  0.8271069E-05  0.2103078E+04  0.7818609E-02  0.8559889E-01
       -1   -1    0    0    0  501  0.00000000000E+00  0.00000000000E+00  0.11703639758E+04  0.11703639758E+04  0.50400001928E-02 0. -1.
        1   -1    0    0  501    0  0.00000000000E+00  0.00000000000E+00 -0.94477797305E+03  0.94477797307E+03  0.50400001928E-02 0.  1.
    10030    2    1    2    0    0  0.00000000000E+00  0.00000000000E+00  0.22558600274E+03  0.21151419489E+04  0.21030778443E+04 0.  0.
        2    1    3    3  502    0 -0.29937388351E+03  0.74117778979E+02  0.11238537296E+04  0.11654035236E+04  0.25500000920E-02 0. -1.
       -2    1    3    3    0  502  0.29937388351E+03 -0.74117778979E+02 -0.89826772686E+03  0.94973842526E+03  0.25500000920E-02 0.  1.
</event>
<event>
 5   0  0.1886323E-04  0.2111797E+04  0.7818609E-02  0.8556064E-01
        2   -1    0    0  501    0  0.00000000000E+00  0.00000000000E+00  0.17587358065E+04  0.17587358065E+04  0.25500000920E-02 0. -1.
       -2   -1    0    0    0  501  0.00000000000E+00  0.00000000000E+00 -0.63393372974E+03  0.63393372974E+03  0.25500000920E-02 0.  1.
    10030    2    1    2    0    0  0.00000000000E+00  0.00000000000E+00  0.11248020768E+04  0.23926695363E+04  0.21117972909E+04 0.  0.
        2    1    3    3  502    0 -0.94029291123E+03 -0.45102717461E+03  0.74976016018E+03  0.12844129277E+04  0.25500000920E-02 0.  1.
       -2    1    3    3    0  502  0.94029291123E+03  0.45102717461E+03  0.37504191663E+03  0.11082566085E+04  0.25500000920E-02 0. -1.
</event>
<event>
 5   0  0.6441125E-05  0.1981920E+04  0.7818609E-02  0.8615120E-01
        3   -1    0    0  501    0  0.00000000000E+00  0.00000000000E+00  0.63081934764E+03  0.63081935572E+03  0.10100000352E+00 0. -1.
       -3   -1    0    0    0  501  0.00000000000E+00  0.00000000000E+00 -0.15567087938E+04  0.15567087971E+04  0.10100000352E+00 0.  1.
    10030    2    1    2    0    0  0.00000000000E+00  0.00000000000E+00 -0.92588944614E+03  0.21875281528E+04  0.19819203195E+04 0.  0.
        2    1    3    3  502    0 -0.86880601822E+03  0.23760243115E+03 -0.68933532914E+01  0.90073654911E+03  0.25500000920E-02 0. -1.
       -2    1    3    3    0  502  0.86880601822E+03 -0.23760243115E+03 -0.91899609285E+03  0.12867916037E+04  0.25500000920E-02 0.  1.
</event>
<event>
 5   0  0.8237966E-05  0.2075914E+04  0.7818609E-02  0.8571928E-01
       -1   -1    0    0    0  501  0.00000000000E+00  0.00000000000E+00  0.11244697010E+04  0.11244697011E+04  0.50400001928E-02 0. -1.
        1   -1    0    0  501    0  0.00000000000E+00  0.00000000000E+00 -0.95810050330E+03  0.95810050331E+03  0.50400001928E-02 0.  1.
    10030    2    1    2    0    0  0.00000000000E+00  0.00000000000E+00  0.16636919774E+03  0.20825702044E+04  0.20759142434E+04 0.  0.
        1    1    3    3  502    0 -0.33187902967E+02 -0.87913299265E+03 -0.46937968114E+03  0.99714268827E+03  0.50400001928E-02 0.  1.
       -1    1    3    3    0  502  0.33187902967E+02  0.87913299265E+03  0.63574887888E+03  0.10854275161E+04  0.50400001928E-02 0. -1.
</event>
<event>
 5   0  0.1777590E-04  0.2076746E+04  0.7818609E-02  0.8571557E-01
        2   -1    0    0  501    0  0.00000000000E+00  0.00000000000E+00  0.16971965720E+04  0.16971965720E+04  0.25500000920E-02 0.  1.
       -2   -1    0    0    0  501  0.00000000000E+00  0.00000000000E+00 -0.63529375696E+03  0.63529375696E+03  0.25500000920E-02 0. -1.
    10030    2    1    2    0    0  0.00000000000E+00  0.00000000000E+00  0.10619028150E+04  0.23324903289E+04  0.20767459031E+04 0.  0.
        4    1    3    3  502    0  0.99530375519E+03  0.63242113171E+02  0.85567028020E+03  0.13140785255E+04  0.12699999809E+01 0.  1.
       -4    1    3    3    0  502 -0.99530375519E+03 -0.63242113171E+02  0.20623253480E+03  0.10184118034E+04  0.12699999809E+01 0. -1.
</event>
<event>
 5   0  0.8237966E-05  0.2113573E+04  0.7818609E-02  0.8555288E-01
        1   -1    0    0  501    0  0.00000000000E+00  0.00000000000E+00  0.76630864524E+03  0.76630864526E+03  0.50400001928E-02 0.  1.
       -1   -1    0    0    0  501  0.00000000000E+00  0.00000000000E+00 -0.14573738463E+04  0.14573738463E+04  0.50400001928E-02 0. -1.
    10030    2    1    2    0    0  0.00000000000E+00  0.00000000000E+00 -0.69106520102E+03  0.22236824915E+04  0.21135734459E+04 0.  0.
        1    1    3    3  502    0  0.34630569914E+03  0.91401122884E+03 -0.76827894024E+03  0.12432202917E+04  0.50400001928E-02 0. -1.
       -1    1    3    3    0  502 -0.34630569914E+03 -0.91401122884E+03  0.77213739224E+02  0.98046219981E+03  0.50400001928E-02 0.  1.
</event>
<event>
 5   0  0.1777590E-04  0.2115070E+04  0.7818609E-02  0.8554634E-01
        2   -1    0    0  501    0  0.00000000000E+00  0.00000000000E+00  0.17467845414E+04  0.17467845414E+04  0.25500000920E-02 0.  1.
       -2   -1    0    0    0  501  0.00000000000E+00  0.00000000000E+00 -0.64025068040E+03  0.64025068041E+03  0.25500000920E-02 0. -1.
    10030    2    1    2    0    0  0.00000000000E+00  0.00000000000E+00  0.11065338610E+04  0.23870352218E+04  0.21150697305E+04 0.  0.
        4    1    3    3  502    0  0.68599915194E+03  0.11324738179E+03 -0.34603770651E+03  0.77663602361E+03  0.12699999809E+01 0. -1.
       -4    1    3    3    0  502 -0.68599915194E+03 -0.11324738179E+03  0.14525715675E+04  0.16103991982E+04  0.12699999809E+01 0.  1.
</event>
<event>
 5   0  0.1921687E-04  0.2125365E+04  0.7818609E-02  0.8550152E-01
       -2   -1    0    0    0  501  0.00000000000E+00  0.00000000000E+00  0.10396063465E+04  0.10396063465E+04  0.25500000920E-02 0.  1.
        2   -1    0    0  501    0  0.00000000000E+00  0.00000000000E+00 -0.10862707554E+04  0.10862707554E+04  0.25500000920E-02 0. -1.
    10030    2    1    2    0    0  0.00000000000E+00  0.00000000000E+00 -0.46664408904E+02  0.21258771019E+04  0.21253648829E+04 0.  0.
        5    1    3    3  502    0  0.97874936420E+03 -0.34211599163E+03  0.20970079168E+03  0.10578233225E+04  0.46999998093E+01 0.  1.
       -5    1    3    3    0  502 -0.97874936420E+03  0.34211599163E+03 -0.25636520058E+03  0.10680537794E+04  0.46999998093E+01 0. -1.
</event>
<event>
 5   0  0.8525278E-05  0.1979604E+04  0.7818609E-02  0.8616216E-01
        1   -1    0    0  501    0  0.00000000000E+00  0.00000000000E+00  0.23207225851E+04  0.23207225851E+04  0.50400001928E-02 0. -1.
       -1   -1    0    0    0  501  0.00000000000E+00  0.00000000000E+00 -0.42215647443E+03  0.42215647446E+03  0.50400001928E-02 0.  1.
    10030    2    1    2    0    0  0.00000000000E+00  0.00000000000E+00  0.18985661107E+04  0.27428790596E+04  0.19796040662E+04 0.  0.
        4    1    3    3  502    0  0.93711859126E+03 -0.77634579339E+02  0.13774398880E+04  0.16678011392E+04  0.12699999809E+01 0.  1.
       -4    1    3    3    0  502 -0.93711859126E+03  0.77634579339E+02  0.52112622267E+03  0.10750779204E+04  0.12699999809E+01 0. -1.
</event>
<event>
 5   0  0.1921687E-04  0.2092509E+04  0.7818609E-02  0.8564550E-01
        2   -1    0    0  501    0  0.00000000000E+00  0.00000000000E+00  0.89963330228E+03  0.89963330228E+03  0.25500000920E-02 0. -1.
       -2   -1    0    0    0  501  0.00000000000E+00  0.00000000000E+00 -0.12167719737E+04  0.12167719737E+04  0.25500000920E-02 0.  1.
    10030    2    1    2    0    0  0.00000000000E+00  0.00000000000E+00 -0.31713867142E+03  0.21164052760E+04  0.20925091052E+04 0.  0.
        5    1    3    3  502    0  0.48063015076E+03  0.18217651254E+03  0.76311826694E+03  0.92008977979E+03  0.46999998093E+01 0. -1.
       -5    1    3    3    0  502 -0.48063015076E+03 -0.18217651254E+03 -0.10802569384E+04  0.11963154962E+04  0.46999998093E+01 0.  1.
</event>
<event>
 5   0  0.8271069E-05  0.2167275E+04  0.7818609E-02  0.8532174E-01
       -1   -1    0    0    0  501  0.00000000000E+00  0.00000000000E+00  0.15330270047E+04  0.15330270047E+04  0.50400001928E-02 0. -1.
        1   -1    0    0  501    0  0.00000000000E+00  0.00000000000E+00 -0.76598168116E+03  0.76598168118E+03  0.50400001928E-02 0.  1.
    10030    2    1    2    0    0  0.00000000000E+00  0.00000000000E+00  0.76704532355E+03  0.22990086859E+04  0.21672753423E+04 0.  0.
        2    1    3    3  502    0  0.44643167659E+03 -0.80211648487E+03  0.99435174502E+03  0.13533024385E+04  0.25500000920E-02 0. -1.
       -2    1    3    3    0  502 -0.44643167659E+03  0.80211648487E+03 -0.22730642147E+03  0.94570624742E+03  0.25500000920E-02 0.  1.
</event>
<event>
 5   0  0.1886323E-04  0.2095267E+04  0.7818609E-02  0.8563331E-01
        2   -1    0    0  501    0  0.00000000000E+00  0.00000000000E+00  0.84233080979E+03  0.84233080979E+03  0.25500000920E-02 0.  1.
       -2   -1    0    0    0  501  0.00000000000E+00  0.00000000000E+00 -0.13029753625E+04  0.13029753625E+04  0.25500000920E-02 0. -1.
    10030    2    1    2    0    0  0.00000000000E+00  0.00000000000E+00 -0.46064455269E+03  0.21453061723E+04  0.20952673264E+04 0.  0.
        2    1    3    3  502    0 -0.57965482130E+03 -0.67869718054E+03  0.33132774946E+03  0.95205443768E+03  0.25500000920E-02 0.  1.
       -2    1    3    3    0  502  0.57965482130E+03  0.67869718054E+03 -0.79197230215E+03  0.11932517346E+04  0.25500000920E-02 0. -1.
</event>
<event>
 5   0  0.8486612E-05  0.2144362E+04  0.7818609E-02  0.8541950E-01
        1   -1    0    0  501    0  0.00000000000E+00  0.00000000000E+00  0.10395813596E+04  0.10395813596E+04  0.50400001928E-02 0. -1.
       -1   -1    0    0    0  501  0.00000000000E+00  0.00000000000E+00 -0.11058024620E+04  0.11058024620E+04  0.50400001928E-02 0.  1.
    10030    2    1    2    0    0  0.00000000000E+00  0.00000000000E+00 -0.66221102362E+02  0.21453838216E+04  0.21443615618E+04 0.  0.
        5    1    3    3  502    0  0.20250500390E+03 -0.18571639442E+03 -0.10699687710E+04  0.11046963911E+04  0.46999998093E+01 0.  1.
       -5    1    3    3    0  502 -0.20250500390E+03  0.18571639442E+03  0.10037476686E+04  0.10406874305E+04  0.46999998093E+01 0. -1.
</event>
</LesHouchesEvents>
