<LesHouchesEvents version="3.0">
<header>
<!--
#*********************************************************************
#                                                                    *
#                        MadGraph5_aMC@NLO                           *
#                                                                    *
#                           Going Beyond                             *
#                                                                    *
#                   http://madgraph.hep.uiuc.edu                     *
#                   http://madgraph.phys.ucl.ac.be                   *
#                   http://amcatnlo.cern.ch                          *
#                                                                    *
#                     The MadGraph5_aMC@NLO team                     *
#                                                                    *
#....................................................................*
#                                                                    *
# This file contains all the information necessary to reproduce      *
# the events generated:                                              *
#                                                                    *
# 1. software version                                                *
# 2. proc_card          : code generation info including model       *
# 3. param_card         : model primary parameters in the LH format  *
# 4. run_card           : running parameters (collider and cuts)     *
# 5. pythia_card        : present only if pythia has been run        *
# 6. pgs_card           : present only if pgs has been run           *
# 7. delphes_cards      : present only if delphes has been run       *
#                                                                    *
#                                                                    *
#*********************************************************************
-->
<MGVersion>
#5.2.2.3
</MGVersion>
<MG5ProcCard>
#************************************************************
#*                     MadGraph5_aMC@NLO                    *
#*                                                          *
#*                *                       *                 *
#*                  *        * *        *                   *
#*                    * * * * 5 * * * *                     *
#*                  *        * *        *                   *
#*                *                       *                 *
#*                                                          *
#*                                                          *
#*         VERSION 2.2.3                 2015-02-10         *
#*                                                          *
#*    The MadGraph5_aMC@NLO Development Team - Find us at   *
#*    https://server06.fynu.ucl.ac.be/projects/madgraph     *
#*                                                          *
#************************************************************
#*                                                          *
#*               Command File for MadGraph5_aMC@NLO         *
#*                                                          *
#*     run as ./bin/mg5_aMC  filename                       *
#*                                                          *
#************************************************************
set group_subprocesses Auto
set ignore_six_quark_processes False
set loop_optimized_output True
set gauge unitary
set complex_mass_scheme False
import model sm
define p = g u c d s u~ c~ d~ s~
define j = g u c d s u~ c~ d~ s~
define l+ = e+ mu+
define l- = e- mu-
define vl = ve vm vt
define vl~ = ve~ vm~ vt~
import model Zprime_UFO
generate p p > zph, zph > j j
add process p p > zph, zph > b b~
output Dijet_signal
</MG5ProcCard>
<MGProcCard>
#*********************************************************************
#                        MadGraph/MadEvent                           *
#                   http://madgraph.hep.uiuc.edu                     *
#                                                                    *
#                          proc_card.dat                             *
#*********************************************************************
#                                                                    *
#            This Files is generated by MADGRAPH 5                   *
#                                                                    *
# WARNING: This Files is generated for MADEVENT (compatibility issue)*
#          This files is NOT a valid MG4 proc_card.dat               *
#          Running this in MG4 will NEVER reproduce the result of MG5*
#                                                                    *
#*********************************************************************
#*********************************************************************
# Process(es) requested : mg2 input                                  *
#*********************************************************************
# Begin PROCESS # This is TAG. Do not modify this line
p p > zph , zph > j j           #Process
# Be carefull the coupling are here in MG5 convention
          
end_coup           # End the couplings input

done               # this tells MG there are no more procs
# End PROCESS  # This is TAG. Do not modify this line
#*********************************************************************
# Model information                                                  *
#*********************************************************************
# Begin MODEL  # This is TAG. Do not modify this line
Zprime_UFO
# End   MODEL  # This is TAG. Do not modify this line
#*********************************************************************
# Start multiparticle definitions                                    *
#*********************************************************************
# Begin MULTIPARTICLES # This is TAG. Do not modify this line

# End  MULTIPARTICLES # This is TAG. Do not modify this line
</MGProcCard>
<MGRunCard>
#*********************************************************************
#                       MadGraph5_aMC@NLO                            *
#                                                                    *
#                     run_card.dat MadEvent                          *
#                                                                    *
#  This file is used to set the parameters of the run.               *
#                                                                    *
#  Some notation/conventions:                                        *
#                                                                    *
#   Lines starting with a '# ' are info or comments                  *
#                                                                    *
#   mind the format:   value    = variable     ! comment             *
#*********************************************************************
#
#*******************                                                 
# Running parameters
#*******************                                                 
#                                                                    
#*********************************************************************
# Tag name for the run (one word)                                    *
#*********************************************************************
  tag_1     = run_tag ! name of the run 
#*********************************************************************
# Run to generate the grid pack                                      *
#*********************************************************************
  .false.     = gridpack  !True = setting up the grid pack
#*********************************************************************
# Number of events and rnd seed                                      *
# Warning: Do not generate more than 1M events in a single run       *
# If you want to run Pythia, avoid more than 50k events in a run.    *
#*********************************************************************
  2000 = nevents ! Number of unweighted events requested 
 993 = iseed   ! rnd seed (0=assigned automatically=default))
#*********************************************************************
# Collider type and energy                                           *
# lpp: 0=No PDF, 1=proton, -1=antiproton, 2=photon from proton,      *
#                                         3=photon from electron     *
#*********************************************************************
        1     = lpp1    ! beam 1 type 
        1     = lpp2    ! beam 2 type
     4000     = ebeam1  ! beam 1 total energy in GeV
     4000     = ebeam2  ! beam 2 total energy in GeV
#*********************************************************************
# Beam polarization from -100 (left-handed) to 100 (right-handed)    *
#*********************************************************************
        0     = polbeam1 ! beam polarization for beam 1
        0     = polbeam2 ! beam polarization for beam 2
#*********************************************************************
# PDF CHOICE: this automatically fixes also alpha_s and its evol.    *
#*********************************************************************
 'nn23lo1'    = pdlabel     ! PDF set                                     
 230000    = lhaid     ! if pdlabel=lhapdf, this is the lhapdf number
#*********************************************************************
# Renormalization and factorization scales                           *
#*********************************************************************
 F        = fixed_ren_scale  ! if .true. use fixed ren scale
 F        = fixed_fac_scale  ! if .true. use fixed fac scale
 91.1880  = scale            ! fixed ren scale
 91.1880  = dsqrt_q2fact1    ! fixed fact scale for pdf1
 91.1880  = dsqrt_q2fact2    ! fixed fact scale for pdf2
 1        = scalefact        ! scale factor for event-by-event scales
#*********************************************************************
# Matching - Warning! ickkw > 1 is still beta
#*********************************************************************
 0        = ickkw            ! 0 no matching, 1 MLM, 2 CKKW matching
 1        = highestmult      ! for ickkw=2, highest mult group
 1        = ktscheme         ! for ickkw=1, 1 Durham kT, 2 Pythia pTE
 1        = alpsfact         ! scale factor for QCD emission vx
 F        = chcluster        ! cluster only according to channel diag
 T        = pdfwgt           ! for ickkw=1, perform pdf reweighting
 5        = asrwgtflavor     ! highest quark flavor for a_s reweight
 T        = clusinfo         ! include clustering tag in output
 3.0      = lhe_version       ! Change the way clustering information pass to shower.        
#*********************************************************************
#**********************************************************
#
#**********************************************************
# Automatic ptj and mjj cuts if xqcut > 0
# (turn off for VBF and single top processes)
#**********************************************************
   T  = auto_ptj_mjj  ! Automatic setting of ptj and mjj
#**********************************************************
#                                                                    
#**********************************
# BW cutoff (M+/-bwcutoff*Gamma)
#**********************************
  15  = bwcutoff      ! (M+/-bwcutoff*Gamma)
#**********************************************************
# Apply pt/E/eta/dr/mij cuts on decay products or not
# (note that etmiss/ptll/ptheavy/ht/sorted cuts always apply)
#**********************************************************
   T  = cut_decays    ! Cut decay products 
#*************************************************************
# Number of helicities to sum per event (0 = all helicities)
# 0 gives more stable result, but longer run time (needed for
# long decay chains e.g.).
# Use >=2 if most helicities contribute, e.g. pure QCD.
#*************************************************************
   0  = nhel          ! Number of helicities used per event
#*******************                                                 
# Standard Cuts
#*******************                                                 
#                                                                    
#*********************************************************************
# Minimum and maximum pt's (for max, -1 means no cut)                *
#*********************************************************************
 20  = ptj       ! minimum pt for the jets 
  0  = ptb       ! minimum pt for the b 
 10  = pta       ! minimum pt for the photons 
 10  = ptl       ! minimum pt for the charged leptons 
  0  = misset    ! minimum missing Et (sum of neutrino's momenta)
  0  = ptheavy   ! minimum pt for one heavy final state
 1.0 = ptonium   ! minimum pt for the quarkonium states
 -1  = ptjmax    ! maximum pt for the jets
 -1  = ptbmax    ! maximum pt for the b
 -1  = ptamax    ! maximum pt for the photons
 -1  = ptlmax    ! maximum pt for the charged leptons
 -1  = missetmax ! maximum missing Et (sum of neutrino's momenta)
#*********************************************************************
# Minimum and maximum E's (in the center of mass frame)              *
#*********************************************************************
  0  = ej     ! minimum E for the jets 
  0  = eb     ! minimum E for the b 
  0  = ea     ! minimum E for the photons 
  0  = el     ! minimum E for the charged leptons 
 -1   = ejmax ! maximum E for the jets
 -1   = ebmax ! maximum E for the b
 -1   = eamax ! maximum E for the photons
 -1   = elmax ! maximum E for the charged leptons
#*********************************************************************
# Maximum and minimum absolute rapidity (for max, -1 means no cut)   *
#*********************************************************************
   5  = etaj    ! max rap for the jets 
  -1  = etab    ! max rap for the b
 2.5  = etaa    ! max rap for the photons 
 2.5  = etal    ! max rap for the charged leptons 
 0.6  = etaonium ! max rap for the quarkonium states
   0  = etajmin ! min rap for the jets
   0  = etabmin ! min rap for the b
   0  = etaamin ! min rap for the photons
   0  = etalmin ! main rap for the charged leptons
#*********************************************************************
# Minimum and maximum DeltaR distance                                *
#*********************************************************************
 0.4 = drjj    ! min distance between jets 
 0   = drbb    ! min distance between b's 
 0.4 = drll    ! min distance between leptons 
 0.4 = draa    ! min distance between gammas 
 0   = drbj    ! min distance between b and jet 
 0.4 = draj    ! min distance between gamma and jet 
 0.4 = drjl    ! min distance between jet and lepton 
 0   = drab    ! min distance between gamma and b 
 0   = drbl    ! min distance between b and lepton 
 0.4 = dral    ! min distance between gamma and lepton 
 -1  = drjjmax ! max distance between jets
 -1  = drbbmax ! max distance between b's
 -1  = drllmax ! max distance between leptons
 -1  = draamax ! max distance between gammas
 -1  = drbjmax ! max distance between b and jet
 -1  = drajmax ! max distance between gamma and jet
 -1  = drjlmax ! max distance between jet and lepton
 -1  = drabmax ! max distance between gamma and b
 -1  = drblmax ! max distance between b and lepton
 -1  = dralmax ! maxdistance between gamma and lepton
#*********************************************************************
# Minimum and maximum invariant mass for pairs                       *
# WARNING: for four lepton final state mmll cut require to have      *
#          different lepton masses for each flavor!                  *           
#*********************************************************************
 0   = mmjj    ! min invariant mass of a jet pair 
 0   = mmbb    ! min invariant mass of a b pair 
 0   = mmaa    ! min invariant mass of gamma gamma pair
 0   = mmll    ! min invariant mass of l+l- (same flavour) lepton pair
 -1  = mmjjmax ! max invariant mass of a jet pair
 -1  = mmbbmax ! max invariant mass of a b pair
 -1  = mmaamax ! max invariant mass of gamma gamma pair
 -1  = mmllmax ! max invariant mass of l+l- (same flavour) lepton pair
#*********************************************************************
# Minimum and maximum invariant mass for all letpons                 *
#*********************************************************************
 0   = mmnl    ! min invariant mass for all letpons (l+- and vl) 
 -1  = mmnlmax ! max invariant mass for all letpons (l+- and vl) 
#*********************************************************************
# Minimum and maximum pt for 4-momenta sum of leptons                *
#*********************************************************************
 0   = ptllmin  ! Minimum pt for 4-momenta sum of leptons(l and vl)
 -1  = ptllmax  ! Maximum pt for 4-momenta sum of leptons(l and vl)
#*********************************************************************
# Inclusive cuts                                                     *
#*********************************************************************
 0  = xptj ! minimum pt for at least one jet  
 0  = xptb ! minimum pt for at least one b 
 0  = xpta ! minimum pt for at least one photon 
 0  = xptl ! minimum pt for at least one charged lepton 
#*********************************************************************
# Control the pt's of the jets sorted by pt                          *
#*********************************************************************
 0   = ptj1min ! minimum pt for the leading jet in pt
 0   = ptj2min ! minimum pt for the second jet in pt
 0   = ptj3min ! minimum pt for the third jet in pt
 0   = ptj4min ! minimum pt for the fourth jet in pt
 -1  = ptj1max ! maximum pt for the leading jet in pt 
 -1  = ptj2max ! maximum pt for the second jet in pt
 -1  = ptj3max ! maximum pt for the third jet in pt
 -1  = ptj4max ! maximum pt for the fourth jet in pt
 0   = cutuse  ! reject event if fails any (0) / all (1) jet pt cuts
#*********************************************************************
# Control the pt's of leptons sorted by pt                           *
#*********************************************************************
 0   = ptl1min ! minimum pt for the leading lepton in pt
 0   = ptl2min ! minimum pt for the second lepton in pt
 0   = ptl3min ! minimum pt for the third lepton in pt
 0   = ptl4min ! minimum pt for the fourth lepton in pt
 -1  = ptl1max ! maximum pt for the leading lepton in pt 
 -1  = ptl2max ! maximum pt for the second lepton in pt
 -1  = ptl3max ! maximum pt for the third lepton in pt
 -1  = ptl4max ! maximum pt for the fourth lepton in pt
#*********************************************************************
# Control the Ht(k)=Sum of k leading jets                            *
#*********************************************************************
 0   = htjmin ! minimum jet HT=Sum(jet pt)
 -1  = htjmax ! maximum jet HT=Sum(jet pt)
 0   = ihtmin  !inclusive Ht for all partons (including b)
 -1  = ihtmax  !inclusive Ht for all partons (including b)
 0   = ht2min ! minimum Ht for the two leading jets
 0   = ht3min ! minimum Ht for the three leading jets
 0   = ht4min ! minimum Ht for the four leading jets
 -1  = ht2max ! maximum Ht for the two leading jets
 -1  = ht3max ! maximum Ht for the three leading jets
 -1  = ht4max ! maximum Ht for the four leading jets
#***********************************************************************
# Photon-isolation cuts, according to hep-ph/9801442                   *
# When ptgmin=0, all the other parameters are ignored                  *
# When ptgmin>0, pta and draj are not going to be used                 *
#***********************************************************************
   0 = ptgmin ! Min photon transverse momentum
 0.4 = R0gamma ! Radius of isolation code
 1.0 = xn ! n parameter of eq.(3.4) in hep-ph/9801442
 1.0 = epsgamma ! epsilon_gamma parameter of eq.(3.4) in hep-ph/9801442
 .true. = isoEM ! isolate photons from EM energy (photons and leptons)
#*********************************************************************
# WBF cuts                                                           *
#*********************************************************************
 0   = xetamin ! minimum rapidity for two jets in the WBF case  
 0   = deltaeta ! minimum rapidity for two jets in the WBF case 
#*********************************************************************
# KT DURHAM CUT                                                      *
#*********************************************************************
 -1    =  ktdurham        
 0.4  =  dparameter 
#*********************************************************************
# maximal pdg code for quark to be considered as a light jet         *
# (otherwise b cuts are applied)                                     *
#*********************************************************************
 4 = maxjetflavor    ! Maximum jet pdg code
#*********************************************************************
# Jet measure cuts                                                   *
#*********************************************************************
 0   = xqcut   ! minimum kt jet measure between partons
#*********************************************************************
#
#*********************************************************************
# Store info for systematics studies                                 *
# WARNING: If use_syst is T, matched Pythia output is                *
#          meaningful ONLY if plotted taking matchscale              *
#          reweighting into account!                                 *
#*********************************************************************
   F  = use_syst      ! Enable systematics studies
#
#**************************************
# Parameter of the systematics study
#  will be used by SysCalc (if installed)
#**************************************                                  
#
0.5 1 2 = sys_scalefact  # factorization/renormalization scale factor
0.5 1 2 = sys_alpsfact  # \alpha_s emission scale factors
30 50 = sys_matchscale # variation of merging scale
# PDF sets and number of members (0 or none for all members).
CT10nlo.LHgrid = sys_pdf # matching scales
# MSTW2008nlo68cl.LHgrid 1  = sys_pdf
</MGRunCard>
<slha>
######################################################################
## PARAM_CARD AUTOMATICALY GENERATED BY MG5 FOLLOWING UFO MODEL   ####
######################################################################
##                                                                  ##
##  Width set on Auto will be computed following the information    ##
##        present in the decay.py files of the model.               ##
##        See  arXiv:1402.1178 for more details.                    ##
##                                                                  ##
######################################################################

###################################
## INFORMATION FOR CKMBLOCK
###################################
Block ckmblock 
    1 2.277360e-01 # cabi 

###################################
## INFORMATION FOR FRBLOCK
###################################
Block frblock 
    1 4.000000e-01 # gz 

###################################
## INFORMATION FOR MASS
###################################
Block mass 
    1 5.040000e-03 # MD 
    2 2.550000e-03 # MU 
    3 1.010000e-01 # MS 
    4 1.270000e+00 # MC 
    5 4.700000e+00 # MB 
    6 1.720000e+02 # MT 
   11 5.110000e-04 # Me 
   13 1.056600e-01 # MM 
   15 1.777000e+00 # MTA 
   23 9.118760e+01 # MZ 
   25 1.200000e+02 # MH 
  10030 2.400000e+03 # MZph 
  10031 3.000000e+02 # MZpl 
## Dependent parameters, given by model restrictions.
## Those values should be edited following the 
## analytical expression. MG5 ignores those values 
## but they are important for interfacing the output of MG5
## to external program such as Pythia.
  12 0.000000 # ve : 0.0 
  14 0.000000 # vm : 0.0 
  16 0.000000 # vt : 0.0 
  21 0.000000 # g : 0.0 
  22 0.000000 # a : 0.0 
  24 79.824360 # w+ : cmath.sqrt(MZ__exp__2/2. + cmath.sqrt(MZ__exp__4/4. - (aEW*cmath.pi*MZ__exp__2)/(Gf*sqrt__2))) 

###################################
## INFORMATION FOR SMINPUTS
###################################
Block sminputs 
    1 1.279000e+02 # aEWM1 
    2 1.166370e-05 # Gf 
    3 1.184000e-01 # aS 

###################################
## INFORMATION FOR YUKAWA
###################################
Block yukawa 
    1 5.040000e-03 # ymdo 
    2 2.550000e-03 # ymup 
    3 1.010000e-01 # yms 
    4 1.270000e+00 # ymc 
    5 4.700000e+00 # ymb 
    6 1.720000e+02 # ymt 
   11 5.110000e-04 # yme 
   13 1.056600e-01 # ymm 
   15 1.777000e+00 # ymtau 

###################################
## INFORMATION FOR DECAY
###################################
DECAY   6 1.508336e+00 # WT 
DECAY  23 2.495200e+00 # WZ 
DECAY  24 2.085000e+00 # WW 
DECAY  25 5.753088e-03 # WH 
## Dependent parameters, given by model restrictions.
## Those values should be edited following the 
## analytical expression. MG5 ignores those values 
## but they are important for interfacing the output of MG5
## to external program such as Pythia.
DECAY  1 0.000000 # d : 0.0 
DECAY  2 0.000000 # u : 0.0 
DECAY  3 0.000000 # s : 0.0 
DECAY  4 0.000000 # c : 0.0 
DECAY  5 0.000000 # b : 0.0 
DECAY  11 0.000000 # e- : 0.0 
DECAY  12 0.000000 # ve : 0.0 
DECAY  13 0.000000 # mu- : 0.0 
DECAY  14 0.000000 # vm : 0.0 
DECAY  15 0.000000 # ta- : 0.0 
DECAY  16 0.000000 # vt : 0.0 
DECAY  21 0.000000 # g : 0.0 
DECAY  22 0.000000 # a : 0.0 
DECAY  10030 0.308725 # zph : (gz__exp__2*MZph*(5 + cmath.sqrt(1 - (4*MT__exp__2)/MZph__exp__2)))/(144.*cmath.pi) 
DECAY  10031 0.132629 # zpl : (5*gz__exp__2*MZpl)/(144.*cmath.pi) 
#===========================================================
# QUANTUM NUMBERS OF NEW STATE(S) (NON SM PDG CODE)
#===========================================================

Block QNUMBERS 10030  # zph 
        1 0  # 3 times electric charge
        2 3  # number of spin states (2S+1)
        3 1  # colour rep (1: singlet, 3: triplet, 8: octet)
        4 0  # Particle/Antiparticle distinction (0=own anti)
Block QNUMBERS 10031  # zpl 
        1 0  # 3 times electric charge
        2 3  # number of spin states (2S+1)
        3 1  # colour rep (1: singlet, 3: triplet, 8: octet)
        4 0  # Particle/Antiparticle distinction (0=own anti)
</slha>
## END BANNER##
<MGGenerationInfo>
#  Number of Events        :         3892
#  Integrated weight (pb)  :  0.14374E-02
#  Max wgt                 :  0.54405E-06
#  Average wgt             :  0.36932E-06
</MGGenerationInfo>
</header>
<init>
     2212     2212  0.40000000000E+04  0.40000000000E+04 0 0  247000  247000 2   1
  0.14385390645E-02  0.30011763925E-05  0.54405030000E-06   0
</init>
<event>
 5   0  0.5349036E-06  0.2402603E+04  0.7818609E-02  0.8438530E-01
        2   -1    0    0  501    0  0.00000000000E+00  0.00000000000E+00  0.14753532583E+04  0.14753532583E+04  0.25500000920E-02 0. -1.
       -2   -1    0    0    0  501  0.00000000000E+00  0.00000000000E+00 -0.97815605393E+03  0.97815605393E+03  0.25500000920E-02 0.  1.
    10030    2    1    2    0    0  0.00000000000E+00  0.00000000000E+00  0.49719720438E+03  0.24535093122E+04  0.24026033558E+04 0.  0.
        1    1    3    3  502    0  0.85747214353E+03  0.35433660404E+02  0.11070111226E+04  0.14007096940E+04  0.50400001928E-02 0. -1.
       -1    1    3    3    0  502 -0.85747214353E+03 -0.35433660404E+02 -0.60981391826E+03  0.10527996182E+04  0.50400001928E-02 0.  1.
</event>
<event>
 5   0  0.5349036E-06  0.2397801E+04  0.7818609E-02  0.8440327E-01
        2   -1    0    0  501    0  0.00000000000E+00  0.00000000000E+00  0.13701325589E+04  0.13701325589E+04  0.25500000920E-02 0.  1.
       -2   -1    0    0    0  501  0.00000000000E+00  0.00000000000E+00 -0.10490677007E+04  0.10490677007E+04  0.25500000920E-02 0. -1.
    10030    2    1    2    0    0  0.00000000000E+00  0.00000000000E+00  0.32106485827E+03  0.24192002596E+04  0.23978005031E+04 0.  0.
        1    1    3    3  502    0 -0.10492098999E+04 -0.21741105446E+03 -0.38208980315E+03  0.11375858642E+04  0.50400001928E-02 0. -1.
       -1    1    3    3    0  502  0.10492098999E+04  0.21741105446E+03  0.70315466141E+03  0.12816143954E+04  0.50400001928E-02 0.  1.
</event>
<event>
 5   0  0.5440503E-06  0.2399233E+04  0.7818609E-02  0.8439791E-01
       -2   -1    0    0    0  501  0.00000000000E+00  0.00000000000E+00  0.68810499914E+03  0.68810499914E+03  0.25500000920E-02 0. -1.
        2   -1    0    0  501    0  0.00000000000E+00  0.00000000000E+00 -0.20913656382E+04  0.20913656382E+04  0.25500000920E-02 0.  1.
    10030    2    1    2    0    0  0.00000000000E+00  0.00000000000E+00 -0.14032606391E+04  0.27794706374E+04  0.23992325029E+04 0.  0.
        3    1    3    3  502    0 -0.32378231281E+02  0.11989412058E+04 -0.72930754045E+03  0.14037086106E+04  0.10100000352E+00 0.  1.
       -3    1    3    3    0  502  0.32378231281E+02 -0.11989412058E+04 -0.67395309864E+03  0.13757620267E+04  0.10100000352E+00 0. -1.
</event>
<event>
 5   0  0.5349036E-06  0.2402488E+04  0.7818609E-02  0.8438573E-01
        2   -1    0    0  501    0  0.00000000000E+00  0.00000000000E+00  0.95152400761E+03  0.95152400761E+03  0.25500000920E-02 0. -1.
       -2   -1    0    0    0  501  0.00000000000E+00  0.00000000000E+00 -0.15165012780E+04  0.15165012780E+04  0.25500000920E-02 0.  1.
    10030    2    1    2    0    0  0.00000000000E+00  0.00000000000E+00 -0.56497727037E+03  0.24680252856E+04  0.24024881882E+04 0.  0.
        1    1    3    3  502    0  0.11474356151E+04  0.51970727202E+02  0.78783479376E+02  0.11513106809E+04  0.50400001928E-02 0.  1.
       -1    1    3    3    0  502 -0.11474356151E+04 -0.51970727202E+02 -0.64376074974E+03  0.13167146047E+04  0.50400001928E-02 0. -1.
</event>
<event>
 5   0  0.5440503E-06  0.2402799E+04  0.7818609E-02  0.8438457E-01
       -2   -1    0    0    0  501  0.00000000000E+00  0.00000000000E+00  0.62556134352E+03  0.62556134353E+03  0.25500000920E-02 0.  1.
        2   -1    0    0  501    0  0.00000000000E+00  0.00000000000E+00 -0.23073043801E+04  0.23073043801E+04  0.25500000920E-02 0. -1.
    10030    2    1    2    0    0  0.00000000000E+00  0.00000000000E+00 -0.16817430366E+04  0.29328657236E+04  0.24027987248E+04 0.  0.
        3    1    3    3  502    0  0.44009583177E+03  0.95066045759E+03 -0.15587701198E+04  0.18780851800E+04  0.10100000352E+00 0. -1.
       -3    1    3    3    0  502 -0.44009583177E+03 -0.95066045759E+03 -0.12297291680E+03  0.10547805436E+04  0.10100000352E+00 0.  1.
</event>
<event>
 5   0  0.2297414E-06  0.2422640E+04  0.7818609E-02  0.8431076E-01
        1   -1    0    0  501    0  0.00000000000E+00  0.00000000000E+00  0.13302982494E+04  0.13302982494E+04  0.50400001928E-02 0. -1.
       -1   -1    0    0    0  501  0.00000000000E+00  0.00000000000E+00 -0.11029824050E+04  0.11029824050E+04  0.50400001928E-02 0.  1.
    10030    2    1    2    0    0  0.00000000000E+00  0.00000000000E+00  0.22731584440E+03  0.24332806545E+04  0.24226395213E+04 0.  0.
        1    1    3    3  502    0 -0.65975587807E+03  0.10044739028E+04 -0.38830945969E+02  0.12023948945E+04  0.50400001928E-02 0.  1.
       -1    1    3    3    0  502  0.65975587807E+03 -0.10044739028E+04  0.26614679036E+03  0.12308857600E+04  0.50400001928E-02 0. -1.
</event>
<event>
 5   0  0.2215700E-06  0.2398554E+04  0.7818609E-02  0.8440045E-01
        1   -1    0    0  501    0  0.00000000000E+00  0.00000000000E+00  0.12301406329E+04  0.12301406329E+04  0.50400001928E-02 0. -1.
       -1   -1    0    0    0  501  0.00000000000E+00  0.00000000000E+00 -0.11691880665E+04  0.11691880665E+04  0.50400001928E-02 0.  1.
    10030    2    1    2    0    0  0.00000000000E+00  0.00000000000E+00  0.60952566473E+02  0.23993286994E+04  0.23985543547E+04 0.  0.
        3    1    3    3  502    0  0.92191046765E+03  0.26062874555E+03  0.75211023563E+03  0.12179967447E+04  0.10100000352E+00 0. -1.
       -3    1    3    3    0  502 -0.92191046765E+03 -0.26062874555E+03 -0.69115766916E+03  0.11813319547E+04  0.10100000352E+00 0.  1.
</event>
<event>
 5   0  0.5349036E-06  0.2401043E+04  0.7818609E-02  0.8439113E-01
        2   -1    0    0  501    0  0.00000000000E+00  0.00000000000E+00  0.21742309982E+04  0.21742309982E+04  0.25500000920E-02 0. -1.
       -2   -1    0    0    0  501  0.00000000000E+00  0.00000000000E+00 -0.66287900414E+03  0.66287900414E+03  0.25500000920E-02 0.  1.
    10030    2    1    2    0    0  0.00000000000E+00  0.00000000000E+00  0.15113519941E+04  0.28371100024E+04  0.24010431724E+04 0.  0.
        1    1    3    3  502    0 -0.10486691320E+04  0.56084108262E+03  0.56150807950E+03  0.13151201435E+04  0.50400001928E-02 0.  1.
       -1    1    3    3    0  502  0.10486691320E+04 -0.56084108262E+03  0.94984391459E+03  0.15219898589E+04  0.50400001928E-02 0. -1.
</event>
<event>
 5   0  0.2254269E-06  0.2399192E+04  0.7818609E-02  0.8439806E-01
        1   -1    0    0  501    0  0.00000000000E+00  0.00000000000E+00  0.15758136953E+04  0.15758136953E+04  0.50400001928E-02 0.  1.
       -1   -1    0    0    0  501  0.00000000000E+00  0.00000000000E+00 -0.91319824321E+03  0.91319824323E+03  0.50400001928E-02 0. -1.
    10030    2    1    2    0    0  0.00000000000E+00  0.00000000000E+00  0.66261545212E+03  0.24890119386E+04  0.23991917791E+04 0.  0.
        2    1    3    3  502    0  0.48248205155E+03  0.10612222778E+04  0.37786840941E+02  0.11663659367E+04  0.25500000920E-02 0. -1.
       -2    1    3    3    0  502 -0.48248205155E+03 -0.10612222778E+04  0.62482861118E+03  0.13226460019E+04  0.25500000920E-02 0.  1.
</event>
<event>
 5   0  0.5349036E-06  0.2403279E+04  0.7818609E-02  0.8438277E-01
        2   -1    0    0  501    0  0.00000000000E+00  0.00000000000E+00  0.94588197106E+03  0.94588197107E+03  0.25500000920E-02 0.  1.
       -2   -1    0    0    0  501  0.00000000000E+00  0.00000000000E+00 -0.15265511816E+04  0.15265511816E+04  0.25500000920E-02 0. -1.
    10030    2    1    2    0    0  0.00000000000E+00  0.00000000000E+00 -0.58066921057E+03  0.24724331527E+04  0.24032787942E+04 0.  0.
        1    1    3    3  502    0 -0.68179327661E+03 -0.23329424327E+03  0.69893244607E+03  0.10038798933E+04  0.50400001928E-02 0.  1.
       -1    1    3    3    0  502  0.68179327661E+03  0.23329424327E+03 -0.12796016566E+04  0.14685532594E+04  0.50400001928E-02 0. -1.
</event>
<event>
 5   0  0.2254269E-06  0.2394066E+04  0.7818609E-02  0.8441729E-01
       -1   -1    0    0    0  501  0.00000000000E+00  0.00000000000E+00  0.69183309639E+03  0.69183309640E+03  0.50400001928E-02 0. -1.
        1   -1    0    0  501    0  0.00000000000E+00  0.00000000000E+00 -0.20711464888E+04  0.20711464888E+04  0.50400001928E-02 0.  1.
    10030    2    1    2    0    0  0.00000000000E+00  0.00000000000E+00 -0.13793133924E+04  0.27629795852E+04  0.23940657371E+04 0.  0.
        2    1    3    3  502    0 -0.10745412691E+04  0.51596560660E+03 -0.81623016628E+03  0.14446768257E+04  0.25500000920E-02 0. -1.
       -2    1    3    3    0  502  0.10745412691E+04 -0.51596560660E+03 -0.56308322612E+03  0.13183027595E+04  0.25500000920E-02 0.  1.
</event>
<event>
 5   0  0.5379778E-06  0.2405647E+04  0.7818609E-02  0.8437392E-01
        2   -1    0    0  501    0  0.00000000000E+00  0.00000000000E+00  0.22945313768E+04  0.22945313768E+04  0.25500000920E-02 0.  1.
       -2   -1    0    0    0  501  0.00000000000E+00  0.00000000000E+00 -0.63053585024E+03  0.63053585024E+03  0.25500000920E-02 0. -1.
    10030    2    1    2    0    0  0.00000000000E+00  0.00000000000E+00  0.16639955266E+04  0.29250672271E+04  0.24056469339E+04 0.  0.
        5    1    3    3  502    0  0.40496892535E+03  0.10585843102E+04  0.13216390321E+04  0.17410779401E+04  0.46999998093E+01 0. -1.
       -5    1    3    3    0  502 -0.40496892535E+03 -0.10585843102E+04  0.34235649449E+03  0.11839892870E+04  0.46999998093E+01 0.  1.
</event>
<event>
 5   0  0.2149417E-06  0.2388114E+04  0.7818609E-02  0.8443967E-01
       -1   -1    0    0    0  501  0.00000000000E+00  0.00000000000E+00  0.65419176701E+03  0.65419176703E+03  0.50400001928E-02 0.  1.
        1   -1    0    0  501    0  0.00000000000E+00  0.00000000000E+00 -0.21794415346E+04  0.21794415346E+04  0.50400001928E-02 0. -1.
    10030    2    1    2    0    0  0.00000000000E+00  0.00000000000E+00 -0.15252497676E+04  0.28336333017E+04  0.23881144936E+04 0.  0.
        5    1    3    3  502    0  0.28723539650E+03 -0.32865995062E+03  0.55612446311E+03  0.70697810759E+03  0.46999998093E+01 0.  1.
       -5    1    3    3    0  502 -0.28723539650E+03  0.32865995062E+03 -0.20813742307E+04  0.21266551941E+04  0.46999998093E+01 0. -1.
</event>
<event>
 5   0  0.2297414E-06  0.2395301E+04  0.7818609E-02  0.8441265E-01
        1   -1    0    0  501    0  0.00000000000E+00  0.00000000000E+00  0.14573657051E+04  0.14573657051E+04  0.50400001928E-02 0. -1.
       -1   -1    0    0    0  501  0.00000000000E+00  0.00000000000E+00 -0.98421851082E+03  0.98421851083E+03  0.50400001928E-02 0.  1.
    10030    2    1    2    0    0  0.00000000000E+00  0.00000000000E+00  0.47314719426E+03  0.24415842159E+04  0.23953006525E+04 0.  0.
        1    1    3    3  502    0  0.85348751688E+03  0.83712564216E+03  0.30969550002E+03  0.12349621796E+04  0.50400001928E-02 0. -1.
       -1    1    3    3    0  502 -0.85348751688E+03 -0.83712564216E+03  0.16345169424E+03  0.12066220363E+04  0.50400001928E-02 0.  1.
</event>
<event>
 5   0  0.2215700E-06  0.2398661E+04  0.7818609E-02  0.8440005E-01
        1   -1    0    0  501    0  0.00000000000E+00  0.00000000000E+00  0.15994035370E+04  0.15994035370E+04  0.50400001928E-02 0. -1.
       -1   -1    0    0    0  501  0.00000000000E+00  0.00000000000E+00 -0.89933108974E+03  0.89933108975E+03  0.50400001928E-02 0.  1.
    10030    2    1    2    0    0  0.00000000000E+00  0.00000000000E+00  0.70007244723E+03  0.24987346267E+04  0.23986607312E+04 0.  0.
        3    1    3    3  502    0 -0.31465950542E+03  0.87220910606E+03 -0.44237985534E+03  0.10273554768E+04  0.10100000352E+00 0.  1.
       -3    1    3    3    0  502  0.31465950542E+03 -0.87220910606E+03  0.11424523026E+04  0.14713791499E+04  0.10100000352E+00 0. -1.
</event>
<event>
 5   0  0.2215700E-06  0.2435436E+04  0.7818609E-02  0.8426355E-01
       -1   -1    0    0    0  501  0.00000000000E+00  0.00000000000E+00  0.10927720643E+04  0.10927720643E+04  0.50400001928E-02 0. -1.
        1   -1    0    0  501    0  0.00000000000E+00  0.00000000000E+00 -0.13569504201E+04  0.13569504201E+04  0.50400001928E-02 0.  1.
    10030    2    1    2    0    0  0.00000000000E+00  0.00000000000E+00 -0.26417835580E+03  0.24497224844E+04  0.24354363155E+04 0.  0.
        3    1    3    3  502    0 -0.34529340299E+03 -0.55407513652E+03 -0.11660346008E+04  0.13363620361E+04  0.10100000352E+00 0.  1.
       -3    1    3    3    0  502  0.34529340299E+03  0.55407513652E+03  0.90185624500E+03  0.11133604483E+04  0.10100000352E+00 0. -1.
</event>
<event>
 5   0  0.5349036E-06  0.2380110E+04  0.7818609E-02  0.8446988E-01
        2   -1    0    0  501    0  0.00000000000E+00  0.00000000000E+00  0.14769263301E+04  0.14769263301E+04  0.25500000920E-02 0. -1.
       -2   -1    0    0    0  501  0.00000000000E+00  0.00000000000E+00 -0.95890457163E+03  0.95890457163E+03  0.25500000920E-02 0.  1.
    10030    2    1    2    0    0  0.00000000000E+00  0.00000000000E+00  0.51802175844E+03  0.24358309017E+04  0.23801104259E+04 0.  0.
        1    1    3    3  502    0 -0.43178473461E+02  0.11789833486E+04  0.99262725277E+02  0.11839422306E+04  0.50400001928E-02 0. -1.
       -1    1    3    3    0  502  0.43178473461E+02 -0.11789833486E+04  0.41875903316E+03  0.12518886711E+04  0.50400001928E-02 0.  1.
</event>
<event>
 5   0  0.2149029E-06  0.2398677E+04  0.7818609E-02  0.8439999E-01
        1   -1    0    0  501    0  0.00000000000E+00  0.00000000000E+00  0.12354664772E+04  0.12354664772E+04  0.50400001928E-02 0.  1.
       -1   -1    0    0    0  501  0.00000000000E+00  0.00000000000E+00 -0.11642666153E+04  0.11642666153E+04  0.50400001928E-02 0. -1.
    10030    2    1    2    0    0  0.00000000000E+00  0.00000000000E+00  0.71199861824E+02  0.23997330925E+04  0.23986766133E+04 0.  0.
        4    1    3    3  502    0  0.37570101779E+03 -0.39345404730E+03 -0.10337269651E+04  0.11681397149E+04  0.12699999809E+01 0. -1.
       -4    1    3    3    0  502 -0.37570101779E+03  0.39345404730E+03  0.11049268269E+04  0.12315933777E+04  0.12699999809E+01 0.  1.
</event>
<event>
 5   0  0.2297414E-06  0.2397867E+04  0.7818609E-02  0.8440303E-01
        1   -1    0    0  501    0  0.00000000000E+00  0.00000000000E+00  0.14821239184E+04  0.14821239184E+04  0.50400001928E-02 0. -1.
       -1   -1    0    0    0  501  0.00000000000E+00  0.00000000000E+00 -0.96985220652E+03  0.96985220653E+03  0.50400001928E-02 0.  1.
    10030    2    1    2    0    0  0.00000000000E+00  0.00000000000E+00  0.51227171184E+03  0.24519761249E+04  0.23978666790E+04 0.  0.
        1    1    3    3  502    0 -0.90672355017E+03  0.77851804652E+03  0.35423400384E+03  0.12464829219E+04  0.50400001928E-02 0. -1.
       -1    1    3    3    0  502  0.90672355017E+03 -0.77851804652E+03  0.15803770800E+03  0.12054932030E+04  0.50400001928E-02 0.  1.
</event>
<event>
 5   0  0.5268358E-06  0.2400315E+04  0.7818609E-02  0.8439386E-01
        2   -1    0    0  501    0  0.00000000000E+00  0.00000000000E+00  0.12015276084E+04  0.12015276084E+04  0.25500000920E-02 0. -1.
       -2   -1    0    0    0  501  0.00000000000E+00  0.00000000000E+00 -0.11987889671E+04  0.11987889671E+04  0.25500000920E-02 0.  1.
    10030    2    1    2    0    0  0.00000000000E+00  0.00000000000E+00  0.27386413044E+01  0.24003165754E+04  0.24003150131E+04 0.  0.
        2    1    3    3  502    0 -0.42895352743E+03  0.18144139887E+03  0.11074694623E+04  0.12014202927E+04  0.25500000920E-02 0. -1.
       -2    1    3    3    0  502  0.42895352743E+03 -0.18144139887E+03 -0.11047308210E+04  0.11988962827E+04  0.25500000920E-02 0.  1.
</event>
<event>
 5   0  0.2215700E-06  0.2399056E+04  0.7818609E-02  0.8439857E-01
        1   -1    0    0  501    0  0.00000000000E+00  0.00000000000E+00  0.13463260543E+04  0.13463260543E+04  0.50400001928E-02 0.  1.
       -1   -1    0    0    0  501  0.00000000000E+00  0.00000000000E+00 -0.10687358704E+04  0.10687358704E+04  0.50400001928E-02 0. -1.
    10030    2    1    2    0    0  0.00000000000E+00  0.00000000000E+00  0.27759018383E+03  0.24150619247E+04  0.23990556038E+04 0.  0.
        3    1    3    3  502    0 -0.36672790441E+03  0.85930994364E+03  0.89612021065E+03  0.12945788416E+04  0.10100000352E+00 0.  1.
       -3    1    3    3    0  502  0.36672790441E+03 -0.85930994364E+03 -0.61853002682E+03  0.11204830830E+04  0.10100000352E+00 0. -1.
</event>
<event>
 5   0  0.5440503E-06  0.2399779E+04  0.7818609E-02  0.8439586E-01
       -2   -1    0    0    0  501  0.00000000000E+00  0.00000000000E+00  0.56830365852E+03  0.56830365853E+03  0.25500000920E-02 0. -1.
        2   -1    0    0  501    0  0.00000000000E+00  0.00000000000E+00 -0.25333890476E+04  0.25333890476E+04  0.25500000920E-02 0.  1.
    10030    2    1    2    0    0  0.00000000000E+00  0.00000000000E+00 -0.19650853891E+04  0.31016927062E+04  0.23997785433E+04 0.  0.
        3    1    3    3  502    0 -0.76075698026E+02  0.67612460430E+03 -0.22599545166E+04  0.23601538974E+04  0.10100000352E+00 0.  1.
       -3    1    3    3    0  502  0.76075698026E+02 -0.67612460430E+03  0.29486912744E+03  0.74153880875E+03  0.10100000352E+00 0. -1.
</event>
<event>
 5   0  0.2297414E-06  0.2401398E+04  0.7818609E-02  0.8438980E-01
       -1   -1    0    0    0  501  0.00000000000E+00  0.00000000000E+00  0.65747578103E+03  0.65747578105E+03  0.50400001928E-02 0. -1.
        1   -1    0    0  501    0  0.00000000000E+00  0.00000000000E+00 -0.21927472193E+04  0.21927472193E+04  0.50400001928E-02 0.  1.
    10030    2    1    2    0    0  0.00000000000E+00  0.00000000000E+00 -0.15352714383E+04  0.28502230004E+04  0.24013980850E+04 0.  0.
        1    1    3    3  502    0  0.49170483383E+03 -0.78606221845E+03 -0.16731184631E+04  0.19128494051E+04  0.50400001928E-02 0.  1.
       -1    1    3    3    0  502 -0.49170483383E+03  0.78606221845E+03  0.13784702481E+03  0.93737359530E+03  0.50400001928E-02 0. -1.
</event>
<event>
 5   0  0.5268358E-06  0.2397918E+04  0.7818609E-02  0.8440283E-01
       -2   -1    0    0    0  501  0.00000000000E+00  0.00000000000E+00  0.10405429485E+04  0.10405429485E+04  0.25500000920E-02 0.  1.
        2   -1    0    0  501    0  0.00000000000E+00  0.00000000000E+00 -0.13814928213E+04  0.13814928213E+04  0.25500000920E-02 0. -1.
    10030    2    1    2    0    0  0.00000000000E+00  0.00000000000E+00 -0.34094987275E+03  0.24220357698E+04  0.23979179415E+04 0.  0.
        2    1    3    3  502    0  0.10081503882E+04  0.50076959443E+03 -0.58737955544E+03  0.12697055305E+04  0.25500000920E-02 0. -1.
       -2    1    3    3    0  502 -0.10081503882E+04 -0.50076959443E+03  0.24642968269E+03  0.11523302393E+04  0.25500000920E-02 0.  1.
</event>
<event>
 5   0  0.2254269E-06  0.2403337E+04  0.7818609E-02  0.8438255E-01
       -1   -1    0    0    0  501  0.00000000000E+00  0.00000000000E+00  0.15893431029E+04  0.15893431029E+04  0.50400001928E-02 0. -1.
        1   -1    0    0  501    0  0.00000000000E+00  0.00000000000E+00 -0.90855590512E+03  0.90855590513E+03  0.50400001928E-02 0.  1.
    10030    2    1    2    0    0  0.00000000000E+00  0.00000000000E+00  0.68078719781E+03  0.24978990081E+04  0.24033368981E+04 0.  0.
        2    1    3    3  502    0  0.11817793696E+04 -0.17655201680E+03  0.47281938824E+03  0.12850413483E+04  0.25500000920E-02 0. -1.
       -2    1    3    3    0  502 -0.11817793696E+04  0.17655201680E+03  0.20796780956E+03  0.12128576597E+04  0.25500000920E-02 0.  1.
</event>
<event>
 5   0  0.5440503E-06  0.2404663E+04  0.7818609E-02  0.8437760E-01
       -2   -1    0    0    0  501  0.00000000000E+00  0.00000000000E+00  0.10490990699E+04  0.10490990699E+04  0.25500000920E-02 0. -1.
        2   -1    0    0  501    0  0.00000000000E+00  0.00000000000E+00 -0.13779447949E+04  0.13779447949E+04  0.25500000920E-02 0.  1.
    10030    2    1    2    0    0  0.00000000000E+00  0.00000000000E+00 -0.32884572506E+03  0.24270438648E+04  0.24046626397E+04 0.  0.
        3    1    3    3  502    0 -0.45967108371E+03  0.76165540622E+03  0.65192163832E+03  0.11029135486E+04  0.10100000352E+00 0. -1.
       -3    1    3    3    0  502  0.45967108371E+03 -0.76165540622E+03 -0.98076736338E+03  0.13241303162E+04  0.10100000352E+00 0.  1.
</event>
<event>
 5   0  0.5379778E-06  0.2391127E+04  0.7818609E-02  0.8442833E-01
        2   -1    0    0  501    0  0.00000000000E+00  0.00000000000E+00  0.19339140645E+04  0.19339140645E+04  0.25500000920E-02 0.  1.
       -2   -1    0    0    0  501  0.00000000000E+00  0.00000000000E+00 -0.73910814703E+03  0.73910814703E+03  0.25500000920E-02 0. -1.
    10030    2    1    2    0    0  0.00000000000E+00  0.00000000000E+00  0.11948059175E+04  0.26730222116E+04  0.23911266305E+04 0.  0.
        5    1    3    3  502    0 -0.33083048960E+02  0.11850853131E+04  0.76996391601E+03  0.14136435935E+04  0.46999998093E+01 0. -1.
       -5    1    3    3    0  502  0.33083048960E+02 -0.11850853131E+04  0.42484200149E+03  0.12593786181E+04  0.46999998093E+01 0.  1.
</event>
<event>
 5   0  0.2254269E-06  0.2373665E+04  0.7818609E-02  0.8449429E-01
       -1   -1    0    0    0  501  0.00000000000E+00  0.00000000000E+00  0.93253241665E+03  0.93253241667E+03  0.50400001928E-02 0. -1.
        1   -1    0    0  501    0  0.00000000000E+00  0.00000000000E+00 -0.15104803684E+04  0.15104803684E+04  0.50400001928E-02 0.  1.
    10030    2    1    2    0    0  0.00000000000E+00  0.00000000000E+00 -0.57794795176E+03  0.24430127851E+04  0.23736654425E+04 0.  0.
        2    1    3    3  502    0  0.52161595024E+03 -0.18622445869E+03  0.79136345108E+03  0.96592901410E+03  0.25500000920E-02 0. -1.
       -2    1    3    3    0  502 -0.52161595024E+03  0.18622445869E+03 -0.13693114028E+04  0.14770837710E+04  0.25500000920E-02 0.  1.
</event>
<event>
 5   0  0.5440503E-06  0.2397639E+04  0.7818609E-02  0.8440388E-01
       -2   -1    0    0    0  501  0.00000000000E+00  0.00000000000E+00  0.86557361164E+03  0.86557361165E+03  0.25500000920E-02 0.  1.
        2   -1    0    0  501    0  0.00000000000E+00  0.00000000000E+00 -0.16603649342E+04  0.16603649342E+04  0.25500000920E-02 0. -1.
    10030    2    1    2    0    0  0.00000000000E+00  0.00000000000E+00 -0.79479132257E+03  0.25259385459E+04  0.23976388992E+04 0.  0.
        3    1    3    3  502    0 -0.42238000204E+03  0.32590911965E+03  0.73361896572E+03  0.90709338960E+03  0.10100000352E+00 0.  1.
       -3    1    3    3    0  502  0.42238000204E+03 -0.32590911965E+03 -0.15284102883E+04  0.16188451563E+04  0.10100000352E+00 0. -1.
</event>
<event>
 5   0  0.5349036E-06  0.2399174E+04  0.7818609E-02  0.8439813E-01
        2   -1    0    0  501    0  0.00000000000E+00  0.00000000000E+00  0.11980347332E+04  0.11980347332E+04  0.25500000920E-02 0. -1.
       -2   -1    0    0    0  501  0.00000000000E+00  0.00000000000E+00 -0.12011410335E+04  0.12011410335E+04  0.25500000920E-02 0.  1.
    10030    2    1    2    0    0  0.00000000000E+00  0.00000000000E+00 -0.31063002591E+01  0.23991757667E+04  0.23991737557E+04 0.  0.
        1    1    3    3  502    0  0.29701851096E+03  0.34417547714E+03 -0.11116585453E+04  0.12010251772E+04  0.50400001928E-02 0.  1.
       -1    1    3    3    0  502 -0.29701851096E+03 -0.34417547714E+03  0.11085522451E+04  0.11981505894E+04  0.50400001928E-02 0. -1.
</event>
<event>
 5   0  0.2149417E-06  0.2400149E+04  0.7818609E-02  0.8439448E-01
       -1   -1    0    0    0  501  0.00000000000E+00  0.00000000000E+00  0.10143297258E+04  0.10143297258E+04  0.50400001928E-02 0.  1.
        1   -1    0    0  501    0  0.00000000000E+00  0.00000000000E+00 -0.14198330482E+04  0.14198330482E+04  0.50400001928E-02 0. -1.
    10030    2    1    2    0    0  0.00000000000E+00  0.00000000000E+00 -0.40550332242E+03  0.24341627740E+04  0.24001490507E+04 0.  0.
        5    1    3    3  502    0 -0.16564502903E+03  0.12708347354E+03  0.99576063091E+03  0.10174231219E+04  0.46999998093E+01 0.  1.
       -5    1    3    3    0  502  0.16564502903E+03 -0.12708347354E+03 -0.14012639533E+04  0.14167396521E+04  0.46999998093E+01 0. -1.
</event>
<event>
 5   0  0.5440503E-06  0.2402192E+04  0.7818609E-02  0.8438684E-01
       -2   -1    0    0    0  501  0.00000000000E+00  0.00000000000E+00  0.82336314708E+03  0.82336314709E+03  0.25500000920E-02 0.  1.
        2   -1    0    0  501    0  0.00000000000E+00  0.00000000000E+00 -0.17521201403E+04  0.17521201403E+04  0.25500000920E-02 0. -1.
    10030    2    1    2    0    0  0.00000000000E+00  0.00000000000E+00 -0.92875699320E+03  0.25754832874E+04  0.24021916266E+04 0.  0.
        3    1    3    3  502    0  0.34825367499E+03  0.91776441776E+03 -0.12064497127E+04  0.15553433924E+04  0.10100000352E+00 0. -1.
       -3    1    3    3    0  502 -0.34825367499E+03 -0.91776441776E+03  0.27769271955E+03  0.10201398950E+04  0.10100000352E+00 0.  1.
</event>
<event>
 5   0  0.2149029E-06  0.2403199E+04  0.7818609E-02  0.8438307E-01
        1   -1    0    0  501    0  0.00000000000E+00  0.00000000000E+00  0.22260837593E+04  0.22260837593E+04  0.50400001928E-02 0. -1.
       -1   -1    0    0    0  501  0.00000000000E+00  0.00000000000E+00 -0.64860128528E+03  0.64860128530E+03  0.50400001928E-02 0.  1.
    10030    2    1    2    0    0  0.00000000000E+00  0.00000000000E+00  0.15774824741E+04  0.28746850446E+04  0.24031985249E+04 0.  0.
        4    1    3    3  502    0 -0.14618861655E+03 -0.64172533195E+03  0.19912892976E+04  0.20972403756E+04  0.12699999809E+01 0. -1.
       -4    1    3    3    0  502  0.14618861655E+03  0.64172533195E+03 -0.41380682358E+03  0.77744466904E+03  0.12699999809E+01 0.  1.
</event>
<event>
 5   0  0.2297414E-06  0.2407216E+04  0.7818609E-02  0.8436807E-01
       -1   -1    0    0    0  501  0.00000000000E+00  0.00000000000E+00  0.11553760767E+04  0.11553760767E+04  0.50400001928E-02 0. -1.
        1   -1    0    0  501    0  0.00000000000E+00  0.00000000000E+00 -0.12538531391E+04  0.12538531391E+04  0.50400001928E-02 0.  1.
    10030    2    1    2    0    0  0.00000000000E+00  0.00000000000E+00 -0.98477062382E+02  0.24092292158E+04  0.24072157532E+04 0.  0.
        1    1    3    3  502    0 -0.11647419724E+04 -0.29767518917E+03  0.94410476512E+01  0.12022160845E+04  0.50400001928E-02 0. -1.
       -1    1    3    3    0  502  0.11647419724E+04  0.29767518917E+03 -0.10791811003E+03  0.12070131312E+04  0.50400001928E-02 0.  1.
</event>
<event>
 5   0  0.2149417E-06  0.2394238E+04  0.7818609E-02  0.8441664E-01
        1   -1    0    0  501    0  0.00000000000E+00  0.00000000000E+00  0.12295114685E+04  0.12295114685E+04  0.50400001928E-02 0.  1.
       -1   -1    0    0    0  501  0.00000000000E+00  0.00000000000E+00 -0.11655800895E+04  0.11655800895E+04  0.50400001928E-02 0. -1.
    10030    2    1    2    0    0  0.00000000000E+00  0.00000000000E+00  0.63931379026E+02  0.23950915580E+04  0.23942381565E+04 0.  0.
        5    1    3    3  502    0 -0.92244391282E+03 -0.10986427380E+03 -0.72335248901E+03  0.11773843231E+04  0.46999998093E+01 0. -1.
       -5    1    3    3    0  502  0.92244391282E+03  0.10986427380E+03  0.78728386804E+03  0.12177072349E+04  0.46999998093E+01 0.  1.
</event>
<event>
 5   0  0.5371843E-06  0.2394082E+04  0.7818609E-02  0.8441722E-01
       -2   -1    0    0    0  501  0.00000000000E+00  0.00000000000E+00  0.12073460427E+04  0.12073460427E+04  0.25500000920E-02 0.  1.
        2   -1    0    0  501    0  0.00000000000E+00  0.00000000000E+00 -0.11868243761E+04  0.11868243761E+04  0.25500000920E-02 0. -1.
    10030    2    1    2    0    0  0.00000000000E+00  0.00000000000E+00  0.20521666547E+02  0.23941704188E+04  0.23940824663E+04 0.  0.
        4    1    3    3  502    0 -0.81948821903E+03 -0.87238814759E+03 -0.65944532158E+01  0.11969407341E+04  0.12699999809E+01 0. -1.
       -4    1    3    3    0  502  0.81948821903E+03  0.87238814759E+03  0.27116119763E+02  0.11972296847E+04  0.12699999809E+01 0.  1.
</event>
<event>
 5   0  0.5371843E-06  0.2400245E+04  0.7818609E-02  0.8439412E-01
       -2   -1    0    0    0  501  0.00000000000E+00  0.00000000000E+00  0.11881700083E+04  0.11881700083E+04  0.25500000920E-02 0.  1.
        2   -1    0    0  501    0  0.00000000000E+00  0.00000000000E+00 -0.12121953719E+04  0.12121953719E+04  0.25500000920E-02 0. -1.
    10030    2    1    2    0    0  0.00000000000E+00  0.00000000000E+00 -0.24025363648E+02  0.24003653802E+04  0.24002451417E+04 0.  0.
        4    1    3    3  502    0  0.92115293449E+03  0.76817915197E+03 -0.52888118707E+02  0.12005918142E+04  0.12699999809E+01 0.  1.
       -4    1    3    3    0  502 -0.92115293449E+03 -0.76817915197E+03  0.28862755060E+02  0.11997735660E+04  0.12699999809E+01 0. -1.
</event>
<event>
 5   0  0.2254269E-06  0.2396336E+04  0.7818609E-02  0.8440877E-01
       -1   -1    0    0    0  501  0.00000000000E+00  0.00000000000E+00  0.74769884981E+03  0.74769884983E+03  0.50400001928E-02 0.  1.
        1   -1    0    0  501    0  0.00000000000E+00  0.00000000000E+00 -0.19200330968E+04  0.19200330968E+04  0.50400001928E-02 0. -1.
    10030    2    1    2    0    0  0.00000000000E+00  0.00000000000E+00 -0.11723342470E+04  0.26677319467E+04  0.23963359849E+04 0.  0.
        2    1    3    3  502    0  0.29114465595E+03 -0.10255571719E+04 -0.11949797839E+04  0.16014085698E+04  0.25500000920E-02 0. -1.
       -2    1    3    3    0  502 -0.29114465595E+03  0.10255571719E+04  0.22645536870E+02  0.10663233768E+04  0.25500000920E-02 0.  1.
</event>
<event>
 5   0  0.2149417E-06  0.2398737E+04  0.7818609E-02  0.8439977E-01
        1   -1    0    0  501    0  0.00000000000E+00  0.00000000000E+00  0.10679154430E+04  0.10679154430E+04  0.50400001928E-02 0.  1.
       -1   -1    0    0    0  501  0.00000000000E+00  0.00000000000E+00 -0.13470022752E+04  0.13470022752E+04  0.50400001928E-02 0. -1.
    10030    2    1    2    0    0  0.00000000000E+00  0.00000000000E+00 -0.27908683218E+03  0.24149177182E+04  0.23987367771E+04 0.  0.
        5    1    3    3  502    0  0.42749948571E+03  0.33814268827E+03 -0.12150974639E+04  0.13317583207E+04  0.46999998093E+01 0. -1.
       -5    1    3    3    0  502 -0.42749948571E+03 -0.33814268827E+03  0.93601063170E+03  0.10831593976E+04  0.46999998093E+01 0.  1.
</event>
<event>
 5   0  0.2149417E-06  0.2400326E+04  0.7818609E-02  0.8439381E-01
       -1   -1    0    0    0  501  0.00000000000E+00  0.00000000000E+00  0.10294253483E+04  0.10294253483E+04  0.50400001928E-02 0.  1.
        1   -1    0    0  501    0  0.00000000000E+00  0.00000000000E+00 -0.13992190059E+04  0.13992190059E+04  0.50400001928E-02 0. -1.
    10030    2    1    2    0    0  0.00000000000E+00  0.00000000000E+00 -0.36979365763E+03  0.24286443542E+04  0.24003262382E+04 0.  0.
        5    1    3    3  502    0 -0.59869056348E+03 -0.61788945537E+03 -0.10315191392E+04  0.13432317724E+04  0.46999998093E+01 0. -1.
       -5    1    3    3    0  502  0.59869056348E+03  0.61788945537E+03  0.66172548155E+03  0.10854125818E+04  0.46999998093E+01 0.  1.
</event>
<event>
 5   0  0.5268358E-06  0.2400814E+04  0.7818609E-02  0.8439199E-01
        2   -1    0    0  501    0  0.00000000000E+00  0.00000000000E+00  0.10160487080E+04  0.10160487080E+04  0.25500000920E-02 0.  1.
       -2   -1    0    0    0  501  0.00000000000E+00  0.00000000000E+00 -0.14182161833E+04  0.14182161833E+04  0.25500000920E-02 0. -1.
    10030    2    1    2    0    0  0.00000000000E+00  0.00000000000E+00 -0.40216747528E+03  0.24342648912E+04  0.24008137959E+04 0.  0.
        2    1    3    3  502    0  0.24591141617E+03 -0.11525880937E+04  0.30228595656E+02  0.11789170906E+04  0.25500000920E-02 0.  1.
       -2    1    3    3    0  502 -0.24591141617E+03  0.11525880937E+04 -0.43239607094E+03  0.12553478007E+04  0.25500000920E-02 0. -1.
</event>
<event>
 5   0  0.5440503E-06  0.2393971E+04  0.7818609E-02  0.8441764E-01
       -2   -1    0    0    0  501  0.00000000000E+00  0.00000000000E+00  0.95473214911E+03  0.95473214911E+03  0.25500000920E-02 0. -1.
        2   -1    0    0  501    0  0.00000000000E+00  0.00000000000E+00 -0.15007086235E+04  0.15007086235E+04  0.25500000920E-02 0.  1.
    10030    2    1    2    0    0  0.00000000000E+00  0.00000000000E+00 -0.54597647441E+03  0.24554407726E+04  0.23939714028E+04 0.  0.
        3    1    3    3  502    0  0.59480304286E+03 -0.45843228067E+03  0.68305249370E+03  0.10151411405E+04  0.10100000352E+00 0. -1.
       -3    1    3    3    0  502 -0.59480304286E+03  0.45843228067E+03 -0.12290289681E+04  0.14402996322E+04  0.10100000352E+00 0.  1.
</event>
<event>
 5   0  0.5349036E-06  0.2392119E+04  0.7818609E-02  0.8442460E-01
        2   -1    0    0  501    0  0.00000000000E+00  0.00000000000E+00  0.17730519534E+04  0.17730519534E+04  0.25500000920E-02 0.  1.
       -2   -1    0    0    0  501  0.00000000000E+00  0.00000000000E+00 -0.80683379233E+03  0.80683379233E+03  0.25500000920E-02 0. -1.
    10030    2    1    2    0    0  0.00000000000E+00  0.00000000000E+00  0.96621816104E+03  0.25798857457E+04  0.23921189197E+04 0.  0.
        1    1    3    3  502    0 -0.68723498035E+03  0.54383999967E+03 -0.39472427711E+03  0.96117694439E+03  0.50400001928E-02 0. -1.
       -1    1    3    3    0  502  0.68723498035E+03 -0.54383999967E+03  0.13609424382E+04  0.16187088013E+04  0.50400001928E-02 0.  1.
</event>
<event>
 5   0  0.5268358E-06  0.2399922E+04  0.7818609E-02  0.8439533E-01
       -2   -1    0    0    0  501  0.00000000000E+00  0.00000000000E+00  0.45547013902E+03  0.45547013903E+03  0.25500000920E-02 0. -1.
        2   -1    0    0  501    0  0.00000000000E+00  0.00000000000E+00 -0.31613640714E+04  0.31613640714E+04  0.25500000920E-02 0.  1.
    10030    2    1    2    0    0  0.00000000000E+00  0.00000000000E+00 -0.27058939323E+04  0.36168342104E+04  0.23999224430E+04 0.  0.
        2    1    3    3  502    0 -0.70006500232E+03  0.94507109894E+03 -0.17116676616E+04  0.20767899685E+04  0.25500000920E-02 0.  1.
       -2    1    3    3    0  502  0.70006500232E+03 -0.94507109894E+03 -0.99422627078E+03  0.15400442419E+04  0.25500000920E-02 0. -1.
</event>
<event>
 5   0  0.5440503E-06  0.2391120E+04  0.7818609E-02  0.8442835E-01
        2   -1    0    0  501    0  0.00000000000E+00  0.00000000000E+00  0.21723808359E+04  0.21723808359E+04  0.25500000920E-02 0.  1.
       -2   -1    0    0    0  501  0.00000000000E+00  0.00000000000E+00 -0.65797125567E+03  0.65797125567E+03  0.25500000920E-02 0. -1.
    10030    2    1    2    0    0  0.00000000000E+00  0.00000000000E+00  0.15144095802E+04  0.28303520915E+04  0.23911203620E+04 0.  0.
        3    1    3    3  502    0  0.59124816546E+02 -0.47452122915E+03 -0.53984282492E+03  0.72117711185E+03  0.10100000352E+00 0. -1.
       -3    1    3    3    0  502 -0.59124816546E+02  0.47452122915E+03  0.20542524051E+04  0.21091749797E+04  0.10100000352E+00 0.  1.
</event>
<event>
 5   0  0.2149417E-06  0.2401295E+04  0.7818609E-02  0.8439019E-01
        1   -1    0    0  501    0  0.00000000000E+00  0.00000000000E+00  0.11368761944E+04  0.11368761944E+04  0.50400001928E-02 0. -1.
       -1   -1    0    0    0  501  0.00000000000E+00  0.00000000000E+00 -0.12679961465E+04  0.12679961465E+04  0.50400001928E-02 0.  1.
    10030    2    1    2    0    0  0.00000000000E+00  0.00000000000E+00 -0.13111995204E+03  0.24048723409E+04  0.24012951785E+04 0.  0.
        5    1    3    3  502    0  0.64681083530E+03  0.93982179379E+03 -0.44015364340E+03  0.12228600004E+04  0.46999998093E+01 0.  1.
       -5    1    3    3    0  502 -0.64681083530E+03 -0.93982179379E+03  0.30903369136E+03  0.11820123405E+04  0.46999998093E+01 0. -1.
</event>
<event>
 5   0  0.5379778E-06  0.2390538E+04  0.7818609E-02  0.8443054E-01
       -2   -1    0    0    0  501  0.00000000000E+00  0.00000000000E+00  0.65371767450E+03  0.65371767450E+03  0.25500000920E-02 0. -1.
        2   -1    0    0  501    0  0.00000000000E+00  0.00000000000E+00 -0.21854513313E+04  0.21854513313E+04  0.25500000920E-02 0.  1.
    10030    2    1    2    0    0  0.00000000000E+00  0.00000000000E+00 -0.15317336568E+04  0.28391690058E+04  0.23905381503E+04 0.  0.
        5    1    3    3  502    0  0.47415103408E+03 -0.81700312835E+03  0.10391980204E+03  0.95033400976E+03  0.46999998093E+01 0. -1.
       -5    1    3    3    0  502 -0.47415103408E+03  0.81700312835E+03 -0.16356534588E+04  0.18888349960E+04  0.46999998093E+01 0.  1.
</event>
<event>
 5   0  0.2149417E-06  0.2398774E+04  0.7818609E-02  0.8439963E-01
        1   -1    0    0  501    0  0.00000000000E+00  0.00000000000E+00  0.17714893685E+04  0.17714893686E+04  0.50400001928E-02 0. -1.
       -1   -1    0    0    0  501  0.00000000000E+00  0.00000000000E+00 -0.81204475211E+03  0.81204475213E+03  0.50400001928E-02 0.  1.
    10030    2    1    2    0    0  0.00000000000E+00  0.00000000000E+00  0.95944461643E+03  0.25835341207E+04  0.23987735576E+04 0.  0.
        5    1    3    3  502    0 -0.71925577606E+03 -0.91799270787E+03  0.78141769724E+03  0.14038073909E+04  0.46999998093E+01 0. -1.
       -5    1    3    3    0  502  0.71925577606E+03  0.91799270787E+03  0.17802691919E+03  0.11797267298E+04  0.46999998093E+01 0.  1.
</event>
<event>
 5   0  0.2215700E-06  0.2404952E+04  0.7818609E-02  0.8437652E-01
        1   -1    0    0  501    0  0.00000000000E+00  0.00000000000E+00  0.17129718346E+04  0.17129718346E+04  0.50400001928E-02 0.  1.
       -1   -1    0    0    0  501  0.00000000000E+00  0.00000000000E+00 -0.84411662349E+03  0.84411662350E+03  0.50400001928E-02 0. -1.
    10030    2    1    2    0    0  0.00000000000E+00  0.00000000000E+00  0.86885521115E+03  0.25570884581E+04  0.24049515598E+04 0.  0.
        3    1    3    3  502    0 -0.10076161318E+04  0.58200979449E+03  0.75679410977E+03  0.13880788899E+04  0.10100000352E+00 0. -1.
       -3    1    3    3    0  502  0.10076161318E+04 -0.58200979449E+03  0.11206110138E+03  0.11690095682E+04  0.10100000352E+00 0.  1.
</event>
<event>
 5   0  0.5440503E-06  0.2399298E+04  0.7818609E-02  0.8439767E-01
       -2   -1    0    0    0  501  0.00000000000E+00  0.00000000000E+00  0.84062500107E+03  0.84062500108E+03  0.25500000920E-02 0. -1.
        2   -1    0    0  501    0  0.00000000000E+00  0.00000000000E+00 -0.17120085195E+04  0.17120085195E+04  0.25500000920E-02 0.  1.
    10030    2    1    2    0    0  0.00000000000E+00  0.00000000000E+00 -0.87138351840E+03  0.25526335206E+04  0.23992975335E+04 0.  0.
        3    1    3    3  502    0  0.11136741703E+04 -0.16625479413E+03  0.45740995306E+01  0.11260247540E+04  0.10100000352E+00 0. -1.
       -3    1    3    3    0  502 -0.11136741703E+04  0.16625479413E+03 -0.87595761793E+03  0.14266087665E+04  0.10100000352E+00 0.  1.
</event>
<event>
 5   0  0.2297414E-06  0.2414436E+04  0.7818609E-02  0.8434119E-01
        1   -1    0    0  501    0  0.00000000000E+00  0.00000000000E+00  0.13430509268E+04  0.13430509268E+04  0.50400001928E-02 0. -1.
       -1   -1    0    0    0  501  0.00000000000E+00  0.00000000000E+00 -0.10851230417E+04  0.10851230417E+04  0.50400001928E-02 0.  1.
    10030    2    1    2    0    0  0.00000000000E+00  0.00000000000E+00  0.25792788511E+03  0.24281739685E+04  0.24144361718E+04 0.  0.
        1    1    3    3  502    0 -0.41983922035E+03 -0.87766926390E+03  0.84773829946E+03  0.12904373414E+04  0.50400001928E-02 0. -1.
       -1    1    3    3    0  502  0.41983922035E+03  0.87766926390E+03 -0.58981041435E+03  0.11377366271E+04  0.50400001928E-02 0.  1.
</event>
<event>
 5   0  0.2149417E-06  0.2397570E+04  0.7818609E-02  0.8440414E-01
        1   -1    0    0  501    0  0.00000000000E+00  0.00000000000E+00  0.11798239682E+04  0.11798239682E+04  0.50400001928E-02 0.  1.
       -1   -1    0    0    0  501  0.00000000000E+00  0.00000000000E+00 -0.12180507626E+04  0.12180507626E+04  0.50400001928E-02 0. -1.
    10030    2    1    2    0    0  0.00000000000E+00  0.00000000000E+00 -0.38226794355E+02  0.23978747308E+04  0.23975700066E+04 0.  0.
        5    1    3    3  502    0  0.50536202388E+03  0.10409686521E+04 -0.33229355523E+03  0.12039300672E+04  0.46999998093E+01 0.  1.
       -5    1    3    3    0  502 -0.50536202388E+03 -0.10409686521E+04  0.29406676088E+03  0.11939446636E+04  0.46999998093E+01 0. -1.
</event>
<event>
 5   0  0.2149029E-06  0.2372923E+04  0.7818609E-02  0.8449711E-01
        1   -1    0    0  501    0  0.00000000000E+00  0.00000000000E+00  0.14607527265E+04  0.14607527265E+04  0.50400001928E-02 0.  1.
       -1   -1    0    0    0  501  0.00000000000E+00  0.00000000000E+00 -0.96367473400E+03  0.96367473401E+03  0.50400001928E-02 0. -1.
    10030    2    1    2    0    0  0.00000000000E+00  0.00000000000E+00  0.49707799245E+03  0.24244274605E+04  0.23729226664E+04 0.  0.
        4    1    3    3  502    0  0.21136705464E+03  0.11674529158E+04  0.25687324933E+03  0.12139224940E+04  0.12699999809E+01 0.  1.
       -4    1    3    3    0  502 -0.21136705464E+03 -0.11674529158E+04  0.24020474313E+03  0.12105049665E+04  0.12699999809E+01 0. -1.
</event>
<event>
 5   0  0.2149417E-06  0.2400903E+04  0.7818609E-02  0.8439166E-01
       -1   -1    0    0    0  501  0.00000000000E+00  0.00000000000E+00  0.83993710925E+03  0.83993710927E+03  0.50400001928E-02 0.  1.
        1   -1    0    0  501    0  0.00000000000E+00  0.00000000000E+00 -0.17157045722E+04  0.17157045722E+04  0.50400001928E-02 0. -1.
    10030    2    1    2    0    0  0.00000000000E+00  0.00000000000E+00 -0.87576746291E+03  0.25556416814E+04  0.24009031123E+04 0.  0.
        5    1    3    3  502    0  0.10090233349E+04 -0.45224578685E+03 -0.93534481171E+03  0.14482908371E+04  0.46999998093E+01 0. -1.
       -5    1    3    3    0  502 -0.10090233349E+04  0.45224578685E+03  0.59577348798E+02  0.11073508444E+04  0.46999998093E+01 0.  1.
</event>
<event>
 5   0  0.5371843E-06  0.2401218E+04  0.7818609E-02  0.8439048E-01
        2   -1    0    0  501    0  0.00000000000E+00  0.00000000000E+00  0.22358374244E+04  0.22358374244E+04  0.25500000920E-02 0.  1.
       -2   -1    0    0    0  501  0.00000000000E+00  0.00000000000E+00 -0.64470767732E+03  0.64470767733E+03  0.25500000920E-02 0. -1.
    10030    2    1    2    0    0  0.00000000000E+00  0.00000000000E+00  0.15911297471E+04  0.28805451018E+04  0.24012176518E+04 0.  0.
        4    1    3    3  502    0 -0.42289772801E+03 -0.96845447724E+03  0.11197874328E+03  0.10626793565E+04  0.12699999809E+01 0.  1.
       -4    1    3    3    0  502  0.42289772801E+03  0.96845447724E+03  0.14791510038E+04  0.18178657453E+04  0.12699999809E+01 0. -1.
</event>
<event>
 5   0  0.5349036E-06  0.2392518E+04  0.7818609E-02  0.8442310E-01
        2   -1    0    0  501    0  0.00000000000E+00  0.00000000000E+00  0.91405895285E+03  0.91405895285E+03  0.25500000920E-02 0. -1.
       -2   -1    0    0    0  501  0.00000000000E+00  0.00000000000E+00 -0.15655837458E+04  0.15655837458E+04  0.25500000920E-02 0.  1.
    10030    2    1    2    0    0  0.00000000000E+00  0.00000000000E+00 -0.65152479291E+03  0.24796426986E+04  0.23925182041E+04 0.  0.
        1    1    3    3  502    0  0.45617443541E+03 -0.22264649284E+03 -0.14484300476E+04  0.15348016742E+04  0.50400001928E-02 0.  1.
       -1    1    3    3    0  502 -0.45617443541E+03  0.22264649284E+03  0.79690525473E+03  0.94484102438E+03  0.50400001928E-02 0. -1.
</event>
<event>
 5   0  0.2149029E-06  0.2385415E+04  0.7818609E-02  0.8444984E-01
       -1   -1    0    0    0  501  0.00000000000E+00  0.00000000000E+00  0.63416088455E+03  0.63416088457E+03  0.50400001928E-02 0.  1.
        1   -1    0    0  501    0  0.00000000000E+00  0.00000000000E+00 -0.22432016550E+04  0.22432016550E+04  0.50400001928E-02 0. -1.
    10030    2    1    2    0    0  0.00000000000E+00  0.00000000000E+00 -0.16090407705E+04  0.28773625396E+04  0.23854146355E+04 0.  0.
        4    1    3    3  502    0  0.86818670367E+02 -0.26406334711E+03  0.59454304133E+03  0.65631545289E+03  0.12699999809E+01 0.  1.
       -4    1    3    3    0  502 -0.86818670367E+02  0.26406334711E+03 -0.22035838118E+04  0.22210470867E+04  0.12699999809E+01 0. -1.
</event>
<event>
 5   0  0.5268358E-06  0.2396852E+04  0.7818609E-02  0.8440683E-01
        2   -1    0    0  501    0  0.00000000000E+00  0.00000000000E+00  0.14120463924E+04  0.14120463924E+04  0.25500000920E-02 0.  1.
       -2   -1    0    0    0  501  0.00000000000E+00  0.00000000000E+00 -0.10171234039E+04  0.10171234039E+04  0.25500000920E-02 0. -1.
    10030    2    1    2    0    0  0.00000000000E+00  0.00000000000E+00  0.39492298849E+03  0.24291697963E+04  0.23968524636E+04 0.  0.
        2    1    3    3  502    0 -0.72153282813E+03  0.90097287899E+03 -0.12916275779E+03  0.11614838650E+04  0.25500000920E-02 0. -1.
       -2    1    3    3    0  502  0.72153282813E+03 -0.90097287899E+03  0.52408574628E+03  0.12676859312E+04  0.25500000920E-02 0.  1.
</event>
<event>
 5   0  0.2149417E-06  0.2397561E+04  0.7818609E-02  0.8440417E-01
        1   -1    0    0  501    0  0.00000000000E+00  0.00000000000E+00  0.98384448539E+03  0.98384448540E+03  0.50400001928E-02 0. -1.
       -1   -1    0    0    0  501  0.00000000000E+00  0.00000000000E+00 -0.14606720056E+04  0.14606720056E+04  0.50400001928E-02 0.  1.
    10030    2    1    2    0    0  0.00000000000E+00  0.00000000000E+00 -0.47682752017E+03  0.24445164910E+04  0.23975605082E+04 0.  0.
        5    1    3    3  502    0  0.41875057923E+03  0.11232243695E+04 -0.24675791831E+03  0.12238858574E+04  0.46999998093E+01 0. -1.
       -5    1    3    3    0  502 -0.41875057923E+03 -0.11232243695E+04 -0.23006960186E+03  0.12206306335E+04  0.46999998093E+01 0.  1.
</event>
<event>
 5   0  0.5268358E-06  0.2384920E+04  0.7818609E-02  0.8445171E-01
        2   -1    0    0  501    0  0.00000000000E+00  0.00000000000E+00  0.24383444273E+04  0.24383444273E+04  0.25500000920E-02 0.  1.
       -2   -1    0    0    0  501  0.00000000000E+00  0.00000000000E+00 -0.58316647815E+03  0.58316647815E+03  0.25500000920E-02 0. -1.
    10030    2    1    2    0    0  0.00000000000E+00  0.00000000000E+00  0.18551779491E+04  0.30215109054E+04  0.23849198998E+04 0.  0.
        2    1    3    3  502    0  0.50950176373E+03  0.55856080332E+03 -0.24071675886E+03  0.79342723438E+03  0.25500000920E-02 0. -1.
       -2    1    3    3    0  502 -0.50950176373E+03 -0.55856080332E+03  0.20958947080E+04  0.22280836710E+04  0.25500000920E-02 0.  1.
</event>
<event>
 5   0  0.2149029E-06  0.2359262E+04  0.7818609E-02  0.8454915E-01
        1   -1    0    0  501    0  0.00000000000E+00  0.00000000000E+00  0.14731085445E+04  0.14731085445E+04  0.50400001928E-02 0.  1.
       -1   -1    0    0    0  501  0.00000000000E+00  0.00000000000E+00 -0.94462123399E+03  0.94462123400E+03  0.50400001928E-02 0. -1.
    10030    2    1    2    0    0  0.00000000000E+00  0.00000000000E+00  0.52848731054E+03  0.24177297785E+04  0.23592622670E+04 0.  0.
        4    1    3    3  502    0  0.36536374312E+03  0.22093613471E+03  0.13911427164E+04  0.14551917780E+04  0.12699999809E+01 0.  1.
       -4    1    3    3    0  502 -0.36536374312E+03 -0.22093613471E+03 -0.86265540585E+03  0.96253800057E+03  0.12699999809E+01 0. -1.
</event>
<event>
 5   0  0.2149029E-06  0.2399872E+04  0.7818609E-02  0.8439551E-01
       -1   -1    0    0    0  501  0.00000000000E+00  0.00000000000E+00  0.14167535700E+04  0.14167535701E+04  0.50400001928E-02 0.  1.
        1   -1    0    0  501    0  0.00000000000E+00  0.00000000000E+00 -0.10163001340E+04  0.10163001340E+04  0.50400001928E-02 0. -1.
    10030    2    1    2    0    0  0.00000000000E+00  0.00000000000E+00  0.40045343602E+03  0.24330537041E+04  0.23998723659E+04 0.  0.
        4    1    3    3  502    0 -0.45147594402E+03 -0.35925924501E+03 -0.86643586633E+03  0.10409661169E+04  0.12699999809E+01 0. -1.
       -4    1    3    3    0  502  0.45147594402E+03  0.35925924501E+03  0.12668893023E+04  0.13920875872E+04  0.12699999809E+01 0.  1.
</event>
<event>
 5   0  0.2149029E-06  0.2398959E+04  0.7818609E-02  0.8439893E-01
       -1   -1    0    0    0  501  0.00000000000E+00  0.00000000000E+00  0.13343083725E+04  0.13343083725E+04  0.50400001928E-02 0.  1.
        1   -1    0    0  501    0  0.00000000000E+00  0.00000000000E+00 -0.10782745734E+04  0.10782745734E+04  0.50400001928E-02 0. -1.
    10030    2    1    2    0    0  0.00000000000E+00  0.00000000000E+00  0.25603379913E+03  0.24125829459E+04  0.23989587667E+04 0.  0.
        4    1    3    3  502    0 -0.78648688664E+03  0.59551920285E+03  0.81420003440E+03  0.12791122127E+04  0.12699999809E+01 0.  1.
       -4    1    3    3    0  502  0.78648688664E+03 -0.59551920285E+03 -0.55816623527E+03  0.11334707332E+04  0.12699999809E+01 0. -1.
</event>
<event>
 5   0  0.5371843E-06  0.2385402E+04  0.7818609E-02  0.8444989E-01
       -2   -1    0    0    0  501  0.00000000000E+00  0.00000000000E+00  0.10826387944E+04  0.10826387944E+04  0.25500000920E-02 0. -1.
        2   -1    0    0  501    0  0.00000000000E+00  0.00000000000E+00 -0.13139527665E+04  0.13139527665E+04  0.25500000920E-02 0.  1.
    10030    2    1    2    0    0  0.00000000000E+00  0.00000000000E+00 -0.23131397207E+03  0.23965915609E+04  0.23854024726E+04 0.  0.
        4    1    3    3  502    0 -0.10794335625E+03  0.95995208146E+02 -0.13051308546E+04  0.13131012941E+04  0.12699999809E+01 0.  1.
       -4    1    3    3    0  502  0.10794335625E+03 -0.95995208146E+02  0.10738168825E+04  0.10834902668E+04  0.12699999809E+01 0. -1.
</event>
<event>
 5   0  0.1796750E-06  0.2400706E+04  0.7818609E-02  0.8439239E-01
       -3   -1    0    0    0  501  0.00000000000E+00  0.00000000000E+00  0.76343772495E+03  0.76343773163E+03  0.10100000352E+00 0.  1.
        3   -1    0    0  501    0  0.00000000000E+00  0.00000000000E+00 -0.18873145710E+04  0.18873145737E+04  0.10100000352E+00 0. -1.
    10030    2    1    2    0    0  0.00000000000E+00  0.00000000000E+00 -0.11238768461E+04  0.26507523053E+04  0.24007058585E+04 0.  0.
        1    1    3    3  502    0  0.52156062263E+03 -0.10477583261E+04 -0.85619979380E+03  0.14501382968E+04  0.50400001928E-02 0. -1.
       -1    1    3    3    0  502 -0.52156062263E+03  0.10477583261E+04 -0.26767705227E+03  0.12006140085E+04  0.50400001928E-02 0.  1.
</event>
<event>
 5   0  0.5379778E-06  0.2387077E+04  0.7818609E-02  0.8444358E-01
        2   -1    0    0  501    0  0.00000000000E+00  0.00000000000E+00  0.17220196649E+04  0.17220196649E+04  0.25500000920E-02 0. -1.
       -2   -1    0    0    0  501  0.00000000000E+00  0.00000000000E+00 -0.82724587652E+03  0.82724587652E+03  0.25500000920E-02 0.  1.
    10030    2    1    2    0    0  0.00000000000E+00  0.00000000000E+00  0.89477378840E+03  0.25492655414E+04  0.23870765946E+04 0.  0.
        5    1    3    3  502    0  0.13719508136E+03  0.46663704451E+02 -0.81780593585E+03  0.83055922750E+03  0.46999998093E+01 0.  1.
       -5    1    3    3    0  502 -0.13719508136E+03 -0.46663704451E+02  0.17125797243E+04  0.17187063139E+04  0.46999998093E+01 0. -1.
</event>
<event>
 5   0  0.5379778E-06  0.2397244E+04  0.7818609E-02  0.8440536E-01
       -2   -1    0    0    0  501  0.00000000000E+00  0.00000000000E+00  0.67436419835E+03  0.67436419836E+03  0.25500000920E-02 0. -1.
        2   -1    0    0  501    0  0.00000000000E+00  0.00000000000E+00 -0.21304438852E+04  0.21304438852E+04  0.25500000920E-02 0.  1.
    10030    2    1    2    0    0  0.00000000000E+00  0.00000000000E+00 -0.14560796869E+04  0.28048080836E+04  0.23972443203E+04 0.  0.
        5    1    3    3  502    0  0.87812959716E+03 -0.75380559594E+03 -0.10930737757E+04  0.15919066666E+04  0.46999998093E+01 0.  1.
       -5    1    3    3    0  502 -0.87812959716E+03  0.75380559594E+03 -0.36300591114E+03  0.12129014170E+04  0.46999998093E+01 0. -1.
</event>
<event>
 5   0  0.5371843E-06  0.2400796E+04  0.7818609E-02  0.8439206E-01
        2   -1    0    0  501    0  0.00000000000E+00  0.00000000000E+00  0.18215327082E+04  0.18215327082E+04  0.25500000920E-02 0. -1.
       -2   -1    0    0    0  501  0.00000000000E+00  0.00000000000E+00 -0.79106758056E+03  0.79106758057E+03  0.25500000920E-02 0.  1.
    10030    2    1    2    0    0  0.00000000000E+00  0.00000000000E+00  0.10304651277E+04  0.26126002888E+04  0.24007960950E+04 0.  0.
        4    1    3    3  502    0 -0.47332166981E+03  0.58124895402E+03 -0.50507111185E+03  0.90387067138E+03  0.12699999809E+01 0.  1.
       -4    1    3    3    0  502  0.47332166981E+03 -0.58124895402E+03  0.15355362395E+04  0.17087296174E+04  0.12699999809E+01 0. -1.
</event>
<event>
 5   0  0.2297414E-06  0.2404517E+04  0.7818609E-02  0.8437815E-01
       -1   -1    0    0    0  501  0.00000000000E+00  0.00000000000E+00  0.56823214832E+03  0.56823214834E+03  0.50400001928E-02 0.  1.
        1   -1    0    0  501    0  0.00000000000E+00  0.00000000000E+00 -0.25437227292E+04  0.25437227292E+04  0.50400001928E-02 0. -1.
    10030    2    1    2    0    0  0.00000000000E+00  0.00000000000E+00 -0.19754905809E+04  0.31119548776E+04  0.24045166094E+04 0.  0.
        1    1    3    3  502    0 -0.75031075378E+03  0.41528232269E+03 -0.20782674618E+04  0.22482484911E+04  0.50400001928E-02 0. -1.
       -1    1    3    3    0  502  0.75031075378E+03 -0.41528232269E+03  0.10277688092E+03  0.86370638649E+03  0.50400001928E-02 0.  1.
</event>
<event>
 5   0  0.2254269E-06  0.2404333E+04  0.7818609E-02  0.8437883E-01
       -1   -1    0    0    0  501  0.00000000000E+00  0.00000000000E+00  0.74075562664E+03  0.74075562666E+03  0.50400001928E-02 0. -1.
        1   -1    0    0  501    0  0.00000000000E+00  0.00000000000E+00 -0.19509861665E+04  0.19509861665E+04  0.50400001928E-02 0.  1.
    10030    2    1    2    0    0  0.00000000000E+00  0.00000000000E+00 -0.12102305398E+04  0.26917417931E+04  0.24043327393E+04 0.  0.
        2    1    3    3  502    0  0.90877902943E+03 -0.77786336662E+03 -0.47145706949E+03  0.12857770063E+04  0.25500000920E-02 0. -1.
       -2    1    3    3    0  502 -0.90877902943E+03  0.77786336662E+03 -0.73877347034E+03  0.14059647869E+04  0.25500000920E-02 0.  1.
</event>
<event>
 5   0  0.5268358E-06  0.2401755E+04  0.7818609E-02  0.8438847E-01
       -2   -1    0    0    0  501  0.00000000000E+00  0.00000000000E+00  0.18109350963E+04  0.18109350963E+04  0.25500000920E-02 0. -1.
        2   -1    0    0  501    0  0.00000000000E+00  0.00000000000E+00 -0.79633299111E+03  0.79633299112E+03  0.25500000920E-02 0.  1.
    10030    2    1    2    0    0  0.00000000000E+00  0.00000000000E+00  0.10146021052E+04  0.26072680874E+04  0.24017554929E+04 0.  0.
        2    1    3    3  502    0  0.44045987657E+03  0.18503600349E+03 -0.68872857112E+03  0.83820657964E+03  0.25500000920E-02 0.  1.
       -2    1    3    3    0  502 -0.44045987657E+03 -0.18503600349E+03  0.17033306763E+04  0.17690615078E+04  0.25500000920E-02 0. -1.
</event>
<event>
 5   0  0.2254269E-06  0.2394654E+04  0.7818609E-02  0.8441508E-01
       -1   -1    0    0    0  501  0.00000000000E+00  0.00000000000E+00  0.78654189102E+03  0.78654189104E+03  0.50400001928E-02 0.  1.
        1   -1    0    0  501    0  0.00000000000E+00  0.00000000000E+00 -0.18226521097E+04  0.18226521097E+04  0.50400001928E-02 0. -1.
    10030    2    1    2    0    0  0.00000000000E+00  0.00000000000E+00 -0.10361102187E+04  0.26091940007E+04  0.23946542440E+04 0.  0.
        2    1    3    3  502    0 -0.80190818246E+03 -0.78812801111E+03 -0.69612254489E+02  0.11265204663E+04  0.25500000920E-02 0.  1.
       -2    1    3    3    0  502  0.80190818246E+03  0.78812801111E+03 -0.96649796418E+03  0.14826735344E+04  0.25500000920E-02 0. -1.
</event>
<event>
 5   0  0.5440503E-06  0.2400245E+04  0.7818609E-02  0.8439412E-01
        2   -1    0    0  501    0  0.00000000000E+00  0.00000000000E+00  0.12519923420E+04  0.12519923420E+04  0.25500000920E-02 0.  1.
       -2   -1    0    0    0  501  0.00000000000E+00  0.00000000000E+00 -0.11504013762E+04  0.11504013762E+04  0.25500000920E-02 0. -1.
    10030    2    1    2    0    0  0.00000000000E+00  0.00000000000E+00  0.10159096580E+03  0.24023937182E+04  0.24002447485E+04 0.  0.
        3    1    3    3  502    0  0.61466234956E+03  0.91902302913E+03 -0.41639921754E+03  0.11814404135E+04  0.10100000352E+00 0. -1.
       -3    1    3    3    0  502 -0.61466234956E+03 -0.91902302913E+03  0.51799018334E+03  0.12209533047E+04  0.10100000352E+00 0.  1.
</event>
<event>
 5   0  0.5379778E-06  0.2405210E+04  0.7818609E-02  0.8437556E-01
        2   -1    0    0  501    0  0.00000000000E+00  0.00000000000E+00  0.15683027549E+04  0.15683027549E+04  0.25500000920E-02 0.  1.
       -2   -1    0    0    0  501  0.00000000000E+00  0.00000000000E+00 -0.92218071920E+03  0.92218071920E+03  0.25500000920E-02 0. -1.
    10030    2    1    2    0    0  0.00000000000E+00  0.00000000000E+00  0.64612203567E+03  0.24904834741E+04  0.24052098141E+04 0.  0.
        5    1    3    3  502    0  0.11562989207E+04  0.13150951128E+03  0.63698375664E+03  0.13266847183E+04  0.46999998093E+01 0. -1.
       -5    1    3    3    0  502 -0.11562989207E+04 -0.13150951128E+03  0.91382790346E+01  0.11637987557E+04  0.46999998093E+01 0.  1.
</event>
<event>
 5   0  0.2149417E-06  0.2398697E+04  0.7818609E-02  0.8439991E-01
       -1   -1    0    0    0  501  0.00000000000E+00  0.00000000000E+00  0.13712651338E+04  0.13712651338E+04  0.50400001928E-02 0.  1.
        1   -1    0    0  501    0  0.00000000000E+00  0.00000000000E+00 -0.10489853322E+04  0.10489853322E+04  0.50400001928E-02 0. -1.
    10030    2    1    2    0    0  0.00000000000E+00  0.00000000000E+00  0.32227980162E+03  0.24202504660E+04  0.23986971563E+04 0.  0.
        5    1    3    3  502    0 -0.60670859404E+03  0.76693661930E+03 -0.53945341710E+03  0.11168344440E+04  0.46999998093E+01 0. -1.
       -5    1    3    3    0  502  0.60670859404E+03 -0.76693661930E+03  0.86173321872E+03  0.13034160220E+04  0.46999998093E+01 0.  1.
</event>
<event>
 5   0  0.2215700E-06  0.2383199E+04  0.7818609E-02  0.8445820E-01
       -1   -1    0    0    0  501  0.00000000000E+00  0.00000000000E+00  0.70427988365E+03  0.70427988367E+03  0.50400001928E-02 0. -1.
        1   -1    0    0  501    0  0.00000000000E+00  0.00000000000E+00 -0.20161159206E+04  0.20161159207E+04  0.50400001928E-02 0.  1.
    10030    2    1    2    0    0  0.00000000000E+00  0.00000000000E+00 -0.13118360370E+04  0.27203958043E+04  0.23831994344E+04 0.  0.
        3    1    3    3  502    0 -0.27682998311E+03  0.57268059502E+03  0.49427694851E+03  0.80554802184E+03  0.10100000352E+00 0. -1.
       -3    1    3    3    0  502  0.27682998311E+03 -0.57268059502E+03 -0.18061129855E+04  0.19148477825E+04  0.10100000352E+00 0.  1.
</event>
<event>
 5   0  0.5440503E-06  0.2402029E+04  0.7818609E-02  0.8438744E-01
        2   -1    0    0  501    0  0.00000000000E+00  0.00000000000E+00  0.12338359461E+04  0.12338359461E+04  0.25500000920E-02 0.  1.
       -2   -1    0    0    0  501  0.00000000000E+00  0.00000000000E+00 -0.11690657081E+04  0.11690657081E+04  0.25500000920E-02 0. -1.
    10030    2    1    2    0    0  0.00000000000E+00  0.00000000000E+00  0.64770238011E+02  0.24029016541E+04  0.24020285543E+04 0.  0.
        3    1    3    3  502    0 -0.76044497408E+03  0.92381533940E+03  0.13597923664E+03  0.12042432075E+04  0.10100000352E+00 0. -1.
       -3    1    3    3    0  502  0.76044497408E+03 -0.92381533940E+03 -0.71208998633E+02  0.11986584466E+04  0.10100000352E+00 0.  1.
</event>
<event>
 5   0  0.5349036E-06  0.2398923E+04  0.7818609E-02  0.8439907E-01
        2   -1    0    0  501    0  0.00000000000E+00  0.00000000000E+00  0.10852470197E+04  0.10852470197E+04  0.25500000920E-02 0. -1.
       -2   -1    0    0    0  501  0.00000000000E+00  0.00000000000E+00 -0.13256958345E+04  0.13256958345E+04  0.25500000920E-02 0.  1.
    10030    2    1    2    0    0  0.00000000000E+00  0.00000000000E+00 -0.24044881484E+03  0.24109428542E+04  0.23989226361E+04 0.  0.
        1    1    3    3  502    0  0.70664130018E+03  0.89739375505E+03 -0.48818731530E+03  0.12421692049E+04  0.50400001928E-02 0. -1.
       -1    1    3    3    0  502 -0.70664130018E+03 -0.89739375505E+03  0.24773850046E+03  0.11687736493E+04  0.50400001928E-02 0.  1.
</event>
<event>
 5   0  0.5349036E-06  0.2396969E+04  0.7818609E-02  0.8440639E-01
        2   -1    0    0  501    0  0.00000000000E+00  0.00000000000E+00  0.11392397221E+04  0.11392397221E+04  0.25500000920E-02 0.  1.
       -2   -1    0    0    0  501  0.00000000000E+00  0.00000000000E+00 -0.12608099865E+04  0.12608099865E+04  0.25500000920E-02 0. -1.
    10030    2    1    2    0    0  0.00000000000E+00  0.00000000000E+00 -0.12157026445E+03  0.24000497086E+04  0.23969687680E+04 0.  0.
        1    1    3    3  502    0  0.94954607922E+03 -0.69968484076E+03  0.15201612268E+03  0.11892457839E+04  0.50400001928E-02 0. -1.
       -1    1    3    3    0  502 -0.94954607922E+03  0.69968484076E+03 -0.27358638713E+03  0.12108039247E+04  0.50400001928E-02 0.  1.
</event>
<event>
 5   0  0.5268358E-06  0.2402242E+04  0.7818609E-02  0.8438665E-01
       -2   -1    0    0    0  501  0.00000000000E+00  0.00000000000E+00  0.11556034082E+04  0.11556034082E+04  0.25500000920E-02 0. -1.
        2   -1    0    0  501    0  0.00000000000E+00  0.00000000000E+00 -0.12484316151E+04  0.12484316151E+04  0.25500000920E-02 0.  1.
    10030    2    1    2    0    0  0.00000000000E+00  0.00000000000E+00 -0.92828206845E+02  0.24040350233E+04  0.24022421438E+04 0.  0.
        2    1    3    3  502    0  0.72678692178E+03 -0.91660648460E+03 -0.31920726072E+03  0.12125510103E+04  0.25500000920E-02 0. -1.
       -2    1    3    3    0  502 -0.72678692178E+03  0.91660648460E+03  0.22637905387E+03  0.11914840130E+04  0.25500000920E-02 0.  1.
</event>
<event>
 5   0  0.2297414E-06  0.2397704E+04  0.7818609E-02  0.8440364E-01
       -1   -1    0    0    0  501  0.00000000000E+00  0.00000000000E+00  0.12990916719E+04  0.12990916719E+04  0.50400001928E-02 0. -1.
        1   -1    0    0  501    0  0.00000000000E+00  0.00000000000E+00 -0.11063470518E+04  0.11063470518E+04  0.50400001928E-02 0.  1.
    10030    2    1    2    0    0  0.00000000000E+00  0.00000000000E+00  0.19274462008E+03  0.24054387237E+04  0.23977041029E+04 0.  0.
        1    1    3    3  502    0  0.55180113603E+03  0.10643103547E+04  0.94081029323E+02  0.12025357646E+04  0.50400001928E-02 0.  1.
       -1    1    3    3    0  502 -0.55180113603E+03 -0.10643103547E+04  0.98663590753E+02  0.12029029591E+04  0.50400001928E-02 0. -1.
</event>
<event>
 5   0  0.5349036E-06  0.2400595E+04  0.7818609E-02  0.8439281E-01
        2   -1    0    0  501    0  0.00000000000E+00  0.00000000000E+00  0.11784217433E+04  0.11784217433E+04  0.25500000920E-02 0. -1.
       -2   -1    0    0    0  501  0.00000000000E+00  0.00000000000E+00 -0.12225797433E+04  0.12225797433E+04  0.25500000920E-02 0.  1.
    10030    2    1    2    0    0  0.00000000000E+00  0.00000000000E+00 -0.44158000025E+02  0.24010014865E+04  0.24005953864E+04 0.  0.
        1    1    3    3  502    0  0.82064762275E+03 -0.29269143818E+03  0.80364151886E+03  0.11853145108E+04  0.50400001928E-02 0. -1.
       -1    1    3    3    0  502 -0.82064762275E+03  0.29269143818E+03 -0.84779951889E+03  0.12156869757E+04  0.50400001928E-02 0.  1.
</event>
<event>
 5   0  0.5371843E-06  0.2395879E+04  0.7818609E-02  0.8441048E-01
        2   -1    0    0  501    0  0.00000000000E+00  0.00000000000E+00  0.16825061567E+04  0.16825061567E+04  0.25500000920E-02 0.  1.
       -2   -1    0    0    0  501  0.00000000000E+00  0.00000000000E+00 -0.85292978414E+03  0.85292978414E+03  0.25500000920E-02 0. -1.
    10030    2    1    2    0    0  0.00000000000E+00  0.00000000000E+00  0.82957637258E+03  0.25354359409E+04  0.23958794737E+04 0.  0.
        4    1    3    3  502    0  0.63262884309E+02  0.12560895911E+02 -0.85109029886E+03  0.85353165047E+03  0.12699999809E+01 0. -1.
       -4    1    3    3    0  502 -0.63262884309E+02 -0.12560895911E+02  0.16806666714E+04  0.16819042904E+04  0.12699999809E+01 0.  1.
</event>
<event>
 5   0  0.5440503E-06  0.2398903E+04  0.7818609E-02  0.8439914E-01
       -2   -1    0    0    0  501  0.00000000000E+00  0.00000000000E+00  0.78515200796E+03  0.78515200796E+03  0.25500000920E-02 0. -1.
        2   -1    0    0  501    0  0.00000000000E+00  0.00000000000E+00 -0.18323634734E+04  0.18323634734E+04  0.25500000920E-02 0.  1.
    10030    2    1    2    0    0  0.00000000000E+00  0.00000000000E+00 -0.10472114654E+04  0.26175154814E+04  0.23989029663E+04 0.  0.
        3    1    3    3  502    0 -0.56839959669E+03 -0.93655605440E+02 -0.16715423175E+04  0.17680223990E+04  0.10100000352E+00 0.  1.
       -3    1    3    3    0  502  0.56839959669E+03  0.93655605440E+02  0.62433085206E+03  0.84949308237E+03  0.10100000352E+00 0. -1.
</event>
<event>
 5   0  0.2149417E-06  0.2403070E+04  0.7818609E-02  0.8438355E-01
       -1   -1    0    0    0  501  0.00000000000E+00  0.00000000000E+00  0.13741957235E+04  0.13741957235E+04  0.50400001928E-02 0. -1.
        1   -1    0    0  501    0  0.00000000000E+00  0.00000000000E+00 -0.10505683199E+04  0.10505683199E+04  0.50400001928E-02 0.  1.
    10030    2    1    2    0    0  0.00000000000E+00  0.00000000000E+00  0.32362740362E+03  0.24247640435E+04  0.24030701135E+04 0.  0.
        5    1    3    3  502    0 -0.18088460456E+02  0.11161338089E+04  0.61032905403E+03  0.12722442831E+04  0.46999998093E+01 0. -1.
       -5    1    3    3    0  502  0.18088460456E+02 -0.11161338089E+04 -0.28670165041E+03  0.11525197604E+04  0.46999998093E+01 0.  1.
</event>
<event>
 5   0  0.2254269E-06  0.2403052E+04  0.7818609E-02  0.8438362E-01
       -1   -1    0    0    0  501  0.00000000000E+00  0.00000000000E+00  0.10534983428E+04  0.10534983428E+04  0.50400001928E-02 0. -1.
        1   -1    0    0  501    0  0.00000000000E+00  0.00000000000E+00 -0.13703526212E+04  0.13703526212E+04  0.50400001928E-02 0.  1.
    10030    2    1    2    0    0  0.00000000000E+00  0.00000000000E+00 -0.31685427838E+03  0.24238509640E+04  0.24030515729E+04 0.  0.
        2    1    3    3  502    0 -0.22503422283E+03  0.72114748766E+03  0.78398855420E+03  0.10887296053E+04  0.25500000920E-02 0. -1.
       -2    1    3    3    0  502  0.22503422283E+03 -0.72114748766E+03 -0.11008428326E+04  0.13351213587E+04  0.25500000920E-02 0.  1.
</event>
<event>
 5   0  0.5349036E-06  0.2401908E+04  0.7818609E-02  0.8438790E-01
       -2   -1    0    0    0  501  0.00000000000E+00  0.00000000000E+00  0.79954275253E+03  0.79954275254E+03  0.25500000920E-02 0. -1.
        2   -1    0    0  501    0  0.00000000000E+00  0.00000000000E+00 -0.18038939964E+04  0.18038939964E+04  0.25500000920E-02 0.  1.
    10030    2    1    2    0    0  0.00000000000E+00  0.00000000000E+00 -0.10043512439E+04  0.26034367490E+04  0.24019078843E+04 0.  0.
        1    1    3    3  502    0  0.82229310332E+03 -0.86518058023E+02 -0.14462544967E+04  0.16659241853E+04  0.50400001928E-02 0.  1.
       -1    1    3    3    0  502 -0.82229310332E+03  0.86518058023E+02  0.44190325277E+03  0.93751256363E+03  0.50400001928E-02 0. -1.
</event>
<event>
 5   0  0.5371843E-06  0.2397952E+04  0.7818609E-02  0.8440271E-01
       -2   -1    0    0    0  501  0.00000000000E+00  0.00000000000E+00  0.74123769868E+03  0.74123769868E+03  0.25500000920E-02 0.  1.
        2   -1    0    0  501    0  0.00000000000E+00  0.00000000000E+00 -0.19393819834E+04  0.19393819834E+04  0.25500000920E-02 0. -1.
    10030    2    1    2    0    0  0.00000000000E+00  0.00000000000E+00 -0.11981442847E+04  0.26806196820E+04  0.23979516577E+04 0.  0.
        4    1    3    3  502    0 -0.10225853555E+04  0.38834157388E+03 -0.11479170536E+04  0.15856245337E+04  0.12699999809E+01 0. -1.
       -4    1    3    3    0  502  0.10225853555E+04 -0.38834157388E+03 -0.50227231108E+02  0.10949951483E+04  0.12699999809E+01 0.  1.
</event>
<event>
 5   0  0.5440503E-06  0.2403750E+04  0.7818609E-02  0.8438101E-01
       -2   -1    0    0    0  501  0.00000000000E+00  0.00000000000E+00  0.51056216795E+03  0.51056216796E+03  0.25500000920E-02 0. -1.
        2   -1    0    0  501    0  0.00000000000E+00  0.00000000000E+00 -0.28292404337E+04  0.28292404337E+04  0.25500000920E-02 0.  1.
    10030    2    1    2    0    0  0.00000000000E+00  0.00000000000E+00 -0.23186782657E+04  0.33398026016E+04  0.24037496787E+04 0.  0.
        3    1    3    3  502    0 -0.63932398913E+01  0.53798932223E+02  0.50886469793E+03  0.51174064684E+03  0.10100000352E+00 0. -1.
       -3    1    3    3    0  502  0.63932398913E+01 -0.53798932223E+02 -0.28275429637E+04  0.28280619548E+04  0.10100000352E+00 0.  1.
</event>
<event>
 5   0  0.2215700E-06  0.2401039E+04  0.7818609E-02  0.8439115E-01
       -1   -1    0    0    0  501  0.00000000000E+00  0.00000000000E+00  0.11348639070E+04  0.11348639070E+04  0.50400001928E-02 0.  1.
        1   -1    0    0  501    0  0.00000000000E+00  0.00000000000E+00 -0.12699736764E+04  0.12699736764E+04  0.50400001928E-02 0. -1.
    10030    2    1    2    0    0  0.00000000000E+00  0.00000000000E+00 -0.13510976935E+03  0.24048375834E+04  0.24010391819E+04 0.  0.
        3    1    3    3  502    0 -0.38993435401E+03 -0.35917463531E+03 -0.11463809917E+04  0.12630299313E+04  0.10100000352E+00 0. -1.
       -3    1    3    3    0  502  0.38993435401E+03  0.35917463531E+03  0.10112712223E+04  0.11418076521E+04  0.10100000352E+00 0.  1.
</event>
<event>
 5   0  0.5268358E-06  0.2399232E+04  0.7818609E-02  0.8439791E-01
       -2   -1    0    0    0  501  0.00000000000E+00  0.00000000000E+00  0.88318794327E+03  0.88318794328E+03  0.25500000920E-02 0. -1.
        2   -1    0    0  501    0  0.00000000000E+00  0.00000000000E+00 -0.16294134017E+04  0.16294134017E+04  0.25500000920E-02 0.  1.
    10030    2    1    2    0    0  0.00000000000E+00  0.00000000000E+00 -0.74622545843E+03  0.25126013450E+04  0.23992317695E+04 0.  0.
        2    1    3    3  502    0 -0.13303514748E+03  0.13842714954E+02  0.87535464079E+03  0.88551438067E+03  0.25500000920E-02 0. -1.
       -2    1    3    3    0  502  0.13303514748E+03 -0.13842714954E+02 -0.16215800992E+04  0.16270869643E+04  0.25500000920E-02 0.  1.
</event>
<event>
 5   0  0.2297414E-06  0.2396522E+04  0.7818609E-02  0.8440807E-01
       -1   -1    0    0    0  501  0.00000000000E+00  0.00000000000E+00  0.12371957843E+04  0.12371957843E+04  0.50400001928E-02 0. -1.
        1   -1    0    0  501    0  0.00000000000E+00  0.00000000000E+00 -0.11605517773E+04  0.11605517773E+04  0.50400001928E-02 0.  1.
    10030    2    1    2    0    0  0.00000000000E+00  0.00000000000E+00  0.76644006988E+02  0.23977475616E+04  0.23965222856E+04 0.  0.
        1    1    3    3  502    0 -0.11635471094E+04  0.10690381944E+03  0.30408812735E+03  0.12073689957E+04  0.50400001928E-02 0. -1.
       -1    1    3    3    0  502  0.11635471094E+04 -0.10690381944E+03 -0.22744412036E+03  0.11903785660E+04  0.50400001928E-02 0.  1.
</event>
<event>
 5   0  0.2254269E-06  0.2398716E+04  0.7818609E-02  0.8439984E-01
        1   -1    0    0  501    0  0.00000000000E+00  0.00000000000E+00  0.27373498519E+04  0.27373498520E+04  0.50400001928E-02 0. -1.
       -1   -1    0    0    0  501  0.00000000000E+00  0.00000000000E+00 -0.52549357211E+03  0.52549357213E+03  0.50400001928E-02 0.  1.
    10030    2    1    2    0    0  0.00000000000E+00  0.00000000000E+00  0.22118562798E+04  0.32628434241E+04  0.23987161165E+04 0.  0.
        2    1    3    3  502    0 -0.84532819930E+03 -0.42831581065E+03  0.21058943352E+04  0.23092910491E+04  0.25500000920E-02 0.  1.
       -2    1    3    3    0  502  0.84532819930E+03  0.42831581065E+03  0.10596194461E+03  0.95355237501E+03  0.25500000920E-02 0. -1.
</event>
<event>
 5   0  0.5379778E-06  0.2403246E+04  0.7818609E-02  0.8438289E-01
       -2   -1    0    0    0  501  0.00000000000E+00  0.00000000000E+00  0.63049802069E+03  0.63049802069E+03  0.25500000920E-02 0. -1.
        2   -1    0    0  501    0  0.00000000000E+00  0.00000000000E+00 -0.22900913988E+04  0.22900913988E+04  0.25500000920E-02 0.  1.
    10030    2    1    2    0    0  0.00000000000E+00  0.00000000000E+00 -0.16595933781E+04  0.29205894195E+04  0.24032462164E+04 0.  0.
        5    1    3    3  502    0 -0.78232958528E+03  0.82004434102E+03 -0.13149365355E+04  0.17359701852E+04  0.46999998093E+01 0.  1.
       -5    1    3    3    0  502  0.78232958528E+03 -0.82004434102E+03 -0.34465684258E+03  0.11846192343E+04  0.46999998093E+01 0. -1.
</event>
<event>
 5   0  0.2297414E-06  0.2398176E+04  0.7818609E-02  0.8440187E-01
        1   -1    0    0  501    0  0.00000000000E+00  0.00000000000E+00  0.96958579462E+03  0.96958579464E+03  0.50400001928E-02 0. -1.
       -1   -1    0    0    0  501  0.00000000000E+00  0.00000000000E+00 -0.14829138625E+04  0.14829138625E+04  0.50400001928E-02 0.  1.
    10030    2    1    2    0    0  0.00000000000E+00  0.00000000000E+00 -0.51332806787E+03  0.24524996571E+04  0.23981761535E+04 0.  0.
        1    1    3    3  502    0  0.68812920405E+02 -0.14675962990E+03 -0.14716583771E+04  0.14805579981E+04  0.50400001928E-02 0.  1.
       -1    1    3    3    0  502 -0.68812920405E+02  0.14675962990E+03  0.95833030920E+03  0.97194165902E+03  0.50400001928E-02 0. -1.
</event>
<event>
 5   0  0.5371843E-06  0.2392688E+04  0.7818609E-02  0.8442246E-01
       -2   -1    0    0    0  501  0.00000000000E+00  0.00000000000E+00  0.94980879674E+03  0.94980879675E+03  0.25500000920E-02 0. -1.
        2   -1    0    0  501    0  0.00000000000E+00  0.00000000000E+00 -0.15068710306E+04  0.15068710306E+04  0.25500000920E-02 0.  1.
    10030    2    1    2    0    0  0.00000000000E+00  0.00000000000E+00 -0.55706223387E+03  0.24566798274E+04  0.23926883294E+04 0.  0.
        4    1    3    3  502    0  0.31880068942E+03 -0.11345665143E+04 -0.67204496868E+02  0.11804207352E+04  0.12699999809E+01 0. -1.
       -4    1    3    3    0  502 -0.31880068942E+03  0.11345665143E+04 -0.48985773701E+03  0.12762590921E+04  0.12699999809E+01 0.  1.
</event>
<event>
 5   0  0.1796750E-06  0.2393865E+04  0.7818609E-02  0.8441804E-01
       -3   -1    0    0    0  501  0.00000000000E+00  0.00000000000E+00  0.13177833216E+04  0.13177833254E+04  0.10100000352E+00 0. -1.
        3   -1    0    0  501    0  0.00000000000E+00  0.00000000000E+00 -0.10871650526E+04  0.10871650573E+04  0.10100000352E+00 0.  1.
    10030    2    1    2    0    0  0.00000000000E+00  0.00000000000E+00  0.23061826901E+03  0.24049483827E+04  0.23938654802E+04 0.  0.
        3    1    3    3  502    0  0.10964073022E+04 -0.11232370474E+02 -0.36692655842E+03  0.11562310530E+04  0.10100000352E+00 0.  1.
       -3    1    3    3    0  502 -0.10964073022E+04  0.11232370474E+02  0.59754482743E+03  0.12487173297E+04  0.10100000352E+00 0. -1.
</event>
<event>
 5   0  0.5440503E-06  0.2399362E+04  0.7818609E-02  0.8439743E-01
       -2   -1    0    0    0  501  0.00000000000E+00  0.00000000000E+00  0.11938958341E+04  0.11938958341E+04  0.25500000920E-02 0. -1.
        2   -1    0    0  501    0  0.00000000000E+00  0.00000000000E+00 -0.12054938735E+04  0.12054938735E+04  0.25500000920E-02 0.  1.
    10030    2    1    2    0    0  0.00000000000E+00  0.00000000000E+00 -0.11598039466E+02  0.23993897076E+04  0.23993616765E+04 0.  0.
        3    1    3    3  502    0 -0.10832487736E+04 -0.43768362308E+03  0.26667295795E+03  0.11983777936E+04  0.10100000352E+00 0. -1.
       -3    1    3    3    0  502  0.10832487736E+04  0.43768362308E+03 -0.27827099742E+03  0.12010119140E+04  0.10100000352E+00 0.  1.
</event>
<event>
 5   0  0.5379778E-06  0.2399810E+04  0.7818609E-02  0.8439575E-01
       -2   -1    0    0    0  501  0.00000000000E+00  0.00000000000E+00  0.11904392418E+04  0.11904392418E+04  0.25500000920E-02 0. -1.
        2   -1    0    0  501    0  0.00000000000E+00  0.00000000000E+00 -0.12094461555E+04  0.12094461555E+04  0.25500000920E-02 0.  1.
    10030    2    1    2    0    0  0.00000000000E+00  0.00000000000E+00 -0.19006913697E+02  0.23998853973E+04  0.23998101295E+04 0.  0.
        5    1    3    3  502    0  0.31766805569E+03 -0.10369510529E+04  0.50390293996E+03  0.11958765582E+04  0.46999998093E+01 0. -1.
       -5    1    3    3    0  502 -0.31766805569E+03  0.10369510529E+04 -0.52290985366E+03  0.12040088391E+04  0.46999998093E+01 0.  1.
</event>
<event>
 5   0  0.2215700E-06  0.2369558E+04  0.7818609E-02  0.8450989E-01
        1   -1    0    0  501    0  0.00000000000E+00  0.00000000000E+00  0.15242948513E+04  0.15242948513E+04  0.50400001928E-02 0.  1.
       -1   -1    0    0    0  501  0.00000000000E+00  0.00000000000E+00 -0.92088592896E+03  0.92088592898E+03  0.50400001928E-02 0. -1.
    10030    2    1    2    0    0  0.00000000000E+00  0.00000000000E+00  0.60340892235E+03  0.24451807803E+04  0.23695583388E+04 0.  0.
        3    1    3    3  502    0 -0.97743759698E+03 -0.48018304241E+03  0.78322446358E+03  0.13414173775E+04  0.10100000352E+00 0.  1.
       -3    1    3    3    0  502  0.97743759698E+03  0.48018304241E+03 -0.17981554123E+03  0.11037634028E+04  0.10100000352E+00 0. -1.
</event>
<event>
 5   0  0.5268358E-06  0.2397299E+04  0.7818609E-02  0.8440516E-01
       -2   -1    0    0    0  501  0.00000000000E+00  0.00000000000E+00  0.57230784567E+03  0.57230784568E+03  0.25500000920E-02 0.  1.
        2   -1    0    0  501    0  0.00000000000E+00  0.00000000000E+00 -0.25104675495E+04  0.25104675495E+04  0.25500000920E-02 0. -1.
    10030    2    1    2    0    0  0.00000000000E+00  0.00000000000E+00 -0.19381597038E+04  0.30827753952E+04  0.23972987089E+04 0.  0.
        2    1    3    3  502    0 -0.87901976603E+03  0.74719638143E+03 -0.13873200882E+04  0.18043378865E+04  0.25500000920E-02 0. -1.
       -2    1    3    3    0  502  0.87901976603E+03 -0.74719638143E+03 -0.55083961566E+03  0.12784375087E+04  0.25500000920E-02 0.  1.
</event>
<event>
 5   0  0.5371843E-06  0.2395136E+04  0.7818609E-02  0.8441327E-01
        2   -1    0    0  501    0  0.00000000000E+00  0.00000000000E+00  0.23413799058E+04  0.23413799058E+04  0.25500000920E-02 0.  1.
       -2   -1    0    0    0  501  0.00000000000E+00  0.00000000000E+00 -0.61253160445E+03  0.61253160445E+03  0.25500000920E-02 0. -1.
    10030    2    1    2    0    0  0.00000000000E+00  0.00000000000E+00  0.17288483013E+04  0.29539115102E+04  0.23951360632E+04 0.  0.
        4    1    3    3  502    0  0.44884698902E+03  0.53176601081E+03  0.20664473066E+04  0.21804689389E+04  0.12699999809E+01 0.  1.
       -4    1    3    3    0  502 -0.44884698902E+03 -0.53176601081E+03 -0.33759900528E+03  0.77344257128E+03  0.12699999809E+01 0. -1.
</event>
<event>
 5   0  0.5371843E-06  0.2403425E+04  0.7818609E-02  0.8438222E-01
        2   -1    0    0  501    0  0.00000000000E+00  0.00000000000E+00  0.14057314190E+04  0.14057314190E+04  0.25500000920E-02 0.  1.
       -2   -1    0    0    0  501  0.00000000000E+00  0.00000000000E+00 -0.10273036899E+04  0.10273036899E+04  0.25500000920E-02 0. -1.
    10030    2    1    2    0    0  0.00000000000E+00  0.00000000000E+00  0.37842772905E+03  0.24330351089E+04  0.24034251174E+04 0.  0.
        4    1    3    3  502    0  0.37789501552E+03 -0.66503646762E+02 -0.96362434011E+03  0.10372082045E+04  0.12699999809E+01 0. -1.
       -4    1    3    3    0  502 -0.37789501552E+03  0.66503646762E+02  0.13420520692E+04  0.13958269044E+04  0.12699999809E+01 0.  1.
</event>
<event>
 5   0  0.2149029E-06  0.2392286E+04  0.7818609E-02  0.8442397E-01
        1   -1    0    0  501    0  0.00000000000E+00  0.00000000000E+00  0.12383086580E+04  0.12383086580E+04  0.50400001928E-02 0.  1.
       -1   -1    0    0    0  501  0.00000000000E+00  0.00000000000E+00 -0.11554135185E+04  0.11554135185E+04  0.50400001928E-02 0. -1.
    10030    2    1    2    0    0  0.00000000000E+00  0.00000000000E+00  0.82895139440E+02  0.23937221765E+04  0.23922864072E+04 0.  0.
        4    1    3    3  502    0  0.46683718490E+03 -0.93000991274E+02 -0.10565581898E+04  0.11588369009E+04  0.12699999809E+01 0. -1.
       -4    1    3    3    0  502 -0.46683718490E+03  0.93000991274E+02  0.11394533292E+04  0.12348852756E+04  0.12699999809E+01 0.  1.
</event>
<event>
 5   0  0.2149417E-06  0.2424859E+04  0.7818609E-02  0.8430255E-01
        1   -1    0    0  501    0  0.00000000000E+00  0.00000000000E+00  0.15174564030E+04  0.15174564030E+04  0.50400001928E-02 0.  1.
       -1   -1    0    0    0  501  0.00000000000E+00  0.00000000000E+00 -0.96871630822E+03  0.96871630823E+03  0.50400001928E-02 0. -1.
    10030    2    1    2    0    0  0.00000000000E+00  0.00000000000E+00  0.54874009482E+03  0.24861727113E+04  0.24248585647E+04 0.  0.
        5    1    3    3  502    0  0.63142366311E+03  0.94405242589E+03  0.70940039504E+03  0.13391048636E+04  0.46999998093E+01 0. -1.
       -5    1    3    3    0  502 -0.63142366311E+03 -0.94405242589E+03 -0.16066030022E+03  0.11470678477E+04  0.46999998093E+01 0.  1.
</event>
<event>
 5   0  0.2297414E-06  0.2404061E+04  0.7818609E-02  0.8437985E-01
        1   -1    0    0  501    0  0.00000000000E+00  0.00000000000E+00  0.19105569547E+04  0.19105569547E+04  0.50400001928E-02 0. -1.
       -1   -1    0    0    0  501  0.00000000000E+00  0.00000000000E+00 -0.75625950641E+03  0.75625950643E+03  0.50400001928E-02 0.  1.
    10030    2    1    2    0    0  0.00000000000E+00  0.00000000000E+00  0.11542974483E+04  0.26668164612E+04  0.24040606145E+04 0.  0.
        1    1    3    3  502    0 -0.11859579404E+04  0.11492612951E+03  0.75314838028E+03  0.14095874341E+04  0.50400001928E-02 0. -1.
       -1    1    3    3    0  502  0.11859579404E+04 -0.11492612951E+03  0.40114906804E+03  0.12572290271E+04  0.50400001928E-02 0.  1.
</event>
<event>
 5   0  0.2149029E-06  0.2400552E+04  0.7818609E-02  0.8439297E-01
        1   -1    0    0  501    0  0.00000000000E+00  0.00000000000E+00  0.21669407029E+04  0.21669407029E+04  0.50400001928E-02 0. -1.
       -1   -1    0    0    0  501  0.00000000000E+00  0.00000000000E+00 -0.66483700413E+03  0.66483700415E+03  0.50400001928E-02 0.  1.
    10030    2    1    2    0    0  0.00000000000E+00  0.00000000000E+00  0.15021036987E+04  0.28317777070E+04  0.24005519074E+04 0.  0.
        4    1    3    3  502    0 -0.20263475337E+03  0.56069196880E+03  0.19799272118E+04  0.20677402409E+04  0.12699999809E+01 0. -1.
       -4    1    3    3    0  502  0.20263475337E+03 -0.56069196880E+03 -0.47782351301E+03  0.76403746612E+03  0.12699999809E+01 0.  1.
</event>
<event>
 5   0  0.2297414E-06  0.2403764E+04  0.7818609E-02  0.8438096E-01
        1   -1    0    0  501    0  0.00000000000E+00  0.00000000000E+00  0.13481795879E+04  0.13481795879E+04  0.50400001928E-02 0. -1.
       -1   -1    0    0    0  501  0.00000000000E+00  0.00000000000E+00 -0.10714597916E+04  0.10714597916E+04  0.50400001928E-02 0.  1.
    10030    2    1    2    0    0  0.00000000000E+00  0.00000000000E+00  0.27671979633E+03  0.24196393796E+04  0.24037638988E+04 0.  0.
        1    1    3    3  502    0 -0.52891107189E+03 -0.27708293784E+03 -0.91160058192E+03  0.10897419407E+04  0.50400001928E-02 0.  1.
       -1    1    3    3    0  502  0.52891107189E+03  0.27708293784E+03  0.11883203782E+04  0.13298974388E+04  0.50400001928E-02 0. -1.
</event>
<event>
 5   0  0.5268358E-06  0.2399060E+04  0.7818609E-02  0.8439856E-01
        2   -1    0    0  501    0  0.00000000000E+00  0.00000000000E+00  0.12470455665E+04  0.12470455665E+04  0.25500000920E-02 0.  1.
       -2   -1    0    0    0  501  0.00000000000E+00  0.00000000000E+00 -0.11538247402E+04  0.11538247402E+04  0.25500000920E-02 0. -1.
    10030    2    1    2    0    0  0.00000000000E+00  0.00000000000E+00  0.93220826274E+02  0.24008703068E+04  0.23990598382E+04 0.  0.
        2    1    3    3  502    0 -0.93801610652E+03 -0.26974166236E+03 -0.65122295411E+03  0.11733397276E+04  0.25500000920E-02 0. -1.
       -2    1    3    3    0  502  0.93801610652E+03  0.26974166236E+03  0.74444378039E+03  0.12275305791E+04  0.25500000920E-02 0.  1.
</event>
<event>
 5   0  0.2149029E-06  0.2399642E+04  0.7818609E-02  0.8439638E-01
       -1   -1    0    0    0  501  0.00000000000E+00  0.00000000000E+00  0.19405357082E+04  0.19405357082E+04  0.50400001928E-02 0.  1.
        1   -1    0    0  501    0  0.00000000000E+00  0.00000000000E+00 -0.74184156861E+03  0.74184156863E+03  0.50400001928E-02 0. -1.
    10030    2    1    2    0    0  0.00000000000E+00  0.00000000000E+00  0.11986941396E+04  0.26823772769E+04  0.23996416847E+04 0.  0.
        4    1    3    3  502    0 -0.17493602854E+03 -0.39967176036E+03  0.18487265615E+04  0.18995082632E+04  0.12699999809E+01 0.  1.
       -4    1    3    3    0  502  0.17493602854E+03  0.39967176036E+03 -0.65003242186E+03  0.78286901362E+03  0.12699999809E+01 0. -1.
</event>
<event>
 5   0  0.5371843E-06  0.2401821E+04  0.7818609E-02  0.8438822E-01
        2   -1    0    0  501    0  0.00000000000E+00  0.00000000000E+00  0.89507389762E+03  0.89507389763E+03  0.25500000920E-02 0.  1.
       -2   -1    0    0    0  501  0.00000000000E+00  0.00000000000E+00 -0.16112483104E+04  0.16112483104E+04  0.25500000920E-02 0. -1.
    10030    2    1    2    0    0  0.00000000000E+00  0.00000000000E+00 -0.71617441274E+03  0.25063222080E+04  0.24018212300E+04 0.  0.
        4    1    3    3  502    0  0.11095139921E+03 -0.29784039016E+03  0.85038710433E+03  0.90784302118E+03  0.12699999809E+01 0.  1.
       -4    1    3    3    0  502 -0.11095139921E+03  0.29784039016E+03 -0.15665615171E+04  0.15984791868E+04  0.12699999809E+01 0. -1.
</event>
<event>
 5   0  0.2297414E-06  0.2397928E+04  0.7818609E-02  0.8440280E-01
       -1   -1    0    0    0  501  0.00000000000E+00  0.00000000000E+00  0.82480852755E+03  0.82480852756E+03  0.50400001928E-02 0.  1.
        1   -1    0    0  501    0  0.00000000000E+00  0.00000000000E+00 -0.17428469781E+04  0.17428469781E+04  0.50400001928E-02 0. -1.
    10030    2    1    2    0    0  0.00000000000E+00  0.00000000000E+00 -0.91803845051E+03  0.25676555056E+04  0.23979283140E+04 0.  0.
        1    1    3    3  502    0 -0.27424863413E+03  0.76036532632E+03 -0.14072179945E+04  0.16228463349E+04  0.50400001928E-02 0. -1.
       -1    1    3    3    0  502  0.27424863413E+03 -0.76036532632E+03  0.48917954395E+03  0.94480917071E+03  0.50400001928E-02 0.  1.
</event>
<event>
 5   0  0.2149417E-06  0.2391127E+04  0.7818609E-02  0.8442833E-01
        1   -1    0    0  501    0  0.00000000000E+00  0.00000000000E+00  0.93750895539E+03  0.93750895540E+03  0.50400001928E-02 0.  1.
       -1   -1    0    0    0  501  0.00000000000E+00  0.00000000000E+00 -0.15246493761E+04  0.15246493761E+04  0.50400001928E-02 0. -1.
    10030    2    1    2    0    0  0.00000000000E+00  0.00000000000E+00 -0.58714042075E+03  0.24621583315E+04  0.23911273023E+04 0.  0.
        5    1    3    3  502    0 -0.96898534867E+03 -0.69145295189E+03 -0.40781916712E+03  0.12583236284E+04  0.46999998093E+01 0. -1.
       -5    1    3    3    0  502  0.96898534867E+03  0.69145295189E+03 -0.17932125364E+03  0.12038347032E+04  0.46999998093E+01 0.  1.
</event>
<event>
 5   0  0.5268358E-06  0.2404173E+04  0.7818609E-02  0.8437943E-01
       -2   -1    0    0    0  501  0.00000000000E+00  0.00000000000E+00  0.18575373431E+04  0.18575373431E+04  0.25500000920E-02 0.  1.
        2   -1    0    0  501    0  0.00000000000E+00  0.00000000000E+00 -0.77791843390E+03  0.77791843391E+03  0.25500000920E-02 0. -1.
    10030    2    1    2    0    0  0.00000000000E+00  0.00000000000E+00  0.10796189092E+04  0.26354557770E+04  0.24041734886E+04 0.  0.
        2    1    3    3  502    0 -0.26930134002E+03  0.11701727842E+04  0.60167424945E+03  0.13430709062E+04  0.25500000920E-02 0.  1.
       -2    1    3    3    0  502  0.26930134002E+03 -0.11701727842E+04  0.47794465974E+03  0.12923848708E+04  0.25500000920E-02 0. -1.
</event>
<event>
 5   0  0.5440503E-06  0.2403290E+04  0.7818609E-02  0.8438273E-01
       -2   -1    0    0    0  501  0.00000000000E+00  0.00000000000E+00  0.85065526951E+03  0.85065526951E+03  0.25500000920E-02 0.  1.
        2   -1    0    0  501    0  0.00000000000E+00  0.00000000000E+00 -0.16974567091E+04  0.16974567091E+04  0.25500000920E-02 0. -1.
    10030    2    1    2    0    0  0.00000000000E+00  0.00000000000E+00 -0.84680143963E+03  0.25481119786E+04  0.24032898239E+04 0.  0.
        3    1    3    3  502    0  0.66114160213E+03  0.99420961138E+03 -0.56718039453E+03  0.13218375769E+04  0.10100000352E+00 0. -1.
       -3    1    3    3    0  502 -0.66114160213E+03 -0.99420961138E+03 -0.27962104510E+03  0.12262744018E+04  0.10100000352E+00 0.  1.
</event>
<event>
 5   0  0.5379778E-06  0.2382471E+04  0.7818609E-02  0.8446095E-01
       -2   -1    0    0    0  501  0.00000000000E+00  0.00000000000E+00  0.90040490456E+03  0.90040490457E+03  0.25500000920E-02 0. -1.
        2   -1    0    0  501    0  0.00000000000E+00  0.00000000000E+00 -0.15760041267E+04  0.15760041267E+04  0.25500000920E-02 0.  1.
    10030    2    1    2    0    0  0.00000000000E+00  0.00000000000E+00 -0.67559922215E+03  0.24764090313E+04  0.23824708563E+04 0.  0.
        5    1    3    3  502    0 -0.99188420740E+03  0.33151626373E+03  0.25502345437E+03  0.10764740435E+04  0.46999998093E+01 0. -1.
       -5    1    3    3    0  502  0.99188420740E+03 -0.33151626373E+03 -0.93062267652E+03  0.13999349878E+04  0.46999998093E+01 0.  1.
</event>
<event>
 5   0  0.2149029E-06  0.2397471E+04  0.7818609E-02  0.8440451E-01
        1   -1    0    0  501    0  0.00000000000E+00  0.00000000000E+00  0.14159480402E+04  0.14159480402E+04  0.50400001928E-02 0.  1.
       -1   -1    0    0    0  501  0.00000000000E+00  0.00000000000E+00 -0.10148444688E+04  0.10148444688E+04  0.50400001928E-02 0. -1.
    10030    2    1    2    0    0  0.00000000000E+00  0.00000000000E+00  0.40110357140E+03  0.24307925091E+04  0.23974711984E+04 0.  0.
        4    1    3    3  502    0 -0.95296304311E+03  0.41944286038E+03 -0.40175390424E+03  0.11160101644E+04  0.12699999809E+01 0. -1.
       -4    1    3    3    0  502  0.95296304311E+03 -0.41944286038E+03  0.80285747564E+03  0.13147823446E+04  0.12699999809E+01 0.  1.
</event>
<event>
 5   0  0.2297414E-06  0.2405491E+04  0.7818609E-02  0.8437451E-01
       -1   -1    0    0    0  501  0.00000000000E+00  0.00000000000E+00  0.61640812948E+03  0.61640812950E+03  0.50400001928E-02 0. -1.
        1   -1    0    0  501    0  0.00000000000E+00  0.00000000000E+00 -0.23468172561E+04  0.23468172561E+04  0.50400001928E-02 0.  1.
    10030    2    1    2    0    0  0.00000000000E+00  0.00000000000E+00 -0.17304091266E+04  0.29632253856E+04  0.24054914135E+04 0.  0.
        1    1    3    3  502    0 -0.38506111459E+02 -0.11946755889E+04 -0.70055546093E+03  0.13854639790E+04  0.50400001928E-02 0. -1.
       -1    1    3    3    0  502  0.38506111459E+02  0.11946755889E+04 -0.10298536656E+04  0.15777614065E+04  0.50400001928E-02 0.  1.
</event>
<event>
 5   0  0.2149417E-06  0.2401134E+04  0.7818609E-02  0.8439079E-01
        1   -1    0    0  501    0  0.00000000000E+00  0.00000000000E+00  0.21079130007E+04  0.21079130007E+04  0.50400001928E-02 0.  1.
       -1   -1    0    0    0  501  0.00000000000E+00  0.00000000000E+00 -0.68378599974E+03  0.68378599976E+03  0.50400001928E-02 0. -1.
    10030    2    1    2    0    0  0.00000000000E+00  0.00000000000E+00  0.14241270010E+04  0.27916990005E+04  0.24011342308E+04 0.  0.
        5    1    3    3  502    0  0.36809993718E+03  0.82839834055E+03  0.16272447898E+04  0.18627101413E+04  0.46999998093E+01 0.  1.
       -5    1    3    3    0  502 -0.36809993718E+03 -0.82839834055E+03 -0.20311778886E+03  0.92898885921E+03  0.46999998093E+01 0. -1.
</event>
<event>
 5   0  0.5440503E-06  0.2401916E+04  0.7818609E-02  0.8438787E-01
        2   -1    0    0  501    0  0.00000000000E+00  0.00000000000E+00  0.19705201351E+04  0.19705201351E+04  0.25500000920E-02 0. -1.
       -2   -1    0    0    0  501  0.00000000000E+00  0.00000000000E+00 -0.73193865910E+03  0.73193865910E+03  0.25500000920E-02 0.  1.
    10030    2    1    2    0    0  0.00000000000E+00  0.00000000000E+00  0.12385814760E+04  0.27024587942E+04  0.24019157899E+04 0.  0.
        3    1    3    3  502    0 -0.67491774743E+02 -0.22029485279E+03  0.19454204907E+04  0.19590165537E+04  0.10100000352E+00 0. -1.
       -3    1    3    3    0  502  0.67491774743E+02  0.22029485279E+03 -0.70683901478E+03  0.74344224042E+03  0.10100000352E+00 0.  1.
</event>
<event>
 5   0  0.5268358E-06  0.2398885E+04  0.7818609E-02  0.8439921E-01
       -2   -1    0    0    0  501  0.00000000000E+00  0.00000000000E+00  0.81857381077E+03  0.81857381077E+03  0.25500000920E-02 0. -1.
        2   -1    0    0  501    0  0.00000000000E+00  0.00000000000E+00 -0.17575224097E+04  0.17575224097E+04  0.25500000920E-02 0.  1.
    10030    2    1    2    0    0  0.00000000000E+00  0.00000000000E+00 -0.93894859896E+03  0.25760962205E+04  0.23988845878E+04 0.  0.
        2    1    3    3  502    0  0.11983625775E+04 -0.77051609421E+01 -0.52348463944E+03  0.13077340725E+04  0.25500000920E-02 0. -1.
       -2    1    3    3    0  502 -0.11983625775E+04  0.77051609421E+01 -0.41546395951E+03  0.12683621480E+04  0.25500000920E-02 0.  1.
</event>
<event>
 5   0  0.2254269E-06  0.2399613E+04  0.7818609E-02  0.8439649E-01
       -1   -1    0    0    0  501  0.00000000000E+00  0.00000000000E+00  0.51950133208E+03  0.51950133211E+03  0.50400001928E-02 0. -1.
        1   -1    0    0  501    0  0.00000000000E+00  0.00000000000E+00 -0.27709942749E+04  0.27709942749E+04  0.50400001928E-02 0.  1.
    10030    2    1    2    0    0  0.00000000000E+00  0.00000000000E+00 -0.22514929428E+04  0.32904956070E+04  0.23996126496E+04 0.  0.
        2    1    3    3  502    0  0.50404144765E+03  0.88160456203E+03 -0.20019070564E+04  0.22447530481E+04  0.25500000920E-02 0.  1.
       -2    1    3    3    0  502 -0.50404144765E+03 -0.88160456203E+03 -0.24958588645E+03  0.10457425589E+04  0.25500000920E-02 0. -1.
</event>
<event>
 5   0  0.2254269E-06  0.2402032E+04  0.7818609E-02  0.8438743E-01
       -1   -1    0    0    0  501  0.00000000000E+00  0.00000000000E+00  0.49381815181E+03  0.49381815184E+03  0.50400001928E-02 0. -1.
        1   -1    0    0  501    0  0.00000000000E+00  0.00000000000E+00 -0.29209941894E+04  0.29209941895E+04  0.50400001928E-02 0.  1.
    10030    2    1    2    0    0  0.00000000000E+00  0.00000000000E+00 -0.24271760376E+04  0.34148123413E+04  0.24020324329E+04 0.  0.
        2    1    3    3  502    0 -0.46925468037E+03  0.73354154949E+03 -0.37700456523E+02  0.87161028235E+03  0.25500000920E-02 0. -1.
       -2    1    3    3    0  502  0.46925468037E+03 -0.73354154949E+03 -0.23894755811E+04  0.25432020589E+04  0.25500000920E-02 0.  1.
</event>
<event>
 5   0  0.5349036E-06  0.2386629E+04  0.7818609E-02  0.8444526E-01
       -2   -1    0    0    0  501  0.00000000000E+00  0.00000000000E+00  0.74347913916E+03  0.74347913916E+03  0.25500000920E-02 0.  1.
        2   -1    0    0  501    0  0.00000000000E+00  0.00000000000E+00 -0.19153189929E+04  0.19153189929E+04  0.25500000920E-02 0. -1.
    10030    2    1    2    0    0  0.00000000000E+00  0.00000000000E+00 -0.11718398538E+04  0.26587981321E+04  0.23866291845E+04 0.  0.
        1    1    3    3  502    0 -0.90881795429E+03  0.72116944132E+03 -0.89698285172E+03  0.14664970758E+04  0.50400001928E-02 0. -1.
       -1    1    3    3    0  502  0.90881795429E+03 -0.72116944132E+03 -0.27485700205E+03  0.11923010562E+04  0.50400001928E-02 0.  1.
</event>
<event>
 5   0  0.2215700E-06  0.2406643E+04  0.7818609E-02  0.8437021E-01
        1   -1    0    0  501    0  0.00000000000E+00  0.00000000000E+00  0.11900597528E+04  0.11900597528E+04  0.50400001928E-02 0.  1.
       -1   -1    0    0    0  501  0.00000000000E+00  0.00000000000E+00 -0.12167314473E+04  0.12167314473E+04  0.50400001928E-02 0. -1.
    10030    2    1    2    0    0  0.00000000000E+00  0.00000000000E+00 -0.26671694563E+02  0.24067912001E+04  0.24066434097E+04 0.  0.
        3    1    3    3  502    0 -0.38985068688E+03 -0.11195557209E+04 -0.21973298005E+03  0.12056828617E+04  0.10100000352E+00 0. -1.
       -3    1    3    3    0  502  0.38985068688E+03  0.11195557209E+04  0.19306128549E+03  0.12011083384E+04  0.10100000352E+00 0.  1.
</event>
<event>
 5   0  0.5349036E-06  0.2403016E+04  0.7818609E-02  0.8438375E-01
       -2   -1    0    0    0  501  0.00000000000E+00  0.00000000000E+00  0.89201614691E+03  0.89201614691E+03  0.25500000920E-02 0. -1.
        2   -1    0    0  501    0  0.00000000000E+00  0.00000000000E+00 -0.16183803837E+04  0.16183803837E+04  0.25500000920E-02 0.  1.
    10030    2    1    2    0    0  0.00000000000E+00  0.00000000000E+00 -0.72636423683E+03  0.25103965307E+04  0.24030159668E+04 0.  0.
        1    1    3    3  502    0  0.89967433648E+02  0.24433661457E+03  0.86218880263E+03  0.90064646324E+03  0.50400001928E-02 0. -1.
       -1    1    3    3    0  502 -0.89967433648E+02 -0.24433661457E+03 -0.15885530395E+04  0.16097500674E+04  0.50400001928E-02 0.  1.
</event>
<event>
 5   0  0.2254269E-06  0.2404946E+04  0.7818609E-02  0.8437654E-01
       -1   -1    0    0    0  501  0.00000000000E+00  0.00000000000E+00  0.10566098440E+04  0.10566098440E+04  0.50400001928E-02 0. -1.
        1   -1    0    0  501    0  0.00000000000E+00  0.00000000000E+00 -0.13684727449E+04  0.13684727449E+04  0.50400001928E-02 0.  1.
    10030    2    1    2    0    0  0.00000000000E+00  0.00000000000E+00 -0.31186290086E+03  0.24250825889E+04  0.24049463807E+04 0.  0.
        2    1    3    3  502    0  0.49160679963E+03  0.99867964404E+03 -0.61460643044E+03  0.12715263824E+04  0.25500000920E-02 0.  1.
       -2    1    3    3    0  502 -0.49160679963E+03 -0.99867964404E+03  0.30274352959E+03  0.11535562065E+04  0.25500000920E-02 0. -1.
</event>
<event>
 5   0  0.2149029E-06  0.2418668E+04  0.7818609E-02  0.8432547E-01
        1   -1    0    0  501    0  0.00000000000E+00  0.00000000000E+00  0.10996933521E+04  0.10996933521E+04  0.50400001928E-02 0.  1.
       -1   -1    0    0    0  501  0.00000000000E+00  0.00000000000E+00 -0.13299059319E+04  0.13299059319E+04  0.50400001928E-02 0. -1.
    10030    2    1    2    0    0  0.00000000000E+00  0.00000000000E+00 -0.23021257981E+03  0.24295992840E+04  0.24186679907E+04 0.  0.
        4    1    3    3  502    0 -0.46034196862E+03 -0.60894170449E+02  0.10065711475E+04  0.11085169894E+04  0.12699999809E+01 0.  1.
       -4    1    3    3    0  502  0.46034196862E+03  0.60894170449E+02 -0.12367837273E+04  0.13210822946E+04  0.12699999809E+01 0. -1.
</event>
<event>
 5   0  0.5371843E-06  0.2395628E+04  0.7818609E-02  0.8441142E-01
       -2   -1    0    0    0  501  0.00000000000E+00  0.00000000000E+00  0.15392243019E+04  0.15392243019E+04  0.25500000920E-02 0.  1.
        2   -1    0    0  501    0  0.00000000000E+00  0.00000000000E+00 -0.93213112306E+03  0.93213112307E+03  0.25500000920E-02 0. -1.
    10030    2    1    2    0    0  0.00000000000E+00  0.00000000000E+00  0.60709317880E+03  0.24713554249E+04  0.23956284162E+04 0.  0.
        4    1    3    3  502    0 -0.43158501174E+03  0.10816763711E+04  0.59252252949E+03  0.13066652039E+04  0.12699999809E+01 0.  1.
       -4    1    3    3    0  502  0.43158501174E+03 -0.10816763711E+04  0.14570649312E+02  0.11646902210E+04  0.12699999809E+01 0. -1.
</event>
<event>
 5   0  0.5268358E-06  0.2397111E+04  0.7818609E-02  0.8440586E-01
       -2   -1    0    0    0  501  0.00000000000E+00  0.00000000000E+00  0.65002462840E+03  0.65002462840E+03  0.25500000920E-02 0.  1.
        2   -1    0    0  501    0  0.00000000000E+00  0.00000000000E+00 -0.22099711482E+04  0.22099711482E+04  0.25500000920E-02 0. -1.
    10030    2    1    2    0    0  0.00000000000E+00  0.00000000000E+00 -0.15599465198E+04  0.28599957766E+04  0.23971113235E+04 0.  0.
        2    1    3    3  502    0  0.62152765079E+03 -0.91194517619E+03 -0.13377974574E+04  0.17342556507E+04  0.25500000920E-02 0. -1.
       -2    1    3    3    0  502 -0.62152765079E+03  0.91194517619E+03 -0.22214906242E+03  0.11257401259E+04  0.25500000920E-02 0.  1.
</event>
<event>
 5   0  0.2149417E-06  0.2388833E+04  0.7818609E-02  0.8443696E-01
       -1   -1    0    0    0  501  0.00000000000E+00  0.00000000000E+00  0.14553026664E+04  0.14553026664E+04  0.50400001928E-02 0. -1.
        1   -1    0    0  501    0  0.00000000000E+00  0.00000000000E+00 -0.98029813076E+03  0.98029813077E+03  0.50400001928E-02 0.  1.
    10030    2    1    2    0    0  0.00000000000E+00  0.00000000000E+00  0.47500453565E+03  0.24356007972E+04  0.23888327556E+04 0.  0.
        5    1    3    3  502    0 -0.10839928452E+04 -0.12499226029E+03  0.73275354479E+03  0.13143870819E+04  0.46999998093E+01 0. -1.
       -5    1    3    3    0  502  0.10839928452E+04  0.12499226029E+03 -0.25774900914E+03  0.11212137153E+04  0.46999998093E+01 0.  1.
</event>
<event>
 5   0  0.5379778E-06  0.2356020E+04  0.7818609E-02  0.8456155E-01
        2   -1    0    0  501    0  0.00000000000E+00  0.00000000000E+00  0.15979698895E+04  0.15979698895E+04  0.25500000920E-02 0. -1.
       -2   -1    0    0    0  501  0.00000000000E+00  0.00000000000E+00 -0.86841941982E+03  0.86841941982E+03  0.25500000920E-02 0.  1.
    10030    2    1    2    0    0  0.00000000000E+00  0.00000000000E+00  0.72955046965E+03  0.24663893093E+04  0.23560204450E+04 0.  0.
        5    1    3    3  502    0  0.10782075156E+04  0.20346459731E+03 -0.83974465976E+02  0.11004558556E+04  0.46999998093E+01 0.  1.
       -5    1    3    3    0  502 -0.10782075156E+04 -0.20346459731E+03  0.81352493562E+03  0.13659334537E+04  0.46999998093E+01 0. -1.
</event>
<event>
 5   0  0.5268358E-06  0.2400771E+04  0.7818609E-02  0.8439215E-01
       -2   -1    0    0    0  501  0.00000000000E+00  0.00000000000E+00  0.19271740626E+04  0.19271740626E+04  0.25500000920E-02 0.  1.
        2   -1    0    0  501    0  0.00000000000E+00  0.00000000000E+00 -0.74768830250E+03  0.74768830251E+03  0.25500000920E-02 0. -1.
    10030    2    1    2    0    0  0.00000000000E+00  0.00000000000E+00  0.11794857601E+04  0.26748623651E+04  0.24007711291E+04 0.  0.
        2    1    3    3  502    0  0.56485396068E+03  0.54962438790E+03 -0.41904290268E+03  0.89260513048E+03  0.25500000920E-02 0. -1.
       -2    1    3    3    0  502 -0.56485396068E+03 -0.54962438790E+03  0.15985286628E+04  0.17822572347E+04  0.25500000920E-02 0.  1.
</event>
<event>
 5   0  0.2254269E-06  0.2396246E+04  0.7818609E-02  0.8440910E-01
       -1   -1    0    0    0  501  0.00000000000E+00  0.00000000000E+00  0.65260690983E+03  0.65260690985E+03  0.50400001928E-02 0. -1.
        1   -1    0    0  501    0  0.00000000000E+00  0.00000000000E+00 -0.21996372851E+04  0.21996372851E+04  0.50400001928E-02 0.  1.
    10030    2    1    2    0    0  0.00000000000E+00  0.00000000000E+00 -0.15470303753E+04  0.28522441950E+04  0.23962458066E+04 0.  0.
        2    1    3    3  502    0 -0.10306701436E+04 -0.48225501100E+03 -0.12199125097E+04  0.16682437987E+04  0.25500000920E-02 0. -1.
       -2    1    3    3    0  502  0.10306701436E+04  0.48225501100E+03 -0.32711786561E+03  0.11840003963E+04  0.25500000920E-02 0.  1.
</event>
<event>
 5   0  0.2215700E-06  0.2397892E+04  0.7818609E-02  0.8440293E-01
       -1   -1    0    0    0  501  0.00000000000E+00  0.00000000000E+00  0.88491809391E+03  0.88491809392E+03  0.50400001928E-02 0.  1.
        1   -1    0    0  501    0  0.00000000000E+00  0.00000000000E+00 -0.16244115713E+04  0.16244115713E+04  0.50400001928E-02 0. -1.
    10030    2    1    2    0    0  0.00000000000E+00  0.00000000000E+00 -0.73949347735E+03  0.25093296652E+04  0.23978917335E+04 0.  0.
        3    1    3    3  502    0  0.11692808411E+04  0.27163628528E+02 -0.64565797764E+03  0.13359752177E+04  0.10100000352E+00 0. -1.
       -3    1    3    3    0  502 -0.11692808411E+04 -0.27163628528E+02 -0.93835499707E+02  0.11733544474E+04  0.10100000352E+00 0.  1.
</event>
<event>
 5   0  0.5349036E-06  0.2404568E+04  0.7818609E-02  0.8437795E-01
        2   -1    0    0  501    0  0.00000000000E+00  0.00000000000E+00  0.21295912227E+04  0.21295912227E+04  0.25500000920E-02 0. -1.
       -2   -1    0    0    0  501  0.00000000000E+00  0.00000000000E+00 -0.67876250585E+03  0.67876250586E+03  0.25500000920E-02 0.  1.
    10030    2    1    2    0    0  0.00000000000E+00  0.00000000000E+00  0.14508287169E+04  0.28083537286E+04  0.24045678820E+04 0.  0.
        1    1    3    3  502    0 -0.86810604534E+03 -0.18840129478E+03 -0.22080886208E+03  0.91534676895E+03  0.50400001928E-02 0.  1.
       -1    1    3    3    0  502  0.86810604534E+03  0.18840129478E+03  0.16716375789E+04  0.18930069596E+04  0.50400001928E-02 0. -1.
</event>
<event>
 5   0  0.2215700E-06  0.2401245E+04  0.7818609E-02  0.8439038E-01
        1   -1    0    0  501    0  0.00000000000E+00  0.00000000000E+00  0.10810004439E+04  0.10810004439E+04  0.50400001928E-02 0.  1.
       -1   -1    0    0    0  501  0.00000000000E+00  0.00000000000E+00 -0.13334816565E+04  0.13334816565E+04  0.50400001928E-02 0. -1.
    10030    2    1    2    0    0  0.00000000000E+00  0.00000000000E+00 -0.25248121255E+03  0.24144821004E+04  0.24012448960E+04 0.  0.
        3    1    3    3  502    0  0.11338989012E+04 -0.26429684904E+03  0.16848732757E+03  0.11764214943E+04  0.10100000352E+00 0.  1.
       -3    1    3    3    0  502 -0.11338989012E+04  0.26429684904E+03 -0.42096854011E+03  0.12380606061E+04  0.10100000352E+00 0. -1.
</event>
<event>
 5   0  0.5268358E-06  0.2399612E+04  0.7818609E-02  0.8439649E-01
        2   -1    0    0  501    0  0.00000000000E+00  0.00000000000E+00  0.14308388289E+04  0.14308388289E+04  0.25500000920E-02 0.  1.
       -2   -1    0    0    0  501  0.00000000000E+00  0.00000000000E+00 -0.10060772044E+04  0.10060772044E+04  0.25500000920E-02 0. -1.
    10030    2    1    2    0    0  0.00000000000E+00  0.00000000000E+00  0.42476162454E+03  0.24369160333E+04  0.23996119094E+04 0.  0.
        2    1    3    3  502    0 -0.29933979241E+03  0.25149082867E+03 -0.93957344369E+03  0.10176690053E+04  0.25500000920E-02 0. -1.
       -2    1    3    3    0  502  0.29933979241E+03 -0.25149082867E+03  0.13643350682E+04  0.14192470281E+04  0.25500000920E-02 0.  1.
</event>
<event>
 5   0  0.5440503E-06  0.2401848E+04  0.7818609E-02  0.8438812E-01
       -2   -1    0    0    0  501  0.00000000000E+00  0.00000000000E+00  0.11150352809E+04  0.11150352809E+04  0.25500000920E-02 0.  1.
        2   -1    0    0  501    0  0.00000000000E+00  0.00000000000E+00 -0.12934284055E+04  0.12934284055E+04  0.25500000920E-02 0. -1.
    10030    2    1    2    0    0  0.00000000000E+00  0.00000000000E+00 -0.17839312463E+03  0.24084636864E+04  0.24018478764E+04 0.  0.
        3    1    3    3  502    0  0.80260451019E+03 -0.37612721656E+03 -0.90172016726E+03  0.12644148659E+04  0.10100000352E+00 0. -1.
       -3    1    3    3    0  502 -0.80260451019E+03  0.37612721656E+03  0.72332704263E+03  0.11440488205E+04  0.10100000352E+00 0.  1.
</event>
<event>
 5   0  0.5349036E-06  0.2396053E+04  0.7818609E-02  0.8440983E-01
        2   -1    0    0  501    0  0.00000000000E+00  0.00000000000E+00  0.19181291008E+04  0.19181291008E+04  0.25500000920E-02 0.  1.
       -2   -1    0    0    0  501  0.00000000000E+00  0.00000000000E+00 -0.74826397107E+03  0.74826397107E+03  0.25500000920E-02 0. -1.
    10030    2    1    2    0    0  0.00000000000E+00  0.00000000000E+00  0.11698651297E+04  0.26663930718E+04  0.23960525019E+04 0.  0.
        1    1    3    3  502    0 -0.95418573973E+02  0.14370415742E+03 -0.73437184582E+03  0.75435906376E+03  0.50400001928E-02 0. -1.
       -1    1    3    3    0  502  0.95418573973E+02 -0.14370415742E+03  0.19042369755E+04  0.19120340081E+04  0.50400001928E-02 0.  1.
</event>
<event>
 5   0  0.5379778E-06  0.2396842E+04  0.7818609E-02  0.8440687E-01
       -2   -1    0    0    0  501  0.00000000000E+00  0.00000000000E+00  0.93098215115E+03  0.93098215115E+03  0.25500000920E-02 0.  1.
        2   -1    0    0  501    0  0.00000000000E+00  0.00000000000E+00 -0.15426852211E+04  0.15426852211E+04  0.25500000920E-02 0. -1.
    10030    2    1    2    0    0  0.00000000000E+00  0.00000000000E+00 -0.61170306993E+03  0.24736673722E+04  0.23968415932E+04 0.  0.
        5    1    3    3  502    0 -0.13663513786E+03  0.10949318219E+04 -0.78843473661E+03  0.13561697089E+04  0.46999998093E+01 0. -1.
       -5    1    3    3    0  502  0.13663513786E+03 -0.10949318219E+04  0.17673166668E+03  0.11174976633E+04  0.46999998093E+01 0.  1.
</event>
<event>
 5   0  0.2149029E-06  0.2397453E+04  0.7818609E-02  0.8440458E-01
       -1   -1    0    0    0  501  0.00000000000E+00  0.00000000000E+00  0.13612305006E+04  0.13612305006E+04  0.50400001928E-02 0.  1.
        1   -1    0    0  501    0  0.00000000000E+00  0.00000000000E+00 -0.10556219824E+04  0.10556219824E+04  0.50400001928E-02 0. -1.
    10030    2    1    2    0    0  0.00000000000E+00  0.00000000000E+00  0.30560851819E+03  0.24168524829E+04  0.23974526811E+04 0.  0.
        4    1    3    3  502    0  0.65092237194E+03  0.82467726906E+02 -0.85852961547E+03  0.10805441101E+04  0.12699999809E+01 0. -1.
       -4    1    3    3    0  502 -0.65092237194E+03 -0.82467726906E+02  0.11641381337E+04  0.13363083729E+04  0.12699999809E+01 0.  1.
</event>
<event>
 5   0  0.2149417E-06  0.2400288E+04  0.7818609E-02  0.8439396E-01
       -1   -1    0    0    0  501  0.00000000000E+00  0.00000000000E+00  0.15776943303E+04  0.15776943303E+04  0.50400001928E-02 0.  1.
        1   -1    0    0  501    0  0.00000000000E+00  0.00000000000E+00 -0.91294333996E+03  0.91294333998E+03  0.50400001928E-02 0. -1.
    10030    2    1    2    0    0  0.00000000000E+00  0.00000000000E+00  0.66475099033E+03  0.24906376703E+04  0.24002879255E+04 0.  0.
        5    1    3    3  502    0  0.68355987155E+03  0.41786712540E+03  0.12595742026E+04  0.14927880943E+04  0.46999998093E+01 0.  1.
       -5    1    3    3    0  502 -0.68355987155E+03 -0.41786712540E+03 -0.59482321228E+03  0.99784957602E+03  0.46999998093E+01 0. -1.
</event>
<event>
 5   0  0.5371843E-06  0.2399638E+04  0.7818609E-02  0.8439639E-01
       -2   -1    0    0    0  501  0.00000000000E+00  0.00000000000E+00  0.68417508513E+03  0.68417508513E+03  0.25500000920E-02 0. -1.
        2   -1    0    0  501    0  0.00000000000E+00  0.00000000000E+00 -0.21040886558E+04  0.21040886559E+04  0.25500000920E-02 0.  1.
    10030    2    1    2    0    0  0.00000000000E+00  0.00000000000E+00 -0.14199135707E+04  0.27882637410E+04  0.23996375020E+04 0.  0.
        4    1    3    3  502    0  0.69241451584E+03  0.92453782939E+03 -0.33280468234E+03  0.12020684794E+04  0.12699999809E+01 0.  1.
       -4    1    3    3    0  502 -0.69241451584E+03 -0.92453782939E+03 -0.10871088884E+04  0.15861952616E+04  0.12699999809E+01 0. -1.
</event>
<event>
 5   0  0.2149029E-06  0.2409049E+04  0.7818609E-02  0.8436124E-01
       -1   -1    0    0    0  501  0.00000000000E+00  0.00000000000E+00  0.24046469438E+04  0.24046469438E+04  0.50400001928E-02 0. -1.
        1   -1    0    0  501    0  0.00000000000E+00  0.00000000000E+00 -0.60336460173E+03  0.60336460175E+03  0.50400001928E-02 0.  1.
    10030    2    1    2    0    0  0.00000000000E+00  0.00000000000E+00  0.18012823421E+04  0.30080115456E+04  0.24090486468E+04 0.  0.
        4    1    3    3  502    0 -0.14089408959E+03  0.88485082196E+03  0.19058198075E+04  0.21059351540E+04  0.12699999809E+01 0. -1.
       -4    1    3    3    0  502  0.14089408959E+03 -0.88485082196E+03 -0.10453746537E+03  0.90207639154E+03  0.12699999809E+01 0.  1.
</event>
<event>
 5   0  0.2215700E-06  0.2399018E+04  0.7818609E-02  0.8439871E-01
        1   -1    0    0  501    0  0.00000000000E+00  0.00000000000E+00  0.12631279057E+04  0.12631279057E+04  0.50400001928E-02 0.  1.
       -1   -1    0    0    0  501  0.00000000000E+00  0.00000000000E+00 -0.11390947590E+04  0.11390947590E+04  0.50400001928E-02 0. -1.
    10030    2    1    2    0    0  0.00000000000E+00  0.00000000000E+00  0.12403314670E+03  0.24022226647E+04  0.23990184471E+04 0.  0.
        3    1    3    3  502    0  0.88961903252E+03 -0.50780048866E+03 -0.56294764011E+03  0.11688427674E+04  0.10100000352E+00 0. -1.
       -3    1    3    3    0  502 -0.88961903252E+03  0.50780048866E+03  0.68698078681E+03  0.12333798973E+04  0.10100000352E+00 0.  1.
</event>
<event>
 5   0  0.5349036E-06  0.2411863E+04  0.7818609E-02  0.8435075E-01
        2   -1    0    0  501    0  0.00000000000E+00  0.00000000000E+00  0.11665678667E+04  0.11665678667E+04  0.25500000920E-02 0.  1.
       -2   -1    0    0    0  501  0.00000000000E+00  0.00000000000E+00 -0.12466236165E+04  0.12466236165E+04  0.25500000920E-02 0. -1.
    10030    2    1    2    0    0  0.00000000000E+00  0.00000000000E+00 -0.80055749798E+02  0.24131914831E+04  0.24118632240E+04 0.  0.
        1    1    3    3  502    0 -0.61567642359E+03  0.10194339155E+04  0.14972911119E+03  0.12003007012E+04  0.50400001928E-02 0.  1.
       -1    1    3    3    0  502  0.61567642359E+03 -0.10194339155E+04 -0.22978486098E+03  0.12128907819E+04  0.50400001928E-02 0. -1.
</event>
<event>
 5   0  0.2149417E-06  0.2411432E+04  0.7818609E-02  0.8435236E-01
        1   -1    0    0  501    0  0.00000000000E+00  0.00000000000E+00  0.14791705659E+04  0.14791705659E+04  0.50400001928E-02 0.  1.
       -1   -1    0    0    0  501  0.00000000000E+00  0.00000000000E+00 -0.98281466068E+03  0.98281466069E+03  0.50400001928E-02 0. -1.
    10030    2    1    2    0    0  0.00000000000E+00  0.00000000000E+00  0.49635590522E+03  0.24619852266E+04  0.24114315398E+04 0.  0.
        5    1    3    3  502    0 -0.62731904406E+03  0.72941254191E+03  0.99015736748E+03  0.13805815955E+04  0.46999998093E+01 0.  1.
       -5    1    3    3    0  502  0.62731904406E+03 -0.72941254191E+03 -0.49380146226E+03  0.10814036311E+04  0.46999998093E+01 0. -1.
</event>
<event>
 5   0  0.5371843E-06  0.2396757E+04  0.7818609E-02  0.8440719E-01
        2   -1    0    0  501    0  0.00000000000E+00  0.00000000000E+00  0.16401155562E+04  0.16401155562E+04  0.25500000920E-02 0. -1.
       -2   -1    0    0    0  501  0.00000000000E+00  0.00000000000E+00 -0.87561566737E+03  0.87561566738E+03  0.25500000920E-02 0.  1.
    10030    2    1    2    0    0  0.00000000000E+00  0.00000000000E+00  0.76449988883E+03  0.25157312236E+04  0.23967568732E+04 0.  0.
        4    1    3    3  502    0 -0.46680495048E+03 -0.63780251051E+02  0.15388245575E+04  0.16093344630E+04  0.12699999809E+01 0. -1.
       -4    1    3    3    0  502  0.46680495048E+03  0.63780251051E+02 -0.77432466865E+03  0.90639676058E+03  0.12699999809E+01 0.  1.
</event>
<event>
 5   0  0.5349036E-06  0.2400987E+04  0.7818609E-02  0.8439134E-01
        2   -1    0    0  501    0  0.00000000000E+00  0.00000000000E+00  0.16496401672E+04  0.16496401672E+04  0.25500000920E-02 0. -1.
       -2   -1    0    0    0  501  0.00000000000E+00  0.00000000000E+00 -0.87363571185E+03  0.87363571186E+03  0.25500000920E-02 0.  1.
    10030    2    1    2    0    0  0.00000000000E+00  0.00000000000E+00  0.77600445531E+03  0.25232758790E+04  0.24009869319E+04 0.  0.
        1    1    3    3  502    0  0.97798952439E+03  0.31690809160E+03 -0.26348312907E+03  0.10612811162E+04  0.50400001928E-02 0.  1.
       -1    1    3    3    0  502 -0.97798952439E+03 -0.31690809160E+03  0.10394875844E+04  0.14619947628E+04  0.50400001928E-02 0. -1.
</event>
<event>
 5   0  0.5440503E-06  0.2399802E+04  0.7818609E-02  0.8439578E-01
       -2   -1    0    0    0  501  0.00000000000E+00  0.00000000000E+00  0.13097595589E+04  0.13097595589E+04  0.25500000920E-02 0. -1.
        2   -1    0    0  501    0  0.00000000000E+00  0.00000000000E+00 -0.10992569231E+04  0.10992569231E+04  0.25500000920E-02 0.  1.
    10030    2    1    2    0    0  0.00000000000E+00  0.00000000000E+00  0.21050263581E+03  0.24090164819E+04  0.23998018773E+04 0.  0.
        3    1    3    3  502    0 -0.53127946128E+03  0.17274764440E+03  0.11712433987E+04  0.12976558572E+04  0.10100000352E+00 0. -1.
       -3    1    3    3    0  502  0.53127946128E+03 -0.17274764440E+03 -0.96074076285E+03  0.11113606247E+04  0.10100000352E+00 0.  1.
</event>
<event>
 5   0  0.5268358E-06  0.2398792E+04  0.7818609E-02  0.8439956E-01
        2   -1    0    0  501    0  0.00000000000E+00  0.00000000000E+00  0.12684748837E+04  0.12684748837E+04  0.25500000920E-02 0. -1.
       -2   -1    0    0    0  501  0.00000000000E+00  0.00000000000E+00 -0.11340791084E+04  0.11340791084E+04  0.25500000920E-02 0.  1.
    10030    2    1    2    0    0  0.00000000000E+00  0.00000000000E+00  0.13439577529E+03  0.24025539921E+04  0.23987920836E+04 0.  0.
        2    1    3    3  502    0  0.80855342569E+03  0.22654650701E+03 -0.79057319714E+03  0.11532943866E+04  0.25500000920E-02 0.  1.
       -2    1    3    3    0  502 -0.80855342569E+03 -0.22654650701E+03  0.92496897243E+03  0.12492596055E+04  0.25500000920E-02 0. -1.
</event>
<event>
 5   0  0.5349036E-06  0.2398664E+04  0.7818609E-02  0.8440004E-01
       -2   -1    0    0    0  501  0.00000000000E+00  0.00000000000E+00  0.10427112906E+04  0.10427112906E+04  0.25500000920E-02 0.  1.
        2   -1    0    0  501    0  0.00000000000E+00  0.00000000000E+00 -0.13794775772E+04  0.13794775772E+04  0.25500000920E-02 0. -1.
    10030    2    1    2    0    0  0.00000000000E+00  0.00000000000E+00 -0.33676628661E+03  0.24221888677E+04  0.23986636653E+04 0.  0.
        1    1    3    3  502    0  0.56443479957E+02 -0.70561050115E+02  0.10392691497E+04  0.10431898647E+04  0.50400001928E-02 0.  1.
       -1    1    3    3    0  502 -0.56443479957E+02  0.70561050115E+02 -0.13760354364E+04  0.13789990030E+04  0.50400001928E-02 0. -1.
</event>
<event>
 5   0  0.5379778E-06  0.2409319E+04  0.7818609E-02  0.8436023E-01
       -2   -1    0    0    0  501  0.00000000000E+00  0.00000000000E+00  0.94059768530E+03  0.94059768530E+03  0.25500000920E-02 0. -1.
        2   -1    0    0  501    0  0.00000000000E+00  0.00000000000E+00 -0.15428530882E+04  0.15428530882E+04  0.25500000920E-02 0.  1.
    10030    2    1    2    0    0  0.00000000000E+00  0.00000000000E+00 -0.60225540289E+03  0.24834507735E+04  0.24093186120E+04 0.  0.
        5    1    3    3  502    0  0.85536144298E+03 -0.18744561604E+03 -0.11538688885E+04  0.14485215080E+04  0.46999998093E+01 0.  1.
       -5    1    3    3    0  502 -0.85536144298E+03  0.18744561604E+03  0.55161348565E+03  0.10349292655E+04  0.46999998093E+01 0. -1.
</event>
<event>
 5   0  0.5268358E-06  0.2398655E+04  0.7818609E-02  0.8440007E-01
       -2   -1    0    0    0  501  0.00000000000E+00  0.00000000000E+00  0.10526270372E+04  0.10526270372E+04  0.25500000920E-02 0.  1.
        2   -1    0    0  501    0  0.00000000000E+00  0.00000000000E+00 -0.13664732026E+04  0.13664732026E+04  0.25500000920E-02 0. -1.
    10030    2    1    2    0    0  0.00000000000E+00  0.00000000000E+00 -0.31384616539E+03  0.24191002399E+04  0.23986551555E+04 0.  0.
        2    1    3    3  502    0 -0.59878947933E+02  0.60159390052E+03 -0.12015538757E+04  0.13450771077E+04  0.25500000920E-02 0. -1.
       -2    1    3    3    0  502  0.59878947933E+02 -0.60159390052E+03  0.88770771028E+03  0.10740231322E+04  0.25500000920E-02 0.  1.
</event>
<event>
 5   0  0.2215700E-06  0.2406616E+04  0.7818609E-02  0.8437031E-01
       -1   -1    0    0    0  501  0.00000000000E+00  0.00000000000E+00  0.72094198906E+03  0.72094198908E+03  0.50400001928E-02 0. -1.
        1   -1    0    0  501    0  0.00000000000E+00  0.00000000000E+00 -0.20084146955E+04  0.20084146955E+04  0.50400001928E-02 0.  1.
    10030    2    1    2    0    0  0.00000000000E+00  0.00000000000E+00 -0.12874727064E+04  0.27293566846E+04  0.24066162847E+04 0.  0.
        3    1    3    3  502    0  0.72452301574E+03 -0.16929385394E+02 -0.17331450249E+04  0.18785664460E+04  0.10100000352E+00 0.  1.
       -3    1    3    3    0  502 -0.72452301574E+03  0.16929385394E+02  0.44567231847E+03  0.85079023859E+03  0.10100000352E+00 0. -1.
</event>
<event>
 5   0  0.2297414E-06  0.2398606E+04  0.7818609E-02  0.8440026E-01
        1   -1    0    0  501    0  0.00000000000E+00  0.00000000000E+00  0.14841595753E+04  0.14841595753E+04  0.50400001928E-02 0.  1.
       -1   -1    0    0    0  501  0.00000000000E+00  0.00000000000E+00 -0.96911909432E+03  0.96911909434E+03  0.50400001928E-02 0. -1.
    10030    2    1    2    0    0  0.00000000000E+00  0.00000000000E+00  0.51504048099E+03  0.24532786697E+04  0.23986057479E+04 0.  0.
        1    1    3    3  502    0 -0.22823549888E+03  0.29193733363E+02 -0.94633160890E+03  0.97390309120E+03  0.50400001928E-02 0. -1.
       -1    1    3    3    0  502  0.22823549888E+03 -0.29193733363E+02  0.14613720899E+04  0.14793755785E+04  0.50400001928E-02 0.  1.
</event>
<event>
 5   0  0.5268358E-06  0.2398973E+04  0.7818609E-02  0.8439888E-01
       -2   -1    0    0    0  501  0.00000000000E+00  0.00000000000E+00  0.71333058721E+03  0.71333058722E+03  0.25500000920E-02 0.  1.
        2   -1    0    0  501    0  0.00000000000E+00  0.00000000000E+00 -0.20169721197E+04  0.20169721197E+04  0.25500000920E-02 0. -1.
    10030    2    1    2    0    0  0.00000000000E+00  0.00000000000E+00 -0.13036415325E+04  0.27303027070E+04  0.23989730358E+04 0.  0.
        2    1    3    3  502    0  0.11028636212E+04  0.42252728300E+03 -0.89036459381E+03  0.14790492155E+04  0.25500000920E-02 0. -1.
       -2    1    3    3    0  502 -0.11028636212E+04 -0.42252728300E+03 -0.41327693871E+03  0.12512534915E+04  0.25500000920E-02 0.  1.
</event>
<event>
 5   0  0.5379778E-06  0.2403286E+04  0.7818609E-02  0.8438274E-01
       -2   -1    0    0    0  501  0.00000000000E+00  0.00000000000E+00  0.56225927779E+03  0.56225927779E+03  0.25500000920E-02 0. -1.
        2   -1    0    0  501    0  0.00000000000E+00  0.00000000000E+00 -0.25681148951E+04  0.25681148951E+04  0.25500000920E-02 0.  1.
    10030    2    1    2    0    0  0.00000000000E+00  0.00000000000E+00 -0.20058556173E+04  0.31303741729E+04  0.24032864383E+04 0.  0.
        5    1    3    3  502    0  0.15378206430E-01 -0.42732328322E+03 -0.24657893091E+04  0.25025475411E+04  0.46999998093E+01 0.  1.
       -5    1    3    3    0  502 -0.15378206430E-01  0.42732328322E+03  0.45993369185E+03  0.62782663173E+03  0.46999998093E+01 0. -1.
</event>
<event>
 5   0  0.5379778E-06  0.2399364E+04  0.7818609E-02  0.8439742E-01
       -2   -1    0    0    0  501  0.00000000000E+00  0.00000000000E+00  0.23403417182E+04  0.23403417182E+04  0.25500000920E-02 0. -1.
        2   -1    0    0  501    0  0.00000000000E+00  0.00000000000E+00 -0.61496845339E+03  0.61496845339E+03  0.25500000920E-02 0.  1.
    10030    2    1    2    0    0  0.00000000000E+00  0.00000000000E+00  0.17253732648E+04  0.29553101716E+04  0.23993635213E+04 0.  0.
        5    1    3    3  502    0 -0.93566108646E+03 -0.60298966954E+02 -0.59133608185E+02  0.93947672017E+03  0.46999998093E+01 0.  1.
       -5    1    3    3    0  502  0.93566108646E+03  0.60298966954E+02  0.17845068730E+04  0.20158334514E+04  0.46999998093E+01 0. -1.
</event>
<event>
 5   0  0.2149029E-06  0.2406899E+04  0.7818609E-02  0.8436925E-01
       -1   -1    0    0    0  501  0.00000000000E+00  0.00000000000E+00  0.99826729639E+03  0.99826729641E+03  0.50400001928E-02 0.  1.
        1   -1    0    0  501    0  0.00000000000E+00  0.00000000000E+00 -0.14508040786E+04  0.14508040786E+04  0.50400001928E-02 0. -1.
    10030    2    1    2    0    0  0.00000000000E+00  0.00000000000E+00 -0.45253678219E+03  0.24490713750E+04  0.24068986395E+04 0.  0.
        4    1    3    3  502    0 -0.29029790058E+03 -0.83446961695E+03 -0.10577001345E+04  0.13781667534E+04  0.12699999809E+01 0. -1.
       -4    1    3    3    0  502  0.29029790058E+03  0.83446961695E+03  0.60516335232E+03  0.10709046216E+04  0.12699999809E+01 0.  1.
</event>
<event>
 5   0  0.2149417E-06  0.2400387E+04  0.7818609E-02  0.8439359E-01
       -1   -1    0    0    0  501  0.00000000000E+00  0.00000000000E+00  0.11136816735E+04  0.11136816735E+04  0.50400001928E-02 0. -1.
        1   -1    0    0  501    0  0.00000000000E+00  0.00000000000E+00 -0.12934254443E+04  0.12934254443E+04  0.50400001928E-02 0.  1.
    10030    2    1    2    0    0  0.00000000000E+00  0.00000000000E+00 -0.17974377084E+03  0.24071071178E+04  0.24003868133E+04 0.  0.
        5    1    3    3  502    0 -0.64599151825E+03 -0.86759564568E+03  0.43159829090E+03  0.11646142798E+04  0.46999998093E+01 0. -1.
       -5    1    3    3    0  502  0.64599151825E+03  0.86759564568E+03 -0.61134206174E+03  0.12424928380E+04  0.46999998093E+01 0.  1.
</event>
<event>
 5   0  0.5349036E-06  0.2325252E+04  0.7818609E-02  0.8468031E-01
        2   -1    0    0  501    0  0.00000000000E+00  0.00000000000E+00  0.12113493575E+04  0.12113493575E+04  0.25500000920E-02 0. -1.
       -2   -1    0    0    0  501  0.00000000000E+00  0.00000000000E+00 -0.11158623123E+04  0.11158623123E+04  0.25500000920E-02 0.  1.
    10030    2    1    2    0    0  0.00000000000E+00  0.00000000000E+00  0.95487045155E+02  0.23272116698E+04  0.23252518961E+04 0.  0.
        1    1    3    3  502    0  0.23297437296E+03 -0.88897601289E+03 -0.66499689946E+03  0.11343616206E+04  0.50400001928E-02 0.  1.
       -1    1    3    3    0  502 -0.23297437296E+03  0.88897601289E+03  0.76048394462E+03  0.11928500493E+04  0.50400001928E-02 0. -1.
</event>
<event>
 5   0  0.5371843E-06  0.2402171E+04  0.7818609E-02  0.8438691E-01
        2   -1    0    0  501    0  0.00000000000E+00  0.00000000000E+00  0.14825709261E+04  0.14825709261E+04  0.25500000920E-02 0.  1.
       -2   -1    0    0    0  501  0.00000000000E+00  0.00000000000E+00 -0.97304375019E+03  0.97304375019E+03  0.25500000920E-02 0. -1.
    10030    2    1    2    0    0  0.00000000000E+00  0.00000000000E+00  0.50952717595E+03  0.24556146763E+04  0.24021709963E+04 0.  0.
        4    1    3    3  502    0 -0.12820581147E+03  0.11807746057E+04  0.72071636201E+02  0.11898997156E+04  0.12699999809E+01 0.  1.
       -4    1    3    3    0  502  0.12820581147E+03 -0.11807746057E+04  0.43745553974E+03  0.12657149607E+04  0.12699999809E+01 0. -1.
</event>
<event>
 5   0  0.5268358E-06  0.2389951E+04  0.7818609E-02  0.8443275E-01
        2   -1    0    0  501    0  0.00000000000E+00  0.00000000000E+00  0.22290263265E+04  0.22290263265E+04  0.25500000920E-02 0. -1.
       -2   -1    0    0    0  501  0.00000000000E+00  0.00000000000E+00 -0.64062332075E+03  0.64062332075E+03  0.25500000920E-02 0.  1.
    10030    2    1    2    0    0  0.00000000000E+00  0.00000000000E+00  0.15884030058E+04  0.28696496473E+04  0.23899508341E+04 0.  0.
        2    1    3    3  502    0 -0.10199230337E+04  0.28622440146E+03  0.13021717204E+03  0.10672974818E+04  0.25500000920E-02 0.  1.
       -2    1    3    3    0  502  0.10199230337E+04 -0.28622440146E+03  0.14581858338E+04  0.18023521655E+04  0.25500000920E-02 0. -1.
</event>
<event>
 5   0  0.5268358E-06  0.2403448E+04  0.7818609E-02  0.8438214E-01
        2   -1    0    0  501    0  0.00000000000E+00  0.00000000000E+00  0.15499276238E+04  0.15499276238E+04  0.25500000920E-02 0.  1.
       -2   -1    0    0    0  501  0.00000000000E+00  0.00000000000E+00 -0.93174716413E+03  0.93174716413E+03  0.25500000920E-02 0. -1.
    10030    2    1    2    0    0  0.00000000000E+00  0.00000000000E+00  0.61818045966E+03  0.24816747879E+04  0.24034480798E+04 0.  0.
        2    1    3    3  502    0 -0.65567883410E+03 -0.99047704247E+03  0.12100446596E+03  0.11939855887E+04  0.25500000920E-02 0.  1.
       -2    1    3    3    0  502  0.65567883410E+03  0.99047704247E+03  0.49717599370E+03  0.12876891992E+04  0.25500000920E-02 0. -1.
</event>
<event>
 5   0  0.2254269E-06  0.2397290E+04  0.7818609E-02  0.8440519E-01
       -1   -1    0    0    0  501  0.00000000000E+00  0.00000000000E+00  0.62880004955E+03  0.62880004957E+03  0.50400001928E-02 0. -1.
        1   -1    0    0  501    0  0.00000000000E+00  0.00000000000E+00 -0.22849078215E+04  0.22849078215E+04  0.50400001928E-02 0.  1.
    10030    2    1    2    0    0  0.00000000000E+00  0.00000000000E+00 -0.16561077720E+04  0.29137078711E+04  0.23972902631E+04 0.  0.
        2    1    3    3  502    0  0.73887947204E+03 -0.46428781463E+03  0.17069379881E+03  0.88918075889E+03  0.25500000920E-02 0. -1.
       -2    1    3    3    0  502 -0.73887947204E+03  0.46428781463E+03 -0.18268015708E+04  0.20245271122E+04  0.25500000920E-02 0.  1.
</event>
<event>
 5   0  0.2215700E-06  0.2398159E+04  0.7818609E-02  0.8440193E-01
       -1   -1    0    0    0  501  0.00000000000E+00  0.00000000000E+00  0.45051881846E+03  0.45051881848E+03  0.50400001928E-02 0.  1.
        1   -1    0    0  501    0  0.00000000000E+00  0.00000000000E+00 -0.31914117580E+04  0.31914117580E+04  0.50400001928E-02 0. -1.
    10030    2    1    2    0    0  0.00000000000E+00  0.00000000000E+00 -0.27408929396E+04  0.36419305765E+04  0.23981585056E+04 0.  0.
        3    1    3    3  502    0  0.77536772976E+03 -0.78472457757E+03 -0.65684370436E+03  0.12839125520E+04  0.10100000352E+00 0.  1.
       -3    1    3    3    0  502 -0.77536772976E+03  0.78472457757E+03 -0.20840492352E+04  0.23580180245E+04  0.10100000352E+00 0. -1.
</event>
<event>
 5   0  0.5379778E-06  0.2395587E+04  0.7818609E-02  0.8441158E-01
        2   -1    0    0  501    0  0.00000000000E+00  0.00000000000E+00  0.16911651426E+04  0.16911651426E+04  0.25500000920E-02 0. -1.
       -2   -1    0    0    0  501  0.00000000000E+00  0.00000000000E+00 -0.84835518626E+03  0.84835518627E+03  0.25500000920E-02 0.  1.
    10030    2    1    2    0    0  0.00000000000E+00  0.00000000000E+00  0.84280995634E+03  0.25395203289E+04  0.23955865416E+04 0.  0.
        5    1    3    3  502    0 -0.94004171843E+03  0.19050648001E+02  0.12080445426E+04  0.15308282289E+04  0.46999998093E+01 0. -1.
       -5    1    3    3    0  502  0.94004171843E+03 -0.19050648001E+02 -0.36523458622E+03  0.10086921000E+04  0.46999998093E+01 0.  1.
</event>
<event>
 5   0  0.5349036E-06  0.2400448E+04  0.7818609E-02  0.8439336E-01
       -2   -1    0    0    0  501  0.00000000000E+00  0.00000000000E+00  0.65938073607E+03  0.65938073608E+03  0.25500000920E-02 0.  1.
        2   -1    0    0  501    0  0.00000000000E+00  0.00000000000E+00 -0.21846826498E+04  0.21846826498E+04  0.25500000920E-02 0. -1.
    10030    2    1    2    0    0  0.00000000000E+00  0.00000000000E+00 -0.15253019137E+04  0.28440633859E+04  0.24004480030E+04 0.  0.
        1    1    3    3  502    0 -0.27074175995E+03 -0.10874549195E+04 -0.12718117595E+04  0.16951001311E+04  0.50400001928E-02 0. -1.
       -1    1    3    3    0  502  0.27074175995E+03  0.10874549195E+04 -0.25349015420E+03  0.11489632548E+04  0.50400001928E-02 0.  1.
</event>
<event>
 5   0  0.2149029E-06  0.2400582E+04  0.7818609E-02  0.8439286E-01
        1   -1    0    0  501    0  0.00000000000E+00  0.00000000000E+00  0.13450961639E+04  0.13450961639E+04  0.50400001928E-02 0.  1.
       -1   -1    0    0    0  501  0.00000000000E+00  0.00000000000E+00 -0.10710747111E+04  0.10710747111E+04  0.50400001928E-02 0. -1.
    10030    2    1    2    0    0  0.00000000000E+00  0.00000000000E+00  0.27402145286E+03  0.24161708750E+04  0.24005820004E+04 0.  0.
        4    1    3    3  502    0  0.89465004041E+03  0.79974630419E+03  0.16371652532E+03  0.12111141810E+04  0.12699999809E+01 0.  1.
       -4    1    3    3    0  502 -0.89465004041E+03 -0.79974630419E+03  0.11030492754E+03  0.12050566940E+04  0.12699999809E+01 0. -1.
</event>
<event>
 5   0  0.2215700E-06  0.2387530E+04  0.7818609E-02  0.8444187E-01
       -1   -1    0    0    0  501  0.00000000000E+00  0.00000000000E+00  0.77768255718E+03  0.77768255720E+03  0.50400001928E-02 0.  1.
        1   -1    0    0  501    0  0.00000000000E+00  0.00000000000E+00 -0.18324629787E+04  0.18324629787E+04  0.50400001928E-02 0. -1.
    10030    2    1    2    0    0  0.00000000000E+00  0.00000000000E+00 -0.10547804215E+04  0.26101455359E+04  0.23875296817E+04 0.  0.
        3    1    3    3  502    0  0.30076606935E+03 -0.15162276911E+03  0.72465713664E+03  0.79911054834E+03  0.10100000352E+00 0.  1.
       -3    1    3    3    0  502 -0.30076606935E+03  0.15162276911E+03 -0.17794375582E+04  0.18110349876E+04  0.10100000352E+00 0. -1.
</event>
<event>
 5   0  0.5379778E-06  0.2402566E+04  0.7818609E-02  0.8438543E-01
        2   -1    0    0  501    0  0.00000000000E+00  0.00000000000E+00  0.12951356829E+04  0.12951356829E+04  0.25500000920E-02 0.  1.
       -2   -1    0    0    0  501  0.00000000000E+00  0.00000000000E+00 -0.11142318374E+04  0.11142318374E+04  0.25500000920E-02 0. -1.
    10030    2    1    2    0    0  0.00000000000E+00  0.00000000000E+00  0.18090384558E+03  0.24093675203E+04  0.24025664708E+04 0.  0.
        5    1    3    3  502    0  0.14124226440E+03  0.74192252154E+03  0.10272595165E+04  0.12750225918E+04  0.46999998093E+01 0.  1.
       -5    1    3    3    0  502 -0.14124226440E+03 -0.74192252154E+03 -0.84635567093E+03  0.11343449286E+04  0.46999998093E+01 0. -1.
</event>
<event>
 5   0  0.2254269E-06  0.2407989E+04  0.7818609E-02  0.8436519E-01
        1   -1    0    0  501    0  0.00000000000E+00  0.00000000000E+00  0.13828266236E+04  0.13828266236E+04  0.50400001928E-02 0. -1.
       -1   -1    0    0    0  501  0.00000000000E+00  0.00000000000E+00 -0.10482893803E+04  0.10482893803E+04  0.50400001928E-02 0.  1.
    10030    2    1    2    0    0  0.00000000000E+00  0.00000000000E+00  0.33453724326E+03  0.24311160039E+04  0.24079887577E+04 0.  0.
        2    1    3    3  502    0  0.84353513922E+02 -0.52761026182E+03  0.12565725019E+04  0.13654532421E+04  0.25500000920E-02 0. -1.
       -2    1    3    3    0  502 -0.84353513922E+02  0.52761026182E+03 -0.92203525869E+03  0.10656627618E+04  0.25500000920E-02 0.  1.
</event>
<event>
 5   0  0.5268358E-06  0.2401935E+04  0.7818609E-02  0.8438780E-01
        2   -1    0    0  501    0  0.00000000000E+00  0.00000000000E+00  0.16521255848E+04  0.16521255848E+04  0.25500000920E-02 0. -1.
       -2   -1    0    0    0  501  0.00000000000E+00  0.00000000000E+00 -0.87301030564E+03  0.87301030565E+03  0.25500000920E-02 0.  1.
    10030    2    1    2    0    0  0.00000000000E+00  0.00000000000E+00  0.77911527918E+03  0.25251358905E+04  0.24019347716E+04 0.  0.
        2    1    3    3  502    0 -0.50051325757E+03 -0.10449624214E+03 -0.75286870203E+03  0.91007926475E+03  0.25500000920E-02 0.  1.
       -2    1    3    3    0  502  0.50051325757E+03  0.10449624214E+03  0.15319839812E+04  0.16150566257E+04  0.25500000920E-02 0. -1.
</event>
<event>
 5   0  0.5371843E-06  0.2399344E+04  0.7818609E-02  0.8439749E-01
        2   -1    0    0  501    0  0.00000000000E+00  0.00000000000E+00  0.63086594533E+03  0.63086594533E+03  0.25500000920E-02 0. -1.
       -2   -1    0    0    0  501  0.00000000000E+00  0.00000000000E+00 -0.22813295865E+04  0.22813295865E+04  0.25500000920E-02 0.  1.
    10030    2    1    2    0    0  0.00000000000E+00  0.00000000000E+00 -0.16504636412E+04  0.29121955319E+04  0.23993441989E+04 0.  0.
        4    1    3    3  502    0 -0.11123609282E+04 -0.15934309643E+03 -0.13351129366E+04  0.17450688306E+04  0.12699999809E+01 0.  1.
       -4    1    3    3    0  502  0.11123609282E+04  0.15934309643E+03 -0.31535070459E+03  0.11671267013E+04  0.12699999809E+01 0. -1.
</event>
<event>
 5   0  0.2297414E-06  0.2400383E+04  0.7818609E-02  0.8439360E-01
       -1   -1    0    0    0  501  0.00000000000E+00  0.00000000000E+00  0.12597584203E+04  0.12597584203E+04  0.50400001928E-02 0.  1.
        1   -1    0    0  501    0  0.00000000000E+00  0.00000000000E+00 -0.11434410267E+04  0.11434410267E+04  0.50400001928E-02 0. -1.
    10030    2    1    2    0    0  0.00000000000E+00  0.00000000000E+00  0.11631739358E+03  0.24031994470E+04  0.24003828540E+04 0.  0.
        1    1    3    3  502    0  0.97752772186E+03  0.56110769483E+03  0.47102246516E+03  0.12215827663E+04  0.50400001928E-02 0.  1.
       -1    1    3    3    0  502 -0.97752772186E+03 -0.56110769483E+03 -0.35470507158E+03  0.11816166807E+04  0.50400001928E-02 0. -1.
</event>
<event>
 5   0  0.2297414E-06  0.2398021E+04  0.7818609E-02  0.8440245E-01
       -1   -1    0    0    0  501  0.00000000000E+00  0.00000000000E+00  0.83110684684E+03  0.83110684686E+03  0.50400001928E-02 0.  1.
        1   -1    0    0  501    0  0.00000000000E+00  0.00000000000E+00 -0.17297731633E+04  0.17297731633E+04  0.50400001928E-02 0. -1.
    10030    2    1    2    0    0  0.00000000000E+00  0.00000000000E+00 -0.89866631647E+03  0.25608800102E+04  0.23980211171E+04 0.  0.
        1    1    3    3  502    0 -0.31377974978E+03  0.10340231833E+04 -0.10042011498E+04  0.14751547797E+04  0.50400001928E-02 0. -1.
       -1    1    3    3    0  502  0.31377974978E+03 -0.10340231833E+04  0.10553483332E+03  0.10857252304E+04  0.50400001928E-02 0.  1.
</event>
<event>
 5   0  0.2149417E-06  0.2398584E+04  0.7818609E-02  0.8440034E-01
       -1   -1    0    0    0  501  0.00000000000E+00  0.00000000000E+00  0.71345423571E+03  0.71345423573E+03  0.50400001928E-02 0. -1.
        1   -1    0    0  501    0  0.00000000000E+00  0.00000000000E+00 -0.20159690100E+04  0.20159690100E+04  0.50400001928E-02 0.  1.
    10030    2    1    2    0    0  0.00000000000E+00  0.00000000000E+00 -0.13025147743E+04  0.27294232457E+04  0.23985842735E+04 0.  0.
        5    1    3    3  502    0 -0.94804071769E+03  0.38448407959E+03  0.60900421782E+02  0.10248610448E+04  0.46999998093E+01 0. -1.
       -5    1    3    3    0  502  0.94804071769E+03 -0.38448407959E+03 -0.13634151961E+04  0.17045622009E+04  0.46999998093E+01 0.  1.
</event>
<event>
 5   0  0.5349036E-06  0.2399922E+04  0.7818609E-02  0.8439533E-01
       -2   -1    0    0    0  501  0.00000000000E+00  0.00000000000E+00  0.11028124437E+04  0.11028124437E+04  0.25500000920E-02 0. -1.
        2   -1    0    0  501    0  0.00000000000E+00  0.00000000000E+00 -0.13056678260E+04  0.13056678260E+04  0.25500000920E-02 0.  1.
    10030    2    1    2    0    0  0.00000000000E+00  0.00000000000E+00 -0.20285538228E+03  0.24084802697E+04  0.23999222703E+04 0.  0.
        1    1    3    3  502    0 -0.26183159606E+03 -0.10066429692E+04  0.49905444381E+03  0.11536642449E+04  0.50400001928E-02 0. -1.
       -1    1    3    3    0  502  0.26183159606E+03  0.10066429692E+04 -0.70190982609E+03  0.12548160248E+04  0.50400001928E-02 0.  1.
</event>
<event>
 5   0  0.5371843E-06  0.2407809E+04  0.7818609E-02  0.8436586E-01
       -2   -1    0    0    0  501  0.00000000000E+00  0.00000000000E+00  0.60153670736E+03  0.60153670737E+03  0.25500000920E-02 0.  1.
        2   -1    0    0  501    0  0.00000000000E+00  0.00000000000E+00 -0.24094725185E+04  0.24094725185E+04  0.25500000920E-02 0. -1.
    10030    2    1    2    0    0  0.00000000000E+00  0.00000000000E+00 -0.18079358111E+04  0.30110092258E+04  0.24078090998E+04 0.  0.
        4    1    3    3  502    0  0.16058686043E+03  0.66393154358E+03 -0.21436795783E+04  0.22498793260E+04  0.12699999809E+01 0. -1.
       -4    1    3    3    0  502 -0.16058686043E+03 -0.66393154358E+03  0.33574376719E+03  0.76112989983E+03  0.12699999809E+01 0.  1.
</event>
<event>
 5   0  0.2149029E-06  0.2389664E+04  0.7818609E-02  0.8443383E-01
       -1   -1    0    0    0  501  0.00000000000E+00  0.00000000000E+00  0.90197254684E+03  0.90197254685E+03  0.50400001928E-02 0. -1.
        1   -1    0    0  501    0  0.00000000000E+00  0.00000000000E+00 -0.15827799372E+04  0.15827799372E+04  0.50400001928E-02 0.  1.
    10030    2    1    2    0    0  0.00000000000E+00  0.00000000000E+00 -0.68080739040E+03  0.24847524841E+04  0.23896644544E+04 0.  0.
        4    1    3    3  502    0  0.43264124773E+03  0.80919738654E+03 -0.11361285117E+04  0.14604001053E+04  0.12699999809E+01 0.  1.
       -4    1    3    3    0  502 -0.43264124773E+03 -0.80919738654E+03  0.45532112126E+03  0.10243523788E+04  0.12699999809E+01 0. -1.
</event>
<event>
 5   0  0.2149417E-06  0.2392049E+04  0.7818609E-02  0.8442486E-01
       -1   -1    0    0    0  501  0.00000000000E+00  0.00000000000E+00  0.10050510528E+04  0.10050510528E+04  0.50400001928E-02 0.  1.
        1   -1    0    0  501    0  0.00000000000E+00  0.00000000000E+00 -0.14232856807E+04  0.14232856807E+04  0.50400001928E-02 0. -1.
    10030    2    1    2    0    0  0.00000000000E+00  0.00000000000E+00 -0.41823462784E+03  0.24283367335E+04  0.23920491398E+04 0.  0.
        5    1    3    3  502    0  0.78291917257E+03  0.44486648097E+03  0.58996024141E+03  0.10765425180E+04  0.46999998093E+01 0.  1.
       -5    1    3    3    0  502 -0.78291917257E+03 -0.44486648097E+03 -0.10081948693E+04  0.13517942155E+04  0.46999998093E+01 0. -1.
</event>
<event>
 5   0  0.5349036E-06  0.2447938E+04  0.7818609E-02  0.8421771E-01
        2   -1    0    0  501    0  0.00000000000E+00  0.00000000000E+00  0.13358511804E+04  0.13358511804E+04  0.25500000920E-02 0. -1.
       -2   -1    0    0    0  501  0.00000000000E+00  0.00000000000E+00 -0.11214571563E+04  0.11214571563E+04  0.25500000920E-02 0.  1.
    10030    2    1    2    0    0  0.00000000000E+00  0.00000000000E+00  0.21439402412E+03  0.24573083367E+04  0.24479377982E+04 0.  0.
        1    1    3    3  502    0  0.25230889391E+03 -0.10520376690E+04  0.68180133507E+03  0.12787869625E+04  0.50400001928E-02 0.  1.
       -1    1    3    3    0  502 -0.25230889391E+03  0.10520376690E+04 -0.46740731094E+03  0.11785213742E+04  0.50400001928E-02 0. -1.
</event>
<event>
 5   0  0.2215700E-06  0.2396719E+04  0.7818609E-02  0.8440733E-01
        1   -1    0    0  501    0  0.00000000000E+00  0.00000000000E+00  0.78432143440E+03  0.78432143442E+03  0.50400001928E-02 0.  1.
       -1   -1    0    0    0  501  0.00000000000E+00  0.00000000000E+00 -0.18309654730E+04  0.18309654730E+04  0.50400001928E-02 0. -1.
    10030    2    1    2    0    0  0.00000000000E+00  0.00000000000E+00 -0.10466440386E+04  0.26152869074E+04  0.23967189791E+04 0.  0.
        3    1    3    3  502    0 -0.44942485385E+03 -0.81644726318E+03 -0.13453448231E+04  0.16366189343E+04  0.10100000352E+00 0. -1.
       -3    1    3    3    0  502  0.44942485385E+03  0.81644726318E+03  0.29870078450E+03  0.97866797315E+03  0.10100000352E+00 0.  1.
</event>
<event>
 5   0  0.5268358E-06  0.2398882E+04  0.7818609E-02  0.8439922E-01
        2   -1    0    0  501    0  0.00000000000E+00  0.00000000000E+00  0.13397251494E+04  0.13397251494E+04  0.25500000920E-02 0. -1.
       -2   -1    0    0    0  501  0.00000000000E+00  0.00000000000E+00 -0.10738460667E+04  0.10738460667E+04  0.25500000920E-02 0.  1.
    10030    2    1    2    0    0  0.00000000000E+00  0.00000000000E+00  0.26587908268E+03  0.24135712161E+04  0.23988818913E+04 0.  0.
        2    1    3    3  502    0  0.22580801892E+02 -0.14702683080E+03 -0.10645298361E+04  0.10748723429E+04  0.25500000920E-02 0.  1.
       -2    1    3    3    0  502 -0.22580801892E+02  0.14702683080E+03  0.13304089188E+04  0.13386988731E+04  0.25500000920E-02 0. -1.
</event>
<event>
 5   0  0.5268358E-06  0.2393974E+04  0.7818609E-02  0.8441763E-01
       -2   -1    0    0    0  501  0.00000000000E+00  0.00000000000E+00  0.82467452918E+03  0.82467452918E+03  0.25500000920E-02 0. -1.
        2   -1    0    0  501    0  0.00000000000E+00  0.00000000000E+00 -0.17373854763E+04  0.17373854763E+04  0.25500000920E-02 0.  1.
    10030    2    1    2    0    0  0.00000000000E+00  0.00000000000E+00 -0.91271094716E+03  0.25620600055E+04  0.23939737256E+04 0.  0.
        2    1    3    3  502    0  0.25347445808E+03 -0.11017787697E+04 -0.35540462331E+02  0.11311184212E+04  0.25500000920E-02 0. -1.
       -2    1    3    3    0  502 -0.25347445808E+03  0.11017787697E+04 -0.87717048483E+03  0.14309415843E+04  0.25500000920E-02 0.  1.
</event>
<event>
 5   0  0.5371843E-06  0.2401123E+04  0.7818609E-02  0.8439083E-01
        2   -1    0    0  501    0  0.00000000000E+00  0.00000000000E+00  0.28575935034E+04  0.28575935034E+04  0.25500000920E-02 0.  1.
       -2   -1    0    0    0  501  0.00000000000E+00  0.00000000000E+00 -0.50439221400E+03  0.50439221401E+03  0.25500000920E-02 0. -1.
    10030    2    1    2    0    0  0.00000000000E+00  0.00000000000E+00  0.23532012894E+04  0.33619857174E+04  0.24011229989E+04 0.  0.
        4    1    3    3  502    0  0.78897011967E+03  0.78955270059E+03  0.55754242648E+03  0.12476868545E+04  0.12699999809E+01 0. -1.
       -4    1    3    3    0  502 -0.78897011967E+03 -0.78955270059E+03  0.17956588629E+04  0.21142988629E+04  0.12699999809E+01 0.  1.
</event>
<event>
 5   0  0.5379778E-06  0.2396005E+04  0.7818609E-02  0.8441001E-01
       -2   -1    0    0    0  501  0.00000000000E+00  0.00000000000E+00  0.87645911552E+03  0.87645911553E+03  0.25500000920E-02 0.  1.
        2   -1    0    0  501    0  0.00000000000E+00  0.00000000000E+00 -0.16375091421E+04  0.16375091421E+04  0.25500000920E-02 0. -1.
    10030    2    1    2    0    0  0.00000000000E+00  0.00000000000E+00 -0.76105002661E+03  0.25139682577E+04  0.23960048534E+04 0.  0.
        5    1    3    3  502    0 -0.23019219832E+03  0.10895176115E+04 -0.84403286775E+03  0.13973012008E+04  0.46999998093E+01 0. -1.
       -5    1    3    3    0  502  0.23019219832E+03 -0.10895176115E+04  0.82982841136E+02  0.11166670569E+04  0.46999998093E+01 0.  1.
</event>
<event>
 5   0  0.5349036E-06  0.2400951E+04  0.7818609E-02  0.8439148E-01
        2   -1    0    0  501    0  0.00000000000E+00  0.00000000000E+00  0.13053234070E+04  0.13053234070E+04  0.25500000920E-02 0. -1.
       -2   -1    0    0    0  501  0.00000000000E+00  0.00000000000E+00 -0.11040489910E+04  0.11040489910E+04  0.25500000920E-02 0.  1.
    10030    2    1    2    0    0  0.00000000000E+00  0.00000000000E+00  0.20127441601E+03  0.24093723980E+04  0.24009506371E+04 0.  0.
        1    1    3    3  502    0  0.20590856332E+03  0.11574875688E+04  0.34431644257E+03  0.12250427017E+04  0.50400001928E-02 0.  1.
       -1    1    3    3    0  502 -0.20590856332E+03 -0.11574875688E+04 -0.14304202657E+03  0.11843296964E+04  0.50400001928E-02 0. -1.
</event>
<event>
 5   0  0.5379778E-06  0.2402351E+04  0.7818609E-02  0.8438624E-01
       -2   -1    0    0    0  501  0.00000000000E+00  0.00000000000E+00  0.60036169095E+03  0.60036169095E+03  0.25500000920E-02 0.  1.
        2   -1    0    0  501    0  0.00000000000E+00  0.00000000000E+00 -0.24032551865E+04  0.24032551865E+04  0.25500000920E-02 0. -1.
    10030    2    1    2    0    0  0.00000000000E+00  0.00000000000E+00 -0.18028934956E+04  0.30036168775E+04  0.24023508050E+04 0.  0.
        5    1    3    3  502    0 -0.11052694544E+04 -0.96286745180E+02 -0.14769958138E+04  0.18472764894E+04  0.46999998093E+01 0. -1.
       -5    1    3    3    0  502  0.11052694544E+04  0.96286745180E+02 -0.32589768176E+03  0.11563403881E+04  0.46999998093E+01 0.  1.
</event>
<event>
 5   0  0.2149029E-06  0.2402197E+04  0.7818609E-02  0.8438681E-01
        1   -1    0    0  501    0  0.00000000000E+00  0.00000000000E+00  0.16185865211E+04  0.16185865211E+04  0.50400001928E-02 0.  1.
       -1   -1    0    0    0  501  0.00000000000E+00  0.00000000000E+00 -0.89129489808E+03  0.89129489809E+03  0.50400001928E-02 0. -1.
    10030    2    1    2    0    0  0.00000000000E+00  0.00000000000E+00  0.72729162300E+03  0.25098814192E+04  0.24021972512E+04 0.  0.
        4    1    3    3  502    0  0.95803593176E+03 -0.72370800585E+03  0.32978677558E+03  0.12451293324E+04  0.12699999809E+01 0. -1.
       -4    1    3    3    0  502 -0.95803593176E+03  0.72370800585E+03  0.39750484742E+03  0.12647520867E+04  0.12699999809E+01 0.  1.
</event>
<event>
 5   0  0.2149417E-06  0.2392739E+04  0.7818609E-02  0.8442227E-01
        1   -1    0    0  501    0  0.00000000000E+00  0.00000000000E+00  0.17537348890E+04  0.17537348890E+04  0.50400001928E-02 0.  1.
       -1   -1    0    0    0  501  0.00000000000E+00  0.00000000000E+00 -0.81614381331E+03  0.81614381332E+03  0.50400001928E-02 0. -1.
    10030    2    1    2    0    0  0.00000000000E+00  0.00000000000E+00  0.93759107566E+03  0.25698787023E+04  0.23927389158E+04 0.  0.
        5    1    3    3  502    0  0.24002252250E+03  0.20285168765E+03 -0.77101088593E+03  0.83261004961E+03  0.46999998093E+01 0. -1.
       -5    1    3    3    0  502 -0.24002252250E+03 -0.20285168765E+03  0.17086019616E+04  0.17372686527E+04  0.46999998093E+01 0.  1.
</event>
<event>
 5   0  0.5371843E-06  0.2399874E+04  0.7818609E-02  0.8439551E-01
        2   -1    0    0  501    0  0.00000000000E+00  0.00000000000E+00  0.14993707585E+04  0.14993707585E+04  0.25500000920E-02 0.  1.
       -2   -1    0    0    0  501  0.00000000000E+00  0.00000000000E+00 -0.96030218158E+03  0.96030218159E+03  0.25500000920E-02 0. -1.
    10030    2    1    2    0    0  0.00000000000E+00  0.00000000000E+00  0.53906857693E+03  0.24596729401E+04  0.23998741720E+04 0.  0.
        4    1    3    3  502    0 -0.11722539510E+04  0.49895372654E+01  0.53212761553E+03  0.12873871341E+04  0.12699999809E+01 0.  1.
       -4    1    3    3    0  502  0.11722539510E+04 -0.49895372654E+01  0.69409613970E+01  0.11722858060E+04  0.12699999809E+01 0. -1.
</event>
<event>
 5   0  0.5268358E-06  0.2402047E+04  0.7818609E-02  0.8438738E-01
        2   -1    0    0  501    0  0.00000000000E+00  0.00000000000E+00  0.32657802230E+04  0.32657802230E+04  0.25500000920E-02 0. -1.
       -2   -1    0    0    0  501  0.00000000000E+00  0.00000000000E+00 -0.44168850920E+03  0.44168850920E+03  0.25500000920E-02 0.  1.
    10030    2    1    2    0    0  0.00000000000E+00  0.00000000000E+00  0.28240917138E+04  0.37074687322E+04  0.24020471253E+04 0.  0.
        2    1    3    3  502    0  0.16020760883E+03  0.10858535023E+04  0.65951778310E+03  0.12805108405E+04  0.25500000920E-02 0. -1.
       -2    1    3    3    0  502 -0.16020760883E+03 -0.10858535023E+04  0.21645739307E+04  0.24269578916E+04  0.25500000920E-02 0.  1.
</event>
<event>
 5   0  0.2149417E-06  0.2399851E+04  0.7818609E-02  0.8439559E-01
       -1   -1    0    0    0  501  0.00000000000E+00  0.00000000000E+00  0.78717072751E+03  0.78717072752E+03  0.50400001928E-02 0.  1.
        1   -1    0    0  501    0  0.00000000000E+00  0.00000000000E+00 -0.18291092438E+04  0.18291092438E+04  0.50400001928E-02 0. -1.
    10030    2    1    2    0    0  0.00000000000E+00  0.00000000000E+00 -0.10419385163E+04  0.26162799713E+04  0.23998510405E+04 0.  0.
        5    1    3    3  502    0  0.22588776945E+03 -0.10108906035E+04 -0.11812953196E+04  0.15711161060E+04  0.46999998093E+01 0.  1.
       -5    1    3    3    0  502 -0.22588776945E+03  0.10108906035E+04  0.13935680333E+03  0.10451638652E+04  0.46999998093E+01 0. -1.
</event>
<event>
 5   0  0.2149029E-06  0.2397038E+04  0.7818609E-02  0.8440613E-01
       -1   -1    0    0    0  501  0.00000000000E+00  0.00000000000E+00  0.10935542777E+04  0.10935542778E+04  0.50400001928E-02 0.  1.
        1   -1    0    0  501    0  0.00000000000E+00  0.00000000000E+00 -0.13135589633E+04  0.13135589633E+04  0.50400001928E-02 0. -1.
    10030    2    1    2    0    0  0.00000000000E+00  0.00000000000E+00 -0.22000468554E+03  0.24071132411E+04  0.23970381919E+04 0.  0.
        4    1    3    3  502    0  0.94618644255E+03 -0.68376250356E+03 -0.38252180388E+03  0.12284642806E+04  0.12699999809E+01 0. -1.
       -4    1    3    3    0  502 -0.94618644255E+03  0.68376250356E+03  0.16251711834E+03  0.11786489605E+04  0.12699999809E+01 0.  1.
</event>
<event>
 5   0  0.5379778E-06  0.2413607E+04  0.7818609E-02  0.8434427E-01
        2   -1    0    0  501    0  0.00000000000E+00  0.00000000000E+00  0.22336029406E+04  0.22336029406E+04  0.25500000920E-02 0.  1.
       -2   -1    0    0    0  501  0.00000000000E+00  0.00000000000E+00 -0.65202928881E+03  0.65202928881E+03  0.25500000920E-02 0. -1.
    10030    2    1    2    0    0  0.00000000000E+00  0.00000000000E+00  0.15815736518E+04  0.28856322294E+04  0.24136068751E+04 0.  0.
        5    1    3    3  502    0  0.82850491628E+03 -0.20368240173E+03  0.18111927868E+04  0.20020859917E+04  0.46999998093E+01 0.  1.
       -5    1    3    3    0  502 -0.82850491628E+03  0.20368240173E+03 -0.22961913501E+03  0.88354623775E+03  0.46999998093E+01 0. -1.
</event>
<event>
 5   0  0.2254269E-06  0.2400609E+04  0.7818609E-02  0.8439276E-01
       -1   -1    0    0    0  501  0.00000000000E+00  0.00000000000E+00  0.14810548214E+04  0.14810548214E+04  0.50400001928E-02 0. -1.
        1   -1    0    0  501    0  0.00000000000E+00  0.00000000000E+00 -0.97277365683E+03  0.97277365685E+03  0.50400001928E-02 0.  1.
    10030    2    1    2    0    0  0.00000000000E+00  0.00000000000E+00  0.50828116452E+03  0.24538284782E+04  0.24006091848E+04 0.  0.
        2    1    3    3  502    0 -0.66692878191E+02 -0.96829847079E+03  0.97596946729E+03  0.13764324428E+04  0.25500000920E-02 0. -1.
       -2    1    3    3    0  502  0.66692878191E+02  0.96829847079E+03 -0.46768830277E+03  0.10773960354E+04  0.25500000920E-02 0.  1.
</event>
<event>
 5   0  0.2215700E-06  0.2394380E+04  0.7818609E-02  0.8441611E-01
       -1   -1    0    0    0  501  0.00000000000E+00  0.00000000000E+00  0.16320045769E+04  0.16320045769E+04  0.50400001928E-02 0.  1.
        1   -1    0    0  501    0  0.00000000000E+00  0.00000000000E+00 -0.87822293841E+03  0.87822293843E+03  0.50400001928E-02 0. -1.
    10030    2    1    2    0    0  0.00000000000E+00  0.00000000000E+00  0.75378163850E+03  0.25102275153E+04  0.23943799657E+04 0.  0.
        3    1    3    3  502    0  0.31163318285E+03 -0.10209834395E+04  0.94509262682E+03  0.14257357777E+04  0.10100000352E+00 0.  1.
       -3    1    3    3    0  502 -0.31163318285E+03  0.10209834395E+04 -0.19131098832E+03  0.10844917376E+04  0.10100000352E+00 0. -1.
</event>
<event>
 5   0  0.2297414E-06  0.2396884E+04  0.7818609E-02  0.8440671E-01
       -1   -1    0    0    0  501  0.00000000000E+00  0.00000000000E+00  0.11130908808E+04  0.11130908808E+04  0.50400001928E-02 0.  1.
        1   -1    0    0  501    0  0.00000000000E+00  0.00000000000E+00 -0.12903375251E+04  0.12903375251E+04  0.50400001928E-02 0. -1.
    10030    2    1    2    0    0  0.00000000000E+00  0.00000000000E+00 -0.17724664422E+03  0.24034284059E+04  0.23968837538E+04 0.  0.
        1    1    3    3  502    0 -0.23813007115E+03 -0.67597624728E+03 -0.10517735458E+04  0.12727440471E+04  0.50400001928E-02 0. -1.
       -1    1    3    3    0  502  0.23813007115E+03  0.67597624728E+03  0.87452690159E+03  0.11306843588E+04  0.50400001928E-02 0.  1.
</event>
<event>
 5   0  0.5349036E-06  0.2400494E+04  0.7818609E-02  0.8439319E-01
       -2   -1    0    0    0  501  0.00000000000E+00  0.00000000000E+00  0.78543824567E+03  0.78543824567E+03  0.25500000920E-02 0. -1.
        2   -1    0    0  501    0  0.00000000000E+00  0.00000000000E+00 -0.18341259662E+04  0.18341259662E+04  0.25500000920E-02 0.  1.
    10030    2    1    2    0    0  0.00000000000E+00  0.00000000000E+00 -0.10486877205E+04  0.26195642119E+04  0.24004938502E+04 0.  0.
        1    1    3    3  502    0 -0.48353488456E+03 -0.50691995835E+03  0.53918393224E+03  0.88402100743E+03  0.50400001928E-02 0. -1.
       -1    1    3    3    0  502  0.48353488456E+03  0.50691995835E+03 -0.15878716528E+04  0.17355432044E+04  0.50400001928E-02 0.  1.
</event>
<event>
 5   0  0.5440503E-06  0.2399906E+04  0.7818609E-02  0.8439539E-01
        2   -1    0    0  501    0  0.00000000000E+00  0.00000000000E+00  0.13790916601E+04  0.13790916601E+04  0.25500000920E-02 0.  1.
       -2   -1    0    0    0  501  0.00000000000E+00  0.00000000000E+00 -0.10440839425E+04  0.10440839425E+04  0.25500000920E-02 0. -1.
    10030    2    1    2    0    0  0.00000000000E+00  0.00000000000E+00  0.33500771765E+03  0.24231756026E+04  0.23999062128E+04 0.  0.
        3    1    3    3  502    0  0.10420405563E+04 -0.11464080345E+03 -0.42202060651E+03  0.11300851461E+04  0.10100000352E+00 0.  1.
       -3    1    3    3    0  502 -0.10420405563E+04  0.11464080345E+03  0.75702832416E+03  0.12930904565E+04  0.10100000352E+00 0. -1.
</event>
<event>
 5   0  0.5379778E-06  0.2402592E+04  0.7818609E-02  0.8438534E-01
        2   -1    0    0  501    0  0.00000000000E+00  0.00000000000E+00  0.16855207893E+04  0.16855207893E+04  0.25500000920E-02 0.  1.
       -2   -1    0    0    0  501  0.00000000000E+00  0.00000000000E+00 -0.85618182912E+03  0.85618182912E+03  0.25500000920E-02 0. -1.
    10030    2    1    2    0    0  0.00000000000E+00  0.00000000000E+00  0.82933896017E+03  0.25417026184E+04  0.24025921605E+04 0.  0.
        5    1    3    3  502    0  0.11323821597E+04  0.35732237824E+03  0.22213878772E+03  0.12080299535E+04  0.46999998093E+01 0. -1.
       -5    1    3    3    0  502 -0.11323821597E+04 -0.35732237824E+03  0.60720017245E+03  0.13336726649E+04  0.46999998093E+01 0.  1.
</event>
<event>
 5   0  0.5371843E-06  0.2404122E+04  0.7818609E-02  0.8437962E-01
        2   -1    0    0  501    0  0.00000000000E+00  0.00000000000E+00  0.17637970724E+04  0.17637970724E+04  0.25500000920E-02 0.  1.
       -2   -1    0    0    0  501  0.00000000000E+00  0.00000000000E+00 -0.81922734018E+03  0.81922734019E+03  0.25500000920E-02 0. -1.
    10030    2    1    2    0    0  0.00000000000E+00  0.00000000000E+00  0.94456973226E+03  0.25830244126E+04  0.24041221136E+04 0.  0.
        4    1    3    3  502    0 -0.29122496272E+03  0.44956253053E+03  0.16284823728E+04  0.17143147025E+04  0.12699999809E+01 0.  1.
       -4    1    3    3    0  502  0.29122496272E+03 -0.44956253053E+03 -0.68391264052E+03  0.86870971016E+03  0.12699999809E+01 0. -1.
</event>
<event>
 5   0  0.5349036E-06  0.2406519E+04  0.7818609E-02  0.8437067E-01
        2   -1    0    0  501    0  0.00000000000E+00  0.00000000000E+00  0.17040061550E+04  0.17040061550E+04  0.25500000920E-02 0. -1.
       -2   -1    0    0    0  501  0.00000000000E+00  0.00000000000E+00 -0.84966445545E+03  0.84966445545E+03  0.25500000920E-02 0.  1.
    10030    2    1    2    0    0  0.00000000000E+00  0.00000000000E+00  0.85434169953E+03  0.25536706104E+04  0.24065190311E+04 0.  0.
        1    1    3    3  502    0  0.18482164089E+03 -0.11887029610E+04  0.45442587676E+03  0.12859535940E+04  0.50400001928E-02 0. -1.
       -1    1    3    3    0  502 -0.18482164089E+03  0.11887029610E+04  0.39991582276E+03  0.12677170164E+04  0.50400001928E-02 0.  1.
</event>
<event>
 5   0  0.2149029E-06  0.2401501E+04  0.7818609E-02  0.8438942E-01
       -1   -1    0    0    0  501  0.00000000000E+00  0.00000000000E+00  0.88036628423E+03  0.88036628424E+03  0.50400001928E-02 0. -1.
        1   -1    0    0  501    0  0.00000000000E+00  0.00000000000E+00 -0.16377295822E+04  0.16377295822E+04  0.50400001928E-02 0.  1.
    10030    2    1    2    0    0  0.00000000000E+00  0.00000000000E+00 -0.75736329794E+03  0.25180958664E+04  0.24015011196E+04 0.  0.
        4    1    3    3  502    0  0.90706698404E+03  0.71170149706E+03 -0.26970208854E+02  0.11532642973E+04  0.12699999809E+01 0. -1.
       -4    1    3    3    0  502 -0.90706698404E+03 -0.71170149706E+03 -0.73039308908E+03  0.13648315691E+04  0.12699999809E+01 0.  1.
</event>
<event>
 5   0  0.2215700E-06  0.2401104E+04  0.7818609E-02  0.8439090E-01
        1   -1    0    0  501    0  0.00000000000E+00  0.00000000000E+00  0.85186286431E+03  0.85186286432E+03  0.50400001928E-02 0.  1.
       -1   -1    0    0    0  501  0.00000000000E+00  0.00000000000E+00 -0.16919679810E+04  0.16919679810E+04  0.50400001928E-02 0. -1.
    10030    2    1    2    0    0  0.00000000000E+00  0.00000000000E+00 -0.84010511670E+03  0.25438308453E+04  0.24011036551E+04 0.  0.
        3    1    3    3  502    0 -0.92622248433E+03  0.34708519315E+03 -0.11409160354E+04  0.15099819972E+04  0.10100000352E+00 0. -1.
       -3    1    3    3    0  502  0.92622248433E+03 -0.34708519315E+03  0.30081091871E+03  0.10338488481E+04  0.10100000352E+00 0.  1.
</event>
<event>
 5   0  0.5379778E-06  0.2400352E+04  0.7818609E-02  0.8439372E-01
        2   -1    0    0  501    0  0.00000000000E+00  0.00000000000E+00  0.10465980754E+04  0.10465980754E+04  0.25500000920E-02 0.  1.
       -2   -1    0    0    0  501  0.00000000000E+00  0.00000000000E+00 -0.13762902965E+04  0.13762902965E+04  0.25500000920E-02 0. -1.
    10030    2    1    2    0    0  0.00000000000E+00  0.00000000000E+00 -0.32969222110E+03  0.24228883720E+04  0.24003522871E+04 0.  0.
        5    1    3    3  502    0  0.11824418383E+04  0.88774254234E+02 -0.35192675087E+03  0.12369010054E+04  0.46999998093E+01 0. -1.
       -5    1    3    3    0  502 -0.11824418383E+04 -0.88774254234E+02  0.22234529772E+02  0.11859873665E+04  0.46999998093E+01 0.  1.
</event>
<event>
 5   0  0.5440503E-06  0.2402911E+04  0.7818609E-02  0.8438415E-01
       -2   -1    0    0    0  501  0.00000000000E+00  0.00000000000E+00  0.14338888733E+04  0.14338888733E+04  0.25500000920E-02 0. -1.
        2   -1    0    0  501    0  0.00000000000E+00  0.00000000000E+00 -0.10066993827E+04  0.10066993827E+04  0.25500000920E-02 0.  1.
    10030    2    1    2    0    0  0.00000000000E+00  0.00000000000E+00  0.42718949067E+03  0.24405882560E+04  0.24029107712E+04 0.  0.
        3    1    3    3  502    0 -0.89995889521E+03 -0.73304922036E+03  0.52863217257E+03  0.12754368493E+04  0.10100000352E+00 0. -1.
       -3    1    3    3    0  502  0.89995889521E+03  0.73304922036E+03 -0.10144268190E+03  0.11651514067E+04  0.10100000352E+00 0.  1.
</event>
<event>
 5   0  0.2149029E-06  0.2401367E+04  0.7818609E-02  0.8438992E-01
       -1   -1    0    0    0  501  0.00000000000E+00  0.00000000000E+00  0.73544699799E+03  0.73544699800E+03  0.50400001928E-02 0.  1.
        1   -1    0    0  501    0  0.00000000000E+00  0.00000000000E+00 -0.19602232618E+04  0.19602232618E+04  0.50400001928E-02 0. -1.
    10030    2    1    2    0    0  0.00000000000E+00  0.00000000000E+00 -0.12247762638E+04  0.26956702598E+04  0.24013665387E+04 0.  0.
        4    1    3    3  502    0 -0.66577755295E+03 -0.10818733394E+03  0.50266420931E+03  0.84121172689E+03  0.12699999809E+01 0.  1.
       -4    1    3    3    0  502  0.66577755295E+03  0.10818733394E+03 -0.17274404731E+04  0.18544585329E+04  0.12699999809E+01 0. -1.
</event>
<event>
 5   0  0.2297414E-06  0.2388352E+04  0.7818609E-02  0.8443877E-01
        1   -1    0    0  501    0  0.00000000000E+00  0.00000000000E+00  0.51326726883E+03  0.51326726885E+03  0.50400001928E-02 0.  1.
       -1   -1    0    0    0  501  0.00000000000E+00  0.00000000000E+00 -0.27783892548E+04  0.27783892548E+04  0.50400001928E-02 0. -1.
    10030    2    1    2    0    0  0.00000000000E+00  0.00000000000E+00 -0.22651219860E+04  0.32916565237E+04  0.23883519545E+04 0.  0.
        1    1    3    3  502    0  0.95287930890E+03 -0.71973036596E+03 -0.11214078943E+04  0.16381533635E+04  0.50400001928E-02 0.  1.
       -1    1    3    3    0  502 -0.95287930890E+03  0.71973036596E+03 -0.11437140917E+04  0.16535031601E+04  0.50400001928E-02 0. -1.
</event>
<event>
 5   0  0.5379778E-06  0.2399081E+04  0.7818609E-02  0.8439848E-01
       -2   -1    0    0    0  501  0.00000000000E+00  0.00000000000E+00  0.99922849908E+03  0.99922849908E+03  0.25500000920E-02 0. -1.
        2   -1    0    0  501    0  0.00000000000E+00  0.00000000000E+00 -0.14400083257E+04  0.14400083257E+04  0.25500000920E-02 0.  1.
    10030    2    1    2    0    0  0.00000000000E+00  0.00000000000E+00 -0.44077982666E+03  0.24392368248E+04  0.23990809557E+04 0.  0.
        5    1    3    3  502    0  0.21366357992E+03 -0.19908144913E+03 -0.14033023239E+04  0.14333754048E+04  0.46999998093E+01 0.  1.
       -5    1    3    3    0  502 -0.21366357992E+03  0.19908144913E+03  0.96252249721E+03  0.10058614201E+04  0.46999998093E+01 0. -1.
</event>
<event>
 5   0  0.2297414E-06  0.2400278E+04  0.7818609E-02  0.8439399E-01
       -1   -1    0    0    0  501  0.00000000000E+00  0.00000000000E+00  0.73426374573E+03  0.73426374574E+03  0.50400001928E-02 0. -1.
        1   -1    0    0  501    0  0.00000000000E+00  0.00000000000E+00 -0.19616032076E+04  0.19616032076E+04  0.50400001928E-02 0.  1.
    10030    2    1    2    0    0  0.00000000000E+00  0.00000000000E+00 -0.12273394619E+04  0.26958669533E+04  0.24002784162E+04 0.  0.
        1    1    3    3  502    0 -0.69945665097E+03  0.95648703731E+03 -0.82744299018E+03  0.14452574031E+04  0.50400001928E-02 0.  1.
       -1    1    3    3    0  502  0.69945665097E+03 -0.95648703731E+03 -0.39989647168E+03  0.12506095503E+04  0.50400001928E-02 0. -1.
</event>
<event>
 5   0  0.2297414E-06  0.2399423E+04  0.7818609E-02  0.8439719E-01
       -1   -1    0    0    0  501  0.00000000000E+00  0.00000000000E+00  0.98472156182E+03  0.98472156184E+03  0.50400001928E-02 0.  1.
        1   -1    0    0  501    0  0.00000000000E+00  0.00000000000E+00 -0.14616398250E+04  0.14616398250E+04  0.50400001928E-02 0. -1.
    10030    2    1    2    0    0  0.00000000000E+00  0.00000000000E+00 -0.47691826322E+03  0.24463613869E+04  0.23994234736E+04 0.  0.
        1    1    3    3  502    0  0.11588690813E+04 -0.78415619363E+02 -0.54463637290E+03  0.12828699605E+04  0.50400001928E-02 0. -1.
       -1    1    3    3    0  502 -0.11588690813E+04  0.78415619363E+02  0.67718109689E+02  0.11634914264E+04  0.50400001928E-02 0.  1.
</event>
<event>
 5   0  0.5371843E-06  0.2403480E+04  0.7818609E-02  0.8438202E-01
        2   -1    0    0  501    0  0.00000000000E+00  0.00000000000E+00  0.11004666631E+04  0.11004666631E+04  0.25500000920E-02 0. -1.
       -2   -1    0    0    0  501  0.00000000000E+00  0.00000000000E+00 -0.13123336706E+04  0.13123336706E+04  0.25500000920E-02 0.  1.
    10030    2    1    2    0    0  0.00000000000E+00  0.00000000000E+00 -0.21186700750E+03  0.24128003337E+04  0.24034803559E+04 0.  0.
        4    1    3    3  502    0  0.76553995138E+03 -0.87325097144E+03  0.20439165271E+03  0.11791506421E+04  0.12699999809E+01 0. -1.
       -4    1    3    3    0  502 -0.76553995138E+03  0.87325097144E+03 -0.41625866021E+03  0.12336496915E+04  0.12699999809E+01 0.  1.
</event>
<event>
 5   0  0.2215700E-06  0.2410632E+04  0.7818609E-02  0.8435534E-01
        1   -1    0    0  501    0  0.00000000000E+00  0.00000000000E+00  0.15529352880E+04  0.15529352881E+04  0.50400001928E-02 0.  1.
       -1   -1    0    0    0  501  0.00000000000E+00  0.00000000000E+00 -0.93551020859E+03  0.93551020860E+03  0.50400001928E-02 0. -1.
    10030    2    1    2    0    0  0.00000000000E+00  0.00000000000E+00  0.61742507946E+03  0.24884454967E+04  0.24106321289E+04 0.  0.
        3    1    3    3  502    0  0.64656933456E+03 -0.21666671666E+03 -0.71724550359E+03  0.98966534401E+03  0.10100000352E+00 0. -1.
       -3    1    3    3    0  502 -0.64656933456E+03  0.21666671666E+03  0.13346705831E+04  0.14987801526E+04  0.10100000352E+00 0.  1.
</event>
<event>
 5   0  0.2215700E-06  0.2404282E+04  0.7818609E-02  0.8437902E-01
       -1   -1    0    0    0  501  0.00000000000E+00  0.00000000000E+00  0.75814862958E+03  0.75814862960E+03  0.50400001928E-02 0.  1.
        1   -1    0    0  501    0  0.00000000000E+00  0.00000000000E+00 -0.19061479463E+04  0.19061479463E+04  0.50400001928E-02 0. -1.
    10030    2    1    2    0    0  0.00000000000E+00  0.00000000000E+00 -0.11479993167E+04  0.26642965759E+04  0.24042823905E+04 0.  0.
        3    1    3    3  502    0 -0.23365437793E+03 -0.55937218696E+03 -0.17243664249E+04  0.18278214325E+04  0.10100000352E+00 0. -1.
       -3    1    3    3    0  502  0.23365437793E+03  0.55937218696E+03  0.57636710816E+03  0.83647514335E+03  0.10100000352E+00 0.  1.
</event>
<event>
 5   0  0.2297414E-06  0.2404041E+04  0.7818609E-02  0.8437992E-01
        1   -1    0    0  501    0  0.00000000000E+00  0.00000000000E+00  0.12954056041E+04  0.12954056041E+04  0.50400001928E-02 0.  1.
       -1   -1    0    0    0  501  0.00000000000E+00  0.00000000000E+00 -0.11153670787E+04  0.11153670787E+04  0.50400001928E-02 0. -1.
    10030    2    1    2    0    0  0.00000000000E+00  0.00000000000E+00  0.18003852544E+03  0.24107726828E+04  0.24040405690E+04 0.  0.
        1    1    3    3  502    0  0.19044370801E+03  0.24620412229E+03  0.12542905260E+04  0.12923350956E+04  0.50400001928E-02 0.  1.
       -1    1    3    3    0  502 -0.19044370801E+03 -0.24620412229E+03 -0.10742520005E+04  0.11184375872E+04  0.50400001928E-02 0. -1.
</event>
<event>
 5   0  0.2149417E-06  0.2400131E+04  0.7818609E-02  0.8439455E-01
        1   -1    0    0  501    0  0.00000000000E+00  0.00000000000E+00  0.19428861559E+04  0.19428861560E+04  0.50400001928E-02 0.  1.
       -1   -1    0    0    0  501  0.00000000000E+00  0.00000000000E+00 -0.74124627688E+03  0.74124627690E+03  0.50400001928E-02 0. -1.
    10030    2    1    2    0    0  0.00000000000E+00  0.00000000000E+00  0.12016398791E+04  0.26841324329E+04  0.24001309377E+04 0.  0.
        5    1    3    3  502    0 -0.98672666510E+03  0.61334666268E+03  0.26474177985E+03  0.11916098104E+04  0.46999998093E+01 0. -1.
       -5    1    3    3    0  502  0.98672666510E+03 -0.61334666268E+03  0.93689809921E+03  0.14925226225E+04  0.46999998093E+01 0.  1.
</event>
<event>
 5   0  0.2149417E-06  0.2398235E+04  0.7818609E-02  0.8440165E-01
        1   -1    0    0  501    0  0.00000000000E+00  0.00000000000E+00  0.13281081510E+04  0.13281081510E+04  0.50400001928E-02 0. -1.
       -1   -1    0    0    0  501  0.00000000000E+00  0.00000000000E+00 -0.10826551278E+04  0.10826551278E+04  0.50400001928E-02 0.  1.
    10030    2    1    2    0    0  0.00000000000E+00  0.00000000000E+00  0.24545302320E+03  0.24107632788E+04  0.23982352679E+04 0.  0.
        5    1    3    3  502    0 -0.30608811286E+02 -0.38660767888E+03 -0.10178631238E+04  0.10892519569E+04  0.46999998093E+01 0.  1.
       -5    1    3    3    0  502  0.30608811286E+02  0.38660767888E+03  0.12633161470E+04  0.13215113220E+04  0.46999998093E+01 0. -1.
</event>
<event>
 5   0  0.2254269E-06  0.2453061E+04  0.7818609E-02  0.8419901E-01
        1   -1    0    0  501    0  0.00000000000E+00  0.00000000000E+00  0.15173305906E+04  0.15173305906E+04  0.50400001928E-02 0. -1.
       -1   -1    0    0    0  501  0.00000000000E+00  0.00000000000E+00 -0.99146334682E+03  0.99146334683E+03  0.50400001928E-02 0.  1.
    10030    2    1    2    0    0  0.00000000000E+00  0.00000000000E+00  0.52586724380E+03  0.25087939375E+04  0.24530614877E+04 0.  0.
        2    1    3    3  502    0  0.74659787963E+03  0.19431610224E+02 -0.73210033007E+03  0.10458283199E+04  0.25500000920E-02 0.  1.
       -2    1    3    3    0  502 -0.74659787963E+03 -0.19431610224E+02  0.12579675739E+04  0.14629656176E+04  0.25500000920E-02 0. -1.
</event>
<event>
 5   0  0.2254269E-06  0.2394965E+04  0.7818609E-02  0.8441391E-01
       -1   -1    0    0    0  501  0.00000000000E+00  0.00000000000E+00  0.86032803775E+03  0.86032803776E+03  0.50400001928E-02 0.  1.
        1   -1    0    0  501    0  0.00000000000E+00  0.00000000000E+00 -0.16667651976E+04  0.16667651976E+04  0.50400001928E-02 0. -1.
    10030    2    1    2    0    0  0.00000000000E+00  0.00000000000E+00 -0.80643715982E+03  0.25270932353E+04  0.23949654126E+04 0.  0.
        2    1    3    3  502    0  0.26716904996E+03 -0.26985763804E+03  0.79511263694E+03  0.88113934851E+03  0.25500000920E-02 0.  1.
       -2    1    3    3    0  502 -0.26716904996E+03  0.26985763804E+03 -0.16015497968E+04  0.16459538868E+04  0.25500000920E-02 0. -1.
</event>
<event>
 5   0  0.2254269E-06  0.2401070E+04  0.7818609E-02  0.8439103E-01
        1   -1    0    0  501    0  0.00000000000E+00  0.00000000000E+00  0.11475067729E+04  0.11475067729E+04  0.50400001928E-02 0.  1.
       -1   -1    0    0    0  501  0.00000000000E+00  0.00000000000E+00 -0.12560133143E+04  0.12560133143E+04  0.50400001928E-02 0. -1.
    10030    2    1    2    0    0  0.00000000000E+00  0.00000000000E+00 -0.10850654138E+03  0.24035200873E+04  0.24010695826E+04 0.  0.
        2    1    3    3  502    0 -0.10051097363E+04 -0.64674736666E+03 -0.16731120932E+03  0.12068640267E+04  0.25500000920E-02 0. -1.
       -2    1    3    3    0  502  0.10051097363E+04  0.64674736666E+03  0.58804667939E+02  0.11966560605E+04  0.25500000920E-02 0.  1.
</event>
<event>
 5   0  0.5379778E-06  0.2398939E+04  0.7818609E-02  0.8439901E-01
        2   -1    0    0  501    0  0.00000000000E+00  0.00000000000E+00  0.16130141065E+04  0.16130141065E+04  0.25500000920E-02 0.  1.
       -2   -1    0    0    0  501  0.00000000000E+00  0.00000000000E+00 -0.89194976133E+03  0.89194976134E+03  0.25500000920E-02 0. -1.
    10030    2    1    2    0    0  0.00000000000E+00  0.00000000000E+00  0.72106434517E+03  0.25049638678E+04  0.23989393884E+04 0.  0.
        5    1    3    3  502    0 -0.88161380721E+03  0.64652030761E+03  0.87577093143E+03  0.14007955695E+04  0.46999998093E+01 0. -1.
       -5    1    3    3    0  502  0.88161380721E+03 -0.64652030761E+03 -0.15470658626E+03  0.11041682983E+04  0.46999998093E+01 0.  1.
</event>
<event>
 5   0  0.2297414E-06  0.2370979E+04  0.7818609E-02  0.8450449E-01
        1   -1    0    0  501    0  0.00000000000E+00  0.00000000000E+00  0.14804858780E+04  0.14804858780E+04  0.50400001928E-02 0.  1.
       -1   -1    0    0    0  501  0.00000000000E+00  0.00000000000E+00 -0.94927326641E+03  0.94927326642E+03  0.50400001928E-02 0. -1.
    10030    2    1    2    0    0  0.00000000000E+00  0.00000000000E+00  0.53121261158E+03  0.24297591444E+04  0.23709792621E+04 0.  0.
        1    1    3    3  502    0  0.77668755223E+03 -0.64622767892E+03  0.90108596785E+03  0.13538130182E+04  0.50400001928E-02 0.  1.
       -1    1    3    3    0  502 -0.77668755223E+03  0.64622767892E+03 -0.36987335627E+03  0.10759461262E+04  0.50400001928E-02 0. -1.
</event>
<event>
 5   0  0.5379778E-06  0.2399483E+04  0.7818609E-02  0.8439697E-01
       -2   -1    0    0    0  501  0.00000000000E+00  0.00000000000E+00  0.62484547705E+03  0.62484547705E+03  0.25500000920E-02 0.  1.
        2   -1    0    0  501    0  0.00000000000E+00  0.00000000000E+00 -0.23035777267E+04  0.23035777267E+04  0.25500000920E-02 0. -1.
    10030    2    1    2    0    0  0.00000000000E+00  0.00000000000E+00 -0.16787322496E+04  0.29284232037E+04  0.23994833807E+04 0.  0.
        5    1    3    3  502    0  0.10372475671E+04  0.90992107537E+02 -0.11200497865E+03  0.10472484349E+04  0.46999998093E+01 0.  1.
       -5    1    3    3    0  502 -0.10372475671E+04 -0.90992107537E+02 -0.15667272710E+04  0.18811747688E+04  0.46999998093E+01 0. -1.
</event>
<event>
 5   0  0.2149029E-06  0.2400195E+04  0.7818609E-02  0.8439431E-01
       -1   -1    0    0    0  501  0.00000000000E+00  0.00000000000E+00  0.14497577320E+04  0.14497577320E+04  0.50400001928E-02 0.  1.
        1   -1    0    0  501    0  0.00000000000E+00  0.00000000000E+00 -0.99343080836E+03  0.99343080837E+03  0.50400001928E-02 0. -1.
    10030    2    1    2    0    0  0.00000000000E+00  0.00000000000E+00  0.45632692367E+03  0.24431885404E+04  0.24001949885E+04 0.  0.
        4    1    3    3  502    0 -0.58922293369E+03  0.19133589228E+02 -0.83587536658E+03  0.10228582508E+04  0.12699999809E+01 0. -1.
       -4    1    3    3    0  502  0.58922293369E+03 -0.19133589228E+02  0.12922022903E+04  0.14203302896E+04  0.12699999809E+01 0.  1.
</event>
<event>
 5   0  0.5371843E-06  0.2398345E+04  0.7818609E-02  0.8440124E-01
       -2   -1    0    0    0  501  0.00000000000E+00  0.00000000000E+00  0.14949334982E+04  0.14949334983E+04  0.25500000920E-02 0. -1.
        2   -1    0    0  501    0  0.00000000000E+00  0.00000000000E+00 -0.96192525307E+03  0.96192525307E+03  0.25500000920E-02 0.  1.
    10030    2    1    2    0    0  0.00000000000E+00  0.00000000000E+00  0.53300824518E+03  0.24568587513E+04  0.23983446655E+04 0.  0.
        4    1    3    3  502    0 -0.72708462420E+02 -0.11401323437E+04  0.63984668764E+03  0.13094249418E+04  0.12699999809E+01 0. -1.
       -4    1    3    3    0  502  0.72708462420E+02  0.11401323437E+04 -0.10683844246E+03  0.11474338095E+04  0.12699999809E+01 0.  1.
</event>
<event>
 5   0  0.5349036E-06  0.2395919E+04  0.7818609E-02  0.8441033E-01
       -2   -1    0    0    0  501  0.00000000000E+00  0.00000000000E+00  0.84131236383E+03  0.84131236383E+03  0.25500000920E-02 0. -1.
        2   -1    0    0  501    0  0.00000000000E+00  0.00000000000E+00 -0.17057951378E+04  0.17057951378E+04  0.25500000920E-02 0.  1.
    10030    2    1    2    0    0  0.00000000000E+00  0.00000000000E+00 -0.86448277395E+03  0.25471075016E+04  0.23959186460E+04 0.  0.
        1    1    3    3  502    0 -0.44558313679E+03 -0.10194967502E+04  0.39839145969E+02  0.11133306395E+04  0.50400001928E-02 0. -1.
       -1    1    3    3    0  502  0.44558313679E+03  0.10194967502E+04 -0.90432191992E+03  0.14337768621E+04  0.50400001928E-02 0.  1.
</event>
<event>
 5   0  0.2215700E-06  0.2398278E+04  0.7818609E-02  0.8440149E-01
        1   -1    0    0  501    0  0.00000000000E+00  0.00000000000E+00  0.10142964076E+04  0.10142964076E+04  0.50400001928E-02 0.  1.
       -1   -1    0    0    0  501  0.00000000000E+00  0.00000000000E+00 -0.14176665161E+04  0.14176665161E+04  0.50400001928E-02 0. -1.
    10030    2    1    2    0    0  0.00000000000E+00  0.00000000000E+00 -0.40337010854E+03  0.24319629237E+04  0.23982777608E+04 0.  0.
        3    1    3    3  502    0 -0.67448837750E+03  0.94554094113E+03 -0.50412200001E+03  0.12661442429E+04  0.10100000352E+00 0.  1.
       -3    1    3    3    0  502  0.67448837750E+03 -0.94554094113E+03  0.10075189147E+03  0.11658186808E+04  0.10100000352E+00 0. -1.
</event>
<event>
 5   0  0.5440503E-06  0.2398593E+04  0.7818609E-02  0.8440031E-01
       -2   -1    0    0    0  501  0.00000000000E+00  0.00000000000E+00  0.86917694607E+03  0.86917694608E+03  0.25500000920E-02 0. -1.
        2   -1    0    0  501    0  0.00000000000E+00  0.00000000000E+00 -0.16547972490E+04  0.16547972490E+04  0.25500000920E-02 0.  1.
    10030    2    1    2    0    0  0.00000000000E+00  0.00000000000E+00 -0.78562030296E+03  0.25239741951E+04  0.23985926034E+04 0.  0.
        3    1    3    3  502    0 -0.25881029632E+03 -0.98647672386E+03  0.27120037651E+03  0.10553050510E+04  0.10100000352E+00 0. -1.
       -3    1    3    3    0  502  0.25881029632E+03  0.98647672386E+03 -0.10568206795E+04  0.14686691441E+04  0.10100000352E+00 0.  1.
</event>
<event>
 5   0  0.2149029E-06  0.2411913E+04  0.7818609E-02  0.8435057E-01
       -1   -1    0    0    0  501  0.00000000000E+00  0.00000000000E+00  0.10737972960E+04  0.10737972960E+04  0.50400001928E-02 0.  1.
        1   -1    0    0  501    0  0.00000000000E+00  0.00000000000E+00 -0.13543815269E+04  0.13543815269E+04  0.50400001928E-02 0. -1.
    10030    2    1    2    0    0  0.00000000000E+00  0.00000000000E+00 -0.28058423094E+03  0.24281788229E+04  0.24119131173E+04 0.  0.
        4    1    3    3  502    0  0.11577887713E+04  0.25820975038E+03  0.78388081425E+02  0.11888201791E+04  0.12699999809E+01 0. -1.
       -4    1    3    3    0  502 -0.11577887713E+04 -0.25820975038E+03 -0.35897231236E+03  0.12393586438E+04  0.12699999809E+01 0.  1.
</event>
<event>
 5   0  0.5268358E-06  0.2420397E+04  0.7818609E-02  0.8431906E-01
       -2   -1    0    0    0  501  0.00000000000E+00  0.00000000000E+00  0.10107503927E+04  0.10107503927E+04  0.25500000920E-02 0.  1.
        2   -1    0    0  501    0  0.00000000000E+00  0.00000000000E+00 -0.14490033299E+04  0.14490033299E+04  0.25500000920E-02 0. -1.
    10030    2    1    2    0    0  0.00000000000E+00  0.00000000000E+00 -0.43825293718E+03  0.24597537226E+04  0.24203972275E+04 0.  0.
        2    1    3    3  502    0  0.42165149230E+03 -0.80141578855E+03 -0.10350028050E+04  0.13752410892E+04  0.25500000920E-02 0. -1.
       -2    1    3    3    0  502 -0.42165149230E+03  0.80141578855E+03  0.59674986787E+03  0.10845126334E+04  0.25500000920E-02 0.  1.
</event>
<event>
 5   0  0.2149029E-06  0.2405145E+04  0.7818609E-02  0.8437580E-01
       -1   -1    0    0    0  501  0.00000000000E+00  0.00000000000E+00  0.82697769142E+03  0.82697769144E+03  0.50400001928E-02 0.  1.
        1   -1    0    0  501    0  0.00000000000E+00  0.00000000000E+00 -0.17487540020E+04  0.17487540020E+04  0.50400001928E-02 0. -1.
    10030    2    1    2    0    0  0.00000000000E+00  0.00000000000E+00 -0.92177631061E+03  0.25757316935E+04  0.24051449416E+04 0.  0.
        4    1    3    3  502    0  0.31641362179E+03 -0.91744625796E+03  0.29966046335E+03  0.10156885460E+04  0.12699999809E+01 0. -1.
       -4    1    3    3    0  502 -0.31641362179E+03  0.91744625796E+03 -0.12214367740E+04  0.15600431475E+04  0.12699999809E+01 0.  1.
</event>
<event>
 5   0  0.2297414E-06  0.2368428E+04  0.7818609E-02  0.8451419E-01
       -1   -1    0    0    0  501  0.00000000000E+00  0.00000000000E+00  0.72067112056E+03  0.72067112058E+03  0.50400001928E-02 0. -1.
        1   -1    0    0  501    0  0.00000000000E+00  0.00000000000E+00 -0.19459129772E+04  0.19459129773E+04  0.50400001928E-02 0.  1.
    10030    2    1    2    0    0  0.00000000000E+00  0.00000000000E+00 -0.12252418567E+04  0.26665840978E+04  0.23684284121E+04 0.  0.
        1    1    3    3  502    0 -0.16720448898E+03 -0.97340183254E+03 -0.13482442064E+04  0.16712961763E+04  0.50400001928E-02 0.  1.
       -1    1    3    3    0  502  0.16720448898E+03  0.97340183254E+03  0.12300234972E+03  0.99528792155E+03  0.50400001928E-02 0. -1.
</event>
<event>
 5   0  0.2254269E-06  0.2404783E+04  0.7818609E-02  0.8437715E-01
        1   -1    0    0  501    0  0.00000000000E+00  0.00000000000E+00  0.94361156408E+03  0.94361156410E+03  0.50400001928E-02 0. -1.
       -1   -1    0    0    0  501  0.00000000000E+00  0.00000000000E+00 -0.15321400515E+04  0.15321400515E+04  0.50400001928E-02 0.  1.
    10030    2    1    2    0    0  0.00000000000E+00  0.00000000000E+00 -0.58852848738E+03  0.24757516156E+04  0.24047827930E+04 0.  0.
        2    1    3    3  502    0  0.81512774951E+03  0.59691923709E+03  0.37689456661E+03  0.10783298837E+04  0.25500000920E-02 0. -1.
       -2    1    3    3    0  502 -0.81512774951E+03 -0.59691923709E+03 -0.96542305400E+03  0.13974217319E+04  0.25500000920E-02 0.  1.
</event>
<event>
 5   0  0.5268358E-06  0.2396533E+04  0.7818609E-02  0.8440803E-01
       -2   -1    0    0    0  501  0.00000000000E+00  0.00000000000E+00  0.83418784937E+03  0.83418784937E+03  0.25500000920E-02 0.  1.
        2   -1    0    0  501    0  0.00000000000E+00  0.00000000000E+00 -0.17212460755E+04  0.17212460755E+04  0.25500000920E-02 0. -1.
    10030    2    1    2    0    0  0.00000000000E+00  0.00000000000E+00 -0.88705822613E+03  0.25554339249E+04  0.23965329641E+04 0.  0.
        2    1    3    3  502    0  0.23492138463E+03 -0.61242045059E+02  0.80768912647E+03  0.84338625200E+03  0.25500000920E-02 0.  1.
       -2    1    3    3    0  502 -0.23492138463E+03  0.61242045059E+02 -0.16947473526E+04  0.17120476729E+04  0.25500000920E-02 0. -1.
</event>
<event>
 5   0  0.5349036E-06  0.2396406E+04  0.7818609E-02  0.8440850E-01
        2   -1    0    0  501    0  0.00000000000E+00  0.00000000000E+00  0.17206478796E+04  0.17206478796E+04  0.25500000920E-02 0. -1.
       -2   -1    0    0    0  501  0.00000000000E+00  0.00000000000E+00 -0.83438974579E+03  0.83438974580E+03  0.25500000920E-02 0.  1.
    10030    2    1    2    0    0  0.00000000000E+00  0.00000000000E+00  0.88625813377E+03  0.25550376254E+04  0.23964064320E+04 0.  0.
        1    1    3    3  502    0 -0.13337360474E+03  0.63003042458E+03 -0.63418432225E+03  0.90383439244E+03  0.50400001928E-02 0.  1.
       -1    1    3    3    0  502  0.13337360474E+03 -0.63003042458E+03  0.15204424560E+04  0.16512032329E+04  0.50400001928E-02 0. -1.
</event>
<event>
 5   0  0.2254269E-06  0.2398551E+04  0.7818609E-02  0.8440046E-01
        1   -1    0    0  501    0  0.00000000000E+00  0.00000000000E+00  0.18523025545E+04  0.18523025545E+04  0.50400001928E-02 0. -1.
       -1   -1    0    0    0  501  0.00000000000E+00  0.00000000000E+00 -0.77647224043E+03  0.77647224045E+03  0.50400001928E-02 0.  1.
    10030    2    1    2    0    0  0.00000000000E+00  0.00000000000E+00  0.10758303141E+04  0.26287747950E+04  0.23985508246E+04 0.  0.
        2    1    3    3  502    0 -0.10667034703E+04  0.30446405047E+03  0.10374087016E+04  0.15188059342E+04  0.25500000920E-02 0. -1.
       -2    1    3    3    0  502  0.10667034703E+04 -0.30446405047E+03  0.38421612501E+02  0.11099688608E+04  0.25500000920E-02 0.  1.
</event>
<event>
 5   0  0.5349036E-06  0.2392684E+04  0.7818609E-02  0.8442248E-01
        2   -1    0    0  501    0  0.00000000000E+00  0.00000000000E+00  0.12305478880E+04  0.12305478880E+04  0.25500000920E-02 0.  1.
       -2   -1    0    0    0  501  0.00000000000E+00  0.00000000000E+00 -0.11630869302E+04  0.11630869302E+04  0.25500000920E-02 0. -1.
    10030    2    1    2    0    0  0.00000000000E+00  0.00000000000E+00  0.67460957812E+02  0.23936348182E+04  0.23926839871E+04 0.  0.
        1    1    3    3  502    0  0.56860251301E+02 -0.11642197378E+04 -0.23580836215E+03  0.11892208667E+04  0.50400001928E-02 0. -1.
       -1    1    3    3    0  502 -0.56860251301E+02  0.11642197378E+04  0.30326931997E+03  0.12044139515E+04  0.50400001928E-02 0.  1.
</event>
<event>
 5   0  0.2297414E-06  0.2391040E+04  0.7818609E-02  0.8442866E-01
        1   -1    0    0  501    0  0.00000000000E+00  0.00000000000E+00  0.18973169887E+04  0.18973169887E+04  0.50400001928E-02 0. -1.
       -1   -1    0    0    0  501  0.00000000000E+00  0.00000000000E+00 -0.75331036133E+03  0.75331036135E+03  0.50400001928E-02 0.  1.
    10030    2    1    2    0    0  0.00000000000E+00  0.00000000000E+00  0.11440066273E+04  0.26506273500E+04  0.23910403981E+04 0.  0.
        1    1    3    3  502    0  0.32018594154E+02  0.64751630433E+03  0.16855284498E+04  0.18059093859E+04  0.50400001928E-02 0. -1.
       -1    1    3    3    0  502 -0.32018594154E+02 -0.64751630433E+03 -0.54152182248E+03  0.84471796417E+03  0.50400001928E-02 0.  1.
</event>
<event>
 5   0  0.5379778E-06  0.2408591E+04  0.7818609E-02  0.8436294E-01
       -2   -1    0    0    0  501  0.00000000000E+00  0.00000000000E+00  0.16860332863E+04  0.16860332863E+04  0.25500000920E-02 0. -1.
        2   -1    0    0  501    0  0.00000000000E+00  0.00000000000E+00 -0.86020102407E+03  0.86020102408E+03  0.25500000920E-02 0.  1.
    10030    2    1    2    0    0  0.00000000000E+00  0.00000000000E+00  0.82583226222E+03  0.25462343104E+04  0.24085909238E+04 0.  0.
        5    1    3    3  502    0  0.16251284967E+02  0.96743956264E+03 -0.34506778728E+03  0.10272766324E+04  0.46999998093E+01 0.  1.
       -5    1    3    3    0  502 -0.16251284967E+02 -0.96743956264E+03  0.11709000495E+04  0.15189576780E+04  0.46999998093E+01 0. -1.
</event>
<event>
 5   0  0.5371843E-06  0.2399430E+04  0.7818609E-02  0.8439717E-01
       -2   -1    0    0    0  501  0.00000000000E+00  0.00000000000E+00  0.13264566059E+04  0.13264566059E+04  0.25500000920E-02 0. -1.
        2   -1    0    0  501    0  0.00000000000E+00  0.00000000000E+00 -0.10850836111E+04  0.10850836111E+04  0.25500000920E-02 0.  1.
    10030    2    1    2    0    0  0.00000000000E+00  0.00000000000E+00  0.24137299476E+03  0.24115402170E+04  0.23994302023E+04 0.  0.
        4    1    3    3  502    0  0.63927405862E+03 -0.89876226042E+02 -0.89563705108E+03  0.11040454693E+04  0.12699999809E+01 0.  1.
       -4    1    3    3    0  502 -0.63927405862E+03  0.89876226042E+02  0.11370100458E+04  0.13074947477E+04  0.12699999809E+01 0. -1.
</event>
<event>
 5   0  0.5371843E-06  0.2397066E+04  0.7818609E-02  0.8440603E-01
        2   -1    0    0  501    0  0.00000000000E+00  0.00000000000E+00  0.11110926540E+04  0.11110926540E+04  0.25500000920E-02 0. -1.
       -2   -1    0    0    0  501  0.00000000000E+00  0.00000000000E+00 -0.12928549568E+04  0.12928549568E+04  0.25500000920E-02 0.  1.
    10030    2    1    2    0    0  0.00000000000E+00  0.00000000000E+00 -0.18176230274E+03  0.24039476108E+04  0.23970662446E+04 0.  0.
        4    1    3    3  502    0  0.67052931848E+03 -0.77552679157E+03  0.53173010152E+03  0.11548982142E+04  0.12699999809E+01 0. -1.
       -4    1    3    3    0  502 -0.67052931848E+03  0.77552679157E+03 -0.71349240426E+03  0.12490493966E+04  0.12699999809E+01 0.  1.
</event>
<event>
 5   0  0.2254269E-06  0.2400655E+04  0.7818609E-02  0.8439258E-01
        1   -1    0    0  501    0  0.00000000000E+00  0.00000000000E+00  0.20585645117E+04  0.20585645117E+04  0.50400001928E-02 0. -1.
       -1   -1    0    0    0  501  0.00000000000E+00  0.00000000000E+00 -0.69989831676E+03  0.69989831678E+03  0.50400001928E-02 0.  1.
    10030    2    1    2    0    0  0.00000000000E+00  0.00000000000E+00  0.13586661949E+04  0.27584628285E+04  0.24006547746E+04 0.  0.
        2    1    3    3  502    0  0.71998886728E+03 -0.65092460815E+03  0.14907736037E+04  0.17789021198E+04  0.25500000920E-02 0. -1.
       -2    1    3    3    0  502 -0.71998886728E+03  0.65092460815E+03 -0.13210740874E+03  0.97956070866E+03  0.25500000920E-02 0.  1.
</event>
<event>
 5   0  0.2215700E-06  0.2400631E+04  0.7818609E-02  0.8439267E-01
        1   -1    0    0  501    0  0.00000000000E+00  0.00000000000E+00  0.12039952777E+04  0.12039952777E+04  0.50400001928E-02 0. -1.
       -1   -1    0    0    0  501  0.00000000000E+00  0.00000000000E+00 -0.11966467157E+04  0.11966467157E+04  0.50400001928E-02 0.  1.
    10030    2    1    2    0    0  0.00000000000E+00  0.00000000000E+00  0.73485619999E+01  0.24006419935E+04  0.24006307462E+04 0.  0.
        3    1    3    3  502    0  0.78863706558E+03  0.70012670326E+03  0.57694057359E+03  0.12020758119E+04  0.10100000352E+00 0. -1.
       -3    1    3    3    0  502 -0.78863706558E+03 -0.70012670326E+03 -0.56959201159E+03  0.11985661816E+04  0.10100000352E+00 0.  1.
</event>
<event>
 5   0  0.2149417E-06  0.2400295E+04  0.7818609E-02  0.8439393E-01
       -1   -1    0    0    0  501  0.00000000000E+00  0.00000000000E+00  0.12154017989E+04  0.12154017989E+04  0.50400001928E-02 0.  1.
        1   -1    0    0  501    0  0.00000000000E+00  0.00000000000E+00 -0.11850850941E+04  0.11850850941E+04  0.50400001928E-02 0. -1.
    10030    2    1    2    0    0  0.00000000000E+00  0.00000000000E+00  0.30316704817E+02  0.24004868930E+04  0.24002954445E+04 0.  0.
        5    1    3    3  502    0 -0.10204112806E+04  0.11126643241E+01  0.64694606332E+03  0.12082225451E+04  0.46999998093E+01 0.  1.
       -5    1    3    3    0  502  0.10204112806E+04 -0.11126643241E+01 -0.61662935851E+03  0.11922643479E+04  0.46999998093E+01 0. -1.
</event>
<event>
 5   0  0.5371843E-06  0.2400677E+04  0.7818609E-02  0.8439250E-01
        2   -1    0    0  501    0  0.00000000000E+00  0.00000000000E+00  0.17969730042E+04  0.17969730042E+04  0.25500000920E-02 0.  1.
       -2   -1    0    0    0  501  0.00000000000E+00  0.00000000000E+00 -0.80179998165E+03  0.80179998165E+03  0.25500000920E-02 0. -1.
    10030    2    1    2    0    0  0.00000000000E+00  0.00000000000E+00  0.99517302254E+03  0.25987729858E+04  0.24006773392E+04 0.  0.
        4    1    3    3  502    0  0.79313393657E+03 -0.73889859397E+03 -0.60491184687E+02  0.10856764573E+04  0.12699999809E+01 0. -1.
       -4    1    3    3    0  502 -0.79313393657E+03  0.73889859397E+03  0.10556642072E+04  0.15130965286E+04  0.12699999809E+01 0.  1.
</event>
<event>
 5   0  0.5379778E-06  0.2402783E+04  0.7818609E-02  0.8438462E-01
       -2   -1    0    0    0  501  0.00000000000E+00  0.00000000000E+00  0.12014560998E+04  0.12014560998E+04  0.25500000920E-02 0.  1.
        2   -1    0    0  501    0  0.00000000000E+00  0.00000000000E+00 -0.12013272058E+04  0.12013272058E+04  0.25500000920E-02 0. -1.
    10030    2    1    2    0    0  0.00000000000E+00  0.00000000000E+00  0.12889400963E+00  0.24027833057E+04  0.24027833022E+04 0.  0.
        5    1    3    3  502    0  0.13912940669E+03  0.52142780788E+02 -0.11920949182E+04  0.12013277011E+04  0.46999998093E+01 0. -1.
       -5    1    3    3    0  502 -0.13912940669E+03 -0.52142780788E+02  0.11922238122E+04  0.12014556046E+04  0.46999998093E+01 0.  1.
</event>
<event>
 5   0  0.5349036E-06  0.2417654E+04  0.7818609E-02  0.8432924E-01
        2   -1    0    0  501    0  0.00000000000E+00  0.00000000000E+00  0.16780828022E+04  0.16780828022E+04  0.25500000920E-02 0.  1.
       -2   -1    0    0    0  501  0.00000000000E+00  0.00000000000E+00 -0.87079317338E+03  0.87079317338E+03  0.25500000920E-02 0. -1.
    10030    2    1    2    0    0  0.00000000000E+00  0.00000000000E+00  0.80728962877E+03  0.25488759755E+04  0.24176542751E+04 0.  0.
        1    1    3    3  502    0  0.79391903780E+03 -0.59846778310E+03  0.11285638953E+04  0.15040370979E+04  0.50400001928E-02 0.  1.
       -1    1    3    3    0  502 -0.79391903780E+03  0.59846778310E+03 -0.32127426650E+03  0.10448388777E+04  0.50400001928E-02 0. -1.
</event>
<event>
 5   0  0.5349036E-06  0.2400671E+04  0.7818609E-02  0.8439253E-01
       -2   -1    0    0    0  501  0.00000000000E+00  0.00000000000E+00  0.84571650989E+03  0.84571650989E+03  0.25500000920E-02 0.  1.
        2   -1    0    0  501    0  0.00000000000E+00  0.00000000000E+00 -0.17036497493E+04  0.17036497493E+04  0.25500000920E-02 0. -1.
    10030    2    1    2    0    0  0.00000000000E+00  0.00000000000E+00 -0.85793323943E+03  0.25493662592E+04  0.24006705064E+04 0.  0.
        1    1    3    3  502    0 -0.77641664202E+03 -0.12904975089E+03  0.53343869384E+03  0.95080675236E+03  0.50400001928E-02 0.  1.
       -1    1    3    3    0  502  0.77641664202E+03  0.12904975089E+03 -0.13913719333E+04  0.15985595068E+04  0.50400001928E-02 0. -1.
</event>
<event>
 5   0  0.1796750E-06  0.2391651E+04  0.7818609E-02  0.8442636E-01
       -3   -1    0    0    0  501  0.00000000000E+00  0.00000000000E+00  0.84774532598E+03  0.84774533199E+03  0.10100000352E+00 0.  1.
        3   -1    0    0  501    0  0.00000000000E+00  0.00000000000E+00 -0.16868261640E+04  0.16868261670E+04  0.10100000352E+00 0. -1.
    10030    2    1    2    0    0  0.00000000000E+00  0.00000000000E+00 -0.83908083803E+03  0.25345714990E+04  0.23916513188E+04 0.  0.
        4    1    3    3  502    0 -0.33761749494E+03 -0.10861884474E+04 -0.81065640394E+03  0.13967663850E+04  0.12699999809E+01 0. -1.
       -4    1    3    3    0  502  0.33761749494E+03  0.10861884474E+04 -0.28424434093E+02  0.11378051140E+04  0.12699999809E+01 0.  1.
</event>
<event>
 5   0  0.1796750E-06  0.2396753E+04  0.7818609E-02  0.8440720E-01
        3   -1    0    0  501    0  0.00000000000E+00  0.00000000000E+00  0.17619191986E+04  0.17619192015E+04  0.10100000352E+00 0.  1.
       -3   -1    0    0    0  501  0.00000000000E+00  0.00000000000E+00 -0.81508055683E+03  0.81508056309E+03  0.10100000352E+00 0. -1.
    10030    2    1    2    0    0  0.00000000000E+00  0.00000000000E+00  0.94683864178E+03  0.25769997646E+04  0.23967528811E+04 0.  0.
        1    1    3    3  502    0  0.97930315858E+03  0.45847272654E+03 -0.82029944089E+02  0.10844172763E+04  0.50400001928E-02 0. -1.
       -1    1    3    3    0  502 -0.97930315858E+03 -0.45847272654E+03  0.10288685859E+04  0.14925824883E+04  0.50400001928E-02 0.  1.
</event>
<event>
 5   0  0.5371843E-06  0.2445978E+04  0.7818609E-02  0.8422488E-01
        2   -1    0    0  501    0  0.00000000000E+00  0.00000000000E+00  0.21862047423E+04  0.21862047423E+04  0.25500000920E-02 0.  1.
       -2   -1    0    0    0  501  0.00000000000E+00  0.00000000000E+00 -0.68415440254E+03  0.68415440254E+03  0.25500000920E-02 0. -1.
    10030    2    1    2    0    0  0.00000000000E+00  0.00000000000E+00  0.15020503398E+04  0.28703591448E+04  0.24459775954E+04 0.  0.
        4    1    3    3  502    0  0.39690134167E+03  0.10605719420E+04  0.20897851202E+03  0.11515281805E+04  0.12699999809E+01 0. -1.
       -4    1    3    3    0  502 -0.39690134167E+03 -0.10605719420E+04  0.12930718277E+04  0.17188309643E+04  0.12699999809E+01 0.  1.
</event>
<event>
 5   0  0.2149029E-06  0.2397592E+04  0.7818609E-02  0.8440406E-01
       -1   -1    0    0    0  501  0.00000000000E+00  0.00000000000E+00  0.86010036979E+03  0.86010036981E+03  0.50400001928E-02 0.  1.
        1   -1    0    0  501    0  0.00000000000E+00  0.00000000000E+00 -0.16708649078E+04  0.16708649078E+04  0.50400001928E-02 0. -1.
    10030    2    1    2    0    0  0.00000000000E+00  0.00000000000E+00 -0.81076453796E+03  0.25309652776E+04  0.23975917293E+04 0.  0.
        4    1    3    3  502    0  0.10712072325E+04 -0.39888897481E+03 -0.24020534253E+02  0.11433179558E+04  0.12699999809E+01 0. -1.
       -4    1    3    3    0  502 -0.10712072325E+04  0.39888897481E+03 -0.78674400371E+03  0.13876473217E+04  0.12699999809E+01 0.  1.
</event>
<event>
 5   0  0.5371843E-06  0.2372121E+04  0.7818609E-02  0.8450015E-01
       -2   -1    0    0    0  501  0.00000000000E+00  0.00000000000E+00  0.72862319890E+03  0.72862319890E+03  0.25500000920E-02 0.  1.
        2   -1    0    0  501    0  0.00000000000E+00  0.00000000000E+00 -0.19306824259E+04  0.19306824259E+04  0.25500000920E-02 0. -1.
    10030    2    1    2    0    0  0.00000000000E+00  0.00000000000E+00 -0.12020592270E+04  0.26593056248E+04  0.23721214178E+04 0.  0.
        4    1    3    3  502    0 -0.10642230115E+03 -0.10507789812E+04  0.40100579586E+01  0.10561628032E+04  0.12699999809E+01 0.  1.
       -4    1    3    3    0  502  0.10642230115E+03  0.10507789812E+04 -0.12060692850E+04  0.16031428216E+04  0.12699999809E+01 0. -1.
</event>
<event>
 5   0  0.2215700E-06  0.2402935E+04  0.7818609E-02  0.8438406E-01
       -1   -1    0    0    0  501  0.00000000000E+00  0.00000000000E+00  0.17218605240E+04  0.17218605240E+04  0.50400001928E-02 0. -1.
        1   -1    0    0  501    0  0.00000000000E+00  0.00000000000E+00 -0.83835107272E+03  0.83835107274E+03  0.50400001928E-02 0.  1.
    10030    2    1    2    0    0  0.00000000000E+00  0.00000000000E+00  0.88350945128E+03  0.25602115967E+04  0.24029345538E+04 0.  0.
        3    1    3    3  502    0  0.48178191698E+03 -0.41289120570E+03  0.15287929477E+04  0.16552343793E+04  0.10100000352E+00 0. -1.
       -3    1    3    3    0  502 -0.48178191698E+03  0.41289120570E+03 -0.64528349638E+03  0.90497721749E+03  0.10100000352E+00 0.  1.
</event>
<event>
 5   0  0.2149029E-06  0.2401189E+04  0.7818609E-02  0.8439059E-01
        1   -1    0    0  501    0  0.00000000000E+00  0.00000000000E+00  0.82922173974E+03  0.82922173976E+03  0.50400001928E-02 0. -1.
       -1   -1    0    0    0  501  0.00000000000E+00  0.00000000000E+00 -0.17382890614E+04  0.17382890615E+04  0.50400001928E-02 0.  1.
    10030    2    1    2    0    0  0.00000000000E+00  0.00000000000E+00 -0.90906732171E+03  0.25675108012E+04  0.24011889386E+04 0.  0.
        4    1    3    3  502    0  0.89977641628E+03 -0.98841038667E+02  0.38880400119E+03  0.98515852251E+03  0.12699999809E+01 0. -1.
       -4    1    3    3    0  502 -0.89977641628E+03  0.98841038667E+02 -0.12978713229E+04  0.15823522787E+04  0.12699999809E+01 0.  1.
</event>
<event>
 5   0  0.2254269E-06  0.2401653E+04  0.7818609E-02  0.8438885E-01
       -1   -1    0    0    0  501  0.00000000000E+00  0.00000000000E+00  0.19876474765E+04  0.19876474765E+04  0.50400001928E-02 0. -1.
        1   -1    0    0  501    0  0.00000000000E+00  0.00000000000E+00 -0.72547297304E+03  0.72547297306E+03  0.50400001928E-02 0.  1.
    10030    2    1    2    0    0  0.00000000000E+00  0.00000000000E+00  0.12621745034E+04  0.27131204495E+04  0.24016532007E+04 0.  0.
        2    1    3    3  502    0 -0.11376687658E+04  0.37301123159E+03  0.52658692852E+03  0.13079454854E+04  0.25500000920E-02 0. -1.
       -2    1    3    3    0  502  0.11376687658E+04 -0.37301123159E+03  0.73558757490E+03  0.14051749641E+04  0.25500000920E-02 0.  1.
</event>
<event>
 5   0  0.5349036E-06  0.2401581E+04  0.7818609E-02  0.8438912E-01
        2   -1    0    0  501    0  0.00000000000E+00  0.00000000000E+00  0.12208702213E+04  0.12208702213E+04  0.25500000920E-02 0.  1.
       -2   -1    0    0    0  501  0.00000000000E+00  0.00000000000E+00 -0.11810406179E+04  0.11810406179E+04  0.25500000920E-02 0. -1.
    10030    2    1    2    0    0  0.00000000000E+00  0.00000000000E+00  0.39829603388E+02  0.24019108392E+04  0.24015805800E+04 0.  0.
        1    1    3    3  502    0 -0.11407122453E+04 -0.36363976909E+03 -0.71961928620E+02  0.11994318769E+04  0.50400001928E-02 0.  1.
       -1    1    3    3    0  502  0.11407122453E+04  0.36363976909E+03  0.11179153201E+03  0.12024789623E+04  0.50400001928E-02 0. -1.
</event>
<event>
 5   0  0.2215700E-06  0.2408770E+04  0.7818609E-02  0.8436228E-01
       -1   -1    0    0    0  501  0.00000000000E+00  0.00000000000E+00  0.77359682921E+03  0.77359682923E+03  0.50400001928E-02 0.  1.
        1   -1    0    0  501    0  0.00000000000E+00  0.00000000000E+00 -0.18750632991E+04  0.18750632991E+04  0.50400001928E-02 0. -1.
    10030    2    1    2    0    0  0.00000000000E+00  0.00000000000E+00 -0.11014664699E+04  0.26486601283E+04  0.24087698294E+04 0.  0.
        3    1    3    3  502    0  0.10684732612E+04 -0.51749545862E+03 -0.77367190444E+03  0.14170408905E+04  0.10100000352E+00 0. -1.
       -3    1    3    3    0  502 -0.10684732612E+04  0.51749545862E+03 -0.32779456545E+03  0.12316192378E+04  0.10100000352E+00 0.  1.
</event>
<event>
 5   0  0.5440503E-06  0.2402122E+04  0.7818609E-02  0.8438709E-01
       -2   -1    0    0    0  501  0.00000000000E+00  0.00000000000E+00  0.59456011281E+03  0.59456011281E+03  0.25500000920E-02 0. -1.
        2   -1    0    0  501    0  0.00000000000E+00  0.00000000000E+00 -0.24262436960E+04  0.24262436960E+04  0.25500000920E-02 0.  1.
    10030    2    1    2    0    0  0.00000000000E+00  0.00000000000E+00 -0.18316835832E+04  0.30208038088E+04  0.24021221664E+04 0.  0.
        3    1    3    3  502    0 -0.46554239960E+03 -0.72105323417E+03  0.14073018788E+03  0.86974277135E+03  0.10100000352E+00 0. -1.
       -3    1    3    3    0  502  0.46554239960E+03  0.72105323417E+03 -0.19724137710E+04  0.21510610374E+04  0.10100000352E+00 0.  1.
</event>
<event>
 5   0  0.5268358E-06  0.2376179E+04  0.7818609E-02  0.8448476E-01
       -2   -1    0    0    0  501  0.00000000000E+00  0.00000000000E+00  0.12551955181E+04  0.12551955181E+04  0.25500000920E-02 0.  1.
        2   -1    0    0  501    0  0.00000000000E+00  0.00000000000E+00 -0.11245714620E+04  0.11245714620E+04  0.25500000920E-02 0. -1.
    10030    2    1    2    0    0  0.00000000000E+00  0.00000000000E+00  0.13062405608E+03  0.23797669802E+04  0.23761793358E+04 0.  0.
        2    1    3    3  502    0  0.30328361469E+03 -0.93153689988E+03  0.73849883482E+03  0.12268343310E+04  0.25500000920E-02 0.  1.
       -2    1    3    3    0  502 -0.30328361469E+03  0.93153689988E+03 -0.60787477873E+03  0.11529326491E+04  0.25500000920E-02 0. -1.
</event>
<event>
 5   0  0.5371843E-06  0.2400049E+04  0.7818609E-02  0.8439485E-01
       -2   -1    0    0    0  501  0.00000000000E+00  0.00000000000E+00  0.99259437068E+03  0.99259437068E+03  0.25500000920E-02 0. -1.
        2   -1    0    0  501    0  0.00000000000E+00  0.00000000000E+00 -0.14508026309E+04  0.14508026309E+04  0.25500000920E-02 0.  1.
    10030    2    1    2    0    0  0.00000000000E+00  0.00000000000E+00 -0.45820826020E+03  0.24433970016E+04  0.24000487698E+04 0.  0.
        4    1    3    3  502    0  0.65156903563E+02  0.90048172258E+03  0.57570811527E+03  0.10707727124E+04  0.12699999809E+01 0. -1.
       -4    1    3    3    0  502 -0.65156903563E+02 -0.90048172258E+03 -0.10339163755E+04  0.13726242891E+04  0.12699999809E+01 0.  1.
</event>
<event>
 5   0  0.2149029E-06  0.2402287E+04  0.7818609E-02  0.8438648E-01
       -1   -1    0    0    0  501  0.00000000000E+00  0.00000000000E+00  0.65254197680E+03  0.65254197682E+03  0.50400001928E-02 0. -1.
        1   -1    0    0  501    0  0.00000000000E+00  0.00000000000E+00 -0.22109628249E+04  0.22109628249E+04  0.50400001928E-02 0.  1.
    10030    2    1    2    0    0  0.00000000000E+00  0.00000000000E+00 -0.15584208481E+04  0.28635048018E+04  0.24022872871E+04 0.  0.
        4    1    3    3  502    0  0.49980388900E+02 -0.68227827312E+03 -0.19560519416E+04  0.20722312835E+04  0.12699999809E+01 0.  1.
       -4    1    3    3    0  502 -0.49980388900E+02  0.68227827312E+03  0.39763109348E+03  0.79127351823E+03  0.12699999809E+01 0. -1.
</event>
<event>
 5   0  0.2297414E-06  0.2393469E+04  0.7818609E-02  0.8441953E-01
        1   -1    0    0  501    0  0.00000000000E+00  0.00000000000E+00  0.59015101318E+03  0.59015101321E+03  0.50400001928E-02 0. -1.
       -1   -1    0    0    0  501  0.00000000000E+00  0.00000000000E+00 -0.24267907696E+04  0.24267907696E+04  0.50400001928E-02 0.  1.
    10030    2    1    2    0    0  0.00000000000E+00  0.00000000000E+00 -0.18366397564E+04  0.30169417828E+04  0.23934686390E+04 0.  0.
        1    1    3    3  502    0  0.47363642664E+03  0.56997597957E+03 -0.21027567104E+04  0.22295268254E+04  0.50400001928E-02 0.  1.
       -1    1    3    3    0  502 -0.47363642664E+03 -0.56997597957E+03  0.26611695400E+03  0.78741495741E+03  0.50400001928E-02 0. -1.
</event>
<event>
 5   0  0.5371843E-06  0.2396741E+04  0.7818609E-02  0.8440725E-01
        2   -1    0    0  501    0  0.00000000000E+00  0.00000000000E+00  0.19336630280E+04  0.19336630280E+04  0.25500000920E-02 0.  1.
       -2   -1    0    0    0  501  0.00000000000E+00  0.00000000000E+00 -0.74267966806E+03  0.74267966806E+03  0.25500000920E-02 0. -1.
    10030    2    1    2    0    0  0.00000000000E+00  0.00000000000E+00  0.11909833599E+04  0.26763426961E+04  0.23967413008E+04 0.  0.
        4    1    3    3  502    0  0.44200148340E+03 -0.67572486416E+03 -0.39331675064E+03  0.89814758398E+03  0.12699999809E+01 0. -1.
       -4    1    3    3    0  502 -0.44200148340E+03  0.67572486416E+03  0.15843001106E+04  0.17781951121E+04  0.12699999809E+01 0.  1.
</event>
<event>
 5   0  0.5379778E-06  0.2404969E+04  0.7818609E-02  0.8437645E-01
       -2   -1    0    0    0  501  0.00000000000E+00  0.00000000000E+00  0.70643802482E+03  0.70643802482E+03  0.25500000920E-02 0.  1.
        2   -1    0    0  501    0  0.00000000000E+00  0.00000000000E+00 -0.20468452155E+04  0.20468452155E+04  0.25500000920E-02 0. -1.
    10030    2    1    2    0    0  0.00000000000E+00  0.00000000000E+00 -0.13404071907E+04  0.27532832404E+04  0.24049692648E+04 0.  0.
        5    1    3    3  502    0  0.64331671085E+02  0.79799591211E+03 -0.16973735596E+04  0.18767085897E+04  0.46999998093E+01 0. -1.
       -5    1    3    3    0  502 -0.64331671085E+02 -0.79799591211E+03  0.35696636893E+03  0.87657465067E+03  0.46999998093E+01 0.  1.
</event>
<event>
 5   0  0.2254269E-06  0.2372634E+04  0.7818609E-02  0.8449821E-01
        1   -1    0    0  501    0  0.00000000000E+00  0.00000000000E+00  0.11696753731E+04  0.11696753731E+04  0.50400001928E-02 0. -1.
       -1   -1    0    0    0  501  0.00000000000E+00  0.00000000000E+00 -0.12031950705E+04  0.12031950705E+04  0.50400001928E-02 0.  1.
    10030    2    1    2    0    0  0.00000000000E+00  0.00000000000E+00 -0.33519697366E+02  0.23728704436E+04  0.23726336784E+04 0.  0.
        2    1    3    3  502    0 -0.12037590276E+03  0.10856257234E+04 -0.47970351772E+03  0.11929748674E+04  0.25500000920E-02 0.  1.
       -2    1    3    3    0  502  0.12037590276E+03 -0.10856257234E+04  0.44618382036E+03  0.11798955762E+04  0.25500000920E-02 0. -1.
</event>
<event>
 5   0  0.2215700E-06  0.2405247E+04  0.7818609E-02  0.8437542E-01
       -1   -1    0    0    0  501  0.00000000000E+00  0.00000000000E+00  0.23970970026E+04  0.23970970026E+04  0.50400001928E-02 0.  1.
        1   -1    0    0  501    0  0.00000000000E+00  0.00000000000E+00 -0.60335617480E+03  0.60335617482E+03  0.50400001928E-02 0. -1.
    10030    2    1    2    0    0  0.00000000000E+00  0.00000000000E+00  0.17937408278E+04  0.30004531775E+04  0.24052469962E+04 0.  0.
        3    1    3    3  502    0 -0.19111738876E+03  0.54130909783E+03 -0.42140897512E+03  0.71212845062E+03  0.10100000352E+00 0. -1.
       -3    1    3    3    0  502  0.19111738876E+03 -0.54130909783E+03  0.22151498030E+04  0.22883247268E+04  0.10100000352E+00 0.  1.
</event>
<event>
 5   0  0.5268358E-06  0.2440121E+04  0.7818609E-02  0.8424634E-01
       -2   -1    0    0    0  501  0.00000000000E+00  0.00000000000E+00  0.83975185343E+03  0.83975185343E+03  0.25500000920E-02 0. -1.
        2   -1    0    0  501    0  0.00000000000E+00  0.00000000000E+00 -0.17726046534E+04  0.17726046534E+04  0.25500000920E-02 0.  1.
    10030    2    1    2    0    0  0.00000000000E+00  0.00000000000E+00 -0.93285279997E+03  0.26123565068E+04  0.24401213438E+04 0.  0.
        2    1    3    3  502    0 -0.11656879823E+04  0.31397695720E+02 -0.85054668330E+03  0.14433447086E+04  0.25500000920E-02 0.  1.
       -2    1    3    3    0  502  0.11656879823E+04 -0.31397695720E+02 -0.82306116664E+02  0.11690117982E+04  0.25500000920E-02 0. -1.
</event>
<event>
 5   0  0.5371843E-06  0.2399225E+04  0.7818609E-02  0.8439794E-01
       -2   -1    0    0    0  501  0.00000000000E+00  0.00000000000E+00  0.10060023881E+04  0.10060023881E+04  0.25500000920E-02 0. -1.
        2   -1    0    0  501    0  0.00000000000E+00  0.00000000000E+00 -0.14304843601E+04  0.14304843601E+04  0.25500000920E-02 0.  1.
    10030    2    1    2    0    0  0.00000000000E+00  0.00000000000E+00 -0.42448197193E+03  0.24364867482E+04  0.23992254437E+04 0.  0.
        4    1    3    3  502    0  0.75705942383E+02 -0.61529202203E+03  0.83072096216E+03  0.10365397204E+04  0.12699999809E+01 0. -1.
       -4    1    3    3    0  502 -0.75705942383E+02  0.61529202203E+03 -0.12552029341E+04  0.13999470278E+04  0.12699999809E+01 0.  1.
</event>
<event>
 5   0  0.2297414E-06  0.2401906E+04  0.7818609E-02  0.8438791E-01
       -1   -1    0    0    0  501  0.00000000000E+00  0.00000000000E+00  0.89153699009E+03  0.89153699010E+03  0.50400001928E-02 0. -1.
        1   -1    0    0  501    0  0.00000000000E+00  0.00000000000E+00 -0.16177539975E+04  0.16177539975E+04  0.50400001928E-02 0.  1.
    10030    2    1    2    0    0  0.00000000000E+00  0.00000000000E+00 -0.72621700740E+03  0.25092909876E+04  0.24019055182E+04 0.  0.
        1    1    3    3  502    0 -0.20879646457E+03  0.17876319251E+03 -0.15844505557E+04  0.16081156072E+04  0.50400001928E-02 0.  1.
       -1    1    3    3    0  502  0.20879646457E+03 -0.17876319251E+03  0.85823354835E+03  0.90117538035E+03  0.50400001928E-02 0. -1.
</event>
<event>
 5   0  0.2297414E-06  0.2435492E+04  0.7818609E-02  0.8426334E-01
       -1   -1    0    0    0  501  0.00000000000E+00  0.00000000000E+00  0.13462443264E+04  0.13462443264E+04  0.50400001928E-02 0. -1.
        1   -1    0    0  501    0  0.00000000000E+00  0.00000000000E+00 -0.11015130573E+04  0.11015130573E+04  0.50400001928E-02 0.  1.
    10030    2    1    2    0    0  0.00000000000E+00  0.00000000000E+00  0.24473126910E+03  0.24477573838E+04  0.24354923149E+04 0.  0.
        1    1    3    3  502    0  0.26673327120E+03  0.37466589371E+02  0.13159300886E+04  0.13432134534E+04  0.50400001928E-02 0. -1.
       -1    1    3    3    0  502 -0.26673327120E+03 -0.37466589371E+02 -0.10711988195E+04  0.11045439304E+04  0.50400001928E-02 0.  1.
</event>
<event>
 5   0  0.5440503E-06  0.2403222E+04  0.7818609E-02  0.8438298E-01
       -2   -1    0    0    0  501  0.00000000000E+00  0.00000000000E+00  0.45334534293E+03  0.45334534294E+03  0.25500000920E-02 0. -1.
        2   -1    0    0  501    0  0.00000000000E+00  0.00000000000E+00 -0.31849214411E+04  0.31849214411E+04  0.25500000920E-02 0.  1.
    10030    2    1    2    0    0  0.00000000000E+00  0.00000000000E+00 -0.27315760982E+04  0.36382667841E+04  0.24032222560E+04 0.  0.
        3    1    3    3  502    0  0.10444094814E+04  0.53420524814E+03 -0.17597045546E+04  0.21148821578E+04  0.10100000352E+00 0.  1.
       -3    1    3    3    0  502 -0.10444094814E+04 -0.53420524814E+03 -0.97187154365E+03  0.15233846263E+04  0.10100000352E+00 0. -1.
</event>
<event>
 5   0  0.2149029E-06  0.2396770E+04  0.7818609E-02  0.8440714E-01
        1   -1    0    0  501    0  0.00000000000E+00  0.00000000000E+00  0.22967955006E+04  0.22967955006E+04  0.50400001928E-02 0.  1.
       -1   -1    0    0    0  501  0.00000000000E+00  0.00000000000E+00 -0.62527379829E+03  0.62527379831E+03  0.50400001928E-02 0. -1.
    10030    2    1    2    0    0  0.00000000000E+00  0.00000000000E+00  0.16715217023E+04  0.29220692989E+04  0.23967695313E+04 0.  0.
        4    1    3    3  502    0  0.73746068652E+03  0.18227863510E+03 -0.29422661499E+03  0.81464389696E+03  0.12699999809E+01 0. -1.
       -4    1    3    3    0  502 -0.73746068652E+03 -0.18227863510E+03  0.19657483173E+04  0.21074254020E+04  0.12699999809E+01 0.  1.
</event>
<event>
 5   0  0.2215700E-06  0.2401401E+04  0.7818609E-02  0.8438979E-01
        1   -1    0    0  501    0  0.00000000000E+00  0.00000000000E+00  0.10379625770E+04  0.10379625770E+04  0.50400001928E-02 0. -1.
       -1   -1    0    0    0  501  0.00000000000E+00  0.00000000000E+00 -0.13889534004E+04  0.13889534004E+04  0.50400001928E-02 0.  1.
    10030    2    1    2    0    0  0.00000000000E+00  0.00000000000E+00 -0.35099082345E+03  0.24269159774E+04  0.24014009668E+04 0.  0.
        3    1    3    3  502    0 -0.33885296106E+03 -0.96033808850E+03 -0.81834436122E+03  0.13064295148E+04  0.10100000352E+00 0.  1.
       -3    1    3    3    0  502  0.33885296106E+03  0.96033808850E+03  0.46735353777E+03  0.11204864626E+04  0.10100000352E+00 0. -1.
</event>
<event>
 5   0  0.2297414E-06  0.2396955E+04  0.7818609E-02  0.8440644E-01
        1   -1    0    0  501    0  0.00000000000E+00  0.00000000000E+00  0.19595597201E+04  0.19595597201E+04  0.50400001928E-02 0. -1.
       -1   -1    0    0    0  501  0.00000000000E+00  0.00000000000E+00 -0.73299536338E+03  0.73299536339E+03  0.50400001928E-02 0.  1.
    10030    2    1    2    0    0  0.00000000000E+00  0.00000000000E+00  0.12265643568E+04  0.26925550835E+04  0.23969548925E+04 0.  0.
        1    1    3    3  502    0 -0.96252822802E+02  0.13433565600E+03 -0.72013490078E+03  0.73885380808E+03  0.50400001928E-02 0.  1.
       -1    1    3    3    0  502  0.96252822802E+02 -0.13433565600E+03  0.19466992575E+04  0.19537012755E+04  0.50400001928E-02 0. -1.
</event>
<event>
 5   0  0.2215700E-06  0.2404328E+04  0.7818609E-02  0.8437885E-01
        1   -1    0    0  501    0  0.00000000000E+00  0.00000000000E+00  0.10341455650E+04  0.10341455650E+04  0.50400001928E-02 0. -1.
       -1   -1    0    0    0  501  0.00000000000E+00  0.00000000000E+00 -0.13974800464E+04  0.13974800464E+04  0.50400001928E-02 0.  1.
    10030    2    1    2    0    0  0.00000000000E+00  0.00000000000E+00 -0.36333448144E+03  0.24316256114E+04  0.24043275918E+04 0.  0.
        3    1    3    3  502    0 -0.73839740677E+03  0.94437751284E+03 -0.27279107860E+03  0.12294285664E+04  0.10100000352E+00 0.  1.
       -3    1    3    3    0  502  0.73839740677E+03 -0.94437751284E+03 -0.90543402839E+02  0.12021970450E+04  0.10100000352E+00 0. -1.
</event>
<event>
 5   0  0.2254269E-06  0.2402162E+04  0.7818609E-02  0.8438695E-01
        1   -1    0    0  501    0  0.00000000000E+00  0.00000000000E+00  0.19822588907E+04  0.19822588907E+04  0.50400001928E-02 0. -1.
       -1   -1    0    0    0  501  0.00000000000E+00  0.00000000000E+00 -0.72775329843E+03  0.72775329844E+03  0.50400001928E-02 0.  1.
    10030    2    1    2    0    0  0.00000000000E+00  0.00000000000E+00  0.12545055923E+04  0.27100121891E+04  0.24021618980E+04 0.  0.
        2    1    3    3  502    0 -0.52080471909E+03 -0.10805808959E+04  0.55860364678E+03  0.13232273660E+04  0.25500000920E-02 0.  1.
       -2    1    3    3    0  502  0.52080471909E+03  0.10805808959E+04  0.69590194547E+03  0.13867848231E+04  0.25500000920E-02 0. -1.
</event>
<event>
 5   0  0.2149029E-06  0.2394889E+04  0.7818609E-02  0.8441419E-01
        1   -1    0    0  501    0  0.00000000000E+00  0.00000000000E+00  0.10630380718E+04  0.10630380718E+04  0.50400001928E-02 0.  1.
       -1   -1    0    0    0  501  0.00000000000E+00  0.00000000000E+00 -0.13488448475E+04  0.13488448476E+04  0.50400001928E-02 0. -1.
    10030    2    1    2    0    0  0.00000000000E+00  0.00000000000E+00 -0.28580677575E+03  0.24118829194E+04  0.23948890796E+04 0.  0.
        4    1    3    3  502    0 -0.84000682682E+02 -0.74364024201E+03 -0.10843171405E+04  0.13174984624E+04  0.12699999809E+01 0. -1.
       -4    1    3    3    0  502  0.84000682682E+02  0.74364024201E+03  0.79851036475E+03  0.10943844570E+04  0.12699999809E+01 0.  1.
</event>
<event>
 5   0  0.2297414E-06  0.2400172E+04  0.7818609E-02  0.8439439E-01
       -1   -1    0    0    0  501  0.00000000000E+00  0.00000000000E+00  0.88460861548E+03  0.88460861550E+03  0.50400001928E-02 0. -1.
        1   -1    0    0  501    0  0.00000000000E+00  0.00000000000E+00 -0.16280716370E+04  0.16280716370E+04  0.50400001928E-02 0.  1.
    10030    2    1    2    0    0  0.00000000000E+00  0.00000000000E+00 -0.74346302153E+03  0.25126802525E+04  0.24001718245E+04 0.  0.
        1    1    3    3  502    0 -0.12843958477E+03 -0.89501626374E+03  0.45434211756E+03  0.10119177828E+04  0.50400001928E-02 0. -1.
       -1    1    3    3    0  502  0.12843958477E+03  0.89501626374E+03 -0.11978051391E+04  0.15007624697E+04  0.50400001928E-02 0.  1.
</event>
<event>
 5   0  0.2215700E-06  0.2400770E+04  0.7818609E-02  0.8439215E-01
       -1   -1    0    0    0  501  0.00000000000E+00  0.00000000000E+00  0.11957548597E+04  0.11957548597E+04  0.50400001928E-02 0. -1.
        1   -1    0    0  501    0  0.00000000000E+00  0.00000000000E+00 -0.12050327323E+04  0.12050327323E+04  0.50400001928E-02 0.  1.
    10030    2    1    2    0    0  0.00000000000E+00  0.00000000000E+00 -0.92778726272E+01  0.24007875920E+04  0.24007696647E+04 0.  0.
        3    1    3    3  502    0  0.10268534257E+04 -0.20743384415E+03  0.58142599827E+03  0.11981289410E+04  0.10100000352E+00 0.  1.
       -3    1    3    3    0  502 -0.10268534257E+04  0.20743384415E+03 -0.59070387090E+03  0.12026586510E+04  0.10100000352E+00 0. -1.
</event>
<event>
 5   0  0.5379778E-06  0.2430409E+04  0.7818609E-02  0.8428206E-01
       -2   -1    0    0    0  501  0.00000000000E+00  0.00000000000E+00  0.98255510377E+03  0.98255510378E+03  0.25500000920E-02 0.  1.
        2   -1    0    0  501    0  0.00000000000E+00  0.00000000000E+00 -0.15029410431E+04  0.15029410431E+04  0.25500000920E-02 0. -1.
    10030    2    1    2    0    0  0.00000000000E+00  0.00000000000E+00 -0.52038593937E+03  0.24854961469E+04  0.24304093422E+04 0.  0.
        5    1    3    3  502    0 -0.43896451007E+02 -0.93407626019E+03 -0.10538467083E+04  0.14089145939E+04  0.46999998093E+01 0. -1.
       -5    1    3    3    0  502  0.43896451007E+02  0.93407626019E+03  0.53346076896E+03  0.10765815530E+04  0.46999998093E+01 0.  1.
</event>
<event>
 5   0  0.5371843E-06  0.2399439E+04  0.7818609E-02  0.8439714E-01
        2   -1    0    0  501    0  0.00000000000E+00  0.00000000000E+00  0.13843550144E+04  0.13843550144E+04  0.25500000920E-02 0.  1.
       -2   -1    0    0    0  501  0.00000000000E+00  0.00000000000E+00 -0.10397092143E+04  0.10397092143E+04  0.25500000920E-02 0. -1.
    10030    2    1    2    0    0  0.00000000000E+00  0.00000000000E+00  0.34464580014E+03  0.24240642287E+04  0.23994388213E+04 0.  0.
        4    1    3    3  502    0  0.61071597800E+03 -0.10159229041E+04 -0.14648636830E+02  0.11854490914E+04  0.12699999809E+01 0. -1.
       -4    1    3    3    0  502 -0.61071597800E+03  0.10159229041E+04  0.35929443697E+03  0.12386151372E+04  0.12699999809E+01 0.  1.
</event>
<event>
 5   0  0.2149417E-06  0.2401148E+04  0.7818609E-02  0.8439074E-01
       -1   -1    0    0    0  501  0.00000000000E+00  0.00000000000E+00  0.12720194382E+04  0.12720194382E+04  0.50400001928E-02 0.  1.
        1   -1    0    0  501    0  0.00000000000E+00  0.00000000000E+00 -0.11331411094E+04  0.11331411094E+04  0.50400001928E-02 0. -1.
    10030    2    1    2    0    0  0.00000000000E+00  0.00000000000E+00  0.13887832884E+03  0.24051605476E+04  0.24011476568E+04 0.  0.
        5    1    3    3  502    0 -0.59697701666E+03 -0.57137642128E+03 -0.80293704533E+03  0.11522076905E+04  0.46999998093E+01 0. -1.
       -5    1    3    3    0  502  0.59697701666E+03  0.57137642128E+03  0.94181537417E+03  0.12529528571E+04  0.46999998093E+01 0.  1.
</event>
<event>
 5   0  0.5371843E-06  0.2403072E+04  0.7818609E-02  0.8438354E-01
       -2   -1    0    0    0  501  0.00000000000E+00  0.00000000000E+00  0.67561803295E+03  0.67561803296E+03  0.25500000920E-02 0.  1.
        2   -1    0    0  501    0  0.00000000000E+00  0.00000000000E+00 -0.21368423078E+04  0.21368423078E+04  0.25500000920E-02 0. -1.
    10030    2    1    2    0    0  0.00000000000E+00  0.00000000000E+00 -0.14612242749E+04  0.28124603408E+04  0.24030723641E+04 0.  0.
        4    1    3    3  502    0  0.94190852560E+03  0.35681396789E+03  0.36112019830E+02  0.10078757707E+04  0.12699999809E+01 0. -1.
       -4    1    3    3    0  502 -0.94190852560E+03 -0.35681396789E+03 -0.14973362947E+04  0.18045845701E+04  0.12699999809E+01 0.  1.
</event>
<event>
 5   0  0.2149417E-06  0.2392569E+04  0.7818609E-02  0.8442291E-01
       -1   -1    0    0    0  501  0.00000000000E+00  0.00000000000E+00  0.75151345416E+03  0.75151345418E+03  0.50400001928E-02 0. -1.
        1   -1    0    0  501    0  0.00000000000E+00  0.00000000000E+00 -0.19042859859E+04  0.19042859859E+04  0.50400001928E-02 0.  1.
    10030    2    1    2    0    0  0.00000000000E+00  0.00000000000E+00 -0.11527725317E+04  0.26557994401E+04  0.23925689449E+04 0.  0.
        5    1    3    3  502    0 -0.15653418892E+03 -0.85236124854E+03  0.33899455845E+03  0.93057081997E+03  0.46999998093E+01 0. -1.
       -5    1    3    3    0  502  0.15653418892E+03  0.85236124854E+03 -0.14917670902E+04  0.17252286201E+04  0.46999998093E+01 0.  1.
</event>
<event>
 5   0  0.5268358E-06  0.2385151E+04  0.7818609E-02  0.8445084E-01
        2   -1    0    0  501    0  0.00000000000E+00  0.00000000000E+00  0.17113645828E+04  0.17113645828E+04  0.25500000920E-02 0.  1.
       -2   -1    0    0    0  501  0.00000000000E+00  0.00000000000E+00 -0.83105422507E+03  0.83105422507E+03  0.25500000920E-02 0. -1.
    10030    2    1    2    0    0  0.00000000000E+00  0.00000000000E+00  0.88031035774E+03  0.25424188079E+04  0.23851513723E+04 0.  0.
        2    1    3    3  502    0 -0.11738156450E+04  0.64662330881E+02  0.22640275685E+03  0.11971978090E+04  0.25500000920E-02 0.  1.
       -2    1    3    3    0  502  0.11738156450E+04 -0.64662330881E+02  0.65390760089E+03  0.13452209989E+04  0.25500000920E-02 0. -1.
</event>
<event>
 5   0  0.5349036E-06  0.2404314E+04  0.7818609E-02  0.8437890E-01
        2   -1    0    0  501    0  0.00000000000E+00  0.00000000000E+00  0.28316237713E+04  0.28316237713E+04  0.25500000920E-02 0. -1.
       -2   -1    0    0    0  501  0.00000000000E+00  0.00000000000E+00 -0.51037208871E+03  0.51037208871E+03  0.25500000920E-02 0.  1.
    10030    2    1    2    0    0  0.00000000000E+00  0.00000000000E+00  0.23212516826E+04  0.33419958600E+04  0.24043142379E+04 0.  0.
        1    1    3    3  502    0  0.56273346784E+03 -0.90666147141E+03  0.39111603083E+03  0.11365191284E+04  0.50400001928E-02 0.  1.
       -1    1    3    3    0  502 -0.56273346784E+03  0.90666147141E+03  0.19301356518E+04  0.22054767316E+04  0.50400001928E-02 0. -1.
</event>
<event>
 5   0  0.2149029E-06  0.2397984E+04  0.7818609E-02  0.8440259E-01
        1   -1    0    0  501    0  0.00000000000E+00  0.00000000000E+00  0.28719202569E+04  0.28719202569E+04  0.50400001928E-02 0. -1.
       -1   -1    0    0    0  501  0.00000000000E+00  0.00000000000E+00 -0.50056485843E+03  0.50056485845E+03  0.50400001928E-02 0.  1.
    10030    2    1    2    0    0  0.00000000000E+00  0.00000000000E+00  0.23713553985E+04  0.33724851154E+04  0.23979844510E+04 0.  0.
        4    1    3    3  502    0 -0.98074960768E+03 -0.60554738474E+03  0.72130853635E+03  0.13597224149E+04  0.12699999809E+01 0.  1.
       -4    1    3    3    0  502  0.98074960768E+03  0.60554738474E+03  0.16500468621E+04  0.20127627004E+04  0.12699999809E+01 0. -1.
</event>
<event>
 5   0  0.5349036E-06  0.2392652E+04  0.7818609E-02  0.8442260E-01
       -2   -1    0    0    0  501  0.00000000000E+00  0.00000000000E+00  0.62571158426E+03  0.62571158426E+03  0.25500000920E-02 0. -1.
        2   -1    0    0  501    0  0.00000000000E+00  0.00000000000E+00 -0.22873094677E+04  0.22873094677E+04  0.25500000920E-02 0.  1.
    10030    2    1    2    0    0  0.00000000000E+00  0.00000000000E+00 -0.16615978834E+04  0.29130210520E+04  0.23926521107E+04 0.  0.
        1    1    3    3  502    0 -0.68299782678E+03  0.75791436947E+03 -0.15913876642E+04  0.18903531206E+04  0.50400001928E-02 0.  1.
       -1    1    3    3    0  502  0.68299782678E+03 -0.75791436947E+03 -0.70210219203E+02  0.10226679313E+04  0.50400001928E-02 0. -1.
</event>
<event>
 5   0  0.2254269E-06  0.2404279E+04  0.7818609E-02  0.8437903E-01
       -1   -1    0    0    0  501  0.00000000000E+00  0.00000000000E+00  0.11402537779E+04  0.11402537779E+04  0.50400001928E-02 0. -1.
        1   -1    0    0  501    0  0.00000000000E+00  0.00000000000E+00 -0.12673837386E+04  0.12673837386E+04  0.50400001928E-02 0.  1.
    10030    2    1    2    0    0  0.00000000000E+00  0.00000000000E+00 -0.12712996072E+03  0.24076375165E+04  0.24042787659E+04 0.  0.
        2    1    3    3  502    0 -0.67968654741E+02  0.27188542192E+03 -0.12342137688E+04  0.12656322719E+04  0.25500000920E-02 0.  1.
       -2    1    3    3    0  502  0.67968654741E+02 -0.27188542192E+03  0.11070838081E+04  0.11420052446E+04  0.25500000920E-02 0. -1.
</event>
<event>
 5   0  0.5371843E-06  0.2400763E+04  0.7818609E-02  0.8439218E-01
       -2   -1    0    0    0  501  0.00000000000E+00  0.00000000000E+00  0.10087626349E+04  0.10087626349E+04  0.25500000920E-02 0. -1.
        2   -1    0    0  501    0  0.00000000000E+00  0.00000000000E+00 -0.14283989987E+04  0.14283989987E+04  0.25500000920E-02 0.  1.
    10030    2    1    2    0    0  0.00000000000E+00  0.00000000000E+00 -0.41963636384E+03  0.24371616336E+04  0.24007628268E+04 0.  0.
        4    1    3    3  502    0 -0.68484636081E+02 -0.83045282776E+02 -0.14234890097E+04  0.14275535850E+04  0.12699999809E+01 0.  1.
       -4    1    3    3    0  502  0.68484636081E+02  0.83045282776E+02  0.10038526458E+04  0.10096080486E+04  0.12699999809E+01 0. -1.
</event>
<event>
 5   0  0.5440503E-06  0.2386868E+04  0.7818609E-02  0.8444436E-01
        2   -1    0    0  501    0  0.00000000000E+00  0.00000000000E+00  0.97826661421E+03  0.97826661421E+03  0.25500000920E-02 0.  1.
       -2   -1    0    0    0  501  0.00000000000E+00  0.00000000000E+00 -0.14559267138E+04  0.14559267138E+04  0.25500000920E-02 0. -1.
    10030    2    1    2    0    0  0.00000000000E+00  0.00000000000E+00 -0.47766009955E+03  0.24341933280E+04  0.23868678194E+04 0.  0.
        3    1    3    3  502    0  0.11157224495E+04  0.28427827278E+03  0.81457093742E+02  0.11542469359E+04  0.10100000352E+00 0.  1.
       -3    1    3    3    0  502 -0.11157224495E+04 -0.28427827278E+03 -0.55911719329E+03  0.12799463921E+04  0.10100000352E+00 0. -1.
</event>
<event>
 5   0  0.2254269E-06  0.2407777E+04  0.7818609E-02  0.8436598E-01
        1   -1    0    0  501    0  0.00000000000E+00  0.00000000000E+00  0.20336341094E+04  0.20336341094E+04  0.50400001928E-02 0. -1.
       -1   -1    0    0    0  501  0.00000000000E+00  0.00000000000E+00 -0.71268830577E+03  0.71268830578E+03  0.50400001928E-02 0.  1.
    10030    2    1    2    0    0  0.00000000000E+00  0.00000000000E+00  0.13209458036E+04  0.27463224152E+04  0.24077767737E+04 0.  0.
        2    1    3    3  502    0  0.88368846651E+03 -0.32218066670E+03  0.15175536130E+04  0.17854060200E+04  0.25500000920E-02 0. -1.
       -2    1    3    3    0  502 -0.88368846651E+03  0.32218066670E+03 -0.19660780938E+03  0.96091639520E+03  0.25500000920E-02 0.  1.
</event>
<event>
 5   0  0.2149029E-06  0.2402603E+04  0.7818609E-02  0.8438530E-01
       -1   -1    0    0    0  501  0.00000000000E+00  0.00000000000E+00  0.29112512573E+04  0.29112512573E+04  0.50400001928E-02 0.  1.
        1   -1    0    0  501    0  0.00000000000E+00  0.00000000000E+00 -0.49570608250E+03  0.49570608253E+03  0.50400001928E-02 0. -1.
    10030    2    1    2    0    0  0.00000000000E+00  0.00000000000E+00  0.24155451748E+04  0.34069573398E+04  0.24026027187E+04 0.  0.
        4    1    3    3  502    0 -0.33128901507E+03  0.11405043258E+04  0.95165928785E+03  0.15218934068E+04  0.12699999809E+01 0. -1.
       -4    1    3    3    0  502  0.33128901507E+03 -0.11405043258E+04  0.14638858869E+04  0.18850639330E+04  0.12699999809E+01 0.  1.
</event>
<event>
 5   0  0.2215700E-06  0.2392496E+04  0.7818609E-02  0.8442318E-01
       -1   -1    0    0    0  501  0.00000000000E+00  0.00000000000E+00  0.86343989660E+03  0.86343989661E+03  0.50400001928E-02 0. -1.
        1   -1    0    0  501    0  0.00000000000E+00  0.00000000000E+00 -0.16573352253E+04  0.16573352253E+04  0.50400001928E-02 0.  1.
    10030    2    1    2    0    0  0.00000000000E+00  0.00000000000E+00 -0.79389532871E+03  0.25207751219E+04  0.23924960653E+04 0.  0.
        3    1    3    3  502    0  0.65715742734E+03  0.93494177313E+03 -0.76951325185E+03  0.13777237235E+04  0.10100000352E+00 0.  1.
       -3    1    3    3    0  502 -0.65715742734E+03 -0.93494177313E+03 -0.24382076857E+02  0.11430513984E+04  0.10100000352E+00 0. -1.
</event>
<event>
 5   0  0.2215700E-06  0.2399400E+04  0.7818609E-02  0.8439728E-01
       -1   -1    0    0    0  501  0.00000000000E+00  0.00000000000E+00  0.14683034093E+04  0.14683034093E+04  0.50400001928E-02 0.  1.
        1   -1    0    0  501    0  0.00000000000E+00  0.00000000000E+00 -0.98023333878E+03  0.98023333880E+03  0.50400001928E-02 0. -1.
    10030    2    1    2    0    0  0.00000000000E+00  0.00000000000E+00  0.48807007054E+03  0.24485367481E+04  0.23993998861E+04 0.  0.
        3    1    3    3  502    0 -0.72783667166E+03 -0.58832549572E+03 -0.52194076249E+03  0.10715854046E+04  0.10100000352E+00 0. -1.
       -3    1    3    3    0  502  0.72783667166E+03  0.58832549572E+03  0.10100108330E+04  0.13769513436E+04  0.10100000352E+00 0.  1.
</event>
<event>
 5   0  0.5440503E-06  0.2396764E+04  0.7818609E-02  0.8440716E-01
       -2   -1    0    0    0  501  0.00000000000E+00  0.00000000000E+00  0.76144265958E+03  0.76144265959E+03  0.25500000920E-02 0. -1.
        2   -1    0    0  501    0  0.00000000000E+00  0.00000000000E+00 -0.18860514080E+04  0.18860514080E+04  0.25500000920E-02 0.  1.
    10030    2    1    2    0    0  0.00000000000E+00  0.00000000000E+00 -0.11246087484E+04  0.26474940676E+04  0.23967644859E+04 0.  0.
        3    1    3    3  502    0 -0.39591559702E+03  0.46824710653E+03  0.57502491176E+03  0.84062962836E+03  0.10100000352E+00 0. -1.
       -3    1    3    3    0  502  0.39591559702E+03 -0.46824710653E+03 -0.16996336602E+04  0.18068644392E+04  0.10100000352E+00 0.  1.
</event>
<event>
 5   0  0.5379778E-06  0.2401245E+04  0.7818609E-02  0.8439038E-01
        2   -1    0    0  501    0  0.00000000000E+00  0.00000000000E+00  0.17259797911E+04  0.17259797911E+04  0.25500000920E-02 0. -1.
       -2   -1    0    0    0  501  0.00000000000E+00  0.00000000000E+00 -0.83517438914E+03  0.83517438914E+03  0.25500000920E-02 0.  1.
    10030    2    1    2    0    0  0.00000000000E+00  0.00000000000E+00  0.89080540196E+03  0.25611541802E+04  0.24012447753E+04 0.  0.
        5    1    3    3  502    0  0.11317699808E+04 -0.25903114540E+03  0.11931145661E+03  0.11671579745E+04  0.46999998093E+01 0. -1.
       -5    1    3    3    0  502 -0.11317699808E+04  0.25903114540E+03  0.77149394535E+03  0.13939962057E+04  0.46999998093E+01 0.  1.
</event>
<event>
 5   0  0.5268358E-06  0.2393613E+04  0.7818609E-02  0.8441899E-01
       -2   -1    0    0    0  501  0.00000000000E+00  0.00000000000E+00  0.13918120821E+04  0.13918120821E+04  0.25500000920E-02 0. -1.
        2   -1    0    0  501    0  0.00000000000E+00  0.00000000000E+00 -0.10291227507E+04  0.10291227507E+04  0.25500000920E-02 0.  1.
    10030    2    1    2    0    0  0.00000000000E+00  0.00000000000E+00  0.36268933145E+03  0.24209348328E+04  0.23936127326E+04 0.  0.
        2    1    3    3  502    0 -0.28726285052E+03  0.85964901001E+03 -0.60913204053E+03  0.10920431349E+04  0.25500000920E-02 0.  1.
       -2    1    3    3    0  502  0.28726285052E+03 -0.85964901001E+03  0.97182137198E+03  0.13288916979E+04  0.25500000920E-02 0. -1.
</event>
<event>
 5   0  0.2215700E-06  0.2398053E+04  0.7818609E-02  0.8440233E-01
        1   -1    0    0  501    0  0.00000000000E+00  0.00000000000E+00  0.16447888343E+04  0.16447888343E+04  0.50400001928E-02 0. -1.
       -1   -1    0    0    0  501  0.00000000000E+00  0.00000000000E+00 -0.87407211282E+03  0.87407211284E+03  0.50400001928E-02 0.  1.
    10030    2    1    2    0    0  0.00000000000E+00  0.00000000000E+00  0.77071672150E+03  0.25188609472E+04  0.23980525862E+04 0.  0.
        3    1    3    3  502    0  0.56521380320E+03 -0.24753963941E+03  0.14652168879E+04  0.15898437203E+04  0.10100000352E+00 0. -1.
       -3    1    3    3    0  502 -0.56521380320E+03  0.24753963941E+03 -0.69450016638E+03  0.92901722681E+03  0.10100000352E+00 0.  1.
</event>
<event>
 5   0  0.5268358E-06  0.2384533E+04  0.7818609E-02  0.8445317E-01
       -2   -1    0    0    0  501  0.00000000000E+00  0.00000000000E+00  0.68492416550E+03  0.68492416550E+03  0.25500000920E-02 0. -1.
        2   -1    0    0  501    0  0.00000000000E+00  0.00000000000E+00 -0.20754105270E+04  0.20754105270E+04  0.25500000920E-02 0.  1.
    10030    2    1    2    0    0  0.00000000000E+00  0.00000000000E+00 -0.13904863615E+04  0.27603346925E+04  0.23845325104E+04 0.  0.
        2    1    3    3  502    0 -0.42827704060E+03 -0.47527413516E+03  0.46939216570E+03  0.79349589305E+03  0.25500000920E-02 0. -1.
       -2    1    3    3    0  502  0.42827704060E+03  0.47527413516E+03 -0.18598785272E+04  0.19668387994E+04  0.25500000920E-02 0.  1.
</event>
<event>
 5   0  0.2297414E-06  0.2401369E+04  0.7818609E-02  0.8438991E-01
       -1   -1    0    0    0  501  0.00000000000E+00  0.00000000000E+00  0.11289866358E+04  0.11289866358E+04  0.50400001928E-02 0. -1.
        1   -1    0    0  501    0  0.00000000000E+00  0.00000000000E+00 -0.12769353406E+04  0.12769353406E+04  0.50400001928E-02 0.  1.
    10030    2    1    2    0    0  0.00000000000E+00  0.00000000000E+00 -0.14794870479E+03  0.24059219764E+04  0.24013687216E+04 0.  0.
        1    1    3    3  502    0  0.34206660821E+03 -0.11311788230E+04  0.13872005104E+03  0.11898816524E+04  0.50400001928E-02 0. -1.
       -1    1    3    3    0  502 -0.34206660821E+03  0.11311788230E+04 -0.28666875583E+03  0.12160403240E+04  0.50400001928E-02 0.  1.
</event>
<event>
 5   0  0.2149417E-06  0.2403756E+04  0.7818609E-02  0.8438099E-01
        1   -1    0    0  501    0  0.00000000000E+00  0.00000000000E+00  0.18325837704E+04  0.18325837704E+04  0.50400001928E-02 0. -1.
       -1   -1    0    0    0  501  0.00000000000E+00  0.00000000000E+00 -0.78823711425E+03  0.78823711427E+03  0.50400001928E-02 0.  1.
    10030    2    1    2    0    0  0.00000000000E+00  0.00000000000E+00  0.10443466562E+04  0.26208208847E+04  0.24037558469E+04 0.  0.
        5    1    3    3  502    0  0.20429743260E+03 -0.14308218236E+03  0.18040456310E+04  0.18212118714E+04  0.46999998093E+01 0. -1.
       -5    1    3    3    0  502 -0.20429743260E+03  0.14308218236E+03 -0.75969897479E+03  0.79960901331E+03  0.46999998093E+01 0.  1.
</event>
<event>
 5   0  0.5371843E-06  0.2399656E+04  0.7818609E-02  0.8439632E-01
       -2   -1    0    0    0  501  0.00000000000E+00  0.00000000000E+00  0.10046038224E+04  0.10046038224E+04  0.25500000920E-02 0. -1.
        2   -1    0    0  501    0  0.00000000000E+00  0.00000000000E+00 -0.14329902486E+04  0.14329902486E+04  0.25500000920E-02 0.  1.
    10030    2    1    2    0    0  0.00000000000E+00  0.00000000000E+00 -0.42838642620E+03  0.24375940710E+04  0.23996562097E+04 0.  0.
        4    1    3    3  502    0 -0.15822439513E+03 -0.87844873348E+02  0.99065909873E+03  0.10070544890E+04  0.12699999809E+01 0. -1.
       -4    1    3    3    0  502  0.15822439513E+03  0.87844873348E+02 -0.14190455249E+04  0.14305395820E+04  0.12699999809E+01 0.  1.
</event>
<event>
 5   0  0.2215700E-06  0.2393825E+04  0.7818609E-02  0.8441819E-01
        1   -1    0    0  501    0  0.00000000000E+00  0.00000000000E+00  0.22401558211E+04  0.22401558211E+04  0.50400001928E-02 0.  1.
       -1   -1    0    0    0  501  0.00000000000E+00  0.00000000000E+00 -0.63950891505E+03  0.63950891507E+03  0.50400001928E-02 0. -1.
    10030    2    1    2    0    0  0.00000000000E+00  0.00000000000E+00  0.16006469060E+04  0.28796647361E+04  0.23938250719E+04 0.  0.
        3    1    3    3  502    0 -0.83823996169E+03 -0.54125361986E+03  0.15955469224E+04  0.18818532638E+04  0.10100000352E+00 0.  1.
       -3    1    3    3    0  502  0.83823996169E+03  0.54125361986E+03  0.50999835808E+01  0.99781147239E+03  0.10100000352E+00 0. -1.
</event>
<event>
 5   0  0.2297414E-06  0.2388085E+04  0.7818609E-02  0.8443978E-01
       -1   -1    0    0    0  501  0.00000000000E+00  0.00000000000E+00  0.10471530257E+04  0.10471530257E+04  0.50400001928E-02 0. -1.
        1   -1    0    0  501    0  0.00000000000E+00  0.00000000000E+00 -0.13615369765E+04  0.13615369765E+04  0.50400001928E-02 0.  1.
    10030    2    1    2    0    0  0.00000000000E+00  0.00000000000E+00 -0.31438395081E+03  0.24086900023E+04  0.23880850610E+04 0.  0.
        1    1    3    3  502    0  0.11479899975E+04 -0.23794174238E+03 -0.38550819765E+03  0.12341449986E+04  0.50400001928E-02 0. -1.
       -1    1    3    3    0  502 -0.11479899975E+04  0.23794174238E+03  0.71124246841E+02  0.11745450037E+04  0.50400001928E-02 0.  1.
</event>
<event>
 5   0  0.2254269E-06  0.2397267E+04  0.7818609E-02  0.8440527E-01
        1   -1    0    0  501    0  0.00000000000E+00  0.00000000000E+00  0.17547347141E+04  0.17547347141E+04  0.50400001928E-02 0.  1.
       -1   -1    0    0    0  501  0.00000000000E+00  0.00000000000E+00 -0.81876915162E+03  0.81876915163E+03  0.50400001928E-02 0. -1.
    10030    2    1    2    0    0  0.00000000000E+00  0.00000000000E+00  0.93596556249E+03  0.25735038657E+04  0.23972673219E+04 0.  0.
        2    1    3    3  502    0  0.68085039828E+03  0.43624080131E+03 -0.48185673031E+03  0.94130186981E+03  0.25500000920E-02 0. -1.
       -2    1    3    3    0  502 -0.68085039828E+03 -0.43624080131E+03  0.14178222928E+04  0.16322019959E+04  0.25500000920E-02 0.  1.
</event>
<event>
 5   0  0.2149029E-06  0.2400780E+04  0.7818609E-02  0.8439212E-01
        1   -1    0    0  501    0  0.00000000000E+00  0.00000000000E+00  0.16759899764E+04  0.16759899764E+04  0.50400001928E-02 0. -1.
       -1   -1    0    0    0  501  0.00000000000E+00  0.00000000000E+00 -0.85975231106E+03  0.85975231107E+03  0.50400001928E-02 0.  1.
    10030    2    1    2    0    0  0.00000000000E+00  0.00000000000E+00  0.81623766532E+03  0.25357422875E+04  0.24007800862E+04 0.  0.
        4    1    3    3  502    0  0.25806247923E+03  0.10101167968E+04  0.10365473301E+04  0.14701578714E+04  0.12699999809E+01 0. -1.
       -4    1    3    3    0  502 -0.25806247923E+03 -0.10101167968E+04 -0.22030966478E+03  0.10655844160E+04  0.12699999809E+01 0.  1.
</event>
<event>
 5   0  0.1796750E-06  0.2389954E+04  0.7818609E-02  0.8443274E-01
        3   -1    0    0  501    0  0.00000000000E+00  0.00000000000E+00  0.11445856782E+04  0.11445856826E+04  0.10100000352E+00 0. -1.
       -3   -1    0    0    0  501  0.00000000000E+00  0.00000000000E+00 -0.12475865102E+04  0.12475865143E+04  0.10100000352E+00 0.  1.
    10030    2    1    2    0    0  0.00000000000E+00  0.00000000000E+00 -0.10300083203E+03  0.23921721969E+04  0.23899536917E+04 0.  0.
        4    1    3    3  502    0  0.47830559792E+03  0.10916720589E+04  0.34857828079E+02  0.11923677328E+04  0.12699999809E+01 0.  1.
       -4    1    3    3    0  502 -0.47830559792E+03 -0.10916720589E+04 -0.13785866011E+03  0.11998044642E+04  0.12699999809E+01 0. -1.
</event>
<event>
 5   0  0.5349036E-06  0.2395836E+04  0.7818609E-02  0.8441064E-01
       -2   -1    0    0    0  501  0.00000000000E+00  0.00000000000E+00  0.30364337312E+04  0.30364337312E+04  0.25500000920E-02 0.  1.
        2   -1    0    0  501    0  0.00000000000E+00  0.00000000000E+00 -0.47259645748E+03  0.47259645748E+03  0.25500000920E-02 0. -1.
    10030    2    1    2    0    0  0.00000000000E+00  0.00000000000E+00  0.25638372737E+04  0.35090301887E+04  0.23958362421E+04 0.  0.
        1    1    3    3  502    0  0.17158366759E+03  0.32974659806E+03  0.29498269638E+04  0.29731553761E+04  0.50400001928E-02 0.  1.
       -1    1    3    3    0  502 -0.17158366759E+03 -0.32974659806E+03 -0.38598969007E+03  0.53587481261E+03  0.50400001928E-02 0. -1.
</event>
<event>
 5   0  0.2254269E-06  0.2396914E+04  0.7818609E-02  0.8440660E-01
       -1   -1    0    0    0  501  0.00000000000E+00  0.00000000000E+00  0.17140170759E+04  0.17140170759E+04  0.50400001928E-02 0.  1.
        1   -1    0    0  501    0  0.00000000000E+00  0.00000000000E+00 -0.83797228935E+03  0.83797228937E+03  0.50400001928E-02 0. -1.
    10030    2    1    2    0    0  0.00000000000E+00  0.00000000000E+00  0.87604478655E+03  0.25519893653E+04  0.23969136932E+04 0.  0.
        2    1    3    3  502    0 -0.15398325747E+03  0.11743215684E+04  0.24298544802E+03  0.12090425623E+04  0.25500000920E-02 0. -1.
       -2    1    3    3    0  502  0.15398325747E+03 -0.11743215684E+04  0.63305933852E+03  0.13429468030E+04  0.25500000920E-02 0.  1.
</event>
<event>
 5   0  0.5440503E-06  0.2404480E+04  0.7818609E-02  0.8437828E-01
       -2   -1    0    0    0  501  0.00000000000E+00  0.00000000000E+00  0.67897319999E+03  0.67897319999E+03  0.25500000920E-02 0. -1.
        2   -1    0    0  501    0  0.00000000000E+00  0.00000000000E+00 -0.21287742028E+04  0.21287742028E+04  0.25500000920E-02 0.  1.
    10030    2    1    2    0    0  0.00000000000E+00  0.00000000000E+00 -0.14498010028E+04  0.28077474028E+04  0.24044796797E+04 0.  0.
        3    1    3    3  502    0  0.15958656342E+03  0.66425296226E+03 -0.18801012104E+04  0.20003700759E+04  0.10100000352E+00 0.  1.
       -3    1    3    3    0  502 -0.15958656342E+03 -0.66425296226E+03  0.43030020759E+03  0.80737732687E+03  0.10100000352E+00 0. -1.
</event>
<event>
 5   0  0.2149029E-06  0.2402732E+04  0.7818609E-02  0.8438481E-01
        1   -1    0    0  501    0  0.00000000000E+00  0.00000000000E+00  0.96500187307E+03  0.96500187308E+03  0.50400001928E-02 0.  1.
       -1   -1    0    0    0  501  0.00000000000E+00  0.00000000000E+00 -0.14956241722E+04  0.14956241722E+04  0.50400001928E-02 0. -1.
    10030    2    1    2    0    0  0.00000000000E+00  0.00000000000E+00 -0.53062229910E+03  0.24606260453E+04  0.24027318848E+04 0.  0.
        4    1    3    3  502    0  0.41764426930E+03 -0.60219221385E+03  0.70958026046E+03  0.10200823286E+04  0.12699999809E+01 0.  1.
       -4    1    3    3    0  502 -0.41764426930E+03  0.60219221385E+03 -0.12402025596E+04  0.14405437167E+04  0.12699999809E+01 0. -1.
</event>
<event>
 5   0  0.5349036E-06  0.2406754E+04  0.7818609E-02  0.8436979E-01
        2   -1    0    0  501    0  0.00000000000E+00  0.00000000000E+00  0.12735578750E+04  0.12735578750E+04  0.25500000920E-02 0.  1.
       -2   -1    0    0    0  501  0.00000000000E+00  0.00000000000E+00 -0.11370634584E+04  0.11370634584E+04  0.25500000920E-02 0. -1.
    10030    2    1    2    0    0  0.00000000000E+00  0.00000000000E+00  0.13649441667E+03  0.24106213334E+04  0.24067539316E+04 0.  0.
        1    1    3    3  502    0 -0.49484060602E+03  0.50454210067E+03 -0.90732313436E+03  0.11500718355E+04  0.50400001928E-02 0. -1.
       -1    1    3    3    0  502  0.49484060602E+03 -0.50454210067E+03  0.10438175510E+04  0.12605494979E+04  0.50400001928E-02 0.  1.
</event>
<event>
 5   0  0.2215700E-06  0.2403707E+04  0.7818609E-02  0.8438117E-01
        1   -1    0    0  501    0  0.00000000000E+00  0.00000000000E+00  0.16233343756E+04  0.16233343757E+04  0.50400001928E-02 0.  1.
       -1   -1    0    0    0  501  0.00000000000E+00  0.00000000000E+00 -0.88980537249E+03  0.88980537251E+03  0.50400001928E-02 0. -1.
    10030    2    1    2    0    0  0.00000000000E+00  0.00000000000E+00  0.73352900315E+03  0.25131397482E+04  0.24037068447E+04 0.  0.
        3    1    3    3  502    0 -0.54045149694E+03 -0.91554530876E+03  0.95276390963E+03  0.14276099294E+04  0.10100000352E+00 0.  1.
       -3    1    3    3    0  502  0.54045149694E+03  0.91554530876E+03 -0.21923490648E+03  0.10855298187E+04  0.10100000352E+00 0. -1.
</event>
<event>
 5   0  0.5371843E-06  0.2407165E+04  0.7818609E-02  0.8436826E-01
       -2   -1    0    0    0  501  0.00000000000E+00  0.00000000000E+00  0.17598954779E+04  0.17598954779E+04  0.25500000920E-02 0.  1.
        2   -1    0    0  501    0  0.00000000000E+00  0.00000000000E+00 -0.82312318205E+03  0.82312318205E+03  0.25500000920E-02 0. -1.
    10030    2    1    2    0    0  0.00000000000E+00  0.00000000000E+00  0.93677229588E+03  0.25830186600E+04  0.24071649431E+04 0.  0.
        4    1    3    3  502    0  0.31052930126E+03  0.10124282385E+04  0.10821598500E+04  0.15141040053E+04  0.12699999809E+01 0.  1.
       -4    1    3    3    0  502 -0.31052930126E+03 -0.10124282385E+04 -0.14538755411E+03  0.10689146547E+04  0.12699999809E+01 0. -1.
</event>
<event>
 5   0  0.5371843E-06  0.2400094E+04  0.7818609E-02  0.8439468E-01
       -2   -1    0    0    0  501  0.00000000000E+00  0.00000000000E+00  0.16495350606E+04  0.16495350606E+04  0.25500000920E-02 0.  1.
        2   -1    0    0  501    0  0.00000000000E+00  0.00000000000E+00 -0.87304193015E+03  0.87304193016E+03  0.25500000920E-02 0. -1.
    10030    2    1    2    0    0  0.00000000000E+00  0.00000000000E+00  0.77649313047E+03  0.25225769908E+04  0.24000943925E+04 0.  0.
        4    1    3    3  502    0 -0.52985867903E+03  0.73046038612E+02  0.15173243208E+04  0.16088382924E+04  0.12699999809E+01 0.  1.
       -4    1    3    3    0  502  0.52985867903E+03 -0.73046038612E+02 -0.74083119035E+03  0.91373869843E+03  0.12699999809E+01 0. -1.
</event>
<event>
 5   0  0.5379778E-06  0.2367593E+04  0.7818609E-02  0.8451737E-01
        2   -1    0    0  501    0  0.00000000000E+00  0.00000000000E+00  0.16096004947E+04  0.16096004947E+04  0.25500000920E-02 0. -1.
       -2   -1    0    0    0  501  0.00000000000E+00  0.00000000000E+00 -0.87063492572E+03  0.87063492572E+03  0.25500000920E-02 0.  1.
    10030    2    1    2    0    0  0.00000000000E+00  0.00000000000E+00  0.73896556894E+03  0.24802354204E+04  0.23675932143E+04 0.  0.
        5    1    3    3  502    0  0.22374974579E+03  0.58698315934E+03 -0.68161784293E+03  0.92695099756E+03  0.46999998093E+01 0.  1.
       -5    1    3    3    0  502 -0.22374974579E+03 -0.58698315934E+03  0.14205834119E+04  0.15532844228E+04  0.46999998093E+01 0. -1.
</event>
<event>
 5   0  0.5268358E-06  0.2394692E+04  0.7818609E-02  0.8441493E-01
        2   -1    0    0  501    0  0.00000000000E+00  0.00000000000E+00  0.11420932264E+04  0.11420932264E+04  0.25500000920E-02 0. -1.
       -2   -1    0    0    0  501  0.00000000000E+00  0.00000000000E+00 -0.12552720241E+04  0.12552720241E+04  0.25500000920E-02 0.  1.
    10030    2    1    2    0    0  0.00000000000E+00  0.00000000000E+00 -0.11317879775E+03  0.23973652505E+04  0.23946921940E+04 0.  0.
        2    1    3    3  502    0 -0.33223955623E+03  0.10995210088E+04 -0.39506161044E+03  0.12146617832E+04  0.25500000920E-02 0.  1.
       -2    1    3    3    0  502  0.33223955623E+03 -0.10995210088E+04  0.28188281269E+03  0.11827034673E+04  0.25500000920E-02 0. -1.
</event>
<event>
 5   0  0.5440503E-06  0.2399041E+04  0.7818609E-02  0.8439863E-01
        2   -1    0    0  501    0  0.00000000000E+00  0.00000000000E+00  0.10698471331E+04  0.10698471331E+04  0.25500000920E-02 0.  1.
       -2   -1    0    0    0  501  0.00000000000E+00  0.00000000000E+00 -0.13449116278E+04  0.13449116278E+04  0.25500000920E-02 0. -1.
    10030    2    1    2    0    0  0.00000000000E+00  0.00000000000E+00 -0.27506449471E+03  0.24147587609E+04  0.23990413496E+04 0.  0.
        3    1    3    3  502    0 -0.19775106580E+03 -0.32095280223E+03 -0.12837348968E+04  0.13379430035E+04  0.10100000352E+00 0. -1.
       -3    1    3    3    0  502  0.19775106580E+03  0.32095280223E+03  0.10086704020E+04  0.10768157574E+04  0.10100000352E+00 0.  1.
</event>
<event>
 5   0  0.5440503E-06  0.2397262E+04  0.7818609E-02  0.8440529E-01
       -2   -1    0    0    0  501  0.00000000000E+00  0.00000000000E+00  0.21030087761E+04  0.21030087761E+04  0.25500000920E-02 0.  1.
        2   -1    0    0  501    0  0.00000000000E+00  0.00000000000E+00 -0.68317172521E+03  0.68317172522E+03  0.25500000920E-02 0. -1.
    10030    2    1    2    0    0  0.00000000000E+00  0.00000000000E+00  0.14198370509E+04  0.27861805013E+04  0.23972618828E+04 0.  0.
        3    1    3    3  502    0 -0.11111082124E+03  0.67620999557E+03  0.18528806241E+04  0.19755435176E+04  0.10100000352E+00 0.  1.
       -3    1    3    3    0  502  0.11111082124E+03 -0.67620999557E+03 -0.43304357325E+03  0.81063698364E+03  0.10100000352E+00 0. -1.
</event>
<event>
 5   0  0.5268358E-06  0.2401178E+04  0.7818609E-02  0.8439063E-01
       -2   -1    0    0    0  501  0.00000000000E+00  0.00000000000E+00  0.75922728535E+03  0.75922728536E+03  0.25500000920E-02 0.  1.
        2   -1    0    0  501    0  0.00000000000E+00  0.00000000000E+00 -0.18985277966E+04  0.18985277966E+04  0.25500000920E-02 0. -1.
    10030    2    1    2    0    0  0.00000000000E+00  0.00000000000E+00 -0.11393005112E+04  0.26577550819E+04  0.24011781318E+04 0.  0.
        2    1    3    3  502    0  0.11977097781E+04 -0.41238462924E+02 -0.48979714475E+03  0.12946468887E+04  0.25500000920E-02 0.  1.
       -2    1    3    3    0  502 -0.11977097781E+04  0.41238462924E+02 -0.64950336647E+03  0.13631081932E+04  0.25500000920E-02 0. -1.
</event>
<event>
 5   0  0.2254269E-06  0.2401689E+04  0.7818609E-02  0.8438871E-01
       -1   -1    0    0    0  501  0.00000000000E+00  0.00000000000E+00  0.10132059398E+04  0.10132059398E+04  0.50400001928E-02 0. -1.
        1   -1    0    0  501    0  0.00000000000E+00  0.00000000000E+00 -0.14232325188E+04  0.14232325189E+04  0.50400001928E-02 0.  1.
    10030    2    1    2    0    0  0.00000000000E+00  0.00000000000E+00 -0.41002657902E+03  0.24364384587E+04  0.24016891072E+04 0.  0.
        2    1    3    3  502    0 -0.42439400252E+02  0.11860400594E+04 -0.19236626034E+02  0.11869550004E+04  0.25500000920E-02 0. -1.
       -2    1    3    3    0  502  0.42439400252E+02 -0.11860400594E+04 -0.39078995299E+03  0.12494834583E+04  0.25500000920E-02 0.  1.
</event>
<event>
 5   0  0.5440503E-06  0.2403761E+04  0.7818609E-02  0.8438097E-01
        2   -1    0    0  501    0  0.00000000000E+00  0.00000000000E+00  0.21739068563E+04  0.21739068563E+04  0.25500000920E-02 0.  1.
       -2   -1    0    0    0  501  0.00000000000E+00  0.00000000000E+00 -0.66447978503E+03  0.66447978504E+03  0.25500000920E-02 0. -1.
    10030    2    1    2    0    0  0.00000000000E+00  0.00000000000E+00  0.15094270712E+04  0.28383866413E+04  0.24037613530E+04 0.  0.
        3    1    3    3  502    0  0.28984948503E+03 -0.32900150547E+03  0.20760940017E+04  0.21218909087E+04  0.10100000352E+00 0.  1.
       -3    1    3    3    0  502 -0.28984948503E+03  0.32900150547E+03 -0.56666693043E+03  0.71649573259E+03  0.10100000352E+00 0. -1.
</event>
<event>
 5   0  0.2297414E-06  0.2401861E+04  0.7818609E-02  0.8438807E-01
        1   -1    0    0  501    0  0.00000000000E+00  0.00000000000E+00  0.13541393998E+04  0.13541393998E+04  0.50400001928E-02 0. -1.
       -1   -1    0    0    0  501  0.00000000000E+00  0.00000000000E+00 -0.10650558701E+04  0.10650558701E+04  0.50400001928E-02 0.  1.
    10030    2    1    2    0    0  0.00000000000E+00  0.00000000000E+00  0.28908352967E+03  0.24191952699E+04  0.24018610424E+04 0.  0.
        1    1    3    3  502    0 -0.92269333698E+03 -0.44974606545E+03  0.77241825338E+03  0.12846262008E+04  0.50400001928E-02 0.  1.
       -1    1    3    3    0  502  0.92269333698E+03  0.44974606545E+03 -0.48333472371E+03  0.11345690692E+04  0.50400001928E-02 0. -1.
</event>
<event>
 5   0  0.5349036E-06  0.2397257E+04  0.7818609E-02  0.8440531E-01
       -2   -1    0    0    0  501  0.00000000000E+00  0.00000000000E+00  0.55213461343E+03  0.55213461344E+03  0.25500000920E-02 0.  1.
        2   -1    0    0  501    0  0.00000000000E+00  0.00000000000E+00 -0.26021018416E+04  0.26021018416E+04  0.25500000920E-02 0. -1.
    10030    2    1    2    0    0  0.00000000000E+00  0.00000000000E+00 -0.20499672281E+04  0.31542364550E+04  0.23972571780E+04 0.  0.
        1    1    3    3  502    0  0.35611333155E+03  0.51519448912E+03 -0.23696894120E+04  0.24510548700E+04  0.50400001928E-02 0. -1.
       -1    1    3    3    0  502 -0.35611333155E+03 -0.51519448912E+03  0.31972218388E+03  0.70318158496E+03  0.50400001928E-02 0.  1.
</event>
<event>
 5   0  0.5268358E-06  0.2396662E+04  0.7818609E-02  0.8440754E-01
       -2   -1    0    0    0  501  0.00000000000E+00  0.00000000000E+00  0.92993000005E+03  0.92993000005E+03  0.25500000920E-02 0.  1.
        2   -1    0    0  501    0  0.00000000000E+00  0.00000000000E+00 -0.15441986583E+04  0.15441986583E+04  0.25500000920E-02 0. -1.
    10030    2    1    2    0    0  0.00000000000E+00  0.00000000000E+00 -0.61426865821E+03  0.24741286583E+04  0.23966615601E+04 0.  0.
        2    1    3    3  502    0  0.18061562631E+03 -0.10288052200E+04 -0.91342916593E+03  0.13875932496E+04  0.25500000920E-02 0. -1.
       -2    1    3    3    0  502 -0.18061562631E+03  0.10288052200E+04  0.29916050771E+03  0.10865354087E+04  0.25500000920E-02 0.  1.
</event>
<event>
 5   0  0.2149029E-06  0.2390914E+04  0.7818609E-02  0.8442913E-01
        1   -1    0    0  501    0  0.00000000000E+00  0.00000000000E+00  0.15960172903E+04  0.15960172903E+04  0.50400001928E-02 0.  1.
       -1   -1    0    0    0  501  0.00000000000E+00  0.00000000000E+00 -0.89542728228E+03  0.89542728229E+03  0.50400001928E-02 0. -1.
    10030    2    1    2    0    0  0.00000000000E+00  0.00000000000E+00  0.70059000806E+03  0.24914445726E+04  0.23909139882E+04 0.  0.
        4    1    3    3  502    0 -0.93228003365E+03 -0.61445383639E+03  0.79535547100E+03  0.13708725383E+04  0.12699999809E+01 0.  1.
       -4    1    3    3    0  502  0.93228003365E+03  0.61445383639E+03 -0.94765462940E+02  0.11205720343E+04  0.12699999809E+01 0. -1.
</event>
<event>
 5   0  0.5379778E-06  0.2399106E+04  0.7818609E-02  0.8439838E-01
       -2   -1    0    0    0  501  0.00000000000E+00  0.00000000000E+00  0.11811594868E+04  0.11811594868E+04  0.25500000920E-02 0.  1.
        2   -1    0    0  501    0  0.00000000000E+00  0.00000000000E+00 -0.12182334350E+04  0.12182334350E+04  0.25500000920E-02 0. -1.
    10030    2    1    2    0    0  0.00000000000E+00  0.00000000000E+00 -0.37073948139E+02  0.23993929218E+04  0.23991064827E+04 0.  0.
        5    1    3    3  502    0 -0.83928058821E+02 -0.44854754392E+03  0.10909498248E+04  0.11825533512E+04  0.46999998093E+01 0.  1.
       -5    1    3    3    0  502  0.83928058821E+02  0.44854754392E+03 -0.11280237729E+04  0.12168395706E+04  0.46999998093E+01 0. -1.
</event>
<event>
 5   0  0.2215700E-06  0.2392764E+04  0.7818609E-02  0.8442218E-01
        1   -1    0    0  501    0  0.00000000000E+00  0.00000000000E+00  0.13504039758E+04  0.13504039758E+04  0.50400001928E-02 0.  1.
       -1   -1    0    0    0  501  0.00000000000E+00  0.00000000000E+00 -0.10599270606E+04  0.10599270606E+04  0.50400001928E-02 0. -1.
    10030    2    1    2    0    0  0.00000000000E+00  0.00000000000E+00  0.29047691525E+03  0.24103310364E+04  0.23927638552E+04 0.  0.
        3    1    3    3  502    0 -0.11026568608E+04  0.39489876102E+03 -0.10054576143E+03  0.11755452541E+04  0.10100000352E+00 0. -1.
       -3    1    3    3    0  502  0.11026568608E+04 -0.39489876102E+03  0.39102267668E+03  0.12347857823E+04  0.10100000352E+00 0.  1.
</event>
<event>
 5   0  0.2215700E-06  0.2393685E+04  0.7818609E-02  0.8441871E-01
       -1   -1    0    0    0  501  0.00000000000E+00  0.00000000000E+00  0.90005203247E+03  0.90005203248E+03  0.50400001928E-02 0.  1.
        1   -1    0    0  501    0  0.00000000000E+00  0.00000000000E+00 -0.15914996644E+04  0.15914996644E+04  0.50400001928E-02 0. -1.
    10030    2    1    2    0    0  0.00000000000E+00  0.00000000000E+00 -0.69144763188E+03  0.24915516968E+04  0.23936854493E+04 0.  0.
        3    1    3    3  502    0  0.10115490907E+04  0.43023387411E+03 -0.83847026941E+03  0.13825213026E+04  0.10100000352E+00 0. -1.
       -3    1    3    3    0  502 -0.10115490907E+04 -0.43023387411E+03  0.14702263752E+03  0.11090303943E+04  0.10100000352E+00 0.  1.
</event>
<event>
 5   0  0.2149029E-06  0.2401693E+04  0.7818609E-02  0.8438870E-01
        1   -1    0    0  501    0  0.00000000000E+00  0.00000000000E+00  0.30365233381E+04  0.30365233381E+04  0.50400001928E-02 0. -1.
       -1   -1    0    0    0  501  0.00000000000E+00  0.00000000000E+00 -0.47489589243E+03  0.47489589246E+03  0.50400001928E-02 0.  1.
    10030    2    1    2    0    0  0.00000000000E+00  0.00000000000E+00  0.25616274456E+04  0.35114192305E+04  0.24016931199E+04 0.  0.
        4    1    3    3  502    0  0.59124004471E+03  0.82552050879E+03  0.34351820158E+03  0.10719399557E+04  0.12699999809E+01 0.  1.
       -4    1    3    3    0  502 -0.59124004471E+03 -0.82552050879E+03  0.22181092440E+04  0.24394792748E+04  0.12699999809E+01 0. -1.
</event>
<event>
 5   0  0.5371843E-06  0.2406994E+04  0.7818609E-02  0.8436890E-01
       -2   -1    0    0    0  501  0.00000000000E+00  0.00000000000E+00  0.15207728839E+04  0.15207728839E+04  0.25500000920E-02 0.  1.
        2   -1    0    0  501    0  0.00000000000E+00  0.00000000000E+00 -0.95241410843E+03  0.95241410843E+03  0.25500000920E-02 0. -1.
    10030    2    1    2    0    0  0.00000000000E+00  0.00000000000E+00  0.56835877551E+03  0.24731869924E+04  0.24069944332E+04 0.  0.
        4    1    3    3  502    0 -0.55049220932E+03  0.86632094468E+03  0.92983078640E+03  0.13849695145E+04  0.12699999809E+01 0.  1.
       -4    1    3    3    0  502  0.55049220932E+03 -0.86632094468E+03 -0.36147201089E+03  0.10882174779E+04  0.12699999809E+01 0. -1.
</event>
<event>
 5   0  0.5268358E-06  0.2398785E+04  0.7818609E-02  0.8439959E-01
       -2   -1    0    0    0  501  0.00000000000E+00  0.00000000000E+00  0.74709963359E+03  0.74709963359E+03  0.25500000920E-02 0. -1.
        2   -1    0    0  501    0  0.00000000000E+00  0.00000000000E+00 -0.19255026573E+04  0.19255026573E+04  0.25500000920E-02 0.  1.
    10030    2    1    2    0    0  0.00000000000E+00  0.00000000000E+00 -0.11784030238E+04  0.26726022909E+04  0.23987849673E+04 0.  0.
        2    1    3    3  502    0 -0.41003799941E+03  0.44922946106E+03 -0.17409334966E+04  0.18441224767E+04  0.25500000920E-02 0.  1.
       -2    1    3    3    0  502  0.41003799941E+03 -0.44922946106E+03  0.56253047284E+03  0.82847981420E+03  0.25500000920E-02 0. -1.
</event>
<event>
 5   0  0.5371843E-06  0.2402541E+04  0.7818609E-02  0.8438553E-01
        2   -1    0    0  501    0  0.00000000000E+00  0.00000000000E+00  0.12843763558E+04  0.12843763558E+04  0.25500000920E-02 0.  1.
       -2   -1    0    0    0  501  0.00000000000E+00  0.00000000000E+00 -0.11235420020E+04  0.11235420020E+04  0.25500000920E-02 0. -1.
    10030    2    1    2    0    0  0.00000000000E+00  0.00000000000E+00  0.16083435382E+03  0.24079183578E+04  0.24025409734E+04 0.  0.
        4    1    3    3  502    0  0.16468565254E+03  0.64309233115E+03  0.10838373576E+04  0.12709815661E+04  0.12699999809E+01 0.  1.
       -4    1    3    3    0  502 -0.16468565254E+03 -0.64309233115E+03 -0.92300300382E+03  0.11369367918E+04  0.12699999809E+01 0. -1.
</event>
<event>
 5   0  0.5349036E-06  0.2401426E+04  0.7818609E-02  0.8438970E-01
       -2   -1    0    0    0  501  0.00000000000E+00  0.00000000000E+00  0.11811692007E+04  0.11811692007E+04  0.25500000920E-02 0.  1.
        2   -1    0    0  501    0  0.00000000000E+00  0.00000000000E+00 -0.12205803893E+04  0.12205803893E+04  0.25500000920E-02 0. -1.
    10030    2    1    2    0    0  0.00000000000E+00  0.00000000000E+00 -0.39411188655E+02  0.24017495900E+04  0.24014262119E+04 0.  0.
        1    1    3    3  502    0  0.11637178490E+04  0.23167518698E+03 -0.20357631535E+03  0.12038919970E+04  0.50400001928E-02 0. -1.
       -1    1    3    3    0  502 -0.11637178490E+04 -0.23167518698E+03  0.16416512669E+03  0.11978575930E+04  0.50400001928E-02 0.  1.
</event>
<event>
 5   0  0.5440503E-06  0.2400509E+04  0.7818609E-02  0.8439313E-01
        2   -1    0    0  501    0  0.00000000000E+00  0.00000000000E+00  0.10643464161E+04  0.10643464161E+04  0.25500000920E-02 0. -1.
       -2   -1    0    0    0  501  0.00000000000E+00  0.00000000000E+00 -0.13535174243E+04  0.13535174243E+04  0.25500000920E-02 0.  1.
    10030    2    1    2    0    0  0.00000000000E+00  0.00000000000E+00 -0.28917100823E+03  0.24178638404E+04  0.24005094623E+04 0.  0.
        3    1    3    3  502    0 -0.16370669399E+03  0.52153284782E+03  0.93169703164E+03  0.10802109803E+04  0.10100000352E+00 0. -1.
       -3    1    3    3    0  502  0.16370669399E+03 -0.52153284782E+03 -0.12208680399E+04  0.13376528601E+04  0.10100000352E+00 0.  1.
</event>
<event>
 5   0  0.2297414E-06  0.2391661E+04  0.7818609E-02  0.8442632E-01
        1   -1    0    0  501    0  0.00000000000E+00  0.00000000000E+00  0.18148664222E+04  0.18148664223E+04  0.50400001928E-02 0.  1.
       -1   -1    0    0    0  501  0.00000000000E+00  0.00000000000E+00 -0.78794273888E+03  0.78794273889E+03  0.50400001928E-02 0. -1.
    10030    2    1    2    0    0  0.00000000000E+00  0.00000000000E+00  0.10269236834E+04  0.26028091611E+04  0.23916611963E+04 0.  0.
        1    1    3    3  502    0  0.10891695098E+04 -0.55940887413E+02 -0.20343053886E+02  0.10907948679E+04  0.50400001928E-02 0. -1.
       -1    1    3    3    0  502 -0.10891695098E+04  0.55940887413E+02  0.10472667373E+04  0.15120142932E+04  0.50400001928E-02 0.  1.
</event>
<event>
 5   0  0.5268358E-06  0.2394560E+04  0.7818609E-02  0.8441543E-01
       -2   -1    0    0    0  501  0.00000000000E+00  0.00000000000E+00  0.84924229601E+03  0.84924229602E+03  0.25500000920E-02 0. -1.
        2   -1    0    0  501    0  0.00000000000E+00  0.00000000000E+00 -0.16879505638E+04  0.16879505638E+04  0.25500000920E-02 0.  1.
    10030    2    1    2    0    0  0.00000000000E+00  0.00000000000E+00 -0.83870826780E+03  0.25371928598E+04  0.23945596776E+04 0.  0.
        2    1    3    3  502    0 -0.83032127037E+03  0.34441806451E+03 -0.12572968344E+04  0.15455913253E+04  0.25500000920E-02 0.  1.
       -2    1    3    3    0  502  0.83032127037E+03 -0.34441806451E+03  0.41858856656E+03  0.99160153451E+03  0.25500000920E-02 0. -1.
</event>
<event>
 5   0  0.2149029E-06  0.2399976E+04  0.7818609E-02  0.8439512E-01
        1   -1    0    0  501    0  0.00000000000E+00  0.00000000000E+00  0.16757611750E+04  0.16757611750E+04  0.50400001928E-02 0.  1.
       -1   -1    0    0    0  501  0.00000000000E+00  0.00000000000E+00 -0.85929412071E+03  0.85929412073E+03  0.50400001928E-02 0. -1.
    10030    2    1    2    0    0  0.00000000000E+00  0.00000000000E+00  0.81646705431E+03  0.25350552958E+04  0.23999764378E+04 0.  0.
        4    1    3    3  502    0 -0.18817939637E+03  0.15383329531E+03 -0.83302035962E+03  0.86775612957E+03  0.12699999809E+01 0. -1.
       -4    1    3    3    0  502  0.18817939637E+03 -0.15383329531E+03  0.16494874139E+04  0.16672991662E+04  0.12699999809E+01 0.  1.
</event>
<event>
 5   0  0.5371843E-06  0.2407579E+04  0.7818609E-02  0.8436672E-01
       -2   -1    0    0    0  501  0.00000000000E+00  0.00000000000E+00  0.15071123895E+04  0.15071123895E+04  0.25500000920E-02 0. -1.
        2   -1    0    0  501    0  0.00000000000E+00  0.00000000000E+00 -0.96151343729E+03  0.96151343729E+03  0.25500000920E-02 0.  1.
    10030    2    1    2    0    0  0.00000000000E+00  0.00000000000E+00  0.54559895222E+03  0.24686258268E+04  0.24075787123E+04 0.  0.
        4    1    3    3  502    0  0.93213991575E+03  0.51044930543E+03 -0.30692489802E+03  0.11061861606E+04  0.12699999809E+01 0.  1.
       -4    1    3    3    0  502 -0.93213991575E+03 -0.51044930543E+03  0.85252385024E+03  0.13624396662E+04  0.12699999809E+01 0. -1.
</event>
<event>
 5   0  0.5371843E-06  0.2399668E+04  0.7818609E-02  0.8439628E-01
       -2   -1    0    0    0  501  0.00000000000E+00  0.00000000000E+00  0.22207706401E+04  0.22207706401E+04  0.25500000920E-02 0.  1.
        2   -1    0    0  501    0  0.00000000000E+00  0.00000000000E+00 -0.64824439966E+03  0.64824439967E+03  0.25500000920E-02 0. -1.
    10030    2    1    2    0    0  0.00000000000E+00  0.00000000000E+00  0.15725262405E+04  0.28690150398E+04  0.23996684191E+04 0.  0.
        4    1    3    3  502    0 -0.43045640754E+03  0.11186549483E+04  0.72166920653E+03  0.13991031658E+04  0.12699999809E+01 0.  1.
       -4    1    3    3    0  502  0.43045640754E+03 -0.11186549483E+04  0.85085703394E+03  0.14699118740E+04  0.12699999809E+01 0. -1.
</event>
<event>
 5   0  0.2297414E-06  0.2400849E+04  0.7818609E-02  0.8439186E-01
       -1   -1    0    0    0  501  0.00000000000E+00  0.00000000000E+00  0.92703828437E+03  0.92703828439E+03  0.50400001928E-02 0. -1.
        1   -1    0    0  501    0  0.00000000000E+00  0.00000000000E+00 -0.15544330514E+04  0.15544330514E+04  0.50400001928E-02 0.  1.
    10030    2    1    2    0    0  0.00000000000E+00  0.00000000000E+00 -0.62739476703E+03  0.24814713358E+04  0.24008489741E+04 0.  0.
        1    1    3    3  502    0 -0.40046553849E+03  0.11242466447E+04 -0.44732855983E+03  0.12745218735E+04  0.50400001928E-02 0.  1.
       -1    1    3    3    0  502  0.40046553849E+03 -0.11242466447E+04 -0.18006620720E+03  0.12069494623E+04  0.50400001928E-02 0. -1.
</event>
<event>
 5   0  0.2149417E-06  0.2398909E+04  0.7818609E-02  0.8439912E-01
       -1   -1    0    0    0  501  0.00000000000E+00  0.00000000000E+00  0.11000873866E+04  0.11000873867E+04  0.50400001928E-02 0. -1.
        1   -1    0    0  501    0  0.00000000000E+00  0.00000000000E+00 -0.13077968612E+04  0.13077968612E+04  0.50400001928E-02 0.  1.
    10030    2    1    2    0    0  0.00000000000E+00  0.00000000000E+00 -0.20770947453E+03  0.24078842479E+04  0.23989087780E+04 0.  0.
        5    1    3    3  502    0  0.21084416724E+03 -0.35304303468E+03  0.10271147757E+04  0.11063821671E+04  0.46999998093E+01 0. -1.
       -5    1    3    3    0  502 -0.21084416724E+03  0.35304303468E+03 -0.12348242503E+04  0.13015020807E+04  0.46999998093E+01 0.  1.
</event>
<event>
 5   0  0.5440503E-06  0.2393389E+04  0.7818609E-02  0.8441983E-01
        2   -1    0    0  501    0  0.00000000000E+00  0.00000000000E+00  0.20784081818E+04  0.20784081818E+04  0.25500000920E-02 0.  1.
       -2   -1    0    0    0  501  0.00000000000E+00  0.00000000000E+00 -0.68902633089E+03  0.68902633090E+03  0.25500000920E-02 0. -1.
    10030    2    1    2    0    0  0.00000000000E+00  0.00000000000E+00  0.13893818509E+04  0.27674345127E+04  0.23933891983E+04 0.  0.
        3    1    3    3  502    0  0.49757026088E+03  0.54038002664E+03 -0.39766960885E+03  0.83530106292E+03  0.10100000352E+00 0. -1.
       -3    1    3    3    0  502 -0.49757026088E+03 -0.54038002664E+03  0.17870514597E+04  0.19321334497E+04  0.10100000352E+00 0.  1.
</event>
<event>
 5   0  0.2149417E-06  0.2401224E+04  0.7818609E-02  0.8439046E-01
        1   -1    0    0  501    0  0.00000000000E+00  0.00000000000E+00  0.15991441453E+04  0.15991441453E+04  0.50400001928E-02 0.  1.
       -1   -1    0    0    0  501  0.00000000000E+00  0.00000000000E+00 -0.90140020343E+03  0.90140020345E+03  0.50400001928E-02 0. -1.
    10030    2    1    2    0    0  0.00000000000E+00  0.00000000000E+00  0.69774394186E+03  0.25005443488E+04  0.24012237363E+04 0.  0.
        5    1    3    3  502    0 -0.93925654253E+03 -0.73493766850E+03  0.20491311123E+03  0.12101023520E+04  0.46999998093E+01 0. -1.
       -5    1    3    3    0  502  0.93925654253E+03  0.73493766850E+03  0.49283083063E+03  0.12904419967E+04  0.46999998093E+01 0.  1.
</event>
<event>
 5   0  0.2149029E-06  0.2401849E+04  0.7818609E-02  0.8438812E-01
       -1   -1    0    0    0  501  0.00000000000E+00  0.00000000000E+00  0.13383595053E+04  0.13383595053E+04  0.50400001928E-02 0.  1.
        1   -1    0    0  501    0  0.00000000000E+00  0.00000000000E+00 -0.10776028039E+04  0.10776028039E+04  0.50400001928E-02 0. -1.
    10030    2    1    2    0    0  0.00000000000E+00  0.00000000000E+00  0.26075670146E+03  0.24159623092E+04  0.24018492505E+04 0.  0.
        4    1    3    3  502    0 -0.54012637280E+03 -0.47698891222E+03  0.10967332518E+04  0.13122805948E+04  0.12699999809E+01 0. -1.
       -4    1    3    3    0  502  0.54012637280E+03  0.47698891222E+03 -0.83597655036E+03  0.11036817144E+04  0.12699999809E+01 0.  1.
</event>
<event>
 5   0  0.5371843E-06  0.2400019E+04  0.7818609E-02  0.8439496E-01
       -2   -1    0    0    0  501  0.00000000000E+00  0.00000000000E+00  0.12871576356E+04  0.12871576356E+04  0.25500000920E-02 0. -1.
        2   -1    0    0  501    0  0.00000000000E+00  0.00000000000E+00 -0.11187616822E+04  0.11187616822E+04  0.25500000920E-02 0.  1.
    10030    2    1    2    0    0  0.00000000000E+00  0.00000000000E+00  0.16839595331E+03  0.24059193178E+04  0.24000188680E+04 0.  0.
        4    1    3    3  502    0 -0.10648825712E+03 -0.56565231601E+03  0.11397438126E+04  0.12768397953E+04  0.12699999809E+01 0. -1.
       -4    1    3    3    0  502  0.10648825712E+03  0.56565231601E+03 -0.97134785930E+03  0.11290795225E+04  0.12699999809E+01 0.  1.
</event>
<event>
 5   0  0.5349036E-06  0.2410337E+04  0.7818609E-02  0.8435644E-01
        2   -1    0    0  501    0  0.00000000000E+00  0.00000000000E+00  0.17266848154E+04  0.17266848154E+04  0.25500000920E-02 0.  1.
       -2   -1    0    0    0  501  0.00000000000E+00  0.00000000000E+00 -0.84116765083E+03  0.84116765084E+03  0.25500000920E-02 0. -1.
    10030    2    1    2    0    0  0.00000000000E+00  0.00000000000E+00  0.88551716454E+03  0.25678524662E+04  0.24103372460E+04 0.  0.
        1    1    3    3  502    0 -0.18481100545E+03  0.58463071701E+03 -0.66258142637E+03  0.90275264032E+03  0.50400001928E-02 0. -1.
       -1    1    3    3    0  502  0.18481100545E+03 -0.58463071701E+03  0.15480985909E+04  0.16650998259E+04  0.50400001928E-02 0.  1.
</event>
<event>
 5   0  0.2254269E-06  0.2400482E+04  0.7818609E-02  0.8439323E-01
       -1   -1    0    0    0  501  0.00000000000E+00  0.00000000000E+00  0.73821473950E+03  0.73821473952E+03  0.50400001928E-02 0. -1.
        1   -1    0    0  501    0  0.00000000000E+00  0.00000000000E+00 -0.19514353543E+04  0.19514353543E+04  0.50400001928E-02 0.  1.
    10030    2    1    2    0    0  0.00000000000E+00  0.00000000000E+00 -0.12132206148E+04  0.26896500939E+04  0.24004819031E+04 0.  0.
        2    1    3    3  502    0 -0.11478505953E+04  0.34489554483E+03 -0.67804289930E+03  0.13770461501E+04  0.25500000920E-02 0. -1.
       -2    1    3    3    0  502  0.11478505953E+04 -0.34489554483E+03 -0.53517771553E+03  0.13126039438E+04  0.25500000920E-02 0.  1.
</event>
<event>
 5   0  0.5268358E-06  0.2403290E+04  0.7818609E-02  0.8438273E-01
       -2   -1    0    0    0  501  0.00000000000E+00  0.00000000000E+00  0.99730155728E+03  0.99730155728E+03  0.25500000920E-02 0.  1.
        2   -1    0    0  501    0  0.00000000000E+00  0.00000000000E+00 -0.14478581923E+04  0.14478581923E+04  0.25500000920E-02 0. -1.
    10030    2    1    2    0    0  0.00000000000E+00  0.00000000000E+00 -0.45055663504E+03  0.24451597496E+04  0.24032904360E+04 0.  0.
        2    1    3    3  502    0 -0.40725500216E+03 -0.75850492514E+03 -0.10781938086E+04  0.13797420944E+04  0.25500000920E-02 0. -1.
       -2    1    3    3    0  502  0.40725500216E+03  0.75850492514E+03  0.62763717358E+03  0.10654176552E+04  0.25500000920E-02 0.  1.
</event>
<event>
 5   0  0.5349036E-06  0.2392561E+04  0.7818609E-02  0.8442294E-01
       -2   -1    0    0    0  501  0.00000000000E+00  0.00000000000E+00  0.10551619130E+04  0.10551619130E+04  0.25500000920E-02 0. -1.
        2   -1    0    0  501    0  0.00000000000E+00  0.00000000000E+00 -0.13562729294E+04  0.13562729294E+04  0.25500000920E-02 0.  1.
    10030    2    1    2    0    0  0.00000000000E+00  0.00000000000E+00 -0.30111101640E+03  0.24114348425E+04  0.23925614214E+04 0.  0.
        1    1    3    3  502    0 -0.92768742884E+02  0.39500415990E+02 -0.13519826401E+04  0.13557372096E+04  0.50400001928E-02 0.  1.
       -1    1    3    3    0  502  0.92768742884E+02 -0.39500415990E+02  0.10508716237E+04  0.10556976328E+04  0.50400001928E-02 0. -1.
</event>
<event>
 5   0  0.5440503E-06  0.2417098E+04  0.7818609E-02  0.8433130E-01
        2   -1    0    0  501    0  0.00000000000E+00  0.00000000000E+00  0.10140014993E+04  0.10140014993E+04  0.25500000920E-02 0. -1.
       -2   -1    0    0    0  501  0.00000000000E+00  0.00000000000E+00 -0.14404222160E+04  0.14404222160E+04  0.25500000920E-02 0.  1.
    10030    2    1    2    0    0  0.00000000000E+00  0.00000000000E+00 -0.42642071671E+03  0.24544237152E+04  0.24170976700E+04 0.  0.
        3    1    3    3  502    0 -0.26340346006E+03 -0.88312373575E+03 -0.10071418343E+04  0.13651459995E+04  0.10100000352E+00 0. -1.
       -3    1    3    3    0  502  0.26340346006E+03  0.88312373575E+03  0.58072111755E+03  0.10892777157E+04  0.10100000352E+00 0.  1.
</event>
<event>
 5   0  0.5268358E-06  0.2407437E+04  0.7818609E-02  0.8436724E-01
        2   -1    0    0  501    0  0.00000000000E+00  0.00000000000E+00  0.15623289180E+04  0.15623289180E+04  0.25500000920E-02 0.  1.
       -2   -1    0    0    0  501  0.00000000000E+00  0.00000000000E+00 -0.92742231850E+03  0.92742231850E+03  0.25500000920E-02 0. -1.
    10030    2    1    2    0    0  0.00000000000E+00  0.00000000000E+00  0.63490659954E+03  0.24897512365E+04  0.24074373989E+04 0.  0.
        2    1    3    3  502    0  0.38052107602E+03  0.19514548914E+03  0.14811189381E+04  0.15416197197E+04  0.25500000920E-02 0.  1.
       -2    1    3    3    0  502 -0.38052107602E+03 -0.19514548914E+03 -0.84621233860E+03  0.94813151684E+03  0.25500000920E-02 0. -1.
</event>
<event>
 5   0  0.2149417E-06  0.2395792E+04  0.7818609E-02  0.8441081E-01
       -1   -1    0    0    0  501  0.00000000000E+00  0.00000000000E+00  0.69685939383E+03  0.69685939385E+03  0.50400001928E-02 0.  1.
        1   -1    0    0  501    0  0.00000000000E+00  0.00000000000E+00 -0.20591736918E+04  0.20591736918E+04  0.50400001928E-02 0. -1.
    10030    2    1    2    0    0  0.00000000000E+00  0.00000000000E+00 -0.13623142980E+04  0.27560330857E+04  0.23957917528E+04 0.  0.
        5    1    3    3  502    0  0.11283793850E+04 -0.40209551233E+03 -0.67723862722E+03  0.13760796074E+04  0.46999998093E+01 0. -1.
       -5    1    3    3    0  502 -0.11283793850E+04  0.40209551233E+03 -0.68507567076E+03  0.13799534783E+04  0.46999998093E+01 0.  1.
</event>
<event>
 5   0  0.5371843E-06  0.2406181E+04  0.7818609E-02  0.8437193E-01
        2   -1    0    0  501    0  0.00000000000E+00  0.00000000000E+00  0.15265262614E+04  0.15265262614E+04  0.25500000920E-02 0. -1.
       -2   -1    0    0    0  501  0.00000000000E+00  0.00000000000E+00 -0.94818361744E+03  0.94818361744E+03  0.25500000920E-02 0.  1.
    10030    2    1    2    0    0  0.00000000000E+00  0.00000000000E+00  0.57834264398E+03  0.24747098789E+04  0.24061813670E+04 0.  0.
        4    1    3    3  502    0  0.72003444295E+03 -0.20461186612E+03  0.12578609764E+04  0.14637388646E+04  0.12699999809E+01 0. -1.
       -4    1    3    3    0  502 -0.72003444295E+03  0.20461186612E+03 -0.67951833241E+03  0.10109710143E+04  0.12699999809E+01 0.  1.
</event>
<event>
 5   0  0.2215700E-06  0.2403033E+04  0.7818609E-02  0.8438369E-01
       -1   -1    0    0    0  501  0.00000000000E+00  0.00000000000E+00  0.84392639793E+03  0.84392639794E+03  0.50400001928E-02 0. -1.
        1   -1    0    0  501    0  0.00000000000E+00  0.00000000000E+00 -0.17106246854E+04  0.17106246854E+04  0.50400001928E-02 0.  1.
    10030    2    1    2    0    0  0.00000000000E+00  0.00000000000E+00 -0.86669828745E+03  0.25545510833E+04  0.24030325249E+04 0.  0.
        3    1    3    3  502    0 -0.87209627821E+03  0.43712806916E+03 -0.11790097921E+04  0.15302604247E+04  0.10100000352E+00 0. -1.
       -3    1    3    3    0  502  0.87209627821E+03 -0.43712806916E+03  0.31231150461E+03  0.10242906587E+04  0.10100000352E+00 0.  1.
</event>
<event>
 5   0  0.2215700E-06  0.2395768E+04  0.7818609E-02  0.8441090E-01
        1   -1    0    0  501    0  0.00000000000E+00  0.00000000000E+00  0.16619485818E+04  0.16619485818E+04  0.50400001928E-02 0.  1.
       -1   -1    0    0    0  501  0.00000000000E+00  0.00000000000E+00 -0.86339980663E+03  0.86339980665E+03  0.50400001928E-02 0. -1.
    10030    2    1    2    0    0  0.00000000000E+00  0.00000000000E+00  0.79854877519E+03  0.25253483885E+04  0.23957680056E+04 0.  0.
        3    1    3    3  502    0 -0.11184737610E+04 -0.41873658778E+03  0.49703885851E+03  0.12935886213E+04  0.10100000352E+00 0. -1.
       -3    1    3    3    0  502  0.11184737610E+04  0.41873658778E+03  0.30150991669E+03  0.12317597672E+04  0.10100000352E+00 0.  1.
</event>
<event>
 5   0  0.5440503E-06  0.2432264E+04  0.7818609E-02  0.8427522E-01
        2   -1    0    0  501    0  0.00000000000E+00  0.00000000000E+00  0.99295226609E+03  0.99295226609E+03  0.25500000920E-02 0.  1.
       -2   -1    0    0    0  501  0.00000000000E+00  0.00000000000E+00 -0.14894740298E+04  0.14894740299E+04  0.25500000920E-02 0. -1.
    10030    2    1    2    0    0  0.00000000000E+00  0.00000000000E+00 -0.49652176376E+03  0.24824262959E+04  0.24322636479E+04 0.  0.
        3    1    3    3  502    0  0.87134636555E+03 -0.18974675146E+03 -0.10921929450E+04  0.14100119708E+04  0.10100000352E+00 0. -1.
       -3    1    3    3    0  502 -0.87134636555E+03  0.18974675146E+03  0.59567118124E+03  0.10724143252E+04  0.10100000352E+00 0.  1.
</event>
<event>
 5   0  0.2215700E-06  0.2400676E+04  0.7818609E-02  0.8439251E-01
        1   -1    0    0  501    0  0.00000000000E+00  0.00000000000E+00  0.10778061022E+04  0.10778061022E+04  0.50400001928E-02 0.  1.
       -1   -1    0    0    0  501  0.00000000000E+00  0.00000000000E+00 -0.13367997832E+04  0.13367997832E+04  0.50400001928E-02 0. -1.
    10030    2    1    2    0    0  0.00000000000E+00  0.00000000000E+00 -0.25899368102E+03  0.24146058854E+04  0.24006757080E+04 0.  0.
        3    1    3    3  502    0 -0.74711865026E+03  0.18833491512E+01 -0.10744274485E+04  0.13086573947E+04  0.10100000352E+00 0. -1.
       -3    1    3    3    0  502  0.74711865026E+03 -0.18833491512E+01  0.81543376746E+03  0.11059484906E+04  0.10100000352E+00 0.  1.
</event>
<event>
 5   0  0.2149029E-06  0.2397742E+04  0.7818609E-02  0.8440349E-01
        1   -1    0    0  501    0  0.00000000000E+00  0.00000000000E+00  0.79496352050E+03  0.79496352051E+03  0.50400001928E-02 0.  1.
       -1   -1    0    0    0  501  0.00000000000E+00  0.00000000000E+00 -0.18079968153E+04  0.18079968153E+04  0.50400001928E-02 0. -1.
    10030    2    1    2    0    0  0.00000000000E+00  0.00000000000E+00 -0.10130332948E+04  0.26029603358E+04  0.23977418655E+04 0.  0.
        4    1    3    3  502    0  0.18526063243E+03  0.10144903326E+03  0.77460463685E+03  0.80288689403E+03  0.12699999809E+01 0.  1.
       -4    1    3    3    0  502 -0.18526063243E+03 -0.10144903326E+03 -0.17876379316E+04  0.18000734418E+04  0.12699999809E+01 0. -1.
</event>
<event>
 5   0  0.2149417E-06  0.2397496E+04  0.7818609E-02  0.8440442E-01
        1   -1    0    0  501    0  0.00000000000E+00  0.00000000000E+00  0.29476637862E+04  0.29476637862E+04  0.50400001928E-02 0. -1.
       -1   -1    0    0    0  501  0.00000000000E+00  0.00000000000E+00 -0.48750353099E+03  0.48750353102E+03  0.50400001928E-02 0.  1.
    10030    2    1    2    0    0  0.00000000000E+00  0.00000000000E+00  0.24601602552E+04  0.34351673172E+04  0.23974957802E+04 0.  0.
        5    1    3    3  502    0 -0.21137557541E+03  0.42854649030E+03  0.28052921139E+04  0.28457016116E+04  0.46999998093E+01 0. -1.
       -5    1    3    3    0  502  0.21137557541E+03 -0.42854649030E+03 -0.34513185866E+03  0.58946570561E+03  0.46999998093E+01 0.  1.
</event>
<event>
 5   0  0.2149029E-06  0.2399122E+04  0.7818609E-02  0.8439832E-01
       -1   -1    0    0    0  501  0.00000000000E+00  0.00000000000E+00  0.19295713186E+04  0.19295713187E+04  0.50400001928E-02 0.  1.
        1   -1    0    0  501    0  0.00000000000E+00  0.00000000000E+00 -0.74573379805E+03  0.74573379806E+03  0.50400001928E-02 0. -1.
    10030    2    1    2    0    0  0.00000000000E+00  0.00000000000E+00  0.11838375206E+04  0.26753051167E+04  0.23991219628E+04 0.  0.
        4    1    3    3  502    0  0.78457317389E+03 -0.59624225586E+03 -0.17084591922E+03  0.10001249091E+04  0.12699999809E+01 0.  1.
       -4    1    3    3    0  502 -0.78457317389E+03  0.59624225586E+03  0.13546834398E+04  0.16751802076E+04  0.12699999809E+01 0. -1.
</event>
<event>
 5   0  0.5440503E-06  0.2401229E+04  0.7818609E-02  0.8439044E-01
       -2   -1    0    0    0  501  0.00000000000E+00  0.00000000000E+00  0.97534180113E+03  0.97534180113E+03  0.25500000920E-02 0.  1.
        2   -1    0    0  501    0  0.00000000000E+00  0.00000000000E+00 -0.14779177250E+04  0.14779177250E+04  0.25500000920E-02 0. -1.
    10030    2    1    2    0    0  0.00000000000E+00  0.00000000000E+00 -0.50257592390E+03  0.24532595262E+04  0.24012287986E+04 0.  0.
        3    1    3    3  502    0  0.12005245237E+04 -0.10162968944E+02 -0.24045116519E+03  0.12244097317E+04  0.10100000352E+00 0.  1.
       -3    1    3    3    0  502 -0.12005245237E+04  0.10162968944E+02 -0.26212475871E+03  0.12288497945E+04  0.10100000352E+00 0. -1.
</event>
<event>
 5   0  0.2297414E-06  0.2398586E+04  0.7818609E-02  0.8440033E-01
        1   -1    0    0  501    0  0.00000000000E+00  0.00000000000E+00  0.13585765087E+04  0.13585765087E+04  0.50400001928E-02 0. -1.
       -1   -1    0    0    0  501  0.00000000000E+00  0.00000000000E+00 -0.10586847577E+04  0.10586847578E+04  0.50400001928E-02 0.  1.
    10030    2    1    2    0    0  0.00000000000E+00  0.00000000000E+00  0.29989175097E+03  0.24172612665E+04  0.23985864521E+04 0.  0.
        1    1    3    3  502    0  0.58713791645E+02  0.96438709295E+03 -0.56608889698E+03  0.11197974878E+04  0.50400001928E-02 0.  1.
       -1    1    3    3    0  502 -0.58713791645E+02 -0.96438709295E+03  0.86598064795E+03  0.12974637787E+04  0.50400001928E-02 0. -1.
</event>
<event>
 5   0  0.5440503E-06  0.2397459E+04  0.7818609E-02  0.8440455E-01
        2   -1    0    0  501    0  0.00000000000E+00  0.00000000000E+00  0.22337200189E+04  0.22337200189E+04  0.25500000920E-02 0. -1.
       -2   -1    0    0    0  501  0.00000000000E+00  0.00000000000E+00 -0.64330038465E+03  0.64330038466E+03  0.25500000920E-02 0.  1.
    10030    2    1    2    0    0  0.00000000000E+00  0.00000000000E+00  0.15904196343E+04  0.28770204036E+04  0.23974594448E+04 0.  0.
        3    1    3    3  502    0  0.94866607793E+03  0.44035308797E+03  0.14980977079E+04  0.18270673009E+04  0.10100000352E+00 0. -1.
       -3    1    3    3    0  502 -0.94866607793E+03 -0.44035308797E+03  0.92321926387E+02  0.10499531027E+04  0.10100000352E+00 0.  1.
</event>
<event>
 5   0  0.5371843E-06  0.2400737E+04  0.7818609E-02  0.8439228E-01
       -2   -1    0    0    0  501  0.00000000000E+00  0.00000000000E+00  0.10501144290E+04  0.10501144290E+04  0.25500000920E-02 0. -1.
        2   -1    0    0  501    0  0.00000000000E+00  0.00000000000E+00 -0.13721217812E+04  0.13721217812E+04  0.25500000920E-02 0.  1.
    10030    2    1    2    0    0  0.00000000000E+00  0.00000000000E+00 -0.32200735218E+03  0.24222362102E+04  0.24007372874E+04 0.  0.
        4    1    3    3  502    0  0.12636304357E+03 -0.90033064720E+03  0.62980115558E+03  0.11059900549E+04  0.12699999809E+01 0. -1.
       -4    1    3    3    0  502 -0.12636304357E+03  0.90033064720E+03 -0.95180850776E+03  0.13162461553E+04  0.12699999809E+01 0.  1.
</event>
<event>
 5   0  0.2297414E-06  0.2398446E+04  0.7818609E-02  0.8440086E-01
       -1   -1    0    0    0  501  0.00000000000E+00  0.00000000000E+00  0.16400766635E+04  0.16400766635E+04  0.50400001928E-02 0. -1.
        1   -1    0    0  501    0  0.00000000000E+00  0.00000000000E+00 -0.87687080982E+03  0.87687080983E+03  0.50400001928E-02 0.  1.
    10030    2    1    2    0    0  0.00000000000E+00  0.00000000000E+00  0.76320585365E+03  0.25169474733E+04  0.23984456234E+04 0.  0.
        1    1    3    3  502    0 -0.57518201210E+03 -0.89233684040E+03  0.96686392334E+03  0.14359405385E+04  0.50400001928E-02 0.  1.
       -1    1    3    3    0  502  0.57518201210E+03  0.89233684040E+03 -0.20365806969E+03  0.10810069348E+04  0.50400001928E-02 0. -1.
</event>
<event>
 5   0  0.2297414E-06  0.2400053E+04  0.7818609E-02  0.8439484E-01
        1   -1    0    0  501    0  0.00000000000E+00  0.00000000000E+00  0.88146843557E+03  0.88146843558E+03  0.50400001928E-02 0. -1.
       -1   -1    0    0    0  501  0.00000000000E+00  0.00000000000E+00 -0.16337093991E+04  0.16337093991E+04  0.50400001928E-02 0.  1.
    10030    2    1    2    0    0  0.00000000000E+00  0.00000000000E+00 -0.75224096351E+03  0.25151778347E+04  0.24000527229E+04 0.  0.
        1    1    3    3  502    0  0.25873369863E+03 -0.11636892042E+04 -0.23186751310E+03  0.12144456490E+04  0.50400001928E-02 0.  1.
       -1    1    3    3    0  502 -0.25873369863E+03  0.11636892042E+04 -0.52037345041E+03  0.13007321856E+04  0.50400001928E-02 0. -1.
</event>
<event>
 5   0  0.5268358E-06  0.2395254E+04  0.7818609E-02  0.8441283E-01
        2   -1    0    0  501    0  0.00000000000E+00  0.00000000000E+00  0.89318662362E+03  0.89318662362E+03  0.25500000920E-02 0. -1.
       -2   -1    0    0    0  501  0.00000000000E+00  0.00000000000E+00 -0.16058348798E+04  0.16058348798E+04  0.25500000920E-02 0.  1.
    10030    2    1    2    0    0  0.00000000000E+00  0.00000000000E+00 -0.71264825620E+03  0.24990215034E+04  0.23952538357E+04 0.  0.
        2    1    3    3  502    0 -0.48910974295E+03  0.10931832237E+04 -0.36225668916E+03  0.12512025456E+04  0.25500000920E-02 0. -1.
       -2    1    3    3    0  502  0.48910974295E+03 -0.10931832237E+04 -0.35039156703E+03  0.12478189578E+04  0.25500000920E-02 0.  1.
</event>
<event>
 5   0  0.5440503E-06  0.2409723E+04  0.7818609E-02  0.8435872E-01
        2   -1    0    0  501    0  0.00000000000E+00  0.00000000000E+00  0.13976109460E+04  0.13976109460E+04  0.25500000920E-02 0. -1.
       -2   -1    0    0    0  501  0.00000000000E+00  0.00000000000E+00 -0.10386950585E+04  0.10386950585E+04  0.25500000920E-02 0.  1.
    10030    2    1    2    0    0  0.00000000000E+00  0.00000000000E+00  0.35891588753E+03  0.24363060045E+04  0.24097232898E+04 0.  0.
        3    1    3    3  502    0 -0.48675245516E+02 -0.90361197074E+03 -0.62480959052E+03  0.10996685445E+04  0.10100000352E+00 0.  1.
       -3    1    3    3    0  502  0.48675245516E+02  0.90361197074E+03  0.98372547805E+03  0.13366374600E+04  0.10100000352E+00 0. -1.
</event>
<event>
 5   0  0.2149029E-06  0.2400894E+04  0.7818609E-02  0.8439169E-01
       -1   -1    0    0    0  501  0.00000000000E+00  0.00000000000E+00  0.10130153583E+04  0.10130153583E+04  0.50400001928E-02 0.  1.
        1   -1    0    0  501    0  0.00000000000E+00  0.00000000000E+00 -0.14225580661E+04  0.14225580661E+04  0.50400001928E-02 0. -1.
    10030    2    1    2    0    0  0.00000000000E+00  0.00000000000E+00 -0.40954270777E+03  0.24355734244E+04  0.24008941410E+04 0.  0.
        4    1    3    3  502    0 -0.10707060556E+04 -0.23675837676E+03  0.29075699270E+03  0.11344634098E+04  0.12699999809E+01 0.  1.
       -4    1    3    3    0  502  0.10707060556E+04  0.23675837676E+03 -0.70029970047E+03  0.13011100145E+04  0.12699999809E+01 0. -1.
</event>
<event>
 5   0  0.2254269E-06  0.2395354E+04  0.7818609E-02  0.8441245E-01
       -1   -1    0    0    0  501  0.00000000000E+00  0.00000000000E+00  0.16331299054E+04  0.16331299054E+04  0.50400001928E-02 0. -1.
        1   -1    0    0  501    0  0.00000000000E+00  0.00000000000E+00 -0.87833170838E+03  0.87833170839E+03  0.50400001928E-02 0.  1.
    10030    2    1    2    0    0  0.00000000000E+00  0.00000000000E+00  0.75479819699E+03  0.25114616138E+04  0.23953536522E+04 0.  0.
        2    1    3    3  502    0 -0.67878493888E+03  0.28642937428E+03  0.13674361100E+04  0.15532779194E+04  0.25500000920E-02 0. -1.
       -2    1    3    3    0  502  0.67878493888E+03 -0.28642937428E+03 -0.61263791306E+03  0.95818369441E+03  0.25500000920E-02 0.  1.
</event>
<event>
 5   0  0.2297414E-06  0.2402629E+04  0.7818609E-02  0.8438520E-01
       -1   -1    0    0    0  501  0.00000000000E+00  0.00000000000E+00  0.15570366182E+04  0.15570366182E+04  0.50400001928E-02 0. -1.
        1   -1    0    0  501    0  0.00000000000E+00  0.00000000000E+00 -0.92686134583E+03  0.92686134585E+03  0.50400001928E-02 0.  1.
    10030    2    1    2    0    0  0.00000000000E+00  0.00000000000E+00  0.63017527238E+03  0.24838979641E+04  0.24026294392E+04 0.  0.
        1    1    3    3  502    0  0.10041228813E+04 -0.22737403512E+03 -0.32487861003E+03  0.10795868764E+04  0.50400001928E-02 0.  1.
       -1    1    3    3    0  502 -0.10041228813E+04  0.22737403512E+03  0.95505388241E+03  0.14043110876E+04  0.50400001928E-02 0. -1.
</event>
<event>
 5   0  0.5268358E-06  0.2399404E+04  0.7818609E-02  0.8439727E-01
        2   -1    0    0  501    0  0.00000000000E+00  0.00000000000E+00  0.98852888535E+03  0.98852888536E+03  0.25500000920E-02 0.  1.
       -2   -1    0    0    0  501  0.00000000000E+00  0.00000000000E+00 -0.14559861961E+04  0.14559861961E+04  0.25500000920E-02 0. -1.
    10030    2    1    2    0    0  0.00000000000E+00  0.00000000000E+00 -0.46745731076E+03  0.24445150815E+04  0.23994036022E+04 0.  0.
        2    1    3    3  502    0  0.19137545613E+03  0.53699528595E+03 -0.13091773148E+04  0.14279123727E+04  0.25500000920E-02 0. -1.
       -2    1    3    3    0  502 -0.19137545613E+03 -0.53699528595E+03  0.84172000406E+03  0.10166027088E+04  0.25500000920E-02 0.  1.
</event>
<event>
 5   0  0.2149417E-06  0.2402413E+04  0.7818609E-02  0.8438601E-01
        1   -1    0    0  501    0  0.00000000000E+00  0.00000000000E+00  0.13911633910E+04  0.13911633910E+04  0.50400001928E-02 0.  1.
       -1   -1    0    0    0  501  0.00000000000E+00  0.00000000000E+00 -0.10371876826E+04  0.10371876826E+04  0.50400001928E-02 0. -1.
    10030    2    1    2    0    0  0.00000000000E+00  0.00000000000E+00  0.35397570841E+03  0.24283510736E+04  0.24024133979E+04 0.  0.
        5    1    3    3  502    0 -0.26204696640E+03  0.30421502253E+03  0.13213148850E+04  0.13809817189E+04  0.46999998093E+01 0.  1.
       -5    1    3    3    0  502  0.26204696640E+03 -0.30421502253E+03 -0.96733917662E+03  0.10473693547E+04  0.46999998093E+01 0. -1.
</event>
<event>
 5   0  0.2215700E-06  0.2398753E+04  0.7818609E-02  0.8439970E-01
        1   -1    0    0  501    0  0.00000000000E+00  0.00000000000E+00  0.17062633813E+04  0.17062633813E+04  0.50400001928E-02 0.  1.
       -1   -1    0    0    0  501  0.00000000000E+00  0.00000000000E+00 -0.84307292669E+03  0.84307292670E+03  0.50400001928E-02 0. -1.
    10030    2    1    2    0    0  0.00000000000E+00  0.00000000000E+00  0.86319045460E+03  0.25493363080E+04  0.23987533951E+04 0.  0.
        3    1    3    3  502    0 -0.53756162244E+03  0.36785885960E+03  0.15018960553E+04  0.16370657927E+04  0.10100000352E+00 0.  1.
       -3    1    3    3    0  502  0.53756162244E+03 -0.36785885960E+03 -0.63870560070E+03  0.91227051529E+03  0.10100000352E+00 0. -1.
</event>
<event>
 5   0  0.5440503E-06  0.2407392E+04  0.7818609E-02  0.8436741E-01
        2   -1    0    0  501    0  0.00000000000E+00  0.00000000000E+00  0.16263466448E+04  0.16263466448E+04  0.25500000920E-02 0. -1.
       -2   -1    0    0    0  501  0.00000000000E+00  0.00000000000E+00 -0.89088233537E+03  0.89088233537E+03  0.25500000920E-02 0.  1.
    10030    2    1    2    0    0  0.00000000000E+00  0.00000000000E+00  0.73546430942E+03  0.25172289802E+04  0.24073915320E+04 0.  0.
        3    1    3    3  502    0 -0.44633309272E+03  0.67247599696E+03  0.13014737713E+04  0.15314278251E+04  0.10100000352E+00 0.  1.
       -3    1    3    3    0  502  0.44633309272E+03 -0.67247599696E+03 -0.56600946184E+03  0.98580115502E+03  0.10100000352E+00 0. -1.
</event>
<event>
 5   0  0.5440503E-06  0.2392890E+04  0.7818609E-02  0.8442170E-01
        2   -1    0    0  501    0  0.00000000000E+00  0.00000000000E+00  0.11061986349E+04  0.11061986349E+04  0.25500000920E-02 0.  1.
       -2   -1    0    0    0  501  0.00000000000E+00  0.00000000000E+00 -0.12940535827E+04  0.12940535827E+04  0.25500000920E-02 0. -1.
    10030    2    1    2    0    0  0.00000000000E+00  0.00000000000E+00 -0.18785494776E+03  0.24002522176E+04  0.23928897231E+04 0.  0.
        3    1    3    3  502    0 -0.37344595468E+03  0.97093924833E+02  0.10420724977E+04  0.11112174459E+04  0.10100000352E+00 0.  1.
       -3    1    3    3    0  502  0.37344595468E+03 -0.97093924833E+02 -0.12299274455E+04  0.12890347717E+04  0.10100000352E+00 0. -1.
</event>
<event>
 5   0  0.2297414E-06  0.2401262E+04  0.7818609E-02  0.8439031E-01
        1   -1    0    0  501    0  0.00000000000E+00  0.00000000000E+00  0.23357492339E+04  0.23357492339E+04  0.50400001928E-02 0.  1.
       -1   -1    0    0    0  501  0.00000000000E+00  0.00000000000E+00 -0.61715321199E+03  0.61715321201E+03  0.50400001928E-02 0. -1.
    10030    2    1    2    0    0  0.00000000000E+00  0.00000000000E+00  0.17185960220E+04  0.29529024460E+04  0.24012622865E+04 0.  0.
        1    1    3    3  502    0 -0.33547402827E+03  0.11327766192E+04  0.59615477535E+03  0.13233012540E+04  0.50400001928E-02 0. -1.
       -1    1    3    3    0  502  0.33547402827E+03 -0.11327766192E+04  0.11224412466E+04  0.16296011919E+04  0.50400001928E-02 0.  1.
</event>
<event>
 5   0  0.5349036E-06  0.2401506E+04  0.7818609E-02  0.8438940E-01
        2   -1    0    0  501    0  0.00000000000E+00  0.00000000000E+00  0.24028870536E+04  0.24028870536E+04  0.25500000920E-02 0. -1.
       -2   -1    0    0    0  501  0.00000000000E+00  0.00000000000E+00 -0.60003162707E+03  0.60003162707E+03  0.25500000920E-02 0.  1.
    10030    2    1    2    0    0  0.00000000000E+00  0.00000000000E+00  0.18028554266E+04  0.30029186807E+04  0.24015063843E+04 0.  0.
        1    1    3    3  502    0  0.75064010710E+03  0.35019231961E+03  0.19884495584E+04  0.21540721616E+04  0.50400001928E-02 0. -1.
       -1    1    3    3    0  502 -0.75064010710E+03 -0.35019231961E+03 -0.18559413188E+03  0.84884651906E+03  0.50400001928E-02 0.  1.
</event>
<event>
 5   0  0.2149029E-06  0.2400528E+04  0.7818609E-02  0.8439306E-01
        1   -1    0    0  501    0  0.00000000000E+00  0.00000000000E+00  0.16207685718E+04  0.16207685718E+04  0.50400001928E-02 0.  1.
       -1   -1    0    0    0  501  0.00000000000E+00  0.00000000000E+00 -0.88885871425E+03  0.88885871427E+03  0.50400001928E-02 0. -1.
    10030    2    1    2    0    0  0.00000000000E+00  0.00000000000E+00  0.73190985755E+03  0.25096272861E+04  0.24005284992E+04 0.  0.
        4    1    3    3  502    0 -0.50236005902E+02  0.65156442002E+03  0.14184736668E+04  0.15617711120E+04  0.12699999809E+01 0.  1.
       -4    1    3    3    0  502  0.50236005902E+02 -0.65156442002E+03 -0.68656380928E+03  0.94785617413E+03  0.12699999809E+01 0. -1.
</event>
<event>
 5   0  0.2297414E-06  0.2429033E+04  0.7818609E-02  0.8428713E-01
        1   -1    0    0  501    0  0.00000000000E+00  0.00000000000E+00  0.11295719183E+04  0.11295719183E+04  0.50400001928E-02 0. -1.
       -1   -1    0    0    0  501  0.00000000000E+00  0.00000000000E+00 -0.13058488313E+04  0.13058488313E+04  0.50400001928E-02 0.  1.
    10030    2    1    2    0    0  0.00000000000E+00  0.00000000000E+00 -0.17627691305E+03  0.24354207496E+04  0.24290328687E+04 0.  0.
        1    1    3    3  502    0  0.73405421689E+03  0.38816968687E+03 -0.97677557577E+03  0.12820303524E+04  0.50400001928E-02 0.  1.
       -1    1    3    3    0  502 -0.73405421689E+03 -0.38816968687E+03  0.80049866272E+03  0.11533903971E+04  0.50400001928E-02 0. -1.
</event>
<event>
 5   0  0.2254269E-06  0.2398929E+04  0.7818609E-02  0.8439905E-01
        1   -1    0    0  501    0  0.00000000000E+00  0.00000000000E+00  0.17352049023E+04  0.17352049023E+04  0.50400001928E-02 0. -1.
       -1   -1    0    0    0  501  0.00000000000E+00  0.00000000000E+00 -0.82913288849E+03  0.82913288850E+03  0.50400001928E-02 0.  1.
    10030    2    1    2    0    0  0.00000000000E+00  0.00000000000E+00  0.90607201377E+03  0.25643377908E+04  0.23989293051E+04 0.  0.
        2    1    3    3  502    0 -0.11683277186E+04 -0.27264871704E+02  0.16425613639E+03  0.11801326661E+04  0.25500000920E-02 0.  1.
       -2    1    3    3    0  502  0.11683277186E+04  0.27264871704E+02  0.74181587738E+03  0.13842051247E+04  0.25500000920E-02 0. -1.
</event>
<event>
 5   0  0.5440503E-06  0.2396789E+04  0.7818609E-02  0.8440707E-01
       -2   -1    0    0    0  501  0.00000000000E+00  0.00000000000E+00  0.12320105895E+04  0.12320105895E+04  0.25500000920E-02 0. -1.
        2   -1    0    0  501    0  0.00000000000E+00  0.00000000000E+00 -0.11656951757E+04  0.11656951757E+04  0.25500000920E-02 0.  1.
    10030    2    1    2    0    0  0.00000000000E+00  0.00000000000E+00  0.66315413881E+02  0.23977057652E+04  0.23967885185E+04 0.  0.
        3    1    3    3  502    0 -0.23307710833E+03  0.44613204339E+03 -0.10548200173E+04  0.11687617454E+04  0.10100000352E+00 0.  1.
       -3    1    3    3    0  502  0.23307710833E+03 -0.44613204339E+03  0.11211354311E+04  0.12289440198E+04  0.10100000352E+00 0. -1.
</event>
<event>
 5   0  0.2149029E-06  0.2398499E+04  0.7818609E-02  0.8440066E-01
        1   -1    0    0  501    0  0.00000000000E+00  0.00000000000E+00  0.12630083629E+04  0.12630083629E+04  0.50400001928E-02 0.  1.
       -1   -1    0    0    0  501  0.00000000000E+00  0.00000000000E+00 -0.11387091308E+04  0.11387091308E+04  0.50400001928E-02 0. -1.
    10030    2    1    2    0    0  0.00000000000E+00  0.00000000000E+00  0.12429923202E+03  0.24017174937E+04  0.23984988265E+04 0.  0.
        4    1    3    3  502    0 -0.32343659989E+03  0.11227130883E+04 -0.20858634146E+03  0.11868469941E+04  0.12699999809E+01 0. -1.
       -4    1    3    3    0  502  0.32343659989E+03 -0.11227130883E+04  0.33288557348E+03  0.12148704996E+04  0.12699999809E+01 0.  1.
</event>
<event>
 5   0  0.2254269E-06  0.2404986E+04  0.7818609E-02  0.8437639E-01
       -1   -1    0    0    0  501  0.00000000000E+00  0.00000000000E+00  0.10447149871E+04  0.10447149872E+04  0.50400001928E-02 0.  1.
        1   -1    0    0  501    0  0.00000000000E+00  0.00000000000E+00 -0.13840989146E+04  0.13840989146E+04  0.50400001928E-02 0. -1.
    10030    2    1    2    0    0  0.00000000000E+00  0.00000000000E+00 -0.33938392748E+03  0.24288139018E+04  0.24049855549E+04 0.  0.
        2    1    3    3  502    0 -0.76937819384E+03 -0.80054824733E+03 -0.63596828587E+03  0.12795608474E+04  0.25500000920E-02 0. -1.
       -2    1    3    3    0  502  0.76937819384E+03  0.80054824733E+03  0.29658435840E+03  0.11492530544E+04  0.25500000920E-02 0.  1.
</event>
<event>
 5   0  0.5268358E-06  0.2400604E+04  0.7818609E-02  0.8439278E-01
       -2   -1    0    0    0  501  0.00000000000E+00  0.00000000000E+00  0.90113678263E+03  0.90113678264E+03  0.25500000920E-02 0.  1.
        2   -1    0    0  501    0  0.00000000000E+00  0.00000000000E+00 -0.15987858034E+04  0.15987858034E+04  0.25500000920E-02 0. -1.
    10030    2    1    2    0    0  0.00000000000E+00  0.00000000000E+00 -0.69764902073E+03  0.24999225860E+04  0.24006038365E+04 0.  0.
        2    1    3    3  502    0 -0.91966487801E+03 -0.23471638586E+03 -0.11139671170E+04  0.14634883011E+04  0.25500000920E-02 0. -1.
       -2    1    3    3    0  502  0.91966487801E+03  0.23471638586E+03  0.41631809628E+03  0.10364342849E+04  0.25500000920E-02 0.  1.
</event>
<event>
 5   0  0.2215700E-06  0.2402325E+04  0.7818609E-02  0.8438634E-01
       -1   -1    0    0    0  501  0.00000000000E+00  0.00000000000E+00  0.84110138696E+03  0.84110138698E+03  0.50400001928E-02 0.  1.
        1   -1    0    0  501    0  0.00000000000E+00  0.00000000000E+00 -0.17153595133E+04  0.17153595133E+04  0.50400001928E-02 0. -1.
    10030    2    1    2    0    0  0.00000000000E+00  0.00000000000E+00 -0.87425812633E+03  0.25564609003E+04  0.24023249287E+04 0.  0.
        3    1    3    3  502    0 -0.40754069754E+03  0.72441318481E+03  0.48564494757E+03  0.96266032835E+03  0.10100000352E+00 0.  1.
       -3    1    3    3    0  502  0.40754069754E+03 -0.72441318481E+03 -0.13599030739E+04  0.15938005719E+04  0.10100000352E+00 0. -1.
</event>
<event>
 5   0  0.5379778E-06  0.2400064E+04  0.7818609E-02  0.8439480E-01
       -2   -1    0    0    0  501  0.00000000000E+00  0.00000000000E+00  0.80063238782E+03  0.80063238782E+03  0.25500000920E-02 0.  1.
        2   -1    0    0  501    0  0.00000000000E+00  0.00000000000E+00 -0.17986735265E+04  0.17986735265E+04  0.25500000920E-02 0. -1.
    10030    2    1    2    0    0  0.00000000000E+00  0.00000000000E+00 -0.99804113864E+03  0.25993059143E+04  0.24000635662E+04 0.  0.
        5    1    3    3  502    0 -0.62272280970E+02  0.46350038202E+03 -0.16959088311E+04  0.17592155339E+04  0.46999998093E+01 0. -1.
       -5    1    3    3    0  502  0.62272280970E+02 -0.46350038202E+03  0.69786769247E+03  0.84009038043E+03  0.46999998093E+01 0.  1.
</event>
<event>
 5   0  0.2215700E-06  0.2402208E+04  0.7818609E-02  0.8438677E-01
        1   -1    0    0  501    0  0.00000000000E+00  0.00000000000E+00  0.13720781505E+04  0.13720781505E+04  0.50400001928E-02 0. -1.
       -1   -1    0    0    0  501  0.00000000000E+00  0.00000000000E+00 -0.10514347619E+04  0.10514347619E+04  0.50400001928E-02 0.  1.
    10030    2    1    2    0    0  0.00000000000E+00  0.00000000000E+00  0.32064338854E+03  0.24235129124E+04  0.24022078707E+04 0.  0.
        3    1    3    3  502    0  0.12591242395E+03  0.16864855193E+03 -0.10326863609E+04  0.10539152731E+04  0.10100000352E+00 0.  1.
       -3    1    3    3    0  502 -0.12591242395E+03 -0.16864855193E+03  0.13533297495E+04  0.13695976393E+04  0.10100000352E+00 0. -1.
</event>
<event>
 5   0  0.5268358E-06  0.2402319E+04  0.7818609E-02  0.8438636E-01
        2   -1    0    0  501    0  0.00000000000E+00  0.00000000000E+00  0.12875482041E+04  0.12875482042E+04  0.25500000920E-02 0.  1.
       -2   -1    0    0    0  501  0.00000000000E+00  0.00000000000E+00 -0.11205668108E+04  0.11205668108E+04  0.25500000920E-02 0. -1.
    10030    2    1    2    0    0  0.00000000000E+00  0.00000000000E+00  0.16698139339E+03  0.24081150149E+04  0.24023187006E+04 0.  0.
        2    1    3    3  502    0 -0.47150503340E+03 -0.29883536535E+03  0.11496188990E+04  0.12779840316E+04  0.25500000920E-02 0.  1.
       -2    1    3    3    0  502  0.47150503340E+03  0.29883536535E+03 -0.98263750558E+03  0.11301309833E+04  0.25500000920E-02 0. -1.
</event>
<event>
 5   0  0.5268358E-06  0.2399415E+04  0.7818609E-02  0.8439723E-01
        2   -1    0    0  501    0  0.00000000000E+00  0.00000000000E+00  0.18845764786E+04  0.18845764786E+04  0.25500000920E-02 0. -1.
       -2   -1    0    0    0  501  0.00000000000E+00  0.00000000000E+00 -0.76372485818E+03  0.76372485818E+03  0.25500000920E-02 0.  1.
    10030    2    1    2    0    0  0.00000000000E+00  0.00000000000E+00  0.11208516204E+04  0.26483013368E+04  0.23994148485E+04 0.  0.
        2    1    3    3  502    0 -0.10693811402E+04 -0.52102293321E+03  0.73232762313E+03  0.13969053896E+04  0.25500000920E-02 0. -1.
       -2    1    3    3    0  502  0.10693811402E+04  0.52102293321E+03  0.38852399730E+03  0.12513959471E+04  0.25500000920E-02 0.  1.
</event>
<event>
 5   0  0.2297414E-06  0.2396078E+04  0.7818609E-02  0.8440973E-01
        1   -1    0    0  501    0  0.00000000000E+00  0.00000000000E+00  0.14133903072E+04  0.14133903072E+04  0.50400001928E-02 0.  1.
       -1   -1    0    0    0  501  0.00000000000E+00  0.00000000000E+00 -0.10154996838E+04  0.10154996838E+04  0.50400001928E-02 0. -1.
    10030    2    1    2    0    0  0.00000000000E+00  0.00000000000E+00  0.39789062340E+03  0.24288899910E+04  0.23960779704E+04 0.  0.
        1    1    3    3  502    0 -0.30012546271E+02  0.11499608934E+04 -0.14028131207E+03  0.11588743055E+04  0.50400001928E-02 0. -1.
       -1    1    3    3    0  502  0.30012546271E+02 -0.11499608934E+04  0.53817193548E+03  0.12700156855E+04  0.50400001928E-02 0.  1.
</event>
<event>
 5   0  0.5440503E-06  0.2384193E+04  0.7818609E-02  0.8445445E-01
       -2   -1    0    0    0  501  0.00000000000E+00  0.00000000000E+00  0.70015781034E+03  0.70015781035E+03  0.25500000920E-02 0. -1.
        2   -1    0    0  501    0  0.00000000000E+00  0.00000000000E+00 -0.20296770068E+04  0.20296770068E+04  0.25500000920E-02 0.  1.
    10030    2    1    2    0    0  0.00000000000E+00  0.00000000000E+00 -0.13295191965E+04  0.27298348172E+04  0.23841931204E+04 0.  0.
        3    1    3    3  502    0 -0.43034838545E+03 -0.87840516282E+03 -0.14449376625E+04  0.17448897449E+04  0.10100000352E+00 0.  1.
       -3    1    3    3    0  502  0.43034838545E+03  0.87840516282E+03  0.11541846606E+03  0.98494507230E+03  0.10100000352E+00 0. -1.
</event>
<event>
 5   0  0.5268358E-06  0.2391352E+04  0.7818609E-02  0.8442748E-01
        2   -1    0    0  501    0  0.00000000000E+00  0.00000000000E+00  0.23211926649E+04  0.23211926649E+04  0.25500000920E-02 0. -1.
       -2   -1    0    0    0  501  0.00000000000E+00  0.00000000000E+00 -0.61590780408E+03  0.61590780409E+03  0.25500000920E-02 0.  1.
    10030    2    1    2    0    0  0.00000000000E+00  0.00000000000E+00  0.17052848609E+04  0.29371004690E+04  0.23913516489E+04 0.  0.
        2    1    3    3  502    0  0.85539668240E+03 -0.53224068856E+03  0.16435393454E+04  0.19277461489E+04  0.25500000920E-02 0. -1.
       -2    1    3    3    0  502 -0.85539668240E+03  0.53224068856E+03  0.61745515448E+02  0.10093543201E+04  0.25500000920E-02 0.  1.
</event>
<event>
 5   0  0.2215700E-06  0.2404514E+04  0.7818609E-02  0.8437815E-01
        1   -1    0    0  501    0  0.00000000000E+00  0.00000000000E+00  0.18333952434E+04  0.18333952434E+04  0.50400001928E-02 0.  1.
       -1   -1    0    0    0  501  0.00000000000E+00  0.00000000000E+00 -0.78838540977E+03  0.78838540979E+03  0.50400001928E-02 0. -1.
    10030    2    1    2    0    0  0.00000000000E+00  0.00000000000E+00  0.10450098337E+04  0.26217806532E+04  0.24045141383E+04 0.  0.
        3    1    3    3  502    0 -0.43014641881E+02  0.10979753927E+04  0.10544629997E+04  0.15229223389E+04  0.10100000352E+00 0.  1.
       -3    1    3    3    0  502  0.43014641881E+02 -0.10979753927E+04 -0.94531660762E+01  0.10988583143E+04  0.10100000352E+00 0. -1.
</event>
<event>
 5   0  0.2149417E-06  0.2410627E+04  0.7818609E-02  0.8435536E-01
       -1   -1    0    0    0  501  0.00000000000E+00  0.00000000000E+00  0.76831752403E+03  0.76831752405E+03  0.50400001928E-02 0. -1.
        1   -1    0    0  501    0  0.00000000000E+00  0.00000000000E+00 -0.18908601442E+04  0.18908601442E+04  0.50400001928E-02 0.  1.
    10030    2    1    2    0    0  0.00000000000E+00  0.00000000000E+00 -0.11225426202E+04  0.26591776683E+04  0.24106272913E+04 0.  0.
        5    1    3    3  502    0  0.76379450071E+03  0.82287177407E+03 -0.10449539618E+04  0.15337701484E+04  0.46999998093E+01 0.  1.
       -5    1    3    3    0  502 -0.76379450071E+03 -0.82287177407E+03 -0.77588658378E+02  0.11254075199E+04  0.46999998093E+01 0. -1.
</event>
<event>
 5   0  0.2149029E-06  0.2402338E+04  0.7818609E-02  0.8438629E-01
        1   -1    0    0  501    0  0.00000000000E+00  0.00000000000E+00  0.11768253851E+04  0.11768253851E+04  0.50400001928E-02 0.  1.
       -1   -1    0    0    0  501  0.00000000000E+00  0.00000000000E+00 -0.12260164350E+04  0.12260164350E+04  0.50400001928E-02 0. -1.
    10030    2    1    2    0    0  0.00000000000E+00  0.00000000000E+00 -0.49191049915E+02  0.24028418201E+04  0.24023382470E+04 0.  0.
        4    1    3    3  502    0 -0.81048375589E+03 -0.12288057826E+03 -0.90274430809E+03  0.12193983983E+04  0.12699999809E+01 0. -1.
       -4    1    3    3    0  502  0.81048375589E+03  0.12288057826E+03  0.85355325817E+03  0.11834434218E+04  0.12699999809E+01 0.  1.
</event>
<event>
 5   0  0.5440503E-06  0.2401882E+04  0.7818609E-02  0.8438799E-01
       -2   -1    0    0    0  501  0.00000000000E+00  0.00000000000E+00  0.56570652736E+03  0.56570652736E+03  0.25500000920E-02 0.  1.
        2   -1    0    0  501    0  0.00000000000E+00  0.00000000000E+00 -0.25494836111E+04  0.25494836111E+04  0.25500000920E-02 0. -1.
    10030    2    1    2    0    0  0.00000000000E+00  0.00000000000E+00 -0.19837770837E+04  0.31151901385E+04  0.24018821954E+04 0.  0.
        3    1    3    3  502    0  0.19828380907E+03  0.89450441664E+03 -0.19988694572E+04  0.21988482752E+04  0.10100000352E+00 0. -1.
       -3    1    3    3    0  502 -0.19828380907E+03 -0.89450441664E+03  0.15092373490E+02  0.91634186321E+03  0.10100000352E+00 0.  1.
</event>
<event>
 5   0  0.5268358E-06  0.2397612E+04  0.7818609E-02  0.8440398E-01
        2   -1    0    0  501    0  0.00000000000E+00  0.00000000000E+00  0.10991057629E+04  0.10991057629E+04  0.25500000920E-02 0. -1.
       -2   -1    0    0    0  501  0.00000000000E+00  0.00000000000E+00 -0.13075498492E+04  0.13075498492E+04  0.25500000920E-02 0.  1.
    10030    2    1    2    0    0  0.00000000000E+00  0.00000000000E+00 -0.20844408632E+03  0.24066556122E+04  0.23976117906E+04 0.  0.
        2    1    3    3  502    0 -0.71127577840E+03  0.71335202021E+03 -0.75655897637E+03  0.12598276955E+04  0.25500000920E-02 0.  1.
       -2    1    3    3    0  502  0.71127577840E+03 -0.71335202021E+03  0.54811489005E+03  0.11468279166E+04  0.25500000920E-02 0. -1.
</event>
<event>
 5   0  0.5371843E-06  0.2403614E+04  0.7818609E-02  0.8438152E-01
       -2   -1    0    0    0  501  0.00000000000E+00  0.00000000000E+00  0.60400728226E+03  0.60400728227E+03  0.25500000920E-02 0.  1.
        2   -1    0    0  501    0  0.00000000000E+00  0.00000000000E+00 -0.23912617334E+04  0.23912617334E+04  0.25500000920E-02 0. -1.
    10030    2    1    2    0    0  0.00000000000E+00  0.00000000000E+00 -0.17872544511E+04  0.29952690156E+04  0.24036135303E+04 0.  0.
        4    1    3    3  502    0  0.27900958165E+03  0.94686915762E+03 -0.17478830259E+04  0.20073625067E+04  0.12699999809E+01 0. -1.
       -4    1    3    3    0  502 -0.27900958165E+03 -0.94686915762E+03 -0.39371425199E+02  0.98790650890E+03  0.12699999809E+01 0.  1.
</event>
<event>
 5   0  0.2254269E-06  0.2401838E+04  0.7818609E-02  0.8438816E-01
        1   -1    0    0  501    0  0.00000000000E+00  0.00000000000E+00  0.11160349172E+04  0.11160349172E+04  0.50400001928E-02 0.  1.
       -1   -1    0    0    0  501  0.00000000000E+00  0.00000000000E+00 -0.12922587985E+04  0.12922587985E+04  0.50400001928E-02 0. -1.
    10030    2    1    2    0    0  0.00000000000E+00  0.00000000000E+00 -0.17622388124E+03  0.24082937157E+04  0.24018375809E+04 0.  0.
        2    1    3    3  502    0  0.41936117640E+03 -0.10578559896E+03 -0.12114588643E+04  0.12863463643E+04  0.25500000920E-02 0. -1.
       -2    1    3    3    0  502 -0.41936117640E+03  0.10578559896E+03  0.10352349830E+04  0.11219473514E+04  0.25500000920E-02 0.  1.
</event>
<event>
 5   0  0.5440503E-06  0.2393748E+04  0.7818609E-02  0.8441848E-01
        2   -1    0    0  501    0  0.00000000000E+00  0.00000000000E+00  0.23607075248E+04  0.23607075248E+04  0.25500000920E-02 0.  1.
       -2   -1    0    0    0  501  0.00000000000E+00  0.00000000000E+00 -0.60681264321E+03  0.60681264322E+03  0.25500000920E-02 0. -1.
    10030    2    1    2    0    0  0.00000000000E+00  0.00000000000E+00  0.17538948816E+04  0.29675201680E+04  0.23937478338E+04 0.  0.
        3    1    3    3  502    0  0.20780026660E+03  0.17651398299E+03  0.23216957397E+04  0.23376503706E+04  0.10100000352E+00 0.  1.
       -3    1    3    3    0  502 -0.20780026660E+03 -0.17651398299E+03 -0.56780085816E+03  0.62986979743E+03  0.10100000352E+00 0. -1.
</event>
<event>
 5   0  0.5268358E-06  0.2396800E+04  0.7818609E-02  0.8440703E-01
       -2   -1    0    0    0  501  0.00000000000E+00  0.00000000000E+00  0.70538083882E+03  0.70538083882E+03  0.25500000920E-02 0. -1.
        2   -1    0    0  501    0  0.00000000000E+00  0.00000000000E+00 -0.20360095979E+04  0.20360095979E+04  0.25500000920E-02 0.  1.
    10030    2    1    2    0    0  0.00000000000E+00  0.00000000000E+00 -0.13306287591E+04  0.27413904367E+04  0.23967996646E+04 0.  0.
        2    1    3    3  502    0 -0.11930549636E+04 -0.11222807061E+03 -0.64967890034E+03  0.13631059972E+04  0.25500000920E-02 0. -1.
       -2    1    3    3    0  502  0.11930549636E+04  0.11222807061E+03 -0.68094985873E+03  0.13782844395E+04  0.25500000920E-02 0.  1.
</event>
<event>
 5   0  0.2297414E-06  0.2400083E+04  0.7818609E-02  0.8439473E-01
       -1   -1    0    0    0  501  0.00000000000E+00  0.00000000000E+00  0.10950672586E+04  0.10950672586E+04  0.50400001928E-02 0.  1.
        1   -1    0    0  501    0  0.00000000000E+00  0.00000000000E+00 -0.13150784211E+04  0.13150784212E+04  0.50400001928E-02 0. -1.
    10030    2    1    2    0    0  0.00000000000E+00  0.00000000000E+00 -0.22001116252E+03  0.24101456798E+04  0.24000827665E+04 0.  0.
        1    1    3    3  502    0  0.71533067347E+03  0.89774479968E+03  0.24139821014E+03  0.11729947969E+04  0.50400001928E-02 0.  1.
       -1    1    3    3    0  502 -0.71533067347E+03 -0.89774479968E+03 -0.46140937266E+03  0.12371508829E+04  0.50400001928E-02 0. -1.
</event>
<event>
 5   0  0.2149417E-06  0.2397454E+04  0.7818609E-02  0.8440458E-01
        1   -1    0    0  501    0  0.00000000000E+00  0.00000000000E+00  0.12318808724E+04  0.12318808724E+04  0.50400001928E-02 0.  1.
       -1   -1    0    0    0  501  0.00000000000E+00  0.00000000000E+00 -0.11664650093E+04  0.11664650093E+04  0.50400001928E-02 0. -1.
    10030    2    1    2    0    0  0.00000000000E+00  0.00000000000E+00  0.65415863071E+02  0.23983458818E+04  0.23974535936E+04 0.  0.
        5    1    3    3  502    0 -0.48001122584E+03  0.80633837843E+03 -0.71344599071E+03  0.11788212880E+04  0.46999998093E+01 0. -1.
       -5    1    3    3    0  502  0.48001122584E+03 -0.80633837843E+03  0.77886185378E+03  0.12195245937E+04  0.46999998093E+01 0.  1.
</event>
<event>
 5   0  0.2149029E-06  0.2400017E+04  0.7818609E-02  0.8439497E-01
       -1   -1    0    0    0  501  0.00000000000E+00  0.00000000000E+00  0.78530398003E+03  0.78530398005E+03  0.50400001928E-02 0.  1.
        1   -1    0    0  501    0  0.00000000000E+00  0.00000000000E+00 -0.18337111397E+04  0.18337111397E+04  0.50400001928E-02 0. -1.
    10030    2    1    2    0    0  0.00000000000E+00  0.00000000000E+00 -0.10484071597E+04  0.26190151198E+04  0.24000172135E+04 0.  0.
        4    1    3    3  502    0  0.18537595576E+03  0.11605071686E+04 -0.78899252037E+03  0.14155041305E+04  0.12699999809E+01 0.  1.
       -4    1    3    3    0  502 -0.18537595576E+03 -0.11605071686E+04 -0.25941463932E+03  0.12035109893E+04  0.12699999809E+01 0. -1.
</event>
<event>
 5   0  0.2215700E-06  0.2398644E+04  0.7818609E-02  0.8440011E-01
        1   -1    0    0  501    0  0.00000000000E+00  0.00000000000E+00  0.18087631749E+04  0.18087631749E+04  0.50400001928E-02 0. -1.
       -1   -1    0    0    0  501  0.00000000000E+00  0.00000000000E+00 -0.79522466460E+03  0.79522466462E+03  0.50400001928E-02 0.  1.
    10030    2    1    2    0    0  0.00000000000E+00  0.00000000000E+00  0.10135385103E+04  0.26039878395E+04  0.23986438578E+04 0.  0.
        3    1    3    3  502    0  0.58534585725E+03  0.10453956006E+04  0.44839476507E+03  0.12792730787E+04  0.10100000352E+00 0.  1.
       -3    1    3    3    0  502 -0.58534585725E+03 -0.10453956006E+04  0.56514374521E+03  0.13247147608E+04  0.10100000352E+00 0. -1.
</event>
<event>
 5   0  0.5440503E-06  0.2402983E+04  0.7818609E-02  0.8438388E-01
       -2   -1    0    0    0  501  0.00000000000E+00  0.00000000000E+00  0.12254382168E+04  0.12254382168E+04  0.25500000920E-02 0.  1.
        2   -1    0    0  501    0  0.00000000000E+00  0.00000000000E+00 -0.11780125598E+04  0.11780125598E+04  0.25500000920E-02 0. -1.
    10030    2    1    2    0    0  0.00000000000E+00  0.00000000000E+00  0.47425657064E+02  0.24034507766E+04  0.24029828220E+04 0.  0.
        3    1    3    3  502    0 -0.14234742308E+03  0.10027892270E+04 -0.62273538389E+03  0.11889694661E+04  0.10100000352E+00 0. -1.
       -3    1    3    3    0  502  0.14234742308E+03 -0.10027892270E+04  0.67016104096E+03  0.12144813106E+04  0.10100000352E+00 0.  1.
</event>
<event>
 5   0  0.2149029E-06  0.2398132E+04  0.7818609E-02  0.8440203E-01
        1   -1    0    0  501    0  0.00000000000E+00  0.00000000000E+00  0.15807810945E+04  0.15807810945E+04  0.50400001928E-02 0. -1.
       -1   -1    0    0    0  501  0.00000000000E+00  0.00000000000E+00 -0.90952465688E+03  0.90952465689E+03  0.50400001928E-02 0.  1.
    10030    2    1    2    0    0  0.00000000000E+00  0.00000000000E+00  0.67125643758E+03  0.24903057514E+04  0.23981320919E+04 0.  0.
        4    1    3    3  502    0  0.76596881381E+03  0.90049606139E+03  0.54372094454E+03  0.13012438122E+04  0.12699999809E+01 0. -1.
       -4    1    3    3    0  502 -0.76596881381E+03 -0.90049606139E+03  0.12753549303E+03  0.11890619392E+04  0.12699999809E+01 0.  1.
</event>
<event>
 5   0  0.5349036E-06  0.2412511E+04  0.7818609E-02  0.8434834E-01
        2   -1    0    0  501    0  0.00000000000E+00  0.00000000000E+00  0.19925157352E+04  0.19925157352E+04  0.25500000920E-02 0. -1.
       -2   -1    0    0    0  501  0.00000000000E+00  0.00000000000E+00 -0.73025882596E+03  0.73025882597E+03  0.25500000920E-02 0.  1.
    10030    2    1    2    0    0  0.00000000000E+00  0.00000000000E+00  0.12622569092E+04  0.27227745612E+04  0.24125108924E+04 0.  0.
        1    1    3    3  502    0  0.67497280200E+03  0.70954677992E+02 -0.49432974280E+03  0.83963369657E+03  0.50400001928E-02 0.  1.
       -1    1    3    3    0  502 -0.67497280200E+03 -0.70954677992E+02  0.17565866520E+04  0.18831408646E+04  0.50400001928E-02 0. -1.
</event>
<event>
 5   0  0.2254269E-06  0.2391196E+04  0.7818609E-02  0.8442807E-01
        1   -1    0    0  501    0  0.00000000000E+00  0.00000000000E+00  0.15598736075E+04  0.15598736075E+04  0.50400001928E-02 0. -1.
       -1   -1    0    0    0  501  0.00000000000E+00  0.00000000000E+00 -0.91639103594E+03  0.91639103596E+03  0.50400001928E-02 0.  1.
    10030    2    1    2    0    0  0.00000000000E+00  0.00000000000E+00  0.64348257159E+03  0.24762646435E+04  0.23911956768E+04 0.  0.
        2    1    3    3  502    0  0.10742343106E+04  0.36730825241E+03  0.70999178094E+03  0.13390231646E+04  0.25500000920E-02 0.  1.
       -2    1    3    3    0  502 -0.10742343106E+04 -0.36730825241E+03 -0.66509209351E+02  0.11372414789E+04  0.25500000920E-02 0. -1.
</event>
<event>
 5   0  0.2215700E-06  0.2398110E+04  0.7818609E-02  0.8440212E-01
       -1   -1    0    0    0  501  0.00000000000E+00  0.00000000000E+00  0.15656117277E+04  0.15656117277E+04  0.50400001928E-02 0. -1.
        1   -1    0    0  501    0  0.00000000000E+00  0.00000000000E+00 -0.91831995138E+03  0.91831995139E+03  0.50400001928E-02 0.  1.
    10030    2    1    2    0    0  0.00000000000E+00  0.00000000000E+00  0.64729177629E+03  0.24839316791E+04  0.23981096603E+04 0.  0.
        3    1    3    3  502    0 -0.11393771238E+04  0.37310721497E+03  0.34283596311E+03  0.12469666122E+04  0.10100000352E+00 0.  1.
       -3    1    3    3    0  502  0.11393771238E+04 -0.37310721497E+03  0.30445581319E+03  0.12369650668E+04  0.10100000352E+00 0. -1.
</event>
<event>
 5   0  0.5349036E-06  0.2360961E+04  0.7818609E-02  0.8454266E-01
       -2   -1    0    0    0  501  0.00000000000E+00  0.00000000000E+00  0.80192979072E+03  0.80192979073E+03  0.25500000920E-02 0.  1.
        2   -1    0    0  501    0  0.00000000000E+00  0.00000000000E+00 -0.17377257691E+04  0.17377257691E+04  0.25500000920E-02 0. -1.
    10030    2    1    2    0    0  0.00000000000E+00  0.00000000000E+00 -0.93579597834E+03  0.25396555598E+04  0.23609608742E+04 0.  0.
        1    1    3    3  502    0  0.51023548781E+03  0.56902062002E+03  0.49986751156E+03  0.91323176038E+03  0.50400001928E-02 0.  1.
       -1    1    3    3    0  502 -0.51023548781E+03 -0.56902062002E+03 -0.14356634899E+04  0.16264237994E+04  0.50400001928E-02 0. -1.
</event>
<event>
 5   0  0.2149029E-06  0.2398735E+04  0.7818609E-02  0.8439977E-01
       -1   -1    0    0    0  501  0.00000000000E+00  0.00000000000E+00  0.80728244223E+03  0.80728244225E+03  0.50400001928E-02 0. -1.
        1   -1    0    0  501    0  0.00000000000E+00  0.00000000000E+00 -0.17818829143E+04  0.17818829143E+04  0.50400001928E-02 0.  1.
    10030    2    1    2    0    0  0.00000000000E+00  0.00000000000E+00 -0.97460047204E+03  0.25891653565E+04  0.23987353258E+04 0.  0.
        4    1    3    3  502    0 -0.87592519002E+03  0.31562394532E+03  0.32877521758E+03  0.98739970121E+03  0.12699999809E+01 0. -1.
       -4    1    3    3    0  502  0.87592519002E+03 -0.31562394532E+03 -0.13033756896E+04  0.16017656553E+04  0.12699999809E+01 0.  1.
</event>
<event>
 5   0  0.5268358E-06  0.2400256E+04  0.7818609E-02  0.8439408E-01
        2   -1    0    0  501    0  0.00000000000E+00  0.00000000000E+00  0.11572861250E+04  0.11572861250E+04  0.25500000920E-02 0.  1.
       -2   -1    0    0    0  501  0.00000000000E+00  0.00000000000E+00 -0.12445558825E+04  0.12445558825E+04  0.25500000920E-02 0. -1.
    10030    2    1    2    0    0  0.00000000000E+00  0.00000000000E+00 -0.87269757556E+02  0.24018420075E+04  0.24002560318E+04 0.  0.
        2    1    3    3  502    0 -0.66573939060E+03 -0.97348791432E+03  0.17881720347E+03  0.11928383159E+04  0.25500000920E-02 0. -1.
       -2    1    3    3    0  502  0.66573939060E+03  0.97348791432E+03 -0.26608696103E+03  0.12090036916E+04  0.25500000920E-02 0.  1.
</event>
<event>
 5   0  0.2149417E-06  0.2397778E+04  0.7818609E-02  0.8440336E-01
        1   -1    0    0  501    0  0.00000000000E+00  0.00000000000E+00  0.11355835076E+04  0.11355835076E+04  0.50400001928E-02 0. -1.
       -1   -1    0    0    0  501  0.00000000000E+00  0.00000000000E+00 -0.12657239030E+04  0.12657239030E+04  0.50400001928E-02 0.  1.
    10030    2    1    2    0    0  0.00000000000E+00  0.00000000000E+00 -0.13014039539E+03  0.24013074105E+04  0.23977782961E+04 0.  0.
        5    1    3    3  502    0  0.63758942265E+03 -0.75533665385E+03 -0.74449289973E+03  0.12374754544E+04  0.46999998093E+01 0.  1.
       -5    1    3    3    0  502 -0.63758942265E+03  0.75533665385E+03  0.61435250434E+03  0.11638319561E+04  0.46999998093E+01 0. -1.
</event>
<event>
 5   0  0.5440503E-06  0.2399900E+04  0.7818609E-02  0.8439541E-01
        2   -1    0    0  501    0  0.00000000000E+00  0.00000000000E+00  0.18842150529E+04  0.18842150529E+04  0.25500000920E-02 0. -1.
       -2   -1    0    0    0  501  0.00000000000E+00  0.00000000000E+00 -0.76418007763E+03  0.76418007763E+03  0.25500000920E-02 0.  1.
    10030    2    1    2    0    0  0.00000000000E+00  0.00000000000E+00  0.11200349753E+04  0.26483951306E+04  0.23998996691E+04 0.  0.
        3    1    3    3  502    0  0.26606039482E+03 -0.68713786319E+03  0.16051460116E+04  0.17661937338E+04  0.10100000352E+00 0. -1.
       -3    1    3    3    0  502 -0.26606039482E+03  0.68713786319E+03 -0.48511103627E+03  0.88220139675E+03  0.10100000352E+00 0.  1.
</event>
<event>
 5   0  0.2254269E-06  0.2395477E+04  0.7818609E-02  0.8441199E-01
       -1   -1    0    0    0  501  0.00000000000E+00  0.00000000000E+00  0.19031110269E+04  0.19031110269E+04  0.50400001928E-02 0. -1.
        1   -1    0    0  501    0  0.00000000000E+00  0.00000000000E+00 -0.75380640678E+03  0.75380640679E+03  0.50400001928E-02 0.  1.
    10030    2    1    2    0    0  0.00000000000E+00  0.00000000000E+00  0.11493046201E+04  0.26569174337E+04  0.23954768084E+04 0.  0.
        2    1    3    3  502    0  0.17684094295E+03  0.11826873222E+04  0.64951110842E+03  0.13608404393E+04  0.25500000920E-02 0.  1.
       -2    1    3    3    0  502 -0.17684094295E+03 -0.11826873222E+04  0.49979351170E+03  0.12960769944E+04  0.25500000920E-02 0. -1.
</event>
<event>
 5   0  0.5268358E-06  0.2408412E+04  0.7818609E-02  0.8436361E-01
        2   -1    0    0  501    0  0.00000000000E+00  0.00000000000E+00  0.15379028372E+04  0.15379028372E+04  0.25500000920E-02 0. -1.
       -2   -1    0    0    0  501  0.00000000000E+00  0.00000000000E+00 -0.94291547308E+03  0.94291547308E+03  0.25500000920E-02 0.  1.
    10030    2    1    2    0    0  0.00000000000E+00  0.00000000000E+00  0.59498736407E+03  0.24808183102E+04  0.24084122415E+04 0.  0.
        2    1    3    3  502    0  0.56771831638E+03 -0.10179901044E+04 -0.14097544371E+02  0.11656786351E+04  0.25500000920E-02 0.  1.
       -2    1    3    3    0  502 -0.56771831638E+03  0.10179901044E+04  0.60908490844E+03  0.13151396752E+04  0.25500000920E-02 0. -1.
</event>
<event>
 5   0  0.5349036E-06  0.2385608E+04  0.7818609E-02  0.8444911E-01
        2   -1    0    0  501    0  0.00000000000E+00  0.00000000000E+00  0.18445246345E+04  0.18445246345E+04  0.25500000920E-02 0.  1.
       -2   -1    0    0    0  501  0.00000000000E+00  0.00000000000E+00 -0.77135406083E+03  0.77135406083E+03  0.25500000920E-02 0. -1.
    10030    2    1    2    0    0  0.00000000000E+00  0.00000000000E+00  0.10731705737E+04  0.26158786954E+04  0.23856081549E+04 0.  0.
        1    1    3    3  502    0 -0.68587874728E+03  0.93990475340E+03  0.82447468480E+03  0.14260466708E+04  0.50400001928E-02 0.  1.
       -1    1    3    3    0  502  0.68587874728E+03 -0.93990475340E+03  0.24869588889E+03  0.11898320245E+04  0.50400001928E-02 0. -1.
</event>
<event>
 5   0  0.2215700E-06  0.2395768E+04  0.7818609E-02  0.8441090E-01
        1   -1    0    0  501    0  0.00000000000E+00  0.00000000000E+00  0.14917020706E+04  0.14917020707E+04  0.50400001928E-02 0.  1.
       -1   -1    0    0    0  501  0.00000000000E+00  0.00000000000E+00 -0.96193858494E+03  0.96193858495E+03  0.50400001928E-02 0. -1.
    10030    2    1    2    0    0  0.00000000000E+00  0.00000000000E+00  0.52976348570E+03  0.24536406556E+04  0.23957677509E+04 0.  0.
        3    1    3    3  502    0  0.33967943035E+03  0.94533488863E+03 -0.40348175518E+03  0.10825145283E+04  0.10100000352E+00 0. -1.
       -3    1    3    3    0  502 -0.33967943035E+03 -0.94533488863E+03  0.93324524089E+03  0.13711261273E+04  0.10100000352E+00 0.  1.
</event>
<event>
 5   0  0.2149029E-06  0.2399195E+04  0.7818609E-02  0.8439805E-01
       -1   -1    0    0    0  501  0.00000000000E+00  0.00000000000E+00  0.10022892211E+04  0.10022892211E+04  0.50400001928E-02 0. -1.
        1   -1    0    0  501    0  0.00000000000E+00  0.00000000000E+00 -0.14357479090E+04  0.14357479090E+04  0.50400001928E-02 0.  1.
    10030    2    1    2    0    0  0.00000000000E+00  0.00000000000E+00 -0.43345868789E+03  0.24380371301E+04  0.23991954096E+04 0.  0.
        4    1    3    3  502    0 -0.52174837670E+03 -0.30236251367E+03  0.83706873897E+03  0.10316637751E+04  0.12699999809E+01 0. -1.
       -4    1    3    3    0  502  0.52174837670E+03  0.30236251367E+03 -0.12705274269E+04  0.14063733550E+04  0.12699999809E+01 0.  1.
</event>
<event>
 5   0  0.5268358E-06  0.2392706E+04  0.7818609E-02  0.8442239E-01
       -2   -1    0    0    0  501  0.00000000000E+00  0.00000000000E+00  0.16044835207E+04  0.16044835207E+04  0.25500000920E-02 0.  1.
        2   -1    0    0  501    0  0.00000000000E+00  0.00000000000E+00 -0.89203792920E+03  0.89203792921E+03  0.25500000920E-02 0. -1.
    10030    2    1    2    0    0  0.00000000000E+00  0.00000000000E+00  0.71244559148E+03  0.24965214499E+04  0.23927057130E+04 0.  0.
        2    1    3    3  502    0  0.36512118687E+03  0.70954728219E+03  0.12862380028E+04  0.15136641062E+04  0.25500000920E-02 0.  1.
       -2    1    3    3    0  502 -0.36512118687E+03 -0.70954728219E+03 -0.57379241127E+03  0.98285734367E+03  0.25500000920E-02 0. -1.
</event>
<event>
 5   0  0.5371843E-06  0.2398321E+04  0.7818609E-02  0.8440132E-01
       -2   -1    0    0    0  501  0.00000000000E+00  0.00000000000E+00  0.47639732262E+03  0.47639732263E+03  0.25500000920E-02 0.  1.
        2   -1    0    0  501    0  0.00000000000E+00  0.00000000000E+00 -0.30184601714E+04  0.30184601714E+04  0.25500000920E-02 0. -1.
    10030    2    1    2    0    0  0.00000000000E+00  0.00000000000E+00 -0.25420628488E+04  0.34948574941E+04  0.23983213664E+04 0.  0.
        4    1    3    3  502    0  0.17589072912E+03 -0.43606397713E+03  0.33646019772E+03  0.57818372365E+03  0.12699999809E+01 0.  1.
       -4    1    3    3    0  502 -0.17589072912E+03  0.43606397713E+03 -0.28785230465E+04  0.29166737704E+04  0.12699999809E+01 0. -1.
</event>
<event>
 5   0  0.5440503E-06  0.2413005E+04  0.7818609E-02  0.8434651E-01
       -2   -1    0    0    0  501  0.00000000000E+00  0.00000000000E+00  0.74029902212E+03  0.74029902213E+03  0.25500000920E-02 0. -1.
        2   -1    0    0  501    0  0.00000000000E+00  0.00000000000E+00 -0.19662978157E+04  0.19662978157E+04  0.25500000920E-02 0.  1.
    10030    2    1    2    0    0  0.00000000000E+00  0.00000000000E+00 -0.12259987936E+04  0.27065968378E+04  0.24130050561E+04 0.  0.
        3    1    3    3  502    0 -0.56513043362E+03 -0.10625281416E+04 -0.70889981449E+03  0.13967381343E+04  0.10100000352E+00 0. -1.
       -3    1    3    3    0  502  0.56513043362E+03  0.10625281416E+04 -0.51709897909E+03  0.13098587035E+04  0.10100000352E+00 0.  1.
</event>
<event>
 5   0  0.5379778E-06  0.2388871E+04  0.7818609E-02  0.8443682E-01
       -2   -1    0    0    0  501  0.00000000000E+00  0.00000000000E+00  0.10547589889E+04  0.10547589889E+04  0.25500000920E-02 0.  1.
        2   -1    0    0  501    0  0.00000000000E+00  0.00000000000E+00 -0.13526088332E+04  0.13526088332E+04  0.25500000920E-02 0. -1.
    10030    2    1    2    0    0  0.00000000000E+00  0.00000000000E+00 -0.29784984424E+03  0.24073678221E+04  0.23888711353E+04 0.  0.
        5    1    3    3  502    0 -0.10320176067E+04  0.22930664368E+03 -0.70911788936E+03  0.12729933811E+04  0.46999998093E+01 0. -1.
       -5    1    3    3    0  502  0.10320176067E+04 -0.22930664368E+03  0.41126804512E+03  0.11343744410E+04  0.46999998093E+01 0.  1.
</event>
<event>
 5   0  0.2149029E-06  0.2401493E+04  0.7818609E-02  0.8438945E-01
        1   -1    0    0  501    0  0.00000000000E+00  0.00000000000E+00  0.16490411850E+04  0.16490411851E+04  0.50400001928E-02 0. -1.
       -1   -1    0    0    0  501  0.00000000000E+00  0.00000000000E+00 -0.87432120362E+03  0.87432120364E+03  0.50400001928E-02 0.  1.
    10030    2    1    2    0    0  0.00000000000E+00  0.00000000000E+00  0.77471998142E+03  0.25233623887E+04  0.24014925973E+04 0.  0.
        4    1    3    3  502    0 -0.36973328394E+03  0.51007498683E+03 -0.68672338867E+03  0.93191728114E+03  0.12699999809E+01 0.  1.
       -4    1    3    3    0  502  0.36973328394E+03 -0.51007498683E+03  0.14614433701E+04  0.15914451075E+04  0.12699999809E+01 0. -1.
</event>
<event>
 5   0  0.2149417E-06  0.2398361E+04  0.7818609E-02  0.8440118E-01
        1   -1    0    0  501    0  0.00000000000E+00  0.00000000000E+00  0.10873520534E+04  0.10873520534E+04  0.50400001928E-02 0. -1.
       -1   -1    0    0    0  501  0.00000000000E+00  0.00000000000E+00 -0.13225094569E+04  0.13225094569E+04  0.50400001928E-02 0.  1.
    10030    2    1    2    0    0  0.00000000000E+00  0.00000000000E+00 -0.23515740350E+03  0.24098615103E+04  0.23983605847E+04 0.  0.
        5    1    3    3  502    0  0.43172054047E+03 -0.85067059624E+03  0.61253367967E+03  0.11336854445E+04  0.46999998093E+01 0. -1.
       -5    1    3    3    0  502 -0.43172054047E+03  0.85067059624E+03 -0.84769108317E+03  0.12761760658E+04  0.46999998093E+01 0.  1.
</event>
<event>
 5   0  0.2297414E-06  0.2392141E+04  0.7818609E-02  0.8442452E-01
        1   -1    0    0  501    0  0.00000000000E+00  0.00000000000E+00  0.11760233914E+04  0.11760233914E+04  0.50400001928E-02 0.  1.
       -1   -1    0    0    0  501  0.00000000000E+00  0.00000000000E+00 -0.12164593226E+04  0.12164593226E+04  0.50400001928E-02 0. -1.
    10030    2    1    2    0    0  0.00000000000E+00  0.00000000000E+00 -0.40435931272E+02  0.23924827140E+04  0.23921409808E+04 0.  0.
        1    1    3    3  502    0 -0.22873815462E+03  0.59232359424E+03  0.99354226328E+03  0.11791075492E+04  0.50400001928E-02 0.  1.
       -1    1    3    3    0  502  0.22873815462E+03 -0.59232359424E+03 -0.10339781945E+04  0.12133751648E+04  0.50400001928E-02 0. -1.
</event>
<event>
 5   0  0.5371843E-06  0.2399574E+04  0.7818609E-02  0.8439663E-01
       -2   -1    0    0    0  501  0.00000000000E+00  0.00000000000E+00  0.83119163166E+03  0.83119163166E+03  0.25500000920E-02 0.  1.
        2   -1    0    0  501    0  0.00000000000E+00  0.00000000000E+00 -0.17318379725E+04  0.17318379725E+04  0.25500000920E-02 0. -1.
    10030    2    1    2    0    0  0.00000000000E+00  0.00000000000E+00 -0.90064634080E+03  0.25630296041E+04  0.23995743207E+04 0.  0.
        4    1    3    3  502    0 -0.73870006261E+03 -0.30625032049E+02 -0.14596086025E+04  0.16361768121E+04  0.12699999809E+01 0. -1.
       -4    1    3    3    0  502  0.73870006261E+03  0.30625032049E+02  0.55896226173E+03  0.92685279199E+03  0.12699999809E+01 0.  1.
</event>
<event>
 5   0  0.5371843E-06  0.2469230E+04  0.7818609E-02  0.8414030E-01
        2   -1    0    0  501    0  0.00000000000E+00  0.00000000000E+00  0.25248450394E+04  0.25248450394E+04  0.25500000920E-02 0. -1.
       -2   -1    0    0    0  501  0.00000000000E+00  0.00000000000E+00 -0.60370976792E+03  0.60370976793E+03  0.25500000920E-02 0.  1.
    10030    2    1    2    0    0  0.00000000000E+00  0.00000000000E+00  0.19211352715E+04  0.31285548073E+04  0.24692295258E+04 0.  0.
        4    1    3    3  502    0  0.25626397495E+03 -0.82921681375E+03 -0.15195681819E+03  0.88111533669E+03  0.12699999809E+01 0.  1.
       -4    1    3    3    0  502 -0.25626397495E+03  0.82921681375E+03  0.20730920897E+04  0.22474394706E+04  0.12699999809E+01 0. -1.
</event>
<event>
 5   0  0.1796750E-06  0.2402069E+04  0.7818609E-02  0.8438729E-01
        3   -1    0    0  501    0  0.00000000000E+00  0.00000000000E+00  0.15678668889E+04  0.15678668922E+04  0.10100000352E+00 0. -1.
       -3   -1    0    0    0  501  0.00000000000E+00  0.00000000000E+00 -0.92002933155E+03  0.92002933709E+03  0.10100000352E+00 0.  1.
    10030    2    1    2    0    0  0.00000000000E+00  0.00000000000E+00  0.64783755739E+03  0.24878962293E+04  0.24020687224E+04 0.  0.
        3    1    3    3  502    0  0.34429754264E+03 -0.90641072695E+03  0.10580190144E+04  0.14351046822E+04  0.10100000352E+00 0. -1.
       -3    1    3    3    0  502 -0.34429754264E+03  0.90641072695E+03 -0.41018145701E+03  0.10527915471E+04  0.10100000352E+00 0.  1.
</event>
<event>
 5   0  0.5268358E-06  0.2414359E+04  0.7818609E-02  0.8434147E-01
       -2   -1    0    0    0  501  0.00000000000E+00  0.00000000000E+00  0.94150757630E+03  0.94150757630E+03  0.25500000920E-02 0.  1.
        2   -1    0    0  501    0  0.00000000000E+00  0.00000000000E+00 -0.15478173760E+04  0.15478173760E+04  0.25500000920E-02 0. -1.
    10030    2    1    2    0    0  0.00000000000E+00  0.00000000000E+00 -0.60630979974E+03  0.24893249523E+04  0.24143585370E+04 0.  0.
        2    1    3    3  502    0  0.99835639465E+03  0.36309485648E+03 -0.89430593570E+03  0.13886455531E+04  0.25500000920E-02 0. -1.
       -2    1    3    3    0  502 -0.99835639465E+03 -0.36309485648E+03  0.28799613596E+03  0.11006793992E+04  0.25500000920E-02 0.  1.
</event>
<event>
 5   0  0.2254269E-06  0.2398764E+04  0.7818609E-02  0.8439966E-01
        1   -1    0    0  501    0  0.00000000000E+00  0.00000000000E+00  0.13466733725E+04  0.13466733725E+04  0.50400001928E-02 0.  1.
       -1   -1    0    0    0  501  0.00000000000E+00  0.00000000000E+00 -0.10682004737E+04  0.10682004737E+04  0.50400001928E-02 0. -1.
    10030    2    1    2    0    0  0.00000000000E+00  0.00000000000E+00  0.27847289879E+03  0.24148738462E+04  0.23987639603E+04 0.  0.
        2    1    3    3  502    0  0.90699771379E+03 -0.18701166299E+03  0.90652234862E+03  0.12959170434E+04  0.25500000920E-02 0.  1.
       -2    1    3    3    0  502 -0.90699771379E+03  0.18701166299E+03 -0.62804944983E+03  0.11189568027E+04  0.25500000920E-02 0. -1.
</event>
<event>
 5   0  0.2215700E-06  0.2401732E+04  0.7818609E-02  0.8438855E-01
       -1   -1    0    0    0  501  0.00000000000E+00  0.00000000000E+00  0.74150555931E+03  0.74150555933E+03  0.50400001928E-02 0. -1.
        1   -1    0    0  501    0  0.00000000000E+00  0.00000000000E+00 -0.19447991749E+04  0.19447991749E+04  0.50400001928E-02 0.  1.
    10030    2    1    2    0    0  0.00000000000E+00  0.00000000000E+00 -0.12032936156E+04  0.26863047342E+04  0.24017322082E+04 0.  0.
        3    1    3    3  502    0  0.85211094229E+03  0.84349389285E+03 -0.67671369756E+03  0.13767775579E+04  0.10100000352E+00 0.  1.
       -3    1    3    3    0  502 -0.85211094229E+03 -0.84349389285E+03 -0.52657991799E+03  0.13095271763E+04  0.10100000352E+00 0. -1.
</event>
<event>
 5   0  0.5379778E-06  0.2399902E+04  0.7818609E-02  0.8439540E-01
       -2   -1    0    0    0  501  0.00000000000E+00  0.00000000000E+00  0.99803149042E+03  0.99803149042E+03  0.25500000920E-02 0. -1.
        2   -1    0    0  501    0  0.00000000000E+00  0.00000000000E+00 -0.14427229838E+04  0.14427229838E+04  0.25500000920E-02 0.  1.
    10030    2    1    2    0    0  0.00000000000E+00  0.00000000000E+00 -0.44469149338E+03  0.24407544742E+04  0.23999024728E+04 0.  0.
        5    1    3    3  502    0  0.11244176619E+04  0.11429603580E+03 -0.63229813407E+03  0.12950682154E+04  0.46999998093E+01 0.  1.
       -5    1    3    3    0  502 -0.11244176619E+04 -0.11429603580E+03  0.18760664069E+03  0.11456862589E+04  0.46999998093E+01 0. -1.
</event>
<event>
 5   0  0.5349036E-06  0.2401184E+04  0.7818609E-02  0.8439060E-01
        2   -1    0    0  501    0  0.00000000000E+00  0.00000000000E+00  0.82690926141E+03  0.82690926141E+03  0.25500000920E-02 0.  1.
       -2   -1    0    0    0  501  0.00000000000E+00  0.00000000000E+00 -0.17431433957E+04  0.17431433957E+04  0.25500000920E-02 0. -1.
    10030    2    1    2    0    0  0.00000000000E+00  0.00000000000E+00 -0.91623413431E+03  0.25700526571E+04  0.24011842227E+04 0.  0.
        1    1    3    3  502    0  0.25877078743E+03 -0.10075919739E+04  0.18338090882E+03  0.10563297137E+04  0.50400001928E-02 0.  1.
       -1    1    3    3    0  502 -0.25877078743E+03  0.10075919739E+04 -0.10996150431E+04  0.15137229434E+04  0.50400001928E-02 0. -1.
</event>
<event>
 5   0  0.2149029E-06  0.2400328E+04  0.7818609E-02  0.8439381E-01
        1   -1    0    0  501    0  0.00000000000E+00  0.00000000000E+00  0.68895075176E+03  0.68895075178E+03  0.50400001928E-02 0. -1.
       -1   -1    0    0    0  501  0.00000000000E+00  0.00000000000E+00 -0.20907068397E+04  0.20907068397E+04  0.50400001928E-02 0.  1.
    10030    2    1    2    0    0  0.00000000000E+00  0.00000000000E+00 -0.14017560879E+04  0.27796575915E+04  0.24003283517E+04 0.  0.
        4    1    3    3  502    0  0.71862836937E+03 -0.90467990962E+03 -0.10770513408E+04  0.15795295742E+04  0.12699999809E+01 0. -1.
       -4    1    3    3    0  502 -0.71862836937E+03  0.90467990962E+03 -0.32470474712E+03  0.12001280173E+04  0.12699999809E+01 0.  1.
</event>
<event>
 5   0  0.2149029E-06  0.2400935E+04  0.7818609E-02  0.8439154E-01
        1   -1    0    0  501    0  0.00000000000E+00  0.00000000000E+00  0.16710826721E+04  0.16710826721E+04  0.50400001928E-02 0. -1.
       -1   -1    0    0    0  501  0.00000000000E+00  0.00000000000E+00 -0.86238849416E+03  0.86238849417E+03  0.50400001928E-02 0.  1.
    10030    2    1    2    0    0  0.00000000000E+00  0.00000000000E+00  0.80869417796E+03  0.25334711663E+04  0.24009352088E+04 0.  0.
        4    1    3    3  502    0 -0.22954048561E+03 -0.96521507380E+03 -0.30882561823E+03  0.10390879889E+04  0.12699999809E+01 0.  1.
       -4    1    3    3    0  502  0.22954048561E+03  0.96521507380E+03  0.11175197962E+04  0.14943831774E+04  0.12699999809E+01 0. -1.
</event>
<event>
 5   0  0.2149417E-06  0.2398942E+04  0.7818609E-02  0.8439900E-01
        1   -1    0    0  501    0  0.00000000000E+00  0.00000000000E+00  0.14683455891E+04  0.14683455891E+04  0.50400001928E-02 0. -1.
       -1   -1    0    0    0  501  0.00000000000E+00  0.00000000000E+00 -0.97983070508E+03  0.97983070509E+03  0.50400001928E-02 0.  1.
    10030    2    1    2    0    0  0.00000000000E+00  0.00000000000E+00  0.48851488405E+03  0.24481762942E+04  0.23989415115E+04 0.  0.
        5    1    3    3  502    0 -0.10845692493E+04 -0.49546761377E+03  0.11147406893E+03  0.11975922390E+04  0.46999998093E+01 0. -1.
       -5    1    3    3    0  502  0.10845692493E+04  0.49546761377E+03  0.37704081513E+03  0.12505840552E+04  0.46999998093E+01 0.  1.
</event>
<event>
 5   0  0.5371843E-06  0.2396842E+04  0.7818609E-02  0.8440687E-01
       -2   -1    0    0    0  501  0.00000000000E+00  0.00000000000E+00  0.69099386982E+03  0.69099386983E+03  0.25500000920E-02 0.  1.
        2   -1    0    0  501    0  0.00000000000E+00  0.00000000000E+00 -0.20784734920E+04  0.20784734920E+04  0.25500000920E-02 0. -1.
    10030    2    1    2    0    0  0.00000000000E+00  0.00000000000E+00 -0.13874796222E+04  0.27694673618E+04  0.23968416231E+04 0.  0.
        4    1    3    3  502    0 -0.45240892791E+02  0.98642144507E+03 -0.14783822877E+04  0.17778328963E+04  0.12699999809E+01 0. -1.
       -4    1    3    3    0  502  0.45240892791E+02 -0.98642144507E+03  0.90902665549E+02  0.99163446551E+03  0.12699999809E+01 0.  1.
</event>
<event>
 5   0  0.2149417E-06  0.2400916E+04  0.7818609E-02  0.8439161E-01
       -1   -1    0    0    0  501  0.00000000000E+00  0.00000000000E+00  0.77418569507E+03  0.77418569508E+03  0.50400001928E-02 0. -1.
        1   -1    0    0  501    0  0.00000000000E+00  0.00000000000E+00 -0.18614383944E+04  0.18614383944E+04  0.50400001928E-02 0.  1.
    10030    2    1    2    0    0  0.00000000000E+00  0.00000000000E+00 -0.10872526993E+04  0.26356240895E+04  0.24009156397E+04 0.  0.
        5    1    3    3  502    0  0.10699839703E+04  0.20865563611E+03  0.81802104551E+01  0.10901797453E+04  0.46999998093E+01 0. -1.
       -5    1    3    3    0  502 -0.10699839703E+04 -0.20865563611E+03 -0.10954329098E+04  0.15454443442E+04  0.46999998093E+01 0.  1.
</event>
<event>
 5   0  0.5440503E-06  0.2444790E+04  0.7818609E-02  0.8422923E-01
        2   -1    0    0  501    0  0.00000000000E+00  0.00000000000E+00  0.13231445653E+04  0.13231445653E+04  0.25500000920E-02 0. -1.
       -2   -1    0    0    0  501  0.00000000000E+00  0.00000000000E+00 -0.11293165106E+04  0.11293165106E+04  0.25500000920E-02 0.  1.
    10030    2    1    2    0    0  0.00000000000E+00  0.00000000000E+00  0.19382805474E+03  0.24524610759E+04  0.24447895643E+04 0.  0.
        3    1    3    3  502    0 -0.10841367701E+04 -0.90487813869E+01  0.66332247882E+03  0.12709961203E+04  0.10100000352E+00 0. -1.
       -3    1    3    3    0  502  0.10841367701E+04  0.90487813869E+01 -0.46949442408E+03  0.11814649556E+04  0.10100000352E+00 0.  1.
</event>
<event>
 5   0  0.5440503E-06  0.2397862E+04  0.7818609E-02  0.8440305E-01
       -2   -1    0    0    0  501  0.00000000000E+00  0.00000000000E+00  0.14990041446E+04  0.14990041446E+04  0.25500000920E-02 0.  1.
        2   -1    0    0  501    0  0.00000000000E+00  0.00000000000E+00 -0.95892675643E+03  0.95892675643E+03  0.25500000920E-02 0. -1.
    10030    2    1    2    0    0  0.00000000000E+00  0.00000000000E+00  0.54007738818E+03  0.24579309010E+04  0.23978616993E+04 0.  0.
        3    1    3    3  502    0 -0.59731579468E+03 -0.98628804714E+03 -0.66647938118E+02  0.11549858131E+04  0.10100000352E+00 0.  1.
       -3    1    3    3    0  502  0.59731579468E+03  0.98628804714E+03  0.60672532630E+03  0.13029450880E+04  0.10100000352E+00 0. -1.
</event>
<event>
 5   0  0.2149417E-06  0.2400231E+04  0.7818609E-02  0.8439417E-01
        1   -1    0    0  501    0  0.00000000000E+00  0.00000000000E+00  0.27036812025E+04  0.27036812025E+04  0.50400001928E-02 0. -1.
       -1   -1    0    0    0  501  0.00000000000E+00  0.00000000000E+00 -0.53270949393E+03  0.53270949396E+03  0.50400001928E-02 0.  1.
    10030    2    1    2    0    0  0.00000000000E+00  0.00000000000E+00  0.21709717086E+04  0.32363906965E+04  0.24002305266E+04 0.  0.
        5    1    3    3  502    0 -0.96813457549E+03 -0.20841605448E+03  0.17144370700E+03  0.10050556416E+04  0.46999998093E+01 0.  1.
       -5    1    3    3    0  502  0.96813457549E+03  0.20841605448E+03  0.19995280016E+04  0.22313350549E+04  0.46999998093E+01 0. -1.
</event>
<event>
 5   0  0.5440503E-06  0.2401153E+04  0.7818609E-02  0.8439072E-01
        2   -1    0    0  501    0  0.00000000000E+00  0.00000000000E+00  0.21658345769E+04  0.21658345769E+04  0.25500000920E-02 0. -1.
       -2   -1    0    0    0  501  0.00000000000E+00  0.00000000000E+00 -0.66550947536E+03  0.66550947536E+03  0.25500000920E-02 0.  1.
    10030    2    1    2    0    0  0.00000000000E+00  0.00000000000E+00  0.15003251016E+04  0.28313440523E+04  0.24011525841E+04 0.  0.
        3    1    3    3  502    0  0.60699469182E+03  0.96866426885E+02  0.19662181401E+04  0.20600581169E+04  0.10100000352E+00 0. -1.
       -3    1    3    3    0  502 -0.60699469182E+03 -0.96866426885E+02 -0.46589303851E+03  0.77128593536E+03  0.10100000352E+00 0.  1.
</event>
<event>
 5   0  0.5268358E-06  0.2398804E+04  0.7818609E-02  0.8439952E-01
       -2   -1    0    0    0  501  0.00000000000E+00  0.00000000000E+00  0.12771251727E+04  0.12771251727E+04  0.25500000920E-02 0.  1.
        2   -1    0    0  501    0  0.00000000000E+00  0.00000000000E+00 -0.11264085547E+04  0.11264085547E+04  0.25500000920E-02 0. -1.
    10030    2    1    2    0    0  0.00000000000E+00  0.00000000000E+00  0.15071661794E+03  0.24035337274E+04  0.23988036351E+04 0.  0.
        2    1    3    3  502    0 -0.89042309641E+03  0.48002559579E+03 -0.57033995036E+03  0.11612775388E+04  0.25500000920E-02 0. -1.
       -2    1    3    3    0  502  0.89042309641E+03 -0.48002559579E+03  0.72105656830E+03  0.12422561885E+04  0.25500000920E-02 0.  1.
</event>
<event>
 5   0  0.5349036E-06  0.2396496E+04  0.7818609E-02  0.8440817E-01
       -2   -1    0    0    0  501  0.00000000000E+00  0.00000000000E+00  0.13255899088E+04  0.13255899088E+04  0.25500000920E-02 0.  1.
        2   -1    0    0  501    0  0.00000000000E+00  0.00000000000E+00 -0.10831390375E+04  0.10831390375E+04  0.25500000920E-02 0. -1.
    10030    2    1    2    0    0  0.00000000000E+00  0.00000000000E+00  0.24245087130E+03  0.24087289462E+04  0.23964959235E+04 0.  0.
        1    1    3    3  502    0  0.21169976158E+03 -0.10836119294E+04  0.58918399484E+03  0.12514668922E+04  0.50400001928E-02 0.  1.
       -1    1    3    3    0  502 -0.21169976158E+03  0.10836119294E+04 -0.34673312354E+03  0.11572620540E+04  0.50400001928E-02 0. -1.
</event>
<event>
 5   0  0.2215700E-06  0.2402625E+04  0.7818609E-02  0.8438521E-01
       -1   -1    0    0    0  501  0.00000000000E+00  0.00000000000E+00  0.91300923875E+03  0.91300923877E+03  0.50400001928E-02 0. -1.
        1   -1    0    0  501    0  0.00000000000E+00  0.00000000000E+00 -0.15806541805E+04  0.15806541805E+04  0.50400001928E-02 0.  1.
    10030    2    1    2    0    0  0.00000000000E+00  0.00000000000E+00 -0.66764494174E+03  0.24936634193E+04  0.24026251227E+04 0.  0.
        3    1    3    3  502    0  0.79556013153E+03  0.74564983491E+03 -0.85715254303E+03  0.13869463189E+04  0.10100000352E+00 0.  1.
       -3    1    3    3    0  502 -0.79556013153E+03 -0.74564983491E+03  0.18950760129E+03  0.11067171004E+04  0.10100000352E+00 0. -1.
</event>
<event>
 5   0  0.5371843E-06  0.2399385E+04  0.7818609E-02  0.8439734E-01
        2   -1    0    0  501    0  0.00000000000E+00  0.00000000000E+00  0.97247661492E+03  0.97247661492E+03  0.25500000920E-02 0.  1.
       -2   -1    0    0    0  501  0.00000000000E+00  0.00000000000E+00 -0.14799968879E+04  0.14799968879E+04  0.25500000920E-02 0. -1.
    10030    2    1    2    0    0  0.00000000000E+00  0.00000000000E+00 -0.50752027295E+03  0.24524735028E+04  0.23993852243E+04 0.  0.
        4    1    3    3  502    0 -0.62536888815E+03 -0.12094630256E+03 -0.12928888685E+04  0.14412763419E+04  0.12699999809E+01 0. -1.
       -4    1    3    3    0  502  0.62536888815E+03  0.12094630256E+03  0.78536859560E+03  0.10111971609E+04  0.12699999809E+01 0.  1.
</event>
<event>
 5   0  0.5371843E-06  0.2336734E+04  0.7818609E-02  0.8463576E-01
       -2   -1    0    0    0  501  0.00000000000E+00  0.00000000000E+00  0.90434917870E+03  0.90434917871E+03  0.25500000920E-02 0. -1.
        2   -1    0    0  501    0  0.00000000000E+00  0.00000000000E+00 -0.15094634069E+04  0.15094634069E+04  0.25500000920E-02 0.  1.
    10030    2    1    2    0    0  0.00000000000E+00  0.00000000000E+00 -0.60511422818E+03  0.24138125856E+04  0.23367344670E+04 0.  0.
        4    1    3    3  502    0 -0.37729943073E+03 -0.10991593655E+04 -0.42726291830E+03  0.12381685610E+04  0.12699999809E+01 0.  1.
       -4    1    3    3    0  502  0.37729943073E+03  0.10991593655E+04 -0.17785130988E+03  0.11756440246E+04  0.12699999809E+01 0. -1.
</event>
<event>
 5   0  0.5379778E-06  0.2400450E+04  0.7818609E-02  0.8439335E-01
       -2   -1    0    0    0  501  0.00000000000E+00  0.00000000000E+00  0.91016024608E+03  0.91016024608E+03  0.25500000920E-02 0. -1.
        2   -1    0    0  501    0  0.00000000000E+00  0.00000000000E+00 -0.15827326021E+04  0.15827326021E+04  0.25500000920E-02 0.  1.
    10030    2    1    2    0    0  0.00000000000E+00  0.00000000000E+00 -0.67257235605E+03  0.24928928482E+04  0.24004502033E+04 0.  0.
        5    1    3    3  502    0  0.11661351363E+04  0.14894986741E+03 -0.58738459626E+03  0.13141917566E+04  0.46999998093E+01 0.  1.
       -5    1    3    3    0  502 -0.11661351363E+04 -0.14894986741E+03 -0.85187759790E+02  0.11787010917E+04  0.46999998093E+01 0. -1.
</event>
<event>
 5   0  0.2149029E-06  0.2400047E+04  0.7818609E-02  0.8439486E-01
       -1   -1    0    0    0  501  0.00000000000E+00  0.00000000000E+00  0.10667596152E+04  0.10667596152E+04  0.50400001928E-02 0. -1.
        1   -1    0    0  501    0  0.00000000000E+00  0.00000000000E+00 -0.13499352244E+04  0.13499352244E+04  0.50400001928E-02 0.  1.
    10030    2    1    2    0    0  0.00000000000E+00  0.00000000000E+00 -0.28317560917E+03  0.24166948396E+04  0.24000469833E+04 0.  0.
        4    1    3    3  502    0  0.13520277281E+03  0.11663338600E+04  0.10800309847E+03  0.11791016686E+04  0.12699999809E+01 0. -1.
       -4    1    3    3    0  502 -0.13520277281E+03 -0.11663338600E+04 -0.39117870764E+03  0.12375931710E+04  0.12699999809E+01 0.  1.
</event>
<event>
 5   0  0.2254269E-06  0.2400489E+04  0.7818609E-02  0.8439320E-01
       -1   -1    0    0    0  501  0.00000000000E+00  0.00000000000E+00  0.23197500977E+04  0.23197500977E+04  0.50400001928E-02 0. -1.
        1   -1    0    0  501    0  0.00000000000E+00  0.00000000000E+00 -0.62100954491E+03  0.62100954493E+03  0.50400001928E-02 0.  1.
    10030    2    1    2    0    0  0.00000000000E+00  0.00000000000E+00  0.16987405528E+04  0.29407596426E+04  0.24004890773E+04 0.  0.
        2    1    3    3  502    0 -0.76576254061E+03 -0.75567555296E+03  0.19749063049E+03  0.10938191620E+04  0.25500000920E-02 0. -1.
       -2    1    3    3    0  502  0.76576254061E+03  0.75567555296E+03  0.15012499223E+04  0.18469404807E+04  0.25500000920E-02 0.  1.
</event>
<event>
 5   0  0.5440503E-06  0.2403061E+04  0.7818609E-02  0.8438358E-01
       -2   -1    0    0    0  501  0.00000000000E+00  0.00000000000E+00  0.13484833063E+04  0.13484833063E+04  0.25500000920E-02 0. -1.
        2   -1    0    0  501    0  0.00000000000E+00  0.00000000000E+00 -0.10705924686E+04  0.10705924686E+04  0.25500000920E-02 0.  1.
    10030    2    1    2    0    0  0.00000000000E+00  0.00000000000E+00  0.27789083761E+03  0.24190757749E+04  0.24030614406E+04 0.  0.
        3    1    3    3  502    0 -0.96199748445E+03  0.65759140916E+03 -0.15594092592E+03  0.11756628786E+04  0.10100000352E+00 0.  1.
       -3    1    3    3    0  502  0.96199748445E+03 -0.65759140916E+03  0.43383176352E+03  0.12434128963E+04  0.10100000352E+00 0. -1.
</event>
<event>
 5   0  0.5349036E-06  0.2398044E+04  0.7818609E-02  0.8440236E-01
       -2   -1    0    0    0  501  0.00000000000E+00  0.00000000000E+00  0.13458194181E+04  0.13458194181E+04  0.25500000920E-02 0.  1.
        2   -1    0    0  501    0  0.00000000000E+00  0.00000000000E+00 -0.10682363956E+04  0.10682363956E+04  0.25500000920E-02 0. -1.
    10030    2    1    2    0    0  0.00000000000E+00  0.00000000000E+00  0.27758302244E+03  0.24140558137E+04  0.23980436063E+04 0.  0.
        1    1    3    3  502    0 -0.49062941424E+03 -0.56371054124E+03  0.10826910926E+04  0.13155633008E+04  0.50400001928E-02 0.  1.
       -1    1    3    3    0  502  0.49062941424E+03  0.56371054124E+03 -0.80510807012E+03  0.10984925130E+04  0.50400001928E-02 0. -1.
</event>
<event>
 5   0  0.5371843E-06  0.2400449E+04  0.7818609E-02  0.8439336E-01
       -2   -1    0    0    0  501  0.00000000000E+00  0.00000000000E+00  0.63675748578E+03  0.63675748579E+03  0.25500000920E-02 0.  1.
        2   -1    0    0  501    0  0.00000000000E+00  0.00000000000E+00 -0.22623031195E+04  0.22623031195E+04  0.25500000920E-02 0. -1.
    10030    2    1    2    0    0  0.00000000000E+00  0.00000000000E+00 -0.16255456337E+04  0.28990606053E+04  0.24004486634E+04 0.  0.
        4    1    3    3  502    0 -0.19072592974E+03 -0.63611106735E+03  0.39465535177E+03  0.77250768919E+03  0.12699999809E+01 0.  1.
       -4    1    3    3    0  502  0.19072592974E+03  0.63611106735E+03 -0.20202009855E+04  0.21265529161E+04  0.12699999809E+01 0. -1.
</event>
<event>
 5   0  0.2215700E-06  0.2386387E+04  0.7818609E-02  0.8444618E-01
       -1   -1    0    0    0  501  0.00000000000E+00  0.00000000000E+00  0.11110199966E+04  0.11110199966E+04  0.50400001928E-02 0.  1.
        1   -1    0    0  501    0  0.00000000000E+00  0.00000000000E+00 -0.12814446830E+04  0.12814446830E+04  0.50400001928E-02 0. -1.
    10030    2    1    2    0    0  0.00000000000E+00  0.00000000000E+00 -0.17042468638E+03  0.23924646796E+04  0.23863869488E+04 0.  0.
        3    1    3    3  502    0  0.12921828686E+03 -0.11529535411E+04 -0.36469000563E+03  0.12161406350E+04  0.10100000352E+00 0. -1.
       -3    1    3    3    0  502 -0.12921828686E+03  0.11529535411E+04  0.19426531925E+03  0.11763240447E+04  0.10100000352E+00 0.  1.
</event>
<event>
 5   0  0.2297414E-06  0.2400336E+04  0.7818609E-02  0.8439378E-01
       -1   -1    0    0    0  501  0.00000000000E+00  0.00000000000E+00  0.15270620575E+04  0.15270620575E+04  0.50400001928E-02 0. -1.
        1   -1    0    0  501    0  0.00000000000E+00  0.00000000000E+00 -0.94325163385E+03  0.94325163386E+03  0.50400001928E-02 0.  1.
    10030    2    1    2    0    0  0.00000000000E+00  0.00000000000E+00  0.58381042363E+03  0.24703136913E+04  0.24003364604E+04 0.  0.
        1    1    3    3  502    0  0.81750917505E+03 -0.83195225545E+03  0.92962541086E+00  0.11663904453E+04  0.50400001928E-02 0.  1.
       -1    1    3    3    0  502 -0.81750917505E+03  0.83195225545E+03  0.58288079822E+03  0.13039232461E+04  0.50400001928E-02 0. -1.
</event>
<event>
 5   0  0.2149029E-06  0.2405285E+04  0.7818609E-02  0.8437528E-01
       -1   -1    0    0    0  501  0.00000000000E+00  0.00000000000E+00  0.76606590126E+03  0.76606590128E+03  0.50400001928E-02 0. -1.
        1   -1    0    0  501    0  0.00000000000E+00  0.00000000000E+00 -0.18880218482E+04  0.18880218483E+04  0.50400001928E-02 0.  1.
    10030    2    1    2    0    0  0.00000000000E+00  0.00000000000E+00 -0.11219559470E+04  0.26540877495E+04  0.24052851463E+04 0.  0.
        4    1    3    3  502    0  0.93070065900E+03  0.59847208006E+03 -0.10808551350E+04  0.15468102609E+04  0.12699999809E+01 0.  1.
       -4    1    3    3    0  502 -0.93070065900E+03 -0.59847208006E+03 -0.41100811955E+02  0.11072774887E+04  0.12699999809E+01 0. -1.
</event>
<event>
 5   0  0.5349036E-06  0.2398465E+04  0.7818609E-02  0.8440078E-01
       -2   -1    0    0    0  501  0.00000000000E+00  0.00000000000E+00  0.89544306118E+03  0.89544306118E+03  0.25500000920E-02 0.  1.
        2   -1    0    0  501    0  0.00000000000E+00  0.00000000000E+00 -0.16060863191E+04  0.16060863191E+04  0.25500000920E-02 0. -1.
    10030    2    1    2    0    0  0.00000000000E+00  0.00000000000E+00 -0.71064325791E+03  0.25015293803E+04  0.23984652177E+04 0.  0.
        1    1    3    3  502    0  0.79281875189E+03  0.87648698852E+03 -0.56745235725E+03  0.13110275330E+04  0.50400001928E-02 0. -1.
       -1    1    3    3    0  502 -0.79281875189E+03 -0.87648698852E+03 -0.14319090065E+03  0.11905018473E+04  0.50400001928E-02 0.  1.
</event>
<event>
 5   0  0.5371843E-06  0.2399046E+04  0.7818609E-02  0.8439861E-01
       -2   -1    0    0    0  501  0.00000000000E+00  0.00000000000E+00  0.13268564006E+04  0.13268564006E+04  0.25500000920E-02 0.  1.
        2   -1    0    0  501    0  0.00000000000E+00  0.00000000000E+00 -0.10844093987E+04  0.10844093987E+04  0.25500000920E-02 0. -1.
    10030    2    1    2    0    0  0.00000000000E+00  0.00000000000E+00  0.24244700189E+03  0.24112657993E+04  0.23990461034E+04 0.  0.
        4    1    3    3  502    0 -0.38431925962E+03  0.64663670719E+03 -0.81788765662E+03  0.11112075216E+04  0.12699999809E+01 0. -1.
       -4    1    3    3    0  502  0.38431925962E+03 -0.64663670719E+03  0.10603346585E+04  0.13000582777E+04  0.12699999809E+01 0.  1.
</event>
<event>
 5   0  0.2149417E-06  0.2404033E+04  0.7818609E-02  0.8437995E-01
       -1   -1    0    0    0  501  0.00000000000E+00  0.00000000000E+00  0.88935521306E+03  0.88935521308E+03  0.50400001928E-02 0. -1.
        1   -1    0    0  501    0  0.00000000000E+00  0.00000000000E+00 -0.16245962694E+04  0.16245962694E+04  0.50400001928E-02 0.  1.
    10030    2    1    2    0    0  0.00000000000E+00  0.00000000000E+00 -0.73524105636E+03  0.25139514825E+04  0.24040325799E+04 0.  0.
        5    1    3    3  502    0  0.22496727019E+03 -0.32290579178E+03 -0.15553068194E+04  0.16043315791E+04  0.46999998093E+01 0.  1.
       -5    1    3    3    0  502 -0.22496727019E+03  0.32290579178E+03  0.82006576306E+03  0.90961990345E+03  0.46999998093E+01 0. -1.
</event>
<event>
 5   0  0.5349036E-06  0.2396885E+04  0.7818609E-02  0.8440671E-01
        2   -1    0    0  501    0  0.00000000000E+00  0.00000000000E+00  0.23192146609E+04  0.23192146609E+04  0.25500000920E-02 0. -1.
       -2   -1    0    0    0  501  0.00000000000E+00  0.00000000000E+00 -0.61928906804E+03  0.61928906804E+03  0.25500000920E-02 0.  1.
    10030    2    1    2    0    0  0.00000000000E+00  0.00000000000E+00  0.16999255929E+04  0.29385037289E+04  0.23968848833E+04 0.  0.
        1    1    3    3  502    0 -0.68329458929E+03 -0.94998359054E+03  0.53285639637E+03  0.12858056841E+04  0.50400001928E-02 0. -1.
       -1    1    3    3    0  502  0.68329458929E+03  0.94998359054E+03  0.11670691965E+04  0.16526980449E+04  0.50400001928E-02 0.  1.
</event>
<event>
 5   0  0.2215700E-06  0.2400545E+04  0.7818609E-02  0.8439299E-01
        1   -1    0    0  501    0  0.00000000000E+00  0.00000000000E+00  0.11198858832E+04  0.11198858832E+04  0.50400001928E-02 0.  1.
       -1   -1    0    0    0  501  0.00000000000E+00  0.00000000000E+00 -0.12864297923E+04  0.12864297923E+04  0.50400001928E-02 0. -1.
    10030    2    1    2    0    0  0.00000000000E+00  0.00000000000E+00 -0.16654390908E+03  0.24063156756E+04  0.24005454082E+04 0.  0.
        3    1    3    3  502    0 -0.61283648226E+03 -0.77378678804E+03  0.60126045066E+03  0.11557805532E+04  0.10100000352E+00 0.  1.
       -3    1    3    3    0  502  0.61283648226E+03  0.77378678804E+03 -0.76780435973E+03  0.12505351224E+04  0.10100000352E+00 0. -1.
</event>
<event>
 5   0  0.1796750E-06  0.2471898E+04  0.7818609E-02  0.8413066E-01
       -3   -1    0    0    0  501  0.00000000000E+00  0.00000000000E+00  0.21410733133E+04  0.21410733156E+04  0.10100000352E+00 0.  1.
        3   -1    0    0  501    0  0.00000000000E+00  0.00000000000E+00 -0.71345989935E+03  0.71345990650E+03  0.10100000352E+00 0. -1.
    10030    2    1    2    0    0  0.00000000000E+00  0.00000000000E+00  0.14276134139E+04  0.28545332221E+04  0.24718980272E+04 0.  0.
        4    1    3    3  502    0  0.96947440790E+03  0.66559236268E+03  0.27456801282E+03  0.12075939000E+04  0.12699999809E+01 0. -1.
       -4    1    3    3    0  502 -0.96947440790E+03 -0.66559236268E+03  0.11530454011E+04  0.16469393221E+04  0.12699999809E+01 0.  1.
</event>
<event>
 5   0  0.2149417E-06  0.2398347E+04  0.7818609E-02  0.8440123E-01
       -1   -1    0    0    0  501  0.00000000000E+00  0.00000000000E+00  0.52519458430E+03  0.52519458432E+03  0.50400001928E-02 0.  1.
        1   -1    0    0  501    0  0.00000000000E+00  0.00000000000E+00 -0.27380646417E+04  0.27380646417E+04  0.50400001928E-02 0. -1.
    10030    2    1    2    0    0  0.00000000000E+00  0.00000000000E+00 -0.22128700574E+04  0.32632592260E+04  0.23983466983E+04 0.  0.
        5    1    3    3  502    0 -0.39971523255E+03 -0.10754116445E+04 -0.15811212155E+04  0.19535221678E+04  0.46999998093E+01 0. -1.
       -5    1    3    3    0  502  0.39971523255E+03  0.10754116445E+04 -0.63174884189E+03  0.13097370581E+04  0.46999998093E+01 0.  1.
</event>
<event>
 5   0  0.2254269E-06  0.2400046E+04  0.7818609E-02  0.8439486E-01
        1   -1    0    0  501    0  0.00000000000E+00  0.00000000000E+00  0.15992216644E+04  0.15992216644E+04  0.50400001928E-02 0. -1.
       -1   -1    0    0    0  501  0.00000000000E+00  0.00000000000E+00 -0.90047262034E+03  0.90047262035E+03  0.50400001928E-02 0.  1.
    10030    2    1    2    0    0  0.00000000000E+00  0.00000000000E+00  0.69874904410E+03  0.24996942848E+04  0.24000461018E+04 0.  0.
        2    1    3    3  502    0 -0.31451927352E+03 -0.11412695049E+04  0.14465075623E+03  0.11926199300E+04  0.25500000920E-02 0.  1.
       -2    1    3    3    0  502  0.31451927352E+03  0.11412695049E+04  0.55409828787E+03  0.13070743548E+04  0.25500000920E-02 0. -1.
</event>
<event>
 5   0  0.5379778E-06  0.2397838E+04  0.7818609E-02  0.8440313E-01
        2   -1    0    0  501    0  0.00000000000E+00  0.00000000000E+00  0.10455778669E+04  0.10455778669E+04  0.25500000920E-02 0. -1.
       -2   -1    0    0    0  501  0.00000000000E+00  0.00000000000E+00 -0.13747490529E+04  0.13747490529E+04  0.25500000920E-02 0.  1.
    10030    2    1    2    0    0  0.00000000000E+00  0.00000000000E+00 -0.32917118594E+03  0.24203269198E+04  0.23978383451E+04 0.  0.
        5    1    3    3  502    0  0.54767675153E+03 -0.10653451151E+04 -0.21480209555E+03  0.12169930438E+04  0.46999998093E+01 0. -1.
       -5    1    3    3    0  502 -0.54767675153E+03  0.10653451151E+04 -0.11436909040E+03  0.12033338760E+04  0.46999998093E+01 0.  1.
</event>
<event>
 5   0  0.5371843E-06  0.2398348E+04  0.7818609E-02  0.8440122E-01
       -2   -1    0    0    0  501  0.00000000000E+00  0.00000000000E+00  0.59747024724E+03  0.59747024724E+03  0.25500000920E-02 0.  1.
        2   -1    0    0  501    0  0.00000000000E+00  0.00000000000E+00 -0.24068441641E+04  0.24068441641E+04  0.25500000920E-02 0. -1.
    10030    2    1    2    0    0  0.00000000000E+00  0.00000000000E+00 -0.18093739169E+04  0.30043144114E+04  0.23983475793E+04 0.  0.
        4    1    3    3  502    0  0.14965963471E+03  0.11259011843E+04 -0.13865374321E+04  0.17923557534E+04  0.12699999809E+01 0.  1.
       -4    1    3    3    0  502 -0.14965963471E+03 -0.11259011843E+04 -0.42283648476E+03  0.12119586580E+04  0.12699999809E+01 0. -1.
</event>
<event>
 5   0  0.2297414E-06  0.2396948E+04  0.7818609E-02  0.8440647E-01
        1   -1    0    0  501    0  0.00000000000E+00  0.00000000000E+00  0.76778895757E+03  0.76778895758E+03  0.50400001928E-02 0.  1.
       -1   -1    0    0    0  501  0.00000000000E+00  0.00000000000E+00 -0.18707478204E+04  0.18707478204E+04  0.50400001928E-02 0. -1.
    10030    2    1    2    0    0  0.00000000000E+00  0.00000000000E+00 -0.11029588629E+04  0.26385367780E+04  0.23969476581E+04 0.  0.
        1    1    3    3  502    0  0.10900335386E+03  0.10191671668E+04  0.13221333986E+03  0.10334717278E+04  0.50400001928E-02 0.  1.
       -1    1    3    3    0  502 -0.10900335386E+03 -0.10191671668E+04 -0.12351722027E+04  0.16050650502E+04  0.50400001928E-02 0. -1.
</event>
<event>
 5   0  0.5379778E-06  0.2398077E+04  0.7818609E-02  0.8440224E-01
        2   -1    0    0  501    0  0.00000000000E+00  0.00000000000E+00  0.13682059904E+04  0.13682059904E+04  0.25500000920E-02 0.  1.
       -2   -1    0    0    0  501  0.00000000000E+00  0.00000000000E+00 -0.10507871651E+04  0.10507871651E+04  0.25500000920E-02 0. -1.
    10030    2    1    2    0    0  0.00000000000E+00  0.00000000000E+00  0.31741882533E+03  0.24189931555E+04  0.23980769745E+04 0.  0.
        5    1    3    3  502    0  0.47044980937E+03 -0.86290778009E+02  0.12678001627E+04  0.13550307982E+04  0.46999998093E+01 0.  1.
       -5    1    3    3    0  502 -0.47044980937E+03  0.86290778009E+02 -0.95038133734E+03  0.10639623574E+04  0.46999998093E+01 0. -1.
</event>
<event>
 5   0  0.2149417E-06  0.2400775E+04  0.7818609E-02  0.8439214E-01
        1   -1    0    0  501    0  0.00000000000E+00  0.00000000000E+00  0.11484263949E+04  0.11484263950E+04  0.50400001928E-02 0.  1.
       -1   -1    0    0    0  501  0.00000000000E+00  0.00000000000E+00 -0.12546994676E+04  0.12546994676E+04  0.50400001928E-02 0. -1.
    10030    2    1    2    0    0  0.00000000000E+00  0.00000000000E+00 -0.10627307265E+03  0.24031258626E+04  0.24007748635E+04 0.  0.
        5    1    3    3  502    0 -0.27689491826E+03 -0.97664636343E+03 -0.69438777811E+03  0.12299208882E+04  0.46999998093E+01 0. -1.
       -5    1    3    3    0  502  0.27689491826E+03  0.97664636343E+03  0.58811470547E+03  0.11732049743E+04  0.46999998093E+01 0.  1.
</event>
<event>
 5   0  0.5440503E-06  0.2399355E+04  0.7818609E-02  0.8439745E-01
        2   -1    0    0  501    0  0.00000000000E+00  0.00000000000E+00  0.16485146185E+04  0.16485146185E+04  0.25500000920E-02 0. -1.
       -2   -1    0    0    0  501  0.00000000000E+00  0.00000000000E+00 -0.87304441229E+03  0.87304441230E+03  0.25500000920E-02 0.  1.
    10030    2    1    2    0    0  0.00000000000E+00  0.00000000000E+00  0.77547020619E+03  0.25215590308E+04  0.23993553103E+04 0.  0.
        3    1    3    3  502    0  0.95225404308E+03 -0.68292653372E+03  0.65782675400E+03  0.13438424244E+04  0.10100000352E+00 0. -1.
       -3    1    3    3    0  502 -0.95225404308E+03  0.68292653372E+03  0.11764345219E+03  0.11777166064E+04  0.10100000352E+00 0.  1.
</event>
<event>
 5   0  0.5379778E-06  0.2399535E+04  0.7818609E-02  0.8439678E-01
       -2   -1    0    0    0  501  0.00000000000E+00  0.00000000000E+00  0.71777906120E+03  0.71777906120E+03  0.25500000920E-02 0. -1.
        2   -1    0    0  501    0  0.00000000000E+00  0.00000000000E+00 -0.20054109972E+04  0.20054109972E+04  0.25500000920E-02 0.  1.
    10030    2    1    2    0    0  0.00000000000E+00  0.00000000000E+00 -0.12876319360E+04  0.27231900584E+04  0.23995349740E+04 0.  0.
        5    1    3    3  502    0  0.56140159559E+03  0.77858024926E+03 -0.14606640783E+04  0.17478331143E+04  0.46999998093E+01 0.  1.
       -5    1    3    3    0  502 -0.56140159559E+03 -0.77858024926E+03  0.17303214226E+03  0.97535694406E+03  0.46999998093E+01 0. -1.
</event>
<event>
 5   0  0.2149029E-06  0.2399154E+04  0.7818609E-02  0.8439820E-01
       -1   -1    0    0    0  501  0.00000000000E+00  0.00000000000E+00  0.50844638842E+03  0.50844638845E+03  0.50400001928E-02 0.  1.
        1   -1    0    0  501    0  0.00000000000E+00  0.00000000000E+00 -0.28301599505E+04  0.28301599505E+04  0.50400001928E-02 0. -1.
    10030    2    1    2    0    0  0.00000000000E+00  0.00000000000E+00 -0.23217135621E+04  0.33386063390E+04  0.23991536887E+04 0.  0.
        4    1    3    3  502    0  0.60546824542E+03 -0.99972121958E+03 -0.78500564989E+03  0.14079310339E+04  0.12699999809E+01 0. -1.
       -4    1    3    3    0  502 -0.60546824542E+03  0.99972121958E+03 -0.15367079122E+04  0.19306753050E+04  0.12699999809E+01 0.  1.
</event>
<event>
 5   0  0.5440503E-06  0.2424517E+04  0.7818609E-02  0.8430381E-01
       -2   -1    0    0    0  501  0.00000000000E+00  0.00000000000E+00  0.12001754396E+04  0.12001754396E+04  0.25500000920E-02 0. -1.
        2   -1    0    0  501    0  0.00000000000E+00  0.00000000000E+00 -0.12244633860E+04  0.12244633860E+04  0.25500000920E-02 0.  1.
    10030    2    1    2    0    0  0.00000000000E+00  0.00000000000E+00 -0.24287946387E+02  0.24246388256E+04  0.24245171747E+04 0.  0.
        3    1    3    3  502    0  0.22379804509E+03  0.11634644958E+03  0.11736426444E+04  0.12004412223E+04  0.10100000352E+00 0. -1.
       -3    1    3    3    0  502 -0.22379804509E+03 -0.11634644958E+03 -0.11979305908E+04  0.12241976033E+04  0.10100000352E+00 0.  1.
</event>
<event>
 5   0  0.5268358E-06  0.2392585E+04  0.7818609E-02  0.8442285E-01
        2   -1    0    0  501    0  0.00000000000E+00  0.00000000000E+00  0.15133348456E+04  0.15133348456E+04  0.25500000920E-02 0. -1.
       -2   -1    0    0    0  501  0.00000000000E+00  0.00000000000E+00 -0.94566987747E+03  0.94566987747E+03  0.25500000920E-02 0.  1.
    10030    2    1    2    0    0  0.00000000000E+00  0.00000000000E+00  0.56766496813E+03  0.24590047231E+04  0.23925845256E+04 0.  0.
        2    1    3    3  502    0  0.21697602647E+03 -0.92440398909E+03 -0.46404547484E+03  0.10568536010E+04  0.25500000920E-02 0.  1.
       -2    1    3    3    0  502 -0.21697602647E+03  0.92440398909E+03  0.10317104430E+04  0.14021511221E+04  0.25500000920E-02 0. -1.
</event>
<event>
 5   0  0.5371843E-06  0.2401069E+04  0.7818609E-02  0.8439103E-01
        2   -1    0    0  501    0  0.00000000000E+00  0.00000000000E+00  0.15366407952E+04  0.15366407952E+04  0.25500000920E-02 0.  1.
       -2   -1    0    0    0  501  0.00000000000E+00  0.00000000000E+00 -0.93794418478E+03  0.93794418479E+03  0.25500000920E-02 0. -1.
    10030    2    1    2    0    0  0.00000000000E+00  0.00000000000E+00  0.59869661043E+03  0.24745849800E+04  0.24010691768E+04 0.  0.
        4    1    3    3  502    0 -0.96665409979E+03  0.33396225404E+03 -0.34865615890E+03  0.10805154630E+04  0.12699999809E+01 0. -1.
       -4    1    3    3    0  502  0.96665409979E+03 -0.33396225404E+03  0.94735276933E+03  0.13940695170E+04  0.12699999809E+01 0.  1.
</event>
<event>
 5   0  0.5379778E-06  0.2400381E+04  0.7818609E-02  0.8439361E-01
       -2   -1    0    0    0  501  0.00000000000E+00  0.00000000000E+00  0.10417934992E+04  0.10417934992E+04  0.25500000920E-02 0. -1.
        2   -1    0    0  501    0  0.00000000000E+00  0.00000000000E+00 -0.13826707244E+04  0.13826707244E+04  0.25500000920E-02 0.  1.
    10030    2    1    2    0    0  0.00000000000E+00  0.00000000000E+00 -0.34087722520E+03  0.24244642237E+04  0.24003811133E+04 0.  0.
        5    1    3    3  502    0 -0.65593390224E+03  0.15208771295E+03 -0.11739130806E+04  0.13533196102E+04  0.46999998093E+01 0.  1.
       -5    1    3    3    0  502  0.65593390224E+03 -0.15208771295E+03  0.83303585542E+03  0.10711446135E+04  0.46999998093E+01 0. -1.
</event>
<event>
 5   0  0.5349036E-06  0.2397906E+04  0.7818609E-02  0.8440288E-01
       -2   -1    0    0    0  501  0.00000000000E+00  0.00000000000E+00  0.11690133160E+04  0.11690133160E+04  0.25500000920E-02 0.  1.
        2   -1    0    0  501    0  0.00000000000E+00  0.00000000000E+00 -0.12296589941E+04  0.12296589941E+04  0.25500000920E-02 0. -1.
    10030    2    1    2    0    0  0.00000000000E+00  0.00000000000E+00 -0.60645678084E+02  0.23986723101E+04  0.23979055346E+04 0.  0.
        1    1    3    3  502    0 -0.11274363279E+04 -0.34433259392E+03 -0.24904803393E+03  0.12048661884E+04  0.50400001928E-02 0. -1.
       -1    1    3    3    0  502  0.11274363279E+04  0.34433259392E+03  0.18840235584E+03  0.11938061218E+04  0.50400001928E-02 0.  1.
</event>
<event>
 5   0  0.5349036E-06  0.2398424E+04  0.7818609E-02  0.8440094E-01
       -2   -1    0    0    0  501  0.00000000000E+00  0.00000000000E+00  0.90621888796E+03  0.90621888796E+03  0.25500000920E-02 0.  1.
        2   -1    0    0  501    0  0.00000000000E+00  0.00000000000E+00 -0.15869335149E+04  0.15869335149E+04  0.25500000920E-02 0. -1.
    10030    2    1    2    0    0  0.00000000000E+00  0.00000000000E+00 -0.68071462697E+03  0.24931524029E+04  0.23984237534E+04 0.  0.
        1    1    3    3  502    0  0.40411682192E+03  0.70724057499E+03 -0.12552376991E+04  0.14963693788E+04  0.50400001928E-02 0. -1.
       -1    1    3    3    0  502 -0.40411682192E+03 -0.70724057499E+03  0.57452307211E+03  0.99678302407E+03  0.50400001928E-02 0.  1.
</event>
<event>
 5   0  0.2297414E-06  0.2397157E+04  0.7818609E-02  0.8440569E-01
        1   -1    0    0  501    0  0.00000000000E+00  0.00000000000E+00  0.23982883731E+04  0.23982883731E+04  0.50400001928E-02 0.  1.
       -1   -1    0    0    0  501  0.00000000000E+00  0.00000000000E+00 -0.59900661301E+03  0.59900661303E+03  0.50400001928E-02 0. -1.
    10030    2    1    2    0    0  0.00000000000E+00  0.00000000000E+00  0.17992817601E+04  0.29972949862E+04  0.23971571458E+04 0.  0.
        1    1    3    3  502    0 -0.12708873228E+03 -0.40003829119E+03 -0.50410543455E+03  0.65597596713E+03  0.50400001928E-02 0. -1.
       -1    1    3    3    0  502  0.12708873228E+03  0.40003829119E+03  0.23033871947E+04  0.23413190190E+04  0.50400001928E-02 0.  1.
</event>
<event>
 5   0  0.2254269E-06  0.2410802E+04  0.7818609E-02  0.8435471E-01
       -1   -1    0    0    0  501  0.00000000000E+00  0.00000000000E+00  0.66895263184E+03  0.66895263186E+03  0.50400001928E-02 0.  1.
        1   -1    0    0  501    0  0.00000000000E+00  0.00000000000E+00 -0.21720390861E+04  0.21720390861E+04  0.50400001928E-02 0. -1.
    10030    2    1    2    0    0  0.00000000000E+00  0.00000000000E+00 -0.15030864543E+04  0.28409917180E+04  0.24108017448E+04 0.  0.
        2    1    3    3  502    0  0.94162426244E+02 -0.13944599663E+03  0.65504526644E+03  0.67631061620E+03  0.25500000920E-02 0.  1.
       -2    1    3    3    0  502 -0.94162426244E+02  0.13944599663E+03 -0.21581317207E+04  0.21646811018E+04  0.25500000920E-02 0. -1.
</event>
<event>
 5   0  0.5349036E-06  0.2400236E+04  0.7818609E-02  0.8439415E-01
        2   -1    0    0  501    0  0.00000000000E+00  0.00000000000E+00  0.11571729498E+04  0.11571729499E+04  0.25500000920E-02 0. -1.
       -2   -1    0    0    0  501  0.00000000000E+00  0.00000000000E+00 -0.12446572721E+04  0.12446572721E+04  0.25500000920E-02 0.  1.
    10030    2    1    2    0    0  0.00000000000E+00  0.00000000000E+00 -0.87484322220E+02  0.24018302219E+04  0.24002364276E+04 0.  0.
        1    1    3    3  502    0  0.12483398731E+03  0.55024342607E+03  0.10161742651E+04  0.11623086894E+04  0.50400001928E-02 0. -1.
       -1    1    3    3    0  502 -0.12483398731E+03 -0.55024342607E+03 -0.11036585873E+04  0.12395215326E+04  0.50400001928E-02 0.  1.
</event>
<event>
 5   0  0.2149417E-06  0.2400852E+04  0.7818609E-02  0.8439184E-01
       -1   -1    0    0    0  501  0.00000000000E+00  0.00000000000E+00  0.68527661511E+03  0.68527661513E+03  0.50400001928E-02 0.  1.
        1   -1    0    0  501    0  0.00000000000E+00  0.00000000000E+00 -0.21028341698E+04  0.21028341698E+04  0.50400001928E-02 0. -1.
    10030    2    1    2    0    0  0.00000000000E+00  0.00000000000E+00 -0.14175575547E+04  0.27881107850E+04  0.24008524170E+04 0.  0.
        5    1    3    3  502    0 -0.10801629377E+04 -0.28237650441E+03 -0.19660380428E+03  0.11336505670E+04  0.46999998093E+01 0.  1.
       -5    1    3    3    0  502  0.10801629377E+04  0.28237650441E+03 -0.12209537504E+04  0.16544602180E+04  0.46999998093E+01 0. -1.
</event>
<event>
 5   0  0.5379778E-06  0.2413925E+04  0.7818609E-02  0.8434309E-01
        2   -1    0    0  501    0  0.00000000000E+00  0.00000000000E+00  0.12446270376E+04  0.12446270376E+04  0.25500000920E-02 0. -1.
       -2   -1    0    0    0  501  0.00000000000E+00  0.00000000000E+00 -0.11704378749E+04  0.11704378749E+04  0.25500000920E-02 0.  1.
    10030    2    1    2    0    0  0.00000000000E+00  0.00000000000E+00  0.74189162717E+02  0.24150649125E+04  0.24139251231E+04 0.  0.
        5    1    3    3  502    0  0.56799156793E+03  0.30252981250E+03 -0.98446434063E+03  0.11761508563E+04  0.46999998093E+01 0.  1.
       -5    1    3    3    0  502 -0.56799156793E+03 -0.30252981250E+03  0.10586535033E+04  0.12389140563E+04  0.46999998093E+01 0. -1.
</event>
<event>
 5   0  0.2215700E-06  0.2401226E+04  0.7818609E-02  0.8439045E-01
       -1   -1    0    0    0  501  0.00000000000E+00  0.00000000000E+00  0.85921634531E+03  0.85921634532E+03  0.50400001928E-02 0.  1.
        1   -1    0    0  501    0  0.00000000000E+00  0.00000000000E+00 -0.16776581245E+04  0.16776581245E+04  0.50400001928E-02 0. -1.
    10030    2    1    2    0    0  0.00000000000E+00  0.00000000000E+00 -0.81844177917E+03  0.25368744698E+04  0.24012257557E+04 0.  0.
        3    1    3    3  502    0 -0.61669039840E+02  0.36145837680E+02  0.85696622645E+03  0.85994227453E+03  0.10100000352E+00 0.  1.
       -3    1    3    3    0  502  0.61669039840E+02 -0.36145837680E+02 -0.16754080056E+04  0.16769321953E+04  0.10100000352E+00 0. -1.
</event>
<event>
 5   0  0.5268358E-06  0.2397691E+04  0.7818609E-02  0.8440369E-01
       -2   -1    0    0    0  501  0.00000000000E+00  0.00000000000E+00  0.13809093744E+04  0.13809093744E+04  0.25500000920E-02 0. -1.
        2   -1    0    0  501    0  0.00000000000E+00  0.00000000000E+00 -0.10407853283E+04  0.10407853283E+04  0.25500000920E-02 0.  1.
    10030    2    1    2    0    0  0.00000000000E+00  0.00000000000E+00  0.34012404607E+03  0.24216947027E+04  0.23976907362E+04 0.  0.
        2    1    3    3  502    0  0.24792792729E+03  0.79751773666E+02  0.13519917183E+04  0.13768479251E+04  0.25500000920E-02 0. -1.
       -2    1    3    3    0  502 -0.24792792729E+03 -0.79751773666E+02 -0.10118676722E+04  0.10448467776E+04  0.25500000920E-02 0.  1.
</event>
<event>
 5   0  0.2149029E-06  0.2404267E+04  0.7818609E-02  0.8437908E-01
       -1   -1    0    0    0  501  0.00000000000E+00  0.00000000000E+00  0.73144724261E+03  0.73144724263E+03  0.50400001928E-02 0.  1.
        1   -1    0    0  501    0  0.00000000000E+00  0.00000000000E+00 -0.19757066164E+04  0.19757066164E+04  0.50400001928E-02 0. -1.
    10030    2    1    2    0    0  0.00000000000E+00  0.00000000000E+00 -0.12442593737E+04  0.27071538590E+04  0.24042671705E+04 0.  0.
        4    1    3    3  502    0 -0.66144218122E+03  0.88005117369E+03 -0.11657894202E+04  0.16034532774E+04  0.12699999809E+01 0. -1.
       -4    1    3    3    0  502  0.66144218122E+03 -0.88005117369E+03 -0.78469953506E+02  0.11037005816E+04  0.12699999809E+01 0.  1.
</event>
<event>
 5   0  0.2149417E-06  0.2401921E+04  0.7818609E-02  0.8438785E-01
        1   -1    0    0  501    0  0.00000000000E+00  0.00000000000E+00  0.15463356939E+04  0.15463356939E+04  0.50400001928E-02 0.  1.
       -1   -1    0    0    0  501  0.00000000000E+00  0.00000000000E+00 -0.93272495524E+03  0.93272495525E+03  0.50400001928E-02 0. -1.
    10030    2    1    2    0    0  0.00000000000E+00  0.00000000000E+00  0.61361073866E+03  0.24790606492E+04  0.24019208071E+04 0.  0.
        5    1    3    3  502    0  0.11541143514E+04  0.10280576537E+03 -0.19145327372E+02  0.11588518435E+04  0.46999998093E+01 0. -1.
       -5    1    3    3    0  502 -0.11541143514E+04 -0.10280576537E+03  0.63275606603E+03  0.13202088057E+04  0.46999998093E+01 0.  1.
</event>
<event>
 5   0  0.2215700E-06  0.2400859E+04  0.7818609E-02  0.8439182E-01
        1   -1    0    0  501    0  0.00000000000E+00  0.00000000000E+00  0.12568230621E+04  0.12568230621E+04  0.50400001928E-02 0.  1.
       -1   -1    0    0    0  501  0.00000000000E+00  0.00000000000E+00 -0.11465661590E+04  0.11465661591E+04  0.50400001928E-02 0. -1.
    10030    2    1    2    0    0  0.00000000000E+00  0.00000000000E+00  0.11025690301E+03  0.24033892211E+04  0.24008588387E+04 0.  0.
        3    1    3    3  502    0 -0.10483262174E+04  0.41884802567E+03 -0.35347971565E+03  0.11829494691E+04  0.10100000352E+00 0. -1.
       -3    1    3    3    0  502  0.10483262174E+04 -0.41884802567E+03  0.46373661866E+03  0.12204397521E+04  0.10100000352E+00 0.  1.
</event>
<event>
 5   0  0.2254269E-06  0.2412013E+04  0.7818609E-02  0.8435020E-01
       -1   -1    0    0    0  501  0.00000000000E+00  0.00000000000E+00  0.18668596319E+04  0.18668596319E+04  0.50400001928E-02 0. -1.
        1   -1    0    0  501    0  0.00000000000E+00  0.00000000000E+00 -0.77908988767E+03  0.77908988769E+03  0.50400001928E-02 0.  1.
    10030    2    1    2    0    0  0.00000000000E+00  0.00000000000E+00  0.10877697442E+04  0.26459495196E+04  0.24120128200E+04 0.  0.
        2    1    3    3  502    0 -0.69165222014E+03 -0.58695159545E+03 -0.32789742225E+03  0.96457850305E+03  0.25500000920E-02 0.  1.
       -2    1    3    3    0  502  0.69165222014E+03  0.58695159545E+03  0.14156671665E+04  0.16813710165E+04  0.25500000920E-02 0. -1.
</event>
<event>
 5   0  0.5440503E-06  0.2396017E+04  0.7818609E-02  0.8440996E-01
        2   -1    0    0  501    0  0.00000000000E+00  0.00000000000E+00  0.14886118659E+04  0.14886118659E+04  0.25500000920E-02 0. -1.
       -2   -1    0    0    0  501  0.00000000000E+00  0.00000000000E+00 -0.96413579012E+03  0.96413579013E+03  0.25500000920E-02 0.  1.
    10030    2    1    2    0    0  0.00000000000E+00  0.00000000000E+00  0.52447607582E+03  0.24527476561E+04  0.23960166757E+04 0.  0.
        3    1    3    3  502    0  0.34247115436E+03  0.11203834249E+04  0.59536322598E+01  0.11715720065E+04  0.10100000352E+00 0. -1.
       -3    1    3    3    0  502 -0.34247115436E+03 -0.11203834249E+04  0.51852244356E+03  0.12811756496E+04  0.10100000352E+00 0.  1.
</event>
<event>
 5   0  0.5349036E-06  0.2405668E+04  0.7818609E-02  0.8437385E-01
       -2   -1    0    0    0  501  0.00000000000E+00  0.00000000000E+00  0.64846014330E+03  0.64846014330E+03  0.25500000920E-02 0. -1.
        2   -1    0    0  501    0  0.00000000000E+00  0.00000000000E+00 -0.22311464093E+04  0.22311464093E+04  0.25500000920E-02 0.  1.
    10030    2    1    2    0    0  0.00000000000E+00  0.00000000000E+00 -0.15826862660E+04  0.28796065526E+04  0.24056679075E+04 0.  0.
        1    1    3    3  502    0  0.34018479505E+03 -0.95284941499E+03 -0.12678022793E+02  0.10118341933E+04  0.50400001928E-02 0. -1.
       -1    1    3    3    0  502 -0.34018479505E+03  0.95284941499E+03 -0.15700082432E+04  0.18677723593E+04  0.50400001928E-02 0.  1.
</event>
<event>
 5   0  0.2254269E-06  0.2398642E+04  0.7818609E-02  0.8440012E-01
       -1   -1    0    0    0  501  0.00000000000E+00  0.00000000000E+00  0.10008685256E+04  0.10008685256E+04  0.50400001928E-02 0. -1.
        1   -1    0    0  501    0  0.00000000000E+00  0.00000000000E+00 -0.14371232319E+04  0.14371232319E+04  0.50400001928E-02 0.  1.
    10030    2    1    2    0    0  0.00000000000E+00  0.00000000000E+00 -0.43625470632E+03  0.24379917576E+04  0.23986424580E+04 0.  0.
        2    1    3    3  502    0  0.61623057132E+03 -0.65214268616E+03 -0.10270101332E+04  0.13637375165E+04  0.25500000920E-02 0.  1.
       -2    1    3    3    0  502 -0.61623057132E+03  0.65214268616E+03  0.59075542687E+03  0.10742542411E+04  0.25500000920E-02 0. -1.
</event>
<event>
 5   0  0.2149029E-06  0.2399004E+04  0.7818609E-02  0.8439876E-01
       -1   -1    0    0    0  501  0.00000000000E+00  0.00000000000E+00  0.69341700092E+03  0.69341700093E+03  0.50400001928E-02 0.  1.
        1   -1    0    0  501    0  0.00000000000E+00  0.00000000000E+00 -0.20749495438E+04  0.20749495438E+04  0.50400001928E-02 0. -1.
    10030    2    1    2    0    0  0.00000000000E+00  0.00000000000E+00 -0.13815325429E+04  0.27683665448E+04  0.23990042016E+04 0.  0.
        4    1    3    3  502    0  0.80079003399E+03 -0.36654390681E+03  0.24897821818E+03  0.91521083920E+03  0.12699999809E+01 0.  1.
       -4    1    3    3    0  502 -0.80079003399E+03  0.36654390681E+03 -0.16305107611E+04  0.18531557056E+04  0.12699999809E+01 0. -1.
</event>
<event>
 5   0  0.2215700E-06  0.2384174E+04  0.7818609E-02  0.8445452E-01
       -1   -1    0    0    0  501  0.00000000000E+00  0.00000000000E+00  0.10600853270E+04  0.10600853270E+04  0.50400001928E-02 0. -1.
        1   -1    0    0  501    0  0.00000000000E+00  0.00000000000E+00 -0.13405255211E+04  0.13405255211E+04  0.50400001928E-02 0.  1.
    10030    2    1    2    0    0  0.00000000000E+00  0.00000000000E+00 -0.28044019408E+03  0.24006108481E+04  0.23841740167E+04 0.  0.
        3    1    3    3  502    0 -0.61958181948E+01 -0.32556466275E+03  0.10144380089E+04  0.10654178626E+04  0.10100000352E+00 0. -1.
       -3    1    3    3    0  502  0.61958181948E+01  0.32556466275E+03 -0.12948782030E+04  0.13351929855E+04  0.10100000352E+00 0.  1.
</event>
<event>
 5   0  0.2149029E-06  0.2397278E+04  0.7818609E-02  0.8440523E-01
       -1   -1    0    0    0  501  0.00000000000E+00  0.00000000000E+00  0.12683481909E+04  0.12683481909E+04  0.50400001928E-02 0. -1.
        1   -1    0    0  501    0  0.00000000000E+00  0.00000000000E+00 -0.11327615285E+04  0.11327615285E+04  0.50400001928E-02 0.  1.
    10030    2    1    2    0    0  0.00000000000E+00  0.00000000000E+00  0.13558666242E+03  0.24011097194E+04  0.23972784864E+04 0.  0.
        4    1    3    3  502    0 -0.11359625872E+04  0.37487354983E+03 -0.84416761013E+01  0.11962499959E+04  0.12699999809E+01 0.  1.
       -4    1    3    3    0  502  0.11359625872E+04 -0.37487354983E+03  0.14402833852E+03  0.12048597234E+04  0.12699999809E+01 0. -1.
</event>
<event>
 5   0  0.5268358E-06  0.2396825E+04  0.7818609E-02  0.8440693E-01
       -2   -1    0    0    0  501  0.00000000000E+00  0.00000000000E+00  0.16787055330E+04  0.16787055330E+04  0.25500000920E-02 0. -1.
        2   -1    0    0  501    0  0.00000000000E+00  0.00000000000E+00 -0.85553592751E+03  0.85553592751E+03  0.25500000920E-02 0.  1.
    10030    2    1    2    0    0  0.00000000000E+00  0.00000000000E+00  0.82316960545E+03  0.25342414605E+04  0.23968253129E+04 0.  0.
        2    1    3    3  502    0  0.35470111819E+03  0.10719337910E+04  0.83628248333E+03  0.14050705774E+04  0.25500000920E-02 0. -1.
       -2    1    3    3    0  502 -0.35470111819E+03 -0.10719337910E+04 -0.13112877884E+02  0.11291708831E+04  0.25500000920E-02 0.  1.
</event>
<event>
 5   0  0.5349036E-06  0.2400747E+04  0.7818609E-02  0.8439224E-01
       -2   -1    0    0    0  501  0.00000000000E+00  0.00000000000E+00  0.11098322435E+04  0.11098322435E+04  0.25500000920E-02 0.  1.
        2   -1    0    0  501    0  0.00000000000E+00  0.00000000000E+00 -0.12983015378E+04  0.12983015378E+04  0.25500000920E-02 0. -1.
    10030    2    1    2    0    0  0.00000000000E+00  0.00000000000E+00 -0.18846929435E+03  0.24081337813E+04  0.24007473073E+04 0.  0.
        1    1    3    3  502    0  0.48465655982E+03 -0.44361093543E+03 -0.11019220975E+04  0.12829321697E+04  0.50400001928E-02 0. -1.
       -1    1    3    3    0  502 -0.48465655982E+03  0.44361093543E+03  0.91345280318E+03  0.11252016116E+04  0.50400001928E-02 0.  1.
</event>
<event>
 5   0  0.2297414E-06  0.2427206E+04  0.7818609E-02  0.8429388E-01
       -1   -1    0    0    0  501  0.00000000000E+00  0.00000000000E+00  0.75816890466E+03  0.75816890467E+03  0.50400001928E-02 0.  1.
        1   -1    0    0  501    0  0.00000000000E+00  0.00000000000E+00 -0.19426176127E+04  0.19426176127E+04  0.50400001928E-02 0. -1.
    10030    2    1    2    0    0  0.00000000000E+00  0.00000000000E+00 -0.11844487081E+04  0.27007865174E+04  0.24272060214E+04 0.  0.
        1    1    3    3  502    0  0.73891199246E+03 -0.93673663018E+03 -0.83945186510E+03  0.14588166029E+04  0.50400001928E-02 0.  1.
       -1    1    3    3    0  502 -0.73891199246E+03  0.93673663018E+03 -0.34499684296E+03  0.12419699145E+04  0.50400001928E-02 0. -1.
</event>
<event>
 5   0  0.5268358E-06  0.2403175E+04  0.7818609E-02  0.8438316E-01
        2   -1    0    0  501    0  0.00000000000E+00  0.00000000000E+00  0.16349251846E+04  0.16349251846E+04  0.25500000920E-02 0.  1.
       -2   -1    0    0    0  501  0.00000000000E+00  0.00000000000E+00 -0.88310648949E+03  0.88310648950E+03  0.25500000920E-02 0. -1.
    10030    2    1    2    0    0  0.00000000000E+00  0.00000000000E+00  0.75181869512E+03  0.25180316741E+04  0.24031754329E+04 0.  0.
        2    1    3    3  502    0 -0.76380686214E+03  0.41849133014E+03 -0.49146950684E+03  0.10000390953E+04  0.25500000920E-02 0. -1.
       -2    1    3    3    0  502  0.76380686214E+03 -0.41849133014E+03  0.12432882020E+04  0.15179925788E+04  0.25500000920E-02 0.  1.
</event>
<event>
 5   0  0.2215700E-06  0.2395384E+04  0.7818609E-02  0.8441234E-01
       -1   -1    0    0    0  501  0.00000000000E+00  0.00000000000E+00  0.81989878757E+03  0.81989878759E+03  0.50400001928E-02 0. -1.
        1   -1    0    0  501    0  0.00000000000E+00  0.00000000000E+00 -0.17495652334E+04  0.17495652334E+04  0.50400001928E-02 0.  1.
    10030    2    1    2    0    0  0.00000000000E+00  0.00000000000E+00 -0.92966644578E+03  0.25694640210E+04  0.23953842394E+04 0.  0.
        3    1    3    3  502    0  0.64419118897E+03  0.21514022364E+03 -0.15230341443E+04  0.16676032558E+04  0.10100000352E+00 0.  1.
       -3    1    3    3    0  502 -0.64419118897E+03 -0.21514022364E+03  0.59336769857E+03  0.90186076513E+03  0.10100000352E+00 0. -1.
</event>
<event>
 5   0  0.5349036E-06  0.2402347E+04  0.7818609E-02  0.8438626E-01
       -2   -1    0    0    0  501  0.00000000000E+00  0.00000000000E+00  0.57286063846E+03  0.57286063847E+03  0.25500000920E-02 0. -1.
        2   -1    0    0  501    0  0.00000000000E+00  0.00000000000E+00 -0.25186182963E+04  0.25186182963E+04  0.25500000920E-02 0.  1.
    10030    2    1    2    0    0  0.00000000000E+00  0.00000000000E+00 -0.19457576578E+04  0.30914789348E+04  0.24023465905E+04 0.  0.
        1    1    3    3  502    0  0.96033561400E+03  0.34975639996E+03 -0.16078755909E+03  0.10346142615E+04  0.50400001928E-02 0. -1.
       -1    1    3    3    0  502 -0.96033561400E+03 -0.34975639996E+03 -0.17849700987E+04  0.20568646733E+04  0.50400001928E-02 0.  1.
</event>
<event>
 5   0  0.2215700E-06  0.2398728E+04  0.7818609E-02  0.8439980E-01
       -1   -1    0    0    0  501  0.00000000000E+00  0.00000000000E+00  0.90491793390E+03  0.90491793391E+03  0.50400001928E-02 0. -1.
        1   -1    0    0  501    0  0.00000000000E+00  0.00000000000E+00 -0.15896179311E+04  0.15896179311E+04  0.50400001928E-02 0.  1.
    10030    2    1    2    0    0  0.00000000000E+00  0.00000000000E+00 -0.68469999719E+03  0.24945358650E+04  0.23987278077E+04 0.  0.
        3    1    3    3  502    0 -0.44513219424E+03  0.43007643755E+03  0.72599174594E+03  0.95402957913E+03  0.10100000352E+00 0. -1.
       -3    1    3    3    0  502  0.44513219424E+03 -0.43007643755E+03 -0.14106917431E+04  0.15405062859E+04  0.10100000352E+00 0.  1.
</event>
<event>
 5   0  0.1796750E-06  0.2402263E+04  0.7818609E-02  0.8438657E-01
       -4   -1    0    0    0  501  0.00000000000E+00  0.00000000000E+00  0.59144001534E+03  0.59144137887E+03  0.12699999809E+01 0.  1.
        4   -1    0    0  501    0  0.00000000000E+00  0.00000000000E+00 -0.24393245274E+04  0.24393248580E+04  0.12699999809E+01 0. -1.
    10030    2    1    2    0    0  0.00000000000E+00  0.00000000000E+00 -0.18478845120E+04  0.30307662369E+04  0.24022628525E+04 0.  0.
        3    1    3    3  502    0  0.59201600926E+03  0.10012961461E+04 -0.13016729449E+04  0.17456888020E+04  0.10100000352E+00 0. -1.
       -3    1    3    3    0  502 -0.59201600926E+03 -0.10012961461E+04 -0.54621156710E+03  0.12850774349E+04  0.10100000352E+00 0.  1.
</event>
<event>
 5   0  0.5349036E-06  0.2399909E+04  0.7818609E-02  0.8439537E-01
       -2   -1    0    0    0  501  0.00000000000E+00  0.00000000000E+00  0.68993776799E+03  0.68993776799E+03  0.25500000920E-02 0.  1.
        2   -1    0    0  501    0  0.00000000000E+00  0.00000000000E+00 -0.20869872759E+04  0.20869872759E+04  0.25500000920E-02 0. -1.
    10030    2    1    2    0    0  0.00000000000E+00  0.00000000000E+00 -0.13970495079E+04  0.27769250439E+04  0.23999094508E+04 0.  0.
        1    1    3    3  502    0 -0.76270705380E+03  0.51378809177E+03 -0.15904580341E+04  0.18371872554E+04  0.50400001928E-02 0. -1.
       -1    1    3    3    0  502  0.76270705380E+03 -0.51378809177E+03  0.19340852616E+03  0.93973778852E+03  0.50400001928E-02 0.  1.
</event>
<event>
 5   0  0.2254269E-06  0.2404091E+04  0.7818609E-02  0.8437974E-01
       -1   -1    0    0    0  501  0.00000000000E+00  0.00000000000E+00  0.12057631935E+04  0.12057631935E+04  0.50400001928E-02 0.  1.
        1   -1    0    0  501    0  0.00000000000E+00  0.00000000000E+00 -0.11983388442E+04  0.11983388442E+04  0.50400001928E-02 0. -1.
    10030    2    1    2    0    0  0.00000000000E+00  0.00000000000E+00  0.74243492777E+01  0.24041020377E+04  0.24040905737E+04 0.  0.
        2    1    3    3  502    0 -0.77214606127E+03 -0.54929483444E+03 -0.73587131165E+03  0.11997670367E+04  0.25500000920E-02 0. -1.
       -2    1    3    3    0  502  0.77214606127E+03  0.54929483444E+03  0.74329566093E+03  0.12043350010E+04  0.25500000920E-02 0.  1.
</event>
<event>
 5   0  0.5268358E-06  0.2402860E+04  0.7818609E-02  0.8438433E-01
        2   -1    0    0  501    0  0.00000000000E+00  0.00000000000E+00  0.12603716901E+04  0.12603716901E+04  0.25500000920E-02 0. -1.
       -2   -1    0    0    0  501  0.00000000000E+00  0.00000000000E+00 -0.11452450709E+04  0.11452450709E+04  0.25500000920E-02 0.  1.
    10030    2    1    2    0    0  0.00000000000E+00  0.00000000000E+00  0.11512661922E+03  0.24056167610E+04  0.24028603502E+04 0.  0.
        2    1    3    3  502    0  0.62100005664E+03 -0.10081978511E+04  0.26109553350E+03  0.12125489083E+04  0.25500000920E-02 0. -1.
       -2    1    3    3    0  502 -0.62100005664E+03  0.10081978511E+04 -0.14596891428E+03  0.11930678528E+04  0.25500000920E-02 0.  1.
</event>
<event>
 5   0  0.5349036E-06  0.2399504E+04  0.7818609E-02  0.8439689E-01
        2   -1    0    0  501    0  0.00000000000E+00  0.00000000000E+00  0.13167294763E+04  0.13167294763E+04  0.25500000920E-02 0.  1.
       -2   -1    0    0    0  501  0.00000000000E+00  0.00000000000E+00 -0.10931664818E+04  0.10931664818E+04  0.25500000920E-02 0. -1.
    10030    2    1    2    0    0  0.00000000000E+00  0.00000000000E+00  0.22356299446E+03  0.24098959581E+04  0.23995037230E+04 0.  0.
        1    1    3    3  502    0  0.64570449543E+03 -0.86844136749E+03 -0.40841913094E+03  0.11566896259E+04  0.50400001928E-02 0. -1.
       -1    1    3    3    0  502 -0.64570449543E+03  0.86844136749E+03  0.63198212540E+03  0.12532063322E+04  0.50400001928E-02 0.  1.
</event>
<event>
 5   0  0.2254269E-06  0.2358525E+04  0.7818609E-02  0.8455196E-01
       -1   -1    0    0    0  501  0.00000000000E+00  0.00000000000E+00  0.10374203919E+04  0.10374203919E+04  0.50400001928E-02 0.  1.
        1   -1    0    0  501    0  0.00000000000E+00  0.00000000000E+00 -0.13404980466E+04  0.13404980466E+04  0.50400001928E-02 0. -1.
    10030    2    1    2    0    0  0.00000000000E+00  0.00000000000E+00 -0.30307765468E+03  0.23779184385E+04  0.23585249703E+04 0.  0.
        2    1    3    3  502    0 -0.59228454991E+03 -0.99851688706E+03  0.57100060394E+02  0.11623671445E+04  0.25500000920E-02 0. -1.
       -2    1    3    3    0  502  0.59228454991E+03  0.99851688706E+03 -0.36017771508E+03  0.12155512940E+04  0.25500000920E-02 0.  1.
</event>
<event>
 5   0  0.2149029E-06  0.2402829E+04  0.7818609E-02  0.8438445E-01
        1   -1    0    0  501    0  0.00000000000E+00  0.00000000000E+00  0.13228672776E+04  0.13228672776E+04  0.50400001928E-02 0. -1.
       -1   -1    0    0    0  501  0.00000000000E+00  0.00000000000E+00 -0.10911122078E+04  0.10911122078E+04  0.50400001928E-02 0.  1.
    10030    2    1    2    0    0  0.00000000000E+00  0.00000000000E+00  0.23175506982E+03  0.24139794854E+04  0.24028288628E+04 0.  0.
        4    1    3    3  502    0 -0.11554500352E+04  0.29214080573E+03 -0.36430717938E+02  0.11923673278E+04  0.12699999809E+01 0.  1.
       -4    1    3    3    0  502  0.11554500352E+04 -0.29214080573E+03  0.26818578776E+03  0.12216121577E+04  0.12699999809E+01 0. -1.
</event>
<event>
 5   0  0.5379778E-06  0.2395577E+04  0.7818609E-02  0.8441161E-01
        2   -1    0    0  501    0  0.00000000000E+00  0.00000000000E+00  0.19173212724E+04  0.19173212724E+04  0.25500000920E-02 0. -1.
       -2   -1    0    0    0  501  0.00000000000E+00  0.00000000000E+00 -0.74828189541E+03  0.74828189542E+03  0.25500000920E-02 0.  1.
    10030    2    1    2    0    0  0.00000000000E+00  0.00000000000E+00  0.11690393770E+04  0.26656031679E+04  0.23955765869E+04 0.  0.
        5    1    3    3  502    0 -0.10436527223E+03  0.77424563892E+03 -0.42574462086E+03  0.88973534920E+03  0.46999998093E+01 0.  1.
       -5    1    3    3    0  502  0.10436527223E+03 -0.77424563892E+03  0.15947839979E+04  0.17758678187E+04  0.46999998093E+01 0. -1.
</event>
<event>
 5   0  0.2149417E-06  0.2402923E+04  0.7818609E-02  0.8438410E-01
       -1   -1    0    0    0  501  0.00000000000E+00  0.00000000000E+00  0.52708586619E+03  0.52708586622E+03  0.50400001928E-02 0.  1.
        1   -1    0    0  501    0  0.00000000000E+00  0.00000000000E+00 -0.27386610825E+04  0.27386610825E+04  0.50400001928E-02 0. -1.
    10030    2    1    2    0    0  0.00000000000E+00  0.00000000000E+00 -0.22115752163E+04  0.32657469487E+04  0.24029228443E+04 0.  0.
        5    1    3    3  502    0  0.72175781111E+03  0.87635385475E+03 -0.16400899807E+04  0.19947049033E+04  0.46999998093E+01 0.  1.
       -5    1    3    3    0  502 -0.72175781111E+03 -0.87635385475E+03 -0.57148523565E+03  0.12710420454E+04  0.46999998093E+01 0. -1.
</event>
<event>
 5   0  0.2215700E-06  0.2400893E+04  0.7818609E-02  0.8439169E-01
        1   -1    0    0  501    0  0.00000000000E+00  0.00000000000E+00  0.96519230400E+03  0.96519230402E+03  0.50400001928E-02 0.  1.
       -1   -1    0    0    0  501  0.00000000000E+00  0.00000000000E+00 -0.14930406157E+04  0.14930406157E+04  0.50400001928E-02 0. -1.
    10030    2    1    2    0    0  0.00000000000E+00  0.00000000000E+00 -0.52784831168E+03  0.24582329197E+04  0.24008925939E+04 0.  0.
        3    1    3    3  502    0  0.23256397011E+03  0.41022138246E+03 -0.13942388319E+04  0.14718252319E+04  0.10100000352E+00 0. -1.
       -3    1    3    3    0  502 -0.23256397011E+03 -0.41022138246E+03  0.86639052020E+03  0.98640768778E+03  0.10100000352E+00 0.  1.
</event>
<event>
 5   0  0.5440503E-06  0.2401764E+04  0.7818609E-02  0.8438843E-01
        2   -1    0    0  501    0  0.00000000000E+00  0.00000000000E+00  0.79898790292E+03  0.79898790293E+03  0.25500000920E-02 0.  1.
       -2   -1    0    0    0  501  0.00000000000E+00  0.00000000000E+00 -0.18049305529E+04  0.18049305529E+04  0.25500000920E-02 0. -1.
    10030    2    1    2    0    0  0.00000000000E+00  0.00000000000E+00 -0.10059426500E+04  0.26039184559E+04  0.24017640829E+04 0.  0.
        3    1    3    3  502    0 -0.57234102171E+03  0.87567822531E+03  0.13634939660E+03  0.10549776147E+04  0.10100000352E+00 0. -1.
       -3    1    3    3    0  502  0.57234102171E+03 -0.87567822531E+03 -0.11422920466E+04  0.15489408411E+04  0.10100000352E+00 0.  1.
</event>
<event>
 5   0  0.5379778E-06  0.2382413E+04  0.7818609E-02  0.8446117E-01
       -2   -1    0    0    0  501  0.00000000000E+00  0.00000000000E+00  0.65069495167E+03  0.65069495167E+03  0.25500000920E-02 0.  1.
        2   -1    0    0  501    0  0.00000000000E+00  0.00000000000E+00 -0.21807044572E+04  0.21807044572E+04  0.25500000920E-02 0. -1.
    10030    2    1    2    0    0  0.00000000000E+00  0.00000000000E+00 -0.15300095055E+04  0.28313994089E+04  0.23824133826E+04 0.  0.
        5    1    3    3  502    0  0.78299319705E+03 -0.54046312316E+03 -0.16168671902E+04  0.18760224772E+04  0.46999998093E+01 0. -1.
       -5    1    3    3    0  502 -0.78299319705E+03  0.54046312316E+03  0.86857684729E+02  0.95537693165E+03  0.46999998093E+01 0.  1.
</event>
<event>
 5   0  0.2149417E-06  0.2399980E+04  0.7818609E-02  0.8439511E-01
       -1   -1    0    0    0  501  0.00000000000E+00  0.00000000000E+00  0.11267421979E+04  0.11267421979E+04  0.50400001928E-02 0.  1.
        1   -1    0    0  501    0  0.00000000000E+00  0.00000000000E+00 -0.12779993087E+04  0.12779993087E+04  0.50400001928E-02 0. -1.
    10030    2    1    2    0    0  0.00000000000E+00  0.00000000000E+00 -0.15125711086E+03  0.24047415066E+04  0.23999797916E+04 0.  0.
        5    1    3    3  502    0  0.54418434806E+03 -0.10538700496E+04 -0.25812991692E+03  0.12138500032E+04  0.46999998093E+01 0. -1.
       -5    1    3    3    0  502 -0.54418434806E+03  0.10538700496E+04  0.10687280606E+03  0.11908915034E+04  0.46999998093E+01 0.  1.
</event>
<event>
 5   0  0.2254269E-06  0.2388848E+04  0.7818609E-02  0.8443691E-01
        1   -1    0    0  501    0  0.00000000000E+00  0.00000000000E+00  0.13755957274E+04  0.13755957274E+04  0.50400001928E-02 0.  1.
       -1   -1    0    0    0  501  0.00000000000E+00  0.00000000000E+00 -0.10371130216E+04  0.10371130216E+04  0.50400001928E-02 0. -1.
    10030    2    1    2    0    0  0.00000000000E+00  0.00000000000E+00  0.33848270580E+03  0.24127087490E+04  0.23888476229E+04 0.  0.
        2    1    3    3  502    0  0.28844806441E+03 -0.11572004265E+04  0.23572536658E+03  0.12156815214E+04  0.25500000920E-02 0. -1.
       -2    1    3    3    0  502 -0.28844806441E+03  0.11572004265E+04  0.10275733922E+03  0.11970272276E+04  0.25500000920E-02 0.  1.
</event>
<event>
 5   0  0.5371843E-06  0.2396534E+04  0.7818609E-02  0.8440802E-01
        2   -1    0    0  501    0  0.00000000000E+00  0.00000000000E+00  0.17152494913E+04  0.17152494913E+04  0.25500000920E-02 0.  1.
       -2   -1    0    0    0  501  0.00000000000E+00  0.00000000000E+00 -0.83710499447E+03  0.83710499447E+03  0.25500000920E-02 0. -1.
    10030    2    1    2    0    0  0.00000000000E+00  0.00000000000E+00  0.87814449683E+03  0.25523544858E+04  0.23965340940E+04 0.  0.
        4    1    3    3  502    0  0.38125633360E+02 -0.11931779090E+04  0.32882751347E+03  0.12382472422E+04  0.12699999809E+01 0. -1.
       -4    1    3    3    0  502 -0.38125633360E+02  0.11931779090E+04  0.54931698336E+03  0.13141072435E+04  0.12699999809E+01 0.  1.
</event>
<event>
 5   0  0.1796750E-06  0.2425074E+04  0.7818609E-02  0.8430175E-01
        4   -1    0    0  501    0  0.00000000000E+00  0.00000000000E+00  0.12475611983E+04  0.12475618447E+04  0.12699999809E+01 0. -1.
       -4   -1    0    0    0  501  0.00000000000E+00  0.00000000000E+00 -0.11784948531E+04  0.11784955374E+04  0.12699999809E+01 0.  1.
    10030    2    1    2    0    0  0.00000000000E+00  0.00000000000E+00  0.69066345226E+02  0.24260573821E+04  0.24250740734E+04 0.  0.
        5    1    3    3  502    0  0.91281068347E+03  0.30229018803E+03 -0.70442814965E+03  0.11919915309E+04  0.46999998093E+01 0.  1.
       -5    1    3    3    0  502 -0.91281068347E+03 -0.30229018803E+03  0.77349449488E+03  0.12340658513E+04  0.46999998093E+01 0. -1.
</event>
<event>
 5   0  0.2297414E-06  0.2402933E+04  0.7818609E-02  0.8438406E-01
       -1   -1    0    0    0  501  0.00000000000E+00  0.00000000000E+00  0.13017434248E+04  0.13017434248E+04  0.50400001928E-02 0. -1.
        1   -1    0    0  501    0  0.00000000000E+00  0.00000000000E+00 -0.11089140821E+04  0.11089140822E+04  0.50400001928E-02 0.  1.
    10030    2    1    2    0    0  0.00000000000E+00  0.00000000000E+00  0.19282934263E+03  0.24106575069E+04  0.24029328872E+04 0.  0.
        1    1    3    3  502    0  0.10741179556E+04  0.41789334586E+03  0.43685403208E+03  0.12325606178E+04  0.50400001928E-02 0. -1.
       -1    1    3    3    0  502 -0.10741179556E+04 -0.41789334586E+03 -0.24402468945E+03  0.11780968892E+04  0.50400001928E-02 0.  1.
</event>
<event>
 5   0  0.5268358E-06  0.2396207E+04  0.7818609E-02  0.8440925E-01
       -2   -1    0    0    0  501  0.00000000000E+00  0.00000000000E+00  0.11190229749E+04  0.11190229749E+04  0.25500000920E-02 0. -1.
        2   -1    0    0  501    0  0.00000000000E+00  0.00000000000E+00 -0.12827728228E+04  0.12827728228E+04  0.25500000920E-02 0.  1.
    10030    2    1    2    0    0  0.00000000000E+00  0.00000000000E+00 -0.16374984786E+03  0.24017957977E+04  0.23962072200E+04 0.  0.
        2    1    3    3  502    0  0.31034986055E+03 -0.11002194591E+04 -0.44139288923E+03  0.12254091467E+04  0.25500000920E-02 0.  1.
       -2    1    3    3    0  502 -0.31034986055E+03  0.11002194591E+04  0.27764304136E+03  0.11763866510E+04  0.25500000920E-02 0. -1.
</event>
<event>
 5   0  0.2254269E-06  0.2339645E+04  0.7818609E-02  0.8462452E-01
       -1   -1    0    0    0  501  0.00000000000E+00  0.00000000000E+00  0.67166230128E+03  0.67166230130E+03  0.50400001928E-02 0. -1.
        1   -1    0    0  501    0  0.00000000000E+00  0.00000000000E+00 -0.20374586957E+04  0.20374586957E+04  0.50400001928E-02 0.  1.
    10030    2    1    2    0    0  0.00000000000E+00  0.00000000000E+00 -0.13657963944E+04  0.27091209970E+04  0.23396445853E+04 0.  0.
        2    1    3    3  502    0  0.72302157431E+03  0.88363797584E+03 -0.97790184298E+03  0.15032858290E+04  0.25500000920E-02 0.  1.
       -2    1    3    3    0  502 -0.72302157431E+03 -0.88363797584E+03 -0.38789455143E+03  0.12058351680E+04  0.25500000920E-02 0. -1.
</event>
<event>
 5   0  0.5349036E-06  0.2399478E+04  0.7818609E-02  0.8439699E-01
        2   -1    0    0  501    0  0.00000000000E+00  0.00000000000E+00  0.20415129375E+04  0.20415129375E+04  0.25500000920E-02 0.  1.
       -2   -1    0    0    0  501  0.00000000000E+00  0.00000000000E+00 -0.70505222393E+03  0.70505222394E+03  0.25500000920E-02 0. -1.
    10030    2    1    2    0    0  0.00000000000E+00  0.00000000000E+00  0.13364607136E+04  0.27465651614E+04  0.23994776405E+04 0.  0.
        1    1    3    3  502    0 -0.75301231126E+03 -0.33170614996E+03 -0.33117327662E+03  0.88697928386E+03  0.50400001928E-02 0. -1.
       -1    1    3    3    0  502  0.75301231126E+03  0.33170614996E+03  0.16676339902E+04  0.18595858776E+04  0.50400001928E-02 0.  1.
</event>
<event>
 5   0  0.2215700E-06  0.2399329E+04  0.7818609E-02  0.8439755E-01
       -1   -1    0    0    0  501  0.00000000000E+00  0.00000000000E+00  0.12377329270E+04  0.12377329270E+04  0.50400001928E-02 0. -1.
        1   -1    0    0  501    0  0.00000000000E+00  0.00000000000E+00 -0.11627666964E+04  0.11627666964E+04  0.50400001928E-02 0.  1.
    10030    2    1    2    0    0  0.00000000000E+00  0.00000000000E+00  0.74966230590E+02  0.24004996235E+04  0.23993287617E+04 0.  0.
        3    1    3    3  502    0  0.86472827400E+03  0.37097473265E+03 -0.70706911864E+03  0.11769978712E+04  0.10100000352E+00 0. -1.
       -3    1    3    3    0  502 -0.86472827400E+03 -0.37097473265E+03  0.78203534923E+03  0.12235017523E+04  0.10100000352E+00 0.  1.
</event>
<event>
 5   0  0.2215700E-06  0.2398456E+04  0.7818609E-02  0.8440082E-01
        1   -1    0    0  501    0  0.00000000000E+00  0.00000000000E+00  0.10800047017E+04  0.10800047017E+04  0.50400001928E-02 0. -1.
       -1   -1    0    0    0  501  0.00000000000E+00  0.00000000000E+00 -0.13316127059E+04  0.13316127059E+04  0.50400001928E-02 0.  1.
    10030    2    1    2    0    0  0.00000000000E+00  0.00000000000E+00 -0.25160800423E+03  0.24116174076E+04  0.23984561561E+04 0.  0.
        3    1    3    3  502    0 -0.89481321500E+03  0.11029606624E+03 -0.92089728316E+03  0.12887620914E+04  0.10100000352E+00 0.  1.
       -3    1    3    3    0  502  0.89481321500E+03 -0.11029606624E+03  0.66928927893E+03  0.11228553162E+04  0.10100000352E+00 0. -1.
</event>
<event>
 5   0  0.5371843E-06  0.2384485E+04  0.7818609E-02  0.8445335E-01
       -2   -1    0    0    0  501  0.00000000000E+00  0.00000000000E+00  0.28468490971E+04  0.28468490971E+04  0.25500000920E-02 0. -1.
        2   -1    0    0  501    0  0.00000000000E+00  0.00000000000E+00 -0.49930375794E+03  0.49930375795E+03  0.25500000920E-02 0.  1.
    10030    2    1    2    0    0  0.00000000000E+00  0.00000000000E+00  0.23475453392E+04  0.33461528550E+04  0.23844852295E+04 0.  0.
        4    1    3    3  502    0  0.10599968290E+04 -0.43488053310E+03  0.71105209396E+03  0.13484476441E+04  0.12699999809E+01 0. -1.
       -4    1    3    3    0  502 -0.10599968290E+04  0.43488053310E+03  0.16364932452E+04  0.19977052110E+04  0.12699999809E+01 0.  1.
</event>
<event>
 5   0  0.5349036E-06  0.2403677E+04  0.7818609E-02  0.8438128E-01
        2   -1    0    0  501    0  0.00000000000E+00  0.00000000000E+00  0.17436995225E+04  0.17436995225E+04  0.25500000920E-02 0. -1.
       -2   -1    0    0    0  501  0.00000000000E+00  0.00000000000E+00 -0.82836246759E+03  0.82836246760E+03  0.25500000920E-02 0.  1.
    10030    2    1    2    0    0  0.00000000000E+00  0.00000000000E+00  0.91533705492E+03  0.25720619901E+04  0.24036765500E+04 0.  0.
        1    1    3    3  502    0  0.65215645334E+03 -0.72694884128E+03  0.12072044452E+04  0.15527733995E+04  0.50400001928E-02 0. -1.
       -1    1    3    3    0  502 -0.65215645334E+03  0.72694884128E+03 -0.29186739031E+03  0.10192885907E+04  0.50400001928E-02 0.  1.
</event>
<event>
 5   0  0.2254269E-06  0.2397206E+04  0.7818609E-02  0.8440550E-01
       -1   -1    0    0    0  501  0.00000000000E+00  0.00000000000E+00  0.10171907555E+04  0.10171907555E+04  0.50400001928E-02 0.  1.
        1   -1    0    0  501    0  0.00000000000E+00  0.00000000000E+00 -0.14123694418E+04  0.14123694418E+04  0.50400001928E-02 0. -1.
    10030    2    1    2    0    0  0.00000000000E+00  0.00000000000E+00 -0.39517868636E+03  0.24295601973E+04  0.23972059900E+04 0.  0.
        2    1    3    3  502    0 -0.66776527197E+03  0.91184120967E+03  0.20690158065E+03  0.11489878651E+04  0.25500000920E-02 0.  1.
       -2    1    3    3    0  502  0.66776527197E+03 -0.91184120967E+03 -0.60208026701E+03  0.12805723322E+04  0.25500000920E-02 0. -1.
</event>
<event>
 5   0  0.2149029E-06  0.2385736E+04  0.7818609E-02  0.8444863E-01
        1   -1    0    0  501    0  0.00000000000E+00  0.00000000000E+00  0.13764955678E+04  0.13764955679E+04  0.50400001928E-02 0. -1.
       -1   -1    0    0    0  501  0.00000000000E+00  0.00000000000E+00 -0.10337367200E+04  0.10337367200E+04  0.50400001928E-02 0.  1.
    10030    2    1    2    0    0  0.00000000000E+00  0.00000000000E+00  0.34275884781E+03  0.24102322879E+04  0.23857359564E+04 0.  0.
        4    1    3    3  502    0  0.11880776061E+04 -0.90859475279E+02  0.22806758775E+03  0.12131777610E+04  0.12699999809E+01 0.  1.
       -4    1    3    3    0  502 -0.11880776061E+04  0.90859475279E+02  0.11469126006E+03  0.11970545269E+04  0.12699999809E+01 0. -1.
</event>
<event>
 5   0  0.2149417E-06  0.2401242E+04  0.7818609E-02  0.8439039E-01
       -1   -1    0    0    0  501  0.00000000000E+00  0.00000000000E+00  0.14421887494E+04  0.14421887494E+04  0.50400001928E-02 0. -1.
        1   -1    0    0  501    0  0.00000000000E+00  0.00000000000E+00 -0.99951627606E+03  0.99951627608E+03  0.50400001928E-02 0.  1.
    10030    2    1    2    0    0  0.00000000000E+00  0.00000000000E+00  0.44267247337E+03  0.24417050255E+04  0.24012422854E+04 0.  0.
        5    1    3    3  502    0 -0.70131819724E+03  0.78483939539E+03 -0.36602068948E+03  0.11143667823E+04  0.46999998093E+01 0.  1.
       -5    1    3    3    0  502  0.70131819724E+03 -0.78483939539E+03  0.80869316285E+03  0.13273382432E+04  0.46999998093E+01 0. -1.
</event>
<event>
 5   0  0.5268358E-06  0.2396236E+04  0.7818609E-02  0.8440914E-01
       -2   -1    0    0    0  501  0.00000000000E+00  0.00000000000E+00  0.23576818479E+04  0.23576818479E+04  0.25500000920E-02 0.  1.
        2   -1    0    0  501    0  0.00000000000E+00  0.00000000000E+00 -0.60885534441E+03  0.60885534441E+03  0.25500000920E-02 0. -1.
    10030    2    1    2    0    0  0.00000000000E+00  0.00000000000E+00  0.17488265035E+04  0.29665371923E+04  0.23962363769E+04 0.  0.
        2    1    3    3  502    0  0.61953917469E+03 -0.37773549497E+03  0.20547228613E+04  0.21790821302E+04  0.25500000920E-02 0.  1.
       -2    1    3    3    0  502 -0.61953917469E+03  0.37773549497E+03 -0.30589635785E+03  0.78745506214E+03  0.25500000920E-02 0. -1.
</event>
<event>
 5   0  0.2149029E-06  0.2398906E+04  0.7818609E-02  0.8439913E-01
        1   -1    0    0  501    0  0.00000000000E+00  0.00000000000E+00  0.87877409054E+03  0.87877409056E+03  0.50400001928E-02 0. -1.
       -1   -1    0    0    0  501  0.00000000000E+00  0.00000000000E+00 -0.16371525612E+04  0.16371525612E+04  0.50400001928E-02 0.  1.
    10030    2    1    2    0    0  0.00000000000E+00  0.00000000000E+00 -0.75837847070E+03  0.25159266518E+04  0.23989057948E+04 0.  0.
        4    1    3    3  502    0  0.21799856251E+03  0.10466491718E+04 -0.94948673713E+03  0.14298687139E+04  0.12699999809E+01 0.  1.
       -4    1    3    3    0  502 -0.21799856251E+03 -0.10466491718E+04  0.19110826643E+03  0.10860579379E+04  0.12699999809E+01 0. -1.
</event>
<event>
 5   0  0.5379778E-06  0.2412416E+04  0.7818609E-02  0.8434870E-01
        2   -1    0    0  501    0  0.00000000000E+00  0.00000000000E+00  0.10991145804E+04  0.10991145804E+04  0.25500000920E-02 0.  1.
       -2   -1    0    0    0  501  0.00000000000E+00  0.00000000000E+00 -0.13237358133E+04  0.13237358133E+04  0.25500000920E-02 0. -1.
    10030    2    1    2    0    0  0.00000000000E+00  0.00000000000E+00 -0.22462123292E+03  0.24228503937E+04  0.24124156632E+04 0.  0.
        5    1    3    3  502    0 -0.15115293246E+03 -0.32274428158E+02 -0.13137400869E+04  0.13228091146E+04  0.46999998093E+01 0. -1.
       -5    1    3    3    0  502  0.15115293246E+03  0.32274428158E+02  0.10891188540E+04  0.11000412791E+04  0.46999998093E+01 0.  1.
</event>
<event>
 5   0  0.2149417E-06  0.2403882E+04  0.7818609E-02  0.8438052E-01
        1   -1    0    0  501    0  0.00000000000E+00  0.00000000000E+00  0.79854874247E+03  0.79854874249E+03  0.50400001928E-02 0. -1.
       -1   -1    0    0    0  501  0.00000000000E+00  0.00000000000E+00 -0.18091097835E+04  0.18091097835E+04  0.50400001928E-02 0.  1.
    10030    2    1    2    0    0  0.00000000000E+00  0.00000000000E+00 -0.10105610411E+04  0.26076585260E+04  0.24038821458E+04 0.  0.
        5    1    3    3  502    0  0.10011956745E+04 -0.31534767653E+03 -0.11404067603E+04  0.15499634204E+04  0.46999998093E+01 0.  1.
       -5    1    3    3    0  502 -0.10011956745E+04  0.31534767653E+03  0.12984571924E+03  0.10576951056E+04  0.46999998093E+01 0. -1.
</event>
<event>
 5   0  0.2297414E-06  0.2403100E+04  0.7818609E-02  0.8438344E-01
        1   -1    0    0  501    0  0.00000000000E+00  0.00000000000E+00  0.13231321612E+04  0.13231321612E+04  0.50400001928E-02 0.  1.
       -1   -1    0    0    0  501  0.00000000000E+00  0.00000000000E+00 -0.10911398616E+04  0.10911398616E+04  0.50400001928E-02 0. -1.
    10030    2    1    2    0    0  0.00000000000E+00  0.00000000000E+00  0.23199229962E+03  0.24142720228E+04  0.24030998674E+04 0.  0.
        1    1    3    3  502    0 -0.52449740964E+03  0.40966730141E+03 -0.88905339025E+03  0.11105587608E+04  0.50400001928E-02 0. -1.
       -1    1    3    3    0  502  0.52449740964E+03 -0.40966730141E+03  0.11210456899E+04  0.13037132619E+04  0.50400001928E-02 0.  1.
</event>
<event>
 5   0  0.5268358E-06  0.2408813E+04  0.7818609E-02  0.8436211E-01
        2   -1    0    0  501    0  0.00000000000E+00  0.00000000000E+00  0.15525789591E+04  0.15525789591E+04  0.25500000920E-02 0.  1.
       -2   -1    0    0    0  501  0.00000000000E+00  0.00000000000E+00 -0.93431346075E+03  0.93431346075E+03  0.25500000920E-02 0. -1.
    10030    2    1    2    0    0  0.00000000000E+00  0.00000000000E+00  0.61826549834E+03  0.24868924198E+04  0.24088133347E+04 0.  0.
        2    1    3    3  502    0 -0.75452532526E+03 -0.72541225152E+03  0.92431979856E+03  0.13963876579E+04  0.25500000920E-02 0.  1.
       -2    1    3    3    0  502  0.75452532526E+03  0.72541225152E+03 -0.30605430022E+03  0.10905047619E+04  0.25500000920E-02 0. -1.
</event>
<event>
 5   0  0.2149417E-06  0.2399792E+04  0.7818609E-02  0.8439581E-01
       -1   -1    0    0    0  501  0.00000000000E+00  0.00000000000E+00  0.78649261210E+03  0.78649261211E+03  0.50400001928E-02 0. -1.
        1   -1    0    0  501    0  0.00000000000E+00  0.00000000000E+00 -0.18305965920E+04  0.18305965920E+04  0.50400001928E-02 0.  1.
    10030    2    1    2    0    0  0.00000000000E+00  0.00000000000E+00 -0.10441039799E+04  0.26170892041E+04  0.23997922371E+04 0.  0.
        5    1    3    3  502    0  0.46007023643E+03 -0.94406100634E+03 -0.11549579350E+04  0.15610463567E+04  0.46999998093E+01 0.  1.
       -5    1    3    3    0  502 -0.46007023643E+03  0.94406100634E+03  0.11085395515E+03  0.10560428474E+04  0.46999998093E+01 0. -1.
</event>
<event>
 5   0  0.5349036E-06  0.2395498E+04  0.7818609E-02  0.8441191E-01
        2   -1    0    0  501    0  0.00000000000E+00  0.00000000000E+00  0.19747911447E+04  0.19747911447E+04  0.25500000920E-02 0.  1.
       -2   -1    0    0    0  501  0.00000000000E+00  0.00000000000E+00 -0.72645766162E+03  0.72645766163E+03  0.25500000920E-02 0. -1.
    10030    2    1    2    0    0  0.00000000000E+00  0.00000000000E+00  0.12483334831E+04  0.27012488064E+04  0.23954975744E+04 0.  0.
        1    1    3    3  502    0 -0.14240511977E+02  0.16547630783E+03 -0.71340941413E+03  0.73248767419E+03  0.50400001928E-02 0. -1.
       -1    1    3    3    0  502  0.14240511977E+02 -0.16547630783E+03  0.19617428972E+04  0.19687611322E+04  0.50400001928E-02 0.  1.
</event>
<event>
 5   0  0.2297414E-06  0.2393966E+04  0.7818609E-02  0.8441766E-01
       -1   -1    0    0    0  501  0.00000000000E+00  0.00000000000E+00  0.10437233573E+04  0.10437233573E+04  0.50400001928E-02 0. -1.
        1   -1    0    0  501    0  0.00000000000E+00  0.00000000000E+00 -0.13727475323E+04  0.13727475323E+04  0.50400001928E-02 0.  1.
    10030    2    1    2    0    0  0.00000000000E+00  0.00000000000E+00 -0.32902417496E+03  0.24164708896E+04  0.23939663015E+04 0.  0.
        1    1    3    3  502    0  0.45030015127E+03 -0.10400959424E+04 -0.55309703858E+03  0.12611447695E+04  0.50400001928E-02 0.  1.
       -1    1    3    3    0  502 -0.45030015127E+03  0.10400959424E+04  0.22407286361E+03  0.11553261201E+04  0.50400001928E-02 0. -1.
</event>
<event>
 5   0  0.2254269E-06  0.2410925E+04  0.7818609E-02  0.8435425E-01
        1   -1    0    0  501    0  0.00000000000E+00  0.00000000000E+00  0.17989500340E+04  0.17989500340E+04  0.50400001928E-02 0.  1.
       -1   -1    0    0    0  501  0.00000000000E+00  0.00000000000E+00 -0.80777090185E+03  0.80777090186E+03  0.50400001928E-02 0. -1.
    10030    2    1    2    0    0  0.00000000000E+00  0.00000000000E+00  0.99117913219E+03  0.26067209359E+04  0.24109247117E+04 0.  0.
        2    1    3    3  502    0 -0.11493000228E+04 -0.28712239727E+03  0.25428376720E+03  0.12116063914E+04  0.25500000920E-02 0. -1.
       -2    1    3    3    0  502  0.11493000228E+04  0.28712239727E+03  0.73689536499E+03  0.13951145445E+04  0.25500000920E-02 0.  1.
</event>
<event>
 5   0  0.5371843E-06  0.2399100E+04  0.7818609E-02  0.8439841E-01
       -2   -1    0    0    0  501  0.00000000000E+00  0.00000000000E+00  0.11853338227E+04  0.11853338227E+04  0.25500000920E-02 0.  1.
        2   -1    0    0  501    0  0.00000000000E+00  0.00000000000E+00 -0.12139366346E+04  0.12139366346E+04  0.25500000920E-02 0. -1.
    10030    2    1    2    0    0  0.00000000000E+00  0.00000000000E+00 -0.28602811861E+02  0.23992704573E+04  0.23990999576E+04 0.  0.
        4    1    3    3  502    0 -0.35121429288E+03 -0.96535988535E+03 -0.63373815261E+03  0.12070198204E+04  0.12699999809E+01 0. -1.
       -4    1    3    3    0  502  0.35121429288E+03  0.96535988535E+03  0.60513534075E+03  0.11922506369E+04  0.12699999809E+01 0.  1.
</event>
<event>
 5   0  0.5268358E-06  0.2402008E+04  0.7818609E-02  0.8438752E-01
        2   -1    0    0  501    0  0.00000000000E+00  0.00000000000E+00  0.67468025641E+03  0.67468025641E+03  0.25500000920E-02 0.  1.
       -2   -1    0    0    0  501  0.00000000000E+00  0.00000000000E+00 -0.21379179836E+04  0.21379179836E+04  0.25500000920E-02 0. -1.
    10030    2    1    2    0    0  0.00000000000E+00  0.00000000000E+00 -0.14632377272E+04  0.28125982400E+04  0.24020083708E+04 0.  0.
        2    1    3    3  502    0 -0.76252769583E+03 -0.23207684231E+03 -0.17835750198E+04  0.19535731363E+04  0.25500000920E-02 0. -1.
       -2    1    3    3    0  502  0.76252769583E+03  0.23207684231E+03  0.32033729265E+03  0.85902510366E+03  0.25500000920E-02 0.  1.
</event>
<event>
 5   0  0.5371843E-06  0.2397481E+04  0.7818609E-02  0.8440447E-01
        2   -1    0    0  501    0  0.00000000000E+00  0.00000000000E+00  0.17074134843E+04  0.17074134843E+04  0.25500000920E-02 0.  1.
       -2   -1    0    0    0  501  0.00000000000E+00  0.00000000000E+00 -0.84161161213E+03  0.84161161214E+03  0.25500000920E-02 0. -1.
    10030    2    1    2    0    0  0.00000000000E+00  0.00000000000E+00  0.86580187214E+03  0.25490250964E+04  0.23974811908E+04 0.  0.
        4    1    3    3  502    0 -0.17005401618E+03  0.42413654387E+03  0.16111786260E+04  0.16747263520E+04  0.12699999809E+01 0.  1.
       -4    1    3    3    0  502  0.17005401618E+03 -0.42413654387E+03 -0.74537675390E+03  0.87429874438E+03  0.12699999809E+01 0. -1.
</event>
<event>
 5   0  0.2254269E-06  0.2399866E+04  0.7818609E-02  0.8439554E-01
       -1   -1    0    0    0  501  0.00000000000E+00  0.00000000000E+00  0.18365234568E+04  0.18365234568E+04  0.50400001928E-02 0. -1.
        1   -1    0    0  501    0  0.00000000000E+00  0.00000000000E+00 -0.78400257131E+03  0.78400257133E+03  0.50400001928E-02 0.  1.
    10030    2    1    2    0    0  0.00000000000E+00  0.00000000000E+00  0.10525208855E+04  0.26205260281E+04  0.23998659233E+04 0.  0.
        2    1    3    3  502    0 -0.29194556427E+03 -0.46289565710E+03  0.16923116757E+04  0.17786015320E+04  0.25500000920E-02 0. -1.
       -2    1    3    3    0  502  0.29194556427E+03  0.46289565710E+03 -0.63979079025E+03  0.84192449611E+03  0.25500000920E-02 0.  1.
</event>
<event>
 5   0  0.5349036E-06  0.2396759E+04  0.7818609E-02  0.8440718E-01
       -2   -1    0    0    0  501  0.00000000000E+00  0.00000000000E+00  0.70752997150E+03  0.70752997150E+03  0.25500000920E-02 0.  1.
        2   -1    0    0  501    0  0.00000000000E+00  0.00000000000E+00 -0.20297566329E+04  0.20297566329E+04  0.25500000920E-02 0. -1.
    10030    2    1    2    0    0  0.00000000000E+00  0.00000000000E+00 -0.13222266614E+04  0.27372866044E+04  0.23967591891E+04 0.  0.
        1    1    3    3  502    0 -0.43453318042E+03 -0.49585971433E+03 -0.18040008894E+04  0.19207069402E+04  0.50400001928E-02 0. -1.
       -1    1    3    3    0  502  0.43453318042E+03  0.49585971433E+03  0.48177422800E+03  0.81657966419E+03  0.50400001928E-02 0.  1.
</event>
<event>
 5   0  0.2149029E-06  0.2438429E+04  0.7818609E-02  0.8425255E-01
        1   -1    0    0  501    0  0.00000000000E+00  0.00000000000E+00  0.15641875832E+04  0.15641875832E+04  0.50400001928E-02 0. -1.
       -1   -1    0    0    0  501  0.00000000000E+00  0.00000000000E+00 -0.95032370164E+03  0.95032370165E+03  0.50400001928E-02 0.  1.
    10030    2    1    2    0    0  0.00000000000E+00  0.00000000000E+00  0.61386388154E+03  0.25145112848E+04  0.24384294405E+04 0.  0.
        4    1    3    3  502    0 -0.11328314227E+04 -0.36460931561E+03  0.58022152677E+03  0.13239734206E+04  0.12699999809E+01 0. -1.
       -4    1    3    3    0  502  0.11328314227E+04  0.36460931561E+03  0.33642354771E+02  0.11905378643E+04  0.12699999809E+01 0.  1.
</event>
<event>
 5   0  0.2254269E-06  0.2398582E+04  0.7818609E-02  0.8440034E-01
        1   -1    0    0  501    0  0.00000000000E+00  0.00000000000E+00  0.18441239952E+04  0.18441239952E+04  0.50400001928E-02 0. -1.
       -1   -1    0    0    0  501  0.00000000000E+00  0.00000000000E+00 -0.77993634142E+03  0.77993634143E+03  0.50400001928E-02 0.  1.
    10030    2    1    2    0    0  0.00000000000E+00  0.00000000000E+00  0.10641876538E+04  0.26240603366E+04  0.23985823496E+04 0.  0.
        2    1    3    3  502    0 -0.24239500793E+03 -0.10346155834E+02 -0.75280848065E+03  0.79093804520E+03  0.25500000920E-02 0.  1.
       -2    1    3    3    0  502  0.24239500793E+03  0.10346155834E+02  0.18169961344E+04  0.18331222914E+04  0.25500000920E-02 0. -1.
</event>
<event>
 5   0  0.2297414E-06  0.2402349E+04  0.7818609E-02  0.8438625E-01
        1   -1    0    0  501    0  0.00000000000E+00  0.00000000000E+00  0.10864989570E+04  0.10864989570E+04  0.50400001928E-02 0. -1.
       -1   -1    0    0    0  501  0.00000000000E+00  0.00000000000E+00 -0.13279534909E+04  0.13279534909E+04  0.50400001928E-02 0.  1.
    10030    2    1    2    0    0  0.00000000000E+00  0.00000000000E+00 -0.24145453390E+03  0.24144524479E+04  0.24023489195E+04 0.  0.
        1    1    3    3  502    0 -0.34742475176E+02 -0.52252738709E+03 -0.12071815505E+04  0.13158758322E+04  0.50400001928E-02 0.  1.
       -1    1    3    3    0  502  0.34742475176E+02  0.52252738709E+03  0.96572701661E+03  0.10985766157E+04  0.50400001928E-02 0. -1.
</event>
<event>
 5   0  0.5349036E-06  0.2406911E+04  0.7818609E-02  0.8436921E-01
       -2   -1    0    0    0  501  0.00000000000E+00  0.00000000000E+00  0.15656146518E+04  0.15656146518E+04  0.25500000920E-02 0. -1.
        2   -1    0    0  501    0  0.00000000000E+00  0.00000000000E+00 -0.92507141827E+03  0.92507141827E+03  0.25500000920E-02 0.  1.
    10030    2    1    2    0    0  0.00000000000E+00  0.00000000000E+00  0.64054323356E+03  0.24906860701E+04  0.24069111878E+04 0.  0.
        1    1    3    3  502    0 -0.10450801298E+04 -0.58055787712E+03  0.17738803050E+03  0.12085968889E+04  0.50400001928E-02 0.  1.
       -1    1    3    3    0  502  0.10450801298E+04  0.58055787712E+03  0.46315520306E+03  0.12820891812E+04  0.50400001928E-02 0. -1.
</event>
<event>
 5   0  0.2215700E-06  0.2323980E+04  0.7818609E-02  0.8468526E-01
       -1   -1    0    0    0  501  0.00000000000E+00  0.00000000000E+00  0.11916975919E+04  0.11916975919E+04  0.50400001928E-02 0. -1.
        1   -1    0    0  501    0  0.00000000000E+00  0.00000000000E+00 -0.11330226084E+04  0.11330226084E+04  0.50400001928E-02 0.  1.
    10030    2    1    2    0    0  0.00000000000E+00  0.00000000000E+00  0.58674983528E+02  0.23247202004E+04  0.23239796161E+04 0.  0.
        3    1    3    3  502    0 -0.17238413776E+03 -0.45660236299E+03  0.10841963180E+04  0.11889843039E+04  0.10100000352E+00 0. -1.
       -3    1    3    3    0  502  0.17238413776E+03  0.45660236299E+03 -0.10255213345E+04  0.11357358964E+04  0.10100000352E+00 0.  1.
</event>
<event>
 5   0  0.2149417E-06  0.2373825E+04  0.7818609E-02  0.8449369E-01
        1   -1    0    0  501    0  0.00000000000E+00  0.00000000000E+00  0.18766351321E+04  0.18766351321E+04  0.50400001928E-02 0.  1.
       -1   -1    0    0    0  501  0.00000000000E+00  0.00000000000E+00 -0.75068469653E+03  0.75068469655E+03  0.50400001928E-02 0. -1.
    10030    2    1    2    0    0  0.00000000000E+00  0.00000000000E+00  0.11259504356E+04  0.26273198287E+04  0.23738249933E+04 0.  0.
        5    1    3    3  502    0  0.18644292053E+02 -0.55858107484E+03 -0.59592101660E+03  0.81700940926E+03  0.46999998093E+01 0. -1.
       -5    1    3    3    0  502 -0.18644292053E+02  0.55858107484E+03  0.17218714522E+04  0.18103104194E+04  0.46999998093E+01 0.  1.
</event>
<event>
 5   0  0.2215700E-06  0.2397397E+04  0.7818609E-02  0.8440479E-01
        1   -1    0    0  501    0  0.00000000000E+00  0.00000000000E+00  0.18055135316E+04  0.18055135316E+04  0.50400001928E-02 0.  1.
       -1   -1    0    0    0  501  0.00000000000E+00  0.00000000000E+00 -0.79582795423E+03  0.79582795425E+03  0.50400001928E-02 0. -1.
    10030    2    1    2    0    0  0.00000000000E+00  0.00000000000E+00  0.10096855774E+04  0.26013414859E+04  0.23973970387E+04 0.  0.
        3    1    3    3  502    0 -0.74596178249E+03 -0.85755898877E+03  0.91804151034E+03  0.14610498366E+04  0.10100000352E+00 0. -1.
       -3    1    3    3    0  502  0.74596178249E+03  0.85755898877E+03  0.91644067060E+02  0.11402916493E+04  0.10100000352E+00 0.  1.
</event>
<event>
 5   0  0.5268358E-06  0.2399003E+04  0.7818609E-02  0.8439877E-01
       -2   -1    0    0    0  501  0.00000000000E+00  0.00000000000E+00  0.13692763750E+04  0.13692763750E+04  0.25500000920E-02 0.  1.
        2   -1    0    0  501    0  0.00000000000E+00  0.00000000000E+00 -0.10507772316E+04  0.10507772316E+04  0.25500000920E-02 0. -1.
    10030    2    1    2    0    0  0.00000000000E+00  0.00000000000E+00  0.31849914343E+03  0.24200536066E+04  0.23990034920E+04 0.  0.
        2    1    3    3  502    0  0.40441441047E+03 -0.11069063068E+04  0.38484514366E+03  0.12397170532E+04  0.25500000920E-02 0.  1.
       -2    1    3    3    0  502 -0.40441441047E+03  0.11069063068E+04 -0.66346000226E+02  0.11803365534E+04  0.25500000920E-02 0. -1.
</event>
<event>
 5   0  0.5268358E-06  0.2400963E+04  0.7818609E-02  0.8439143E-01
        2   -1    0    0  501    0  0.00000000000E+00  0.00000000000E+00  0.20042843234E+04  0.20042843234E+04  0.25500000920E-02 0. -1.
       -2   -1    0    0    0  501  0.00000000000E+00  0.00000000000E+00 -0.71903740126E+03  0.71903740127E+03  0.25500000920E-02 0.  1.
    10030    2    1    2    0    0  0.00000000000E+00  0.00000000000E+00  0.12852469222E+04  0.27233217247E+04  0.24009626330E+04 0.  0.
        2    1    3    3  502    0 -0.64349445811E+02  0.86900319154E+03  0.15792303178E+04  0.18036839509E+04  0.25500000920E-02 0. -1.
       -2    1    3    3    0  502  0.64349445811E+02 -0.86900319154E+03 -0.29398339563E+03  0.91963777380E+03  0.25500000920E-02 0.  1.
</event>
<event>
 5   0  0.5371843E-06  0.2398561E+04  0.7818609E-02  0.8440043E-01
        2   -1    0    0  501    0  0.00000000000E+00  0.00000000000E+00  0.11328865577E+04  0.11328865577E+04  0.25500000920E-02 0. -1.
       -2   -1    0    0    0  501  0.00000000000E+00  0.00000000000E+00 -0.12695652811E+04  0.12695652811E+04  0.25500000920E-02 0.  1.
    10030    2    1    2    0    0  0.00000000000E+00  0.00000000000E+00 -0.13667872343E+03  0.24024518388E+04  0.23985607694E+04 0.  0.
        4    1    3    3  502    0 -0.54933171477E+03  0.93691669037E+03  0.44110506488E+03  0.11722429393E+04  0.12699999809E+01 0. -1.
       -4    1    3    3    0  502  0.54933171477E+03 -0.93691669037E+03 -0.57778378831E+03  0.12302088995E+04  0.12699999809E+01 0.  1.
</event>
<event>
 5   0  0.2215700E-06  0.2401707E+04  0.7818609E-02  0.8438865E-01
        1   -1    0    0  501    0  0.00000000000E+00  0.00000000000E+00  0.19129709065E+04  0.19129709065E+04  0.50400001928E-02 0.  1.
       -1   -1    0    0    0  501  0.00000000000E+00  0.00000000000E+00 -0.75382699016E+03  0.75382699017E+03  0.50400001928E-02 0. -1.
    10030    2    1    2    0    0  0.00000000000E+00  0.00000000000E+00  0.11591439164E+04  0.26667978967E+04  0.24017069769E+04 0.  0.
        3    1    3    3  502    0  0.98765873897E+03 -0.46422652313E+03  0.11359501846E+04  0.15752329610E+04  0.10100000352E+00 0.  1.
       -3    1    3    3    0  502 -0.98765873897E+03  0.46422652313E+03  0.23193731812E+02  0.10915649357E+04  0.10100000352E+00 0. -1.
</event>
<event>
 5   0  0.2149029E-06  0.2397387E+04  0.7818609E-02  0.8440482E-01
       -1   -1    0    0    0  501  0.00000000000E+00  0.00000000000E+00  0.12241017085E+04  0.12241017085E+04  0.50400001928E-02 0.  1.
        1   -1    0    0  501    0  0.00000000000E+00  0.00000000000E+00 -0.11738127877E+04  0.11738127877E+04  0.50400001928E-02 0. -1.
    10030    2    1    2    0    0  0.00000000000E+00  0.00000000000E+00  0.50288920783E+02  0.23979144961E+04  0.23973871100E+04 0.  0.
        4    1    3    3  502    0 -0.60811404319E+03 -0.61101615333E+03  0.85822695634E+03  0.12164286048E+04  0.12699999809E+01 0.  1.
       -4    1    3    3    0  502  0.60811404319E+03  0.61101615333E+03 -0.80793803556E+03  0.11814858913E+04  0.12699999809E+01 0. -1.
</event>
<event>
 5   0  0.5379778E-06  0.2399618E+04  0.7818609E-02  0.8439647E-01
        2   -1    0    0  501    0  0.00000000000E+00  0.00000000000E+00  0.30682184756E+04  0.30682184756E+04  0.25500000920E-02 0.  1.
       -2   -1    0    0    0  501  0.00000000000E+00  0.00000000000E+00 -0.46917822432E+03  0.46917822433E+03  0.25500000920E-02 0. -1.
    10030    2    1    2    0    0  0.00000000000E+00  0.00000000000E+00  0.25990402513E+04  0.35373966999E+04  0.23996177164E+04 0.  0.
        5    1    3    3  502    0  0.74322629469E+03  0.70246259004E+03  0.22244599691E+04  0.24482816953E+04  0.46999998093E+01 0. -1.
       -5    1    3    3    0  502 -0.74322629469E+03 -0.70246259004E+03  0.37458028222E+03  0.10891150046E+04  0.46999998093E+01 0.  1.
</event>
<event>
 5   0  0.2149417E-06  0.2398358E+04  0.7818609E-02  0.8440119E-01
        1   -1    0    0  501    0  0.00000000000E+00  0.00000000000E+00  0.15447687725E+04  0.15447687725E+04  0.50400001928E-02 0. -1.
       -1   -1    0    0    0  501  0.00000000000E+00  0.00000000000E+00 -0.93090303539E+03  0.93090303541E+03  0.50400001928E-02 0.  1.
    10030    2    1    2    0    0  0.00000000000E+00  0.00000000000E+00  0.61386573709E+03  0.24756718079E+04  0.23983577209E+04 0.  0.
        5    1    3    3  502    0 -0.30942207529E+03 -0.10629684479E+04 -0.16875214071E+03  0.11198854034E+04  0.46999998093E+01 0.  1.
       -5    1    3    3    0  502  0.30942207529E+03  0.10629684479E+04  0.78261787779E+03  0.13557864045E+04  0.46999998093E+01 0. -1.
</event>
<event>
 5   0  0.2149029E-06  0.2396814E+04  0.7818609E-02  0.8440697E-01
        1   -1    0    0  501    0  0.00000000000E+00  0.00000000000E+00  0.10814465227E+04  0.10814465227E+04  0.50400001928E-02 0. -1.
       -1   -1    0    0    0  501  0.00000000000E+00  0.00000000000E+00 -0.13280168941E+04  0.13280168941E+04  0.50400001928E-02 0.  1.
    10030    2    1    2    0    0  0.00000000000E+00  0.00000000000E+00 -0.24657037141E+03  0.24094634169E+04  0.23968139288E+04 0.  0.
        4    1    3    3  502    0 -0.23085038270E+03  0.85669197633E+02 -0.13023119383E+04  0.13253863995E+04  0.12699999809E+01 0.  1.
       -4    1    3    3    0  502  0.23085038270E+03 -0.85669197633E+02  0.10557415669E+04  0.10840770173E+04  0.12699999809E+01 0. -1.
</event>
<event>
 5   0  0.5379778E-06  0.2400542E+04  0.7818609E-02  0.8439301E-01
        2   -1    0    0  501    0  0.00000000000E+00  0.00000000000E+00  0.13193792454E+04  0.13193792454E+04  0.25500000920E-02 0. -1.
       -2   -1    0    0    0  501  0.00000000000E+00  0.00000000000E+00 -0.10919150853E+04  0.10919150853E+04  0.25500000920E-02 0.  1.
    10030    2    1    2    0    0  0.00000000000E+00  0.00000000000E+00  0.22746416008E+03  0.24112943307E+04  0.24005416899E+04 0.  0.
        5    1    3    3  502    0  0.89432928228E+03  0.79429420764E+03  0.13788373554E+02  0.11962191951E+04  0.46999998093E+01 0.  1.
       -5    1    3    3    0  502 -0.89432928228E+03 -0.79429420764E+03  0.21367578653E+03  0.12150751356E+04  0.46999998093E+01 0. -1.
</event>
<event>
 5   0  0.2215700E-06  0.2396169E+04  0.7818609E-02  0.8440939E-01
        1   -1    0    0  501    0  0.00000000000E+00  0.00000000000E+00  0.10914024094E+04  0.10914024094E+04  0.50400001928E-02 0. -1.
       -1   -1    0    0    0  501  0.00000000000E+00  0.00000000000E+00 -0.13151950087E+04  0.13151950087E+04  0.50400001928E-02 0.  1.
    10030    2    1    2    0    0  0.00000000000E+00  0.00000000000E+00 -0.22379259930E+03  0.24065974181E+04  0.23961694442E+04 0.  0.
        3    1    3    3  502    0 -0.18094702722E+03 -0.11629932571E+04 -0.33672726852E+03  0.12242060309E+04  0.10100000352E+00 0. -1.
       -3    1    3    3    0  502  0.18094702722E+03  0.11629932571E+04  0.11293466922E+03  0.11823913871E+04  0.10100000352E+00 0.  1.
</event>
<event>
 5   0  0.2215700E-06  0.2376594E+04  0.7818609E-02  0.8448319E-01
       -1   -1    0    0    0  501  0.00000000000E+00  0.00000000000E+00  0.88790609479E+03  0.88790609480E+03  0.50400001928E-02 0.  1.
        1   -1    0    0  501    0  0.00000000000E+00  0.00000000000E+00 -0.15903147022E+04  0.15903147022E+04  0.50400001928E-02 0. -1.
    10030    2    1    2    0    0  0.00000000000E+00  0.00000000000E+00 -0.70240860741E+03  0.24782207970E+04  0.23765943000E+04 0.  0.
        3    1    3    3  502    0  0.10600588146E+03 -0.11629095854E+04 -0.58074012033E+03  0.13041683358E+04  0.10100000352E+00 0.  1.
       -3    1    3    3    0  502 -0.10600588146E+03  0.11629095854E+04 -0.12166848708E+03  0.11740524612E+04  0.10100000352E+00 0. -1.
</event>
<event>
 5   0  0.2215700E-06  0.2406332E+04  0.7818609E-02  0.8437137E-01
       -1   -1    0    0    0  501  0.00000000000E+00  0.00000000000E+00  0.20137489145E+04  0.20137489145E+04  0.50400001928E-02 0.  1.
        1   -1    0    0  501    0  0.00000000000E+00  0.00000000000E+00 -0.71886218226E+03  0.71886218228E+03  0.50400001928E-02 0. -1.
    10030    2    1    2    0    0  0.00000000000E+00  0.00000000000E+00  0.12948867323E+04  0.27326110968E+04  0.24063315975E+04 0.  0.
        3    1    3    3  502    0  0.72633245900E+03  0.87467556658E+03  0.20037222920E+03  0.11544545154E+04  0.10100000352E+00 0. -1.
       -3    1    3    3    0  502 -0.72633245900E+03 -0.87467556658E+03  0.10945145031E+04  0.15781565814E+04  0.10100000352E+00 0.  1.
</event>
<event>
 5   0  0.2254269E-06  0.2398984E+04  0.7818609E-02  0.8439884E-01
       -1   -1    0    0    0  501  0.00000000000E+00  0.00000000000E+00  0.11627964458E+04  0.11627964458E+04  0.50400001928E-02 0. -1.
        1   -1    0    0  501    0  0.00000000000E+00  0.00000000000E+00 -0.12373454342E+04  0.12373454342E+04  0.50400001928E-02 0.  1.
    10030    2    1    2    0    0  0.00000000000E+00  0.00000000000E+00 -0.74548988400E+02  0.24001418801E+04  0.23989838459E+04 0.  0.
        2    1    3    3  502    0  0.74619753714E+03  0.93375256992E+03  0.63154472045E+02  0.11969515920E+04  0.25500000920E-02 0. -1.
       -2    1    3    3    0  502 -0.74619753714E+03 -0.93375256992E+03 -0.13770346044E+03  0.12031902881E+04  0.25500000920E-02 0.  1.
</event>
<event>
 5   0  0.2149029E-06  0.2402470E+04  0.7818609E-02  0.8438579E-01
        1   -1    0    0  501    0  0.00000000000E+00  0.00000000000E+00  0.17206074193E+04  0.17206074193E+04  0.50400001928E-02 0.  1.
       -1   -1    0    0    0  501  0.00000000000E+00  0.00000000000E+00 -0.83863745146E+03  0.83863745148E+03  0.50400001928E-02 0. -1.
    10030    2    1    2    0    0  0.00000000000E+00  0.00000000000E+00  0.88196996779E+03  0.25592448707E+04  0.24024702463E+04 0.  0.
        4    1    3    3  502    0 -0.89087149830E+03 -0.78736583777E+03  0.62353641265E+03  0.13425335228E+04  0.12699999809E+01 0.  1.
       -4    1    3    3    0  502  0.89087149830E+03  0.78736583777E+03  0.25843355514E+03  0.12167113480E+04  0.12699999809E+01 0. -1.
</event>
<event>
 5   0  0.2149029E-06  0.2391463E+04  0.7818609E-02  0.8442707E-01
        1   -1    0    0  501    0  0.00000000000E+00  0.00000000000E+00  0.19267989198E+04  0.19267989198E+04  0.50400001928E-02 0. -1.
       -1   -1    0    0    0  501  0.00000000000E+00  0.00000000000E+00 -0.74204632130E+03  0.74204632132E+03  0.50400001928E-02 0.  1.
    10030    2    1    2    0    0  0.00000000000E+00  0.00000000000E+00  0.11847525985E+04  0.26688452411E+04  0.23914631926E+04 0.  0.
        4    1    3    3  502    0  0.97491970120E+03  0.30791639736E+03  0.12843714722E+04  0.16416128115E+04  0.12699999809E+01 0.  1.
       -4    1    3    3    0  502 -0.97491970120E+03 -0.30791639736E+03 -0.99618873668E+02  0.10272324296E+04  0.12699999809E+01 0. -1.
</event>
<event>
 5   0  0.5440503E-06  0.2399460E+04  0.7818609E-02  0.8439706E-01
        2   -1    0    0  501    0  0.00000000000E+00  0.00000000000E+00  0.11236093638E+04  0.11236093638E+04  0.25500000920E-02 0.  1.
       -2   -1    0    0    0  501  0.00000000000E+00  0.00000000000E+00 -0.12810074992E+04  0.12810074992E+04  0.25500000920E-02 0. -1.
    10030    2    1    2    0    0  0.00000000000E+00  0.00000000000E+00 -0.15739813541E+03  0.24046168630E+04  0.23994599569E+04 0.  0.
        3    1    3    3  502    0 -0.10574545764E+04 -0.56669048436E+03 -0.76764961749E+02  0.12021818314E+04  0.10100000352E+00 0.  1.
       -3    1    3    3    0  502  0.10574545764E+04  0.56669048436E+03 -0.80633173658E+02  0.12024350316E+04  0.10100000352E+00 0. -1.
</event>
<event>
 5   0  0.5371843E-06  0.2400528E+04  0.7818609E-02  0.8439306E-01
        2   -1    0    0  501    0  0.00000000000E+00  0.00000000000E+00  0.26764125064E+04  0.26764125064E+04  0.25500000920E-02 0. -1.
       -2   -1    0    0    0  501  0.00000000000E+00  0.00000000000E+00 -0.53827059297E+03  0.53827059298E+03  0.25500000920E-02 0.  1.
    10030    2    1    2    0    0  0.00000000000E+00  0.00000000000E+00  0.21381419134E+04  0.32146830993E+04  0.24005283975E+04 0.  0.
        4    1    3    3  502    0  0.83656982218E+03 -0.45455498377E+03  0.20478131591E+04  0.22583200943E+04  0.12699999809E+01 0. -1.
       -4    1    3    3    0  502 -0.83656982218E+03  0.45455498377E+03  0.90328754239E+02  0.95636300503E+03  0.12699999809E+01 0.  1.
</event>
<event>
 5   0  0.5371843E-06  0.2401738E+04  0.7818609E-02  0.8438853E-01
        2   -1    0    0  501    0  0.00000000000E+00  0.00000000000E+00  0.16236181415E+04  0.16236181415E+04  0.25500000920E-02 0. -1.
       -2   -1    0    0    0  501  0.00000000000E+00  0.00000000000E+00 -0.88819298121E+03  0.88819298122E+03  0.25500000920E-02 0.  1.
    10030    2    1    2    0    0  0.00000000000E+00  0.00000000000E+00  0.73542516031E+03  0.25118111227E+04  0.24017379020E+04 0.  0.
        4    1    3    3  502    0 -0.40744398114E+03 -0.10921759841E+04  0.66002405340E+02  0.11675688024E+04  0.12699999809E+01 0.  1.
       -4    1    3    3    0  502  0.40744398114E+03  0.10921759841E+04  0.66942275497E+03  0.13442423203E+04  0.12699999809E+01 0. -1.
</event>
<event>
 5   0  0.2149417E-06  0.2400959E+04  0.7818609E-02  0.8439145E-01
        1   -1    0    0  501    0  0.00000000000E+00  0.00000000000E+00  0.17417994592E+04  0.17417994592E+04  0.50400001928E-02 0.  1.
       -1   -1    0    0    0  501  0.00000000000E+00  0.00000000000E+00 -0.82739225353E+03  0.82739225355E+03  0.50400001928E-02 0. -1.
    10030    2    1    2    0    0  0.00000000000E+00  0.00000000000E+00  0.91440720566E+03  0.25691917127E+04  0.24009592914E+04 0.  0.
        5    1    3    3  502    0 -0.46855995243E+03 -0.12436534512E+03 -0.71798052467E+03  0.86633324529E+03  0.46999998093E+01 0. -1.
       -5    1    3    3    0  502  0.46855995243E+03  0.12436534512E+03  0.16323877303E+04  0.17028584675E+04  0.46999998093E+01 0.  1.
</event>
<event>
 5   0  0.2215700E-06  0.2400827E+04  0.7818609E-02  0.8439194E-01
        1   -1    0    0  501    0  0.00000000000E+00  0.00000000000E+00  0.16448644268E+04  0.16448644268E+04  0.50400001928E-02 0. -1.
       -1   -1    0    0    0  501  0.00000000000E+00  0.00000000000E+00 -0.87605539285E+03  0.87605539286E+03  0.50400001928E-02 0.  1.
    10030    2    1    2    0    0  0.00000000000E+00  0.00000000000E+00  0.76880903398E+03  0.25209198197E+04  0.24008268173E+04 0.  0.
        3    1    3    3  502    0  0.40412938525E+03 -0.11072518146E+04  0.14573483281E+03  0.11876724265E+04  0.10100000352E+00 0. -1.
       -3    1    3    3    0  502 -0.40412938525E+03  0.11072518146E+04  0.62307420118E+03  0.13332473932E+04  0.10100000352E+00 0.  1.
</event>
<event>
 5   0  0.5371843E-06  0.2401753E+04  0.7818609E-02  0.8438847E-01
        2   -1    0    0  501    0  0.00000000000E+00  0.00000000000E+00  0.81696373537E+03  0.81696373537E+03  0.25500000920E-02 0. -1.
       -2   -1    0    0    0  501  0.00000000000E+00  0.00000000000E+00 -0.17652005771E+04  0.17652005771E+04  0.25500000920E-02 0.  1.
    10030    2    1    2    0    0  0.00000000000E+00  0.00000000000E+00 -0.94823684169E+03  0.25821643124E+04  0.24017534071E+04 0.  0.
        4    1    3    3  502    0 -0.12552094487E+03  0.33850737615E+03  0.75723503192E+03  0.83889764440E+03  0.12699999809E+01 0. -1.
       -4    1    3    3    0  502  0.12552094487E+03 -0.33850737615E+03 -0.17054718736E+04  0.17432666680E+04  0.12699999809E+01 0.  1.
</event>
<event>
 5   0  0.5379778E-06  0.2400164E+04  0.7818609E-02  0.8439442E-01
        2   -1    0    0  501    0  0.00000000000E+00  0.00000000000E+00  0.15903028027E+04  0.15903028027E+04  0.25500000920E-02 0.  1.
       -2   -1    0    0    0  501  0.00000000000E+00  0.00000000000E+00 -0.90561181241E+03  0.90561181241E+03  0.25500000920E-02 0. -1.
    10030    2    1    2    0    0  0.00000000000E+00  0.00000000000E+00  0.68469099028E+03  0.24959146151E+04  0.24001641639E+04 0.  0.
        5    1    3    3  502    0 -0.87634055238E+03 -0.38451445788E+03 -0.41066275891E+03  0.10413885555E+04  0.46999998093E+01 0. -1.
       -5    1    3    3    0  502  0.87634055238E+03  0.38451445788E+03  0.10953537492E+04  0.14545260596E+04  0.46999998093E+01 0.  1.
</event>
<event>
 5   0  0.2149417E-06  0.2402211E+04  0.7818609E-02  0.8438676E-01
        1   -1    0    0  501    0  0.00000000000E+00  0.00000000000E+00  0.19823080481E+04  0.19823080481E+04  0.50400001928E-02 0.  1.
       -1   -1    0    0    0  501  0.00000000000E+00  0.00000000000E+00 -0.72776500592E+03  0.72776500594E+03  0.50400001928E-02 0. -1.
    10030    2    1    2    0    0  0.00000000000E+00  0.00000000000E+00  0.12545430422E+04  0.27100730540E+04  0.24022110052E+04 0.  0.
        5    1    3    3  502    0  0.98784677087E+03  0.31840231005E+03  0.13092343327E+04  0.16707297513E+04  0.46999998093E+01 0.  1.
       -5    1    3    3    0  502 -0.98784677087E+03 -0.31840231005E+03 -0.54691290545E+02  0.10393433028E+04  0.46999998093E+01 0. -1.
</event>
<event>
 5   0  0.2215700E-06  0.2404100E+04  0.7818609E-02  0.8437970E-01
        1   -1    0    0  501    0  0.00000000000E+00  0.00000000000E+00  0.13566381057E+04  0.13566381057E+04  0.50400001928E-02 0. -1.
       -1   -1    0    0    0  501  0.00000000000E+00  0.00000000000E+00 -0.10650766791E+04  0.10650766791E+04  0.50400001928E-02 0.  1.
    10030    2    1    2    0    0  0.00000000000E+00  0.00000000000E+00  0.29156142656E+03  0.24217147848E+04  0.24040995058E+04 0.  0.
        3    1    3    3  502    0  0.73839975639E+03  0.94812980439E+03  0.11839193361E+03  0.12075599307E+04  0.10100000352E+00 0.  1.
       -3    1    3    3    0  502 -0.73839975639E+03 -0.94812980439E+03  0.17316949295E+03  0.12141548541E+04  0.10100000352E+00 0. -1.
</event>
<event>
 5   0  0.5268358E-06  0.2403195E+04  0.7818609E-02  0.8438308E-01
       -2   -1    0    0    0  501  0.00000000000E+00  0.00000000000E+00  0.12865006727E+04  0.12865006727E+04  0.25500000920E-02 0.  1.
        2   -1    0    0  501    0  0.00000000000E+00  0.00000000000E+00 -0.11222972785E+04  0.11222972785E+04  0.25500000920E-02 0. -1.
    10030    2    1    2    0    0  0.00000000000E+00  0.00000000000E+00  0.16420339418E+03  0.24087979511E+04  0.24031947101E+04 0.  0.
        2    1    3    3  502    0 -0.22155997682E+03  0.64307867089E+03  0.10749652412E+04  0.12720806854E+04  0.25500000920E-02 0.  1.
       -2    1    3    3    0  502  0.22155997682E+03 -0.64307867089E+03 -0.91076184703E+03  0.11367172658E+04  0.25500000920E-02 0. -1.
</event>
<event>
 5   0  0.5379778E-06  0.2396869E+04  0.7818609E-02  0.8440677E-01
        2   -1    0    0  501    0  0.00000000000E+00  0.00000000000E+00  0.18131288993E+04  0.18131288993E+04  0.25500000920E-02 0. -1.
       -2   -1    0    0    0  501  0.00000000000E+00  0.00000000000E+00 -0.79213617982E+03  0.79213617982E+03  0.25500000920E-02 0.  1.
    10030    2    1    2    0    0  0.00000000000E+00  0.00000000000E+00  0.10209927195E+04  0.26052650791E+04  0.23968687906E+04 0.  0.
        5    1    3    3  502    0  0.10365171414E+04 -0.35240742242E+03  0.10403909446E+04  0.15102960582E+04  0.46999998093E+01 0. -1.
       -5    1    3    3    0  502 -0.10365171414E+04  0.35240742242E+03 -0.19398225102E+02  0.10949690210E+04  0.46999998093E+01 0.  1.
</event>
<event>
 5   0  0.5349036E-06  0.2402495E+04  0.7818609E-02  0.8438570E-01
       -2   -1    0    0    0  501  0.00000000000E+00  0.00000000000E+00  0.11766186265E+04  0.11766186265E+04  0.25500000920E-02 0. -1.
        2   -1    0    0  501    0  0.00000000000E+00  0.00000000000E+00 -0.12263923290E+04  0.12263923290E+04  0.25500000920E-02 0.  1.
    10030    2    1    2    0    0  0.00000000000E+00  0.00000000000E+00 -0.49773702462E+02  0.24030109555E+04  0.24024954175E+04 0.  0.
        1    1    3    3  502    0  0.65993545557E+03 -0.34666716412E+03  0.91728297062E+03  0.11819902607E+04  0.50400001928E-02 0. -1.
       -1    1    3    3    0  502 -0.65993545557E+03  0.34666716412E+03 -0.96705667308E+03  0.12210206948E+04  0.50400001928E-02 0.  1.
</event>
<event>
 5   0  0.5371843E-06  0.2393567E+04  0.7818609E-02  0.8441916E-01
        2   -1    0    0  501    0  0.00000000000E+00  0.00000000000E+00  0.10604935714E+04  0.10604935714E+04  0.25500000920E-02 0. -1.
       -2   -1    0    0    0  501  0.00000000000E+00  0.00000000000E+00 -0.13505888528E+04  0.13505888528E+04  0.25500000920E-02 0.  1.
    10030    2    1    2    0    0  0.00000000000E+00  0.00000000000E+00 -0.29009528139E+03  0.24110824242E+04  0.23935670419E+04 0.  0.
        4    1    3    3  502    0  0.16338742844E+03  0.57190224063E+03 -0.11911661260E+04  0.13314075173E+04  0.12699999809E+01 0.  1.
       -4    1    3    3    0  502 -0.16338742844E+03 -0.57190224063E+03  0.90107084461E+03  0.10796749069E+04  0.12699999809E+01 0. -1.
</event>
<event>
 5   0  0.5379778E-06  0.2402208E+04  0.7818609E-02  0.8438678E-01
        2   -1    0    0  501    0  0.00000000000E+00  0.00000000000E+00  0.27209578222E+04  0.27209578222E+04  0.25500000920E-02 0.  1.
       -2   -1    0    0    0  501  0.00000000000E+00  0.00000000000E+00 -0.53019942089E+03  0.53019942089E+03  0.25500000920E-02 0. -1.
    10030    2    1    2    0    0  0.00000000000E+00  0.00000000000E+00  0.21907584013E+04  0.32511572431E+04  0.24022075361E+04 0.  0.
        5    1    3    3  502    0  0.58487767730E+03  0.29490989792E+03  0.24579380599E+04  0.25437246985E+04  0.46999998093E+01 0.  1.
       -5    1    3    3    0  502 -0.58487767730E+03 -0.29490989792E+03 -0.26717965856E+03  0.70743254466E+03  0.46999998093E+01 0. -1.
</event>
<event>
 5   0  0.5440503E-06  0.2395917E+04  0.7818609E-02  0.8441034E-01
       -2   -1    0    0    0  501  0.00000000000E+00  0.00000000000E+00  0.77013822776E+03  0.77013822777E+03  0.25500000920E-02 0.  1.
        2   -1    0    0  501    0  0.00000000000E+00  0.00000000000E+00 -0.18634382781E+04  0.18634382781E+04  0.25500000920E-02 0. -1.
    10030    2    1    2    0    0  0.00000000000E+00  0.00000000000E+00 -0.10933000503E+04  0.26335765059E+04  0.23959174051E+04 0.  0.
        3    1    3    3  502    0 -0.67615155757E+03  0.27371269213E+03  0.49787605663E+03  0.88316484565E+03  0.10100000352E+00 0.  1.
       -3    1    3    3    0  502  0.67615155757E+03 -0.27371269213E+03 -0.15911761070E+04  0.17504116602E+04  0.10100000352E+00 0. -1.
</event>
<event>
 5   0  0.2149029E-06  0.2404291E+04  0.7818609E-02  0.8437899E-01
       -1   -1    0    0    0  501  0.00000000000E+00  0.00000000000E+00  0.14272997990E+04  0.14272997990E+04  0.50400001928E-02 0.  1.
        1   -1    0    0  501    0  0.00000000000E+00  0.00000000000E+00 -0.10125090209E+04  0.10125090209E+04  0.50400001928E-02 0. -1.
    10030    2    1    2    0    0  0.00000000000E+00  0.00000000000E+00  0.41479077805E+03  0.24398088199E+04  0.24042910989E+04 0.  0.
        4    1    3    3  502    0 -0.62032605714E+03 -0.46944274944E+03  0.11374340391E+04  0.13780198542E+04  0.12699999809E+01 0.  1.
       -4    1    3    3    0  502  0.62032605714E+03  0.46944274944E+03 -0.72264326107E+03  0.10617889658E+04  0.12699999809E+01 0. -1.
</event>
<event>
 5   0  0.5379778E-06  0.2394988E+04  0.7818609E-02  0.8441382E-01
        2   -1    0    0  501    0  0.00000000000E+00  0.00000000000E+00  0.10360138811E+04  0.10360138811E+04  0.25500000920E-02 0.  1.
       -2   -1    0    0    0  501  0.00000000000E+00  0.00000000000E+00 -0.13841432033E+04  0.13841432033E+04  0.25500000920E-02 0. -1.
    10030    2    1    2    0    0  0.00000000000E+00  0.00000000000E+00 -0.34812932218E+03  0.24201570844E+04  0.23949877428E+04 0.  0.
        5    1    3    3  502    0 -0.24105567925E+03 -0.11539505112E+04  0.38526534620E+02  0.11794982012E+04  0.46999998093E+01 0.  1.
       -5    1    3    3    0  502  0.24105567925E+03  0.11539505112E+04 -0.38665585680E+03  0.12406588832E+04  0.46999998093E+01 0. -1.
</event>
<event>
 5   0  0.2149417E-06  0.2414525E+04  0.7818609E-02  0.8434085E-01
        1   -1    0    0  501    0  0.00000000000E+00  0.00000000000E+00  0.19273909649E+04  0.19273909649E+04  0.50400001928E-02 0.  1.
       -1   -1    0    0    0  501  0.00000000000E+00  0.00000000000E+00 -0.75619493090E+03  0.75619493091E+03  0.50400001928E-02 0. -1.
    10030    2    1    2    0    0  0.00000000000E+00  0.00000000000E+00  0.11711960340E+04  0.26835858958E+04  0.24145254420E+04 0.  0.
        5    1    3    3  502    0 -0.90602262641E+03 -0.79245072406E+03  0.48249168397E+03  0.12967943032E+04  0.46999998093E+01 0. -1.
       -5    1    3    3    0  502  0.90602262641E+03  0.79245072406E+03  0.68870434998E+03  0.13867915926E+04  0.46999998093E+01 0.  1.
</event>
<event>
 5   0  0.2149417E-06  0.2397716E+04  0.7818609E-02  0.8440359E-01
        1   -1    0    0  501    0  0.00000000000E+00  0.00000000000E+00  0.22420590631E+04  0.22420590631E+04  0.50400001928E-02 0.  1.
       -1   -1    0    0    0  501  0.00000000000E+00  0.00000000000E+00 -0.64104503127E+03  0.64104503129E+03  0.50400001928E-02 0. -1.
    10030    2    1    2    0    0  0.00000000000E+00  0.00000000000E+00  0.16010140318E+04  0.28831040944E+04  0.23977162653E+04 0.  0.
        5    1    3    3  502    0 -0.98135413842E+02 -0.69806337258E+03  0.19665092360E+04  0.20890437278E+04  0.46999998093E+01 0.  1.
       -5    1    3    3    0  502  0.98135413842E+02  0.69806337258E+03 -0.36549520411E+03  0.79406036661E+03  0.46999998093E+01 0. -1.
</event>
<event>
 5   0  0.2149417E-06  0.2401922E+04  0.7818609E-02  0.8438784E-01
       -1   -1    0    0    0  501  0.00000000000E+00  0.00000000000E+00  0.14443616370E+04  0.14443616370E+04  0.50400001928E-02 0. -1.
        1   -1    0    0  501    0  0.00000000000E+00  0.00000000000E+00 -0.99857788295E+03  0.99857788297E+03  0.50400001928E-02 0.  1.
    10030    2    1    2    0    0  0.00000000000E+00  0.00000000000E+00  0.44578375403E+03  0.24429395200E+04  0.24019222183E+04 0.  0.
        5    1    3    3  502    0  0.45111203933E+03 -0.25854195112E+03 -0.87815641813E+03  0.10205522021E+04  0.46999998093E+01 0.  1.
       -5    1    3    3    0  502 -0.45111203933E+03  0.25854195112E+03  0.13239401722E+04  0.14223873179E+04  0.46999998093E+01 0. -1.
</event>
<event>
 5   0  0.2297414E-06  0.2397121E+04  0.7818609E-02  0.8440582E-01
        1   -1    0    0  501    0  0.00000000000E+00  0.00000000000E+00  0.83877801480E+03  0.83877801481E+03  0.50400001928E-02 0. -1.
       -1   -1    0    0    0  501  0.00000000000E+00  0.00000000000E+00 -0.17126662089E+04  0.17126662089E+04  0.50400001928E-02 0.  1.
    10030    2    1    2    0    0  0.00000000000E+00  0.00000000000E+00 -0.87388819414E+03  0.25514442238E+04  0.23971205750E+04 0.  0.
        1    1    3    3  502    0  0.50446451548E+02  0.20219844256E+03  0.81934648938E+03  0.84543345352E+03  0.50400001928E-02 0. -1.
       -1    1    3    3    0  502 -0.50446451548E+02 -0.20219844256E+03 -0.16932346835E+04  0.17060107702E+04  0.50400001928E-02 0.  1.
</event>
<event>
 5   0  0.5440503E-06  0.2403587E+04  0.7818609E-02  0.8438162E-01
        2   -1    0    0  501    0  0.00000000000E+00  0.00000000000E+00  0.88468026400E+03  0.88468026400E+03  0.25500000920E-02 0.  1.
       -2   -1    0    0    0  501  0.00000000000E+00  0.00000000000E+00 -0.16325761018E+04  0.16325761018E+04  0.25500000920E-02 0. -1.
    10030    2    1    2    0    0  0.00000000000E+00  0.00000000000E+00 -0.74789583781E+03  0.25172563658E+04  0.24035871998E+04 0.  0.
        3    1    3    3  502    0 -0.81258021930E+03 -0.53609289545E+03  0.36409587840E+03  0.10393498084E+04  0.10100000352E+00 0.  1.
       -3    1    3    3    0  502  0.81258021930E+03  0.53609289545E+03 -0.11119917162E+04  0.14779065574E+04  0.10100000352E+00 0. -1.
</event>
<event>
 5   0  0.2254269E-06  0.2409714E+04  0.7818609E-02  0.8435876E-01
       -1   -1    0    0    0  501  0.00000000000E+00  0.00000000000E+00  0.68872815321E+03  0.68872815323E+03  0.50400001928E-02 0. -1.
        1   -1    0    0  501    0  0.00000000000E+00  0.00000000000E+00 -0.21077693573E+04  0.21077693573E+04  0.50400001928E-02 0.  1.
    10030    2    1    2    0    0  0.00000000000E+00  0.00000000000E+00 -0.14190412040E+04  0.27964975105E+04  0.24097137563E+04 0.  0.
        2    1    3    3  502    0 -0.16766039799E+03  0.48959382997E+03 -0.19722218665E+04  0.20389877926E+04  0.25500000920E-02 0.  1.
       -2    1    3    3    0  502  0.16766039799E+03 -0.48959382997E+03  0.55318066248E+03  0.75750971792E+03  0.25500000920E-02 0. -1.
</event>
<event>
 5   0  0.2149029E-06  0.2397388E+04  0.7818609E-02  0.8440482E-01
       -1   -1    0    0    0  501  0.00000000000E+00  0.00000000000E+00  0.68479065588E+03  0.68479065590E+03  0.50400001928E-02 0.  1.
        1   -1    0    0  501    0  0.00000000000E+00  0.00000000000E+00 -0.20982571238E+04  0.20982571238E+04  0.50400001928E-02 0. -1.
    10030    2    1    2    0    0  0.00000000000E+00  0.00000000000E+00 -0.14134664679E+04  0.27830477797E+04  0.23973876383E+04 0.  0.
        4    1    3    3  502    0  0.10054844765E+04 -0.44231987982E+03 -0.12637308200E+04  0.16744142578E+04  0.12699999809E+01 0. -1.
       -4    1    3    3    0  502 -0.10054844765E+04  0.44231987982E+03 -0.14973564788E+03  0.11086335218E+04  0.12699999809E+01 0.  1.
</event>
<event>
 5   0  0.5371843E-06  0.2400350E+04  0.7818609E-02  0.8439373E-01
       -2   -1    0    0    0  501  0.00000000000E+00  0.00000000000E+00  0.87059506416E+03  0.87059506417E+03  0.25500000920E-02 0. -1.
        2   -1    0    0  501    0  0.00000000000E+00  0.00000000000E+00 -0.16545229936E+04  0.16545229936E+04  0.25500000920E-02 0.  1.
    10030    2    1    2    0    0  0.00000000000E+00  0.00000000000E+00 -0.78392792947E+03  0.25251180578E+04  0.24003496010E+04 0.  0.
        4    1    3    3  502    0  0.11825698776E+04 -0.30431236869E+02 -0.60502642596E+03  0.13287046943E+04  0.12699999809E+01 0. -1.
       -4    1    3    3    0  502 -0.11825698776E+04  0.30431236869E+02 -0.17890150351E+03  0.11964133635E+04  0.12699999809E+01 0.  1.
</event>
<event>
 5   0  0.5268358E-06  0.2399873E+04  0.7818609E-02  0.8439551E-01
       -2   -1    0    0    0  501  0.00000000000E+00  0.00000000000E+00  0.78483491910E+03  0.78483491910E+03  0.25500000920E-02 0. -1.
        2   -1    0    0  501    0  0.00000000000E+00  0.00000000000E+00 -0.18345865494E+04  0.18345865494E+04  0.25500000920E-02 0.  1.
    10030    2    1    2    0    0  0.00000000000E+00  0.00000000000E+00 -0.10497516303E+04  0.26194214685E+04  0.23998729850E+04 0.  0.
        2    1    3    3  502    0 -0.45500292134E+03 -0.52600236913E+03 -0.15921553828E+04  0.17374305493E+04  0.25500000920E-02 0.  1.
       -2    1    3    3    0  502  0.45500292134E+03  0.52600236913E+03  0.54240375251E+03  0.88199091917E+03  0.25500000920E-02 0. -1.
</event>
<event>
 5   0  0.2297414E-06  0.2399421E+04  0.7818609E-02  0.8439720E-01
       -1   -1    0    0    0  501  0.00000000000E+00  0.00000000000E+00  0.88924216984E+03  0.88924216986E+03  0.50400001928E-02 0.  1.
        1   -1    0    0  501    0  0.00000000000E+00  0.00000000000E+00 -0.16185749423E+04  0.16185749423E+04  0.50400001928E-02 0. -1.
    10030    2    1    2    0    0  0.00000000000E+00  0.00000000000E+00 -0.72933277244E+03  0.25078171121E+04  0.23994208416E+04 0.  0.
        1    1    3    3  502    0  0.37429431534E+03  0.70862591033E+03  0.56844705593E+03  0.98253700730E+03  0.50400001928E-02 0.  1.
       -1    1    3    3    0  502 -0.37429431534E+03 -0.70862591033E+03 -0.12977798284E+04  0.15252801048E+04  0.50400001928E-02 0. -1.
</event>
<event>
 5   0  0.5379778E-06  0.2397538E+04  0.7818609E-02  0.8440426E-01
       -2   -1    0    0    0  501  0.00000000000E+00  0.00000000000E+00  0.78176913027E+03  0.78176913028E+03  0.25500000920E-02 0.  1.
        2   -1    0    0  501    0  0.00000000000E+00  0.00000000000E+00 -0.18381986817E+04  0.18381986817E+04  0.25500000920E-02 0. -1.
    10030    2    1    2    0    0  0.00000000000E+00  0.00000000000E+00 -0.10564295514E+04  0.26199678119E+04  0.23975378909E+04 0.  0.
        5    1    3    3  502    0  0.33722698042E+03  0.99202893774E+03  0.10820918094E+03  0.10533635491E+04  0.46999998093E+01 0.  1.
       -5    1    3    3    0  502 -0.33722698042E+03 -0.99202893774E+03 -0.11646387323E+04  0.15666042629E+04  0.46999998093E+01 0. -1.
</event>
<event>
 5   0  0.2215700E-06  0.2391862E+04  0.7818609E-02  0.8442556E-01
        1   -1    0    0  501    0  0.00000000000E+00  0.00000000000E+00  0.10971756848E+04  0.10971756848E+04  0.50400001928E-02 0. -1.
       -1   -1    0    0    0  501  0.00000000000E+00  0.00000000000E+00 -0.13035755843E+04  0.13035755843E+04  0.50400001928E-02 0.  1.
    10030    2    1    2    0    0  0.00000000000E+00  0.00000000000E+00 -0.20639989947E+03  0.24007512691E+04  0.23918623994E+04 0.  0.
        3    1    3    3  502    0 -0.62039619156E+03  0.91895426062E+03 -0.55306538847E+03  0.12390519367E+04  0.10100000352E+00 0. -1.
       -3    1    3    3    0  502  0.62039619156E+03 -0.91895426062E+03  0.34666548900E+03  0.11616993325E+04  0.10100000352E+00 0.  1.
</event>
<event>
 5   0  0.5371843E-06  0.2399749E+04  0.7818609E-02  0.8439597E-01
        2   -1    0    0  501    0  0.00000000000E+00  0.00000000000E+00  0.16591711780E+04  0.16591711780E+04  0.25500000920E-02 0.  1.
       -2   -1    0    0    0  501  0.00000000000E+00  0.00000000000E+00 -0.86772203957E+03  0.86772203957E+03  0.25500000920E-02 0. -1.
    10030    2    1    2    0    0  0.00000000000E+00  0.00000000000E+00  0.79144913838E+03  0.25268932175E+04  0.23997494857E+04 0.  0.
        4    1    3    3  502    0  0.78998595414E+03 -0.44348428646E+03 -0.43268640232E+03  0.10039797088E+04  0.12699999809E+01 0. -1.
       -4    1    3    3    0  502 -0.78998595414E+03  0.44348428646E+03  0.12241355407E+04  0.15229135087E+04  0.12699999809E+01 0.  1.
</event>
<event>
 5   0  0.2254269E-06  0.2399257E+04  0.7818609E-02  0.8439782E-01
       -1   -1    0    0    0  501  0.00000000000E+00  0.00000000000E+00  0.26001039310E+04  0.26001039310E+04  0.50400001928E-02 0.  1.
        1   -1    0    0  501    0  0.00000000000E+00  0.00000000000E+00 -0.55348125193E+03  0.55348125195E+03  0.50400001928E-02 0. -1.
    10030    2    1    2    0    0  0.00000000000E+00  0.00000000000E+00  0.20466226791E+04  0.31535851830E+04  0.23992572008E+04 0.  0.
        2    1    3    3  502    0  0.71541337829E+02 -0.71653007029E+03 -0.23781156233E+03  0.75834546470E+03  0.25500000920E-02 0. -1.
       -2    1    3    3    0  502 -0.71541337829E+02  0.71653007029E+03  0.22844342414E+04  0.23952397183E+04  0.25500000920E-02 0.  1.
</event>
<event>
 5   0  0.2215700E-06  0.2391501E+04  0.7818609E-02  0.8442692E-01
        1   -1    0    0  501    0  0.00000000000E+00  0.00000000000E+00  0.12736982266E+04  0.12736982266E+04  0.50400001928E-02 0. -1.
       -1   -1    0    0    0  501  0.00000000000E+00  0.00000000000E+00 -0.11225729689E+04  0.11225729689E+04  0.50400001928E-02 0.  1.
    10030    2    1    2    0    0  0.00000000000E+00  0.00000000000E+00  0.15112525772E+03  0.23962711954E+04  0.23915009510E+04 0.  0.
        3    1    3    3  502    0  0.11253909479E+04  0.33372783324E+03  0.30392100986E+03  0.12125374397E+04  0.10100000352E+00 0. -1.
       -3    1    3    3    0  502 -0.11253909479E+04 -0.33372783324E+03 -0.15279575214E+03  0.11837337557E+04  0.10100000352E+00 0.  1.
</event>
<event>
 5   0  0.2297414E-06  0.2385371E+04  0.7818609E-02  0.8445001E-01
       -1   -1    0    0    0  501  0.00000000000E+00  0.00000000000E+00  0.66717769235E+03  0.66717769237E+03  0.50400001928E-02 0.  1.
        1   -1    0    0  501    0  0.00000000000E+00  0.00000000000E+00 -0.21321143790E+04  0.21321143790E+04  0.50400001928E-02 0. -1.
    10030    2    1    2    0    0  0.00000000000E+00  0.00000000000E+00 -0.14649366866E+04  0.27992920714E+04  0.23853713767E+04 0.  0.
        1    1    3    3  502    0  0.11471242545E+03  0.82568021610E+03  0.26853674450E+03  0.87579606244E+03  0.50400001928E-02 0.  1.
       -1    1    3    3    0  502 -0.11471242545E+03 -0.82568021610E+03 -0.17334734311E+04  0.19234960089E+04  0.50400001928E-02 0. -1.
</event>
<event>
 5   0  0.2215700E-06  0.2399237E+04  0.7818609E-02  0.8439789E-01
        1   -1    0    0  501    0  0.00000000000E+00  0.00000000000E+00  0.20228971618E+04  0.20228971618E+04  0.50400001928E-02 0.  1.
       -1   -1    0    0    0  501  0.00000000000E+00  0.00000000000E+00 -0.71139792667E+03  0.71139792669E+03  0.50400001928E-02 0. -1.
    10030    2    1    2    0    0  0.00000000000E+00  0.00000000000E+00  0.13114992352E+04  0.27342950885E+04  0.23992372512E+04 0.  0.
        3    1    3    3  502    0 -0.76495750222E+02  0.68172048545E+03  0.17773027442E+04  0.19050982848E+04  0.10100000352E+00 0.  1.
       -3    1    3    3    0  502  0.76495750222E+02 -0.68172048545E+03 -0.46580350903E+03  0.82919680372E+03  0.10100000352E+00 0. -1.
</event>
<event>
 5   0  0.5371843E-06  0.2406143E+04  0.7818609E-02  0.8437207E-01
       -2   -1    0    0    0  501  0.00000000000E+00  0.00000000000E+00  0.81525899429E+03  0.81525899429E+03  0.25500000920E-02 0.  1.
        2   -1    0    0  501    0  0.00000000000E+00  0.00000000000E+00 -0.17753633210E+04  0.17753633210E+04  0.25500000920E-02 0. -1.
    10030    2    1    2    0    0  0.00000000000E+00  0.00000000000E+00 -0.96010432672E+03  0.25906223153E+04  0.24061429015E+04 0.  0.
        4    1    3    3  502    0  0.31317383122E+02  0.12011077495E+04 -0.54588504862E+03  0.13197093255E+04  0.12699999809E+01 0. -1.
       -4    1    3    3    0  502 -0.31317383122E+02 -0.12011077495E+04 -0.41421927810E+03  0.12709129898E+04  0.12699999809E+01 0.  1.
</event>
<event>
 5   0  0.5349036E-06  0.2401383E+04  0.7818609E-02  0.8438986E-01
        2   -1    0    0  501    0  0.00000000000E+00  0.00000000000E+00  0.19450911648E+04  0.19450911648E+04  0.25500000920E-02 0. -1.
       -2   -1    0    0    0  501  0.00000000000E+00  0.00000000000E+00 -0.74117885095E+03  0.74117885096E+03  0.25500000920E-02 0.  1.
    10030    2    1    2    0    0  0.00000000000E+00  0.00000000000E+00  0.12039123139E+04  0.26862700158E+04  0.24013832968E+04 0.  0.
        1    1    3    3  502    0  0.11456758625E+04 -0.47437884653E+02  0.10003485048E+04  0.15216834973E+04  0.50400001928E-02 0. -1.
       -1    1    3    3    0  502 -0.11456758625E+04  0.47437884653E+02  0.20356380906E+03  0.11645865185E+04  0.50400001928E-02 0.  1.
</event>
<event>
 5   0  0.2254269E-06  0.2397490E+04  0.7818609E-02  0.8440444E-01
       -1   -1    0    0    0  501  0.00000000000E+00  0.00000000000E+00  0.94762259417E+03  0.94762259418E+03  0.50400001928E-02 0. -1.
        1   -1    0    0  501    0  0.00000000000E+00  0.00000000000E+00 -0.15164160394E+04  0.15164160394E+04  0.50400001928E-02 0.  1.
    10030    2    1    2    0    0  0.00000000000E+00  0.00000000000E+00 -0.56879344522E+03  0.24640386336E+04  0.23974904389E+04 0.  0.
        2    1    3    3  502    0 -0.82249961948E+03 -0.35625329101E+03 -0.11024607008E+04  0.14208594682E+04  0.25500000920E-02 0.  1.
       -2    1    3    3    0  502  0.82249961948E+03  0.35625329101E+03  0.53366725562E+03  0.10431791654E+04  0.25500000920E-02 0. -1.
</event>
<event>
 5   0  0.2254269E-06  0.2399693E+04  0.7818609E-02  0.8439619E-01
       -1   -1    0    0    0  501  0.00000000000E+00  0.00000000000E+00  0.71342696843E+03  0.71342696844E+03  0.50400001928E-02 0.  1.
        1   -1    0    0  501    0  0.00000000000E+00  0.00000000000E+00 -0.20179101240E+04  0.20179101240E+04  0.50400001928E-02 0. -1.
    10030    2    1    2    0    0  0.00000000000E+00  0.00000000000E+00 -0.13044831556E+04  0.27313370925E+04  0.23996928990E+04 0.  0.
        2    1    3    3  502    0  0.94605743042E+03 -0.50682249303E+03 -0.12627871649E+04  0.16572643497E+04  0.25500000920E-02 0. -1.
       -2    1    3    3    0  502 -0.94605743042E+03  0.50682249303E+03 -0.41695990729E+02  0.10740727428E+04  0.25500000920E-02 0.  1.
</event>
<event>
 5   0  0.1796750E-06  0.2401686E+04  0.7818609E-02  0.8438873E-01
        3   -1    0    0  501    0  0.00000000000E+00  0.00000000000E+00  0.10472305687E+04  0.10472305735E+04  0.10100000352E+00 0. -1.
       -3   -1    0    0    0  501  0.00000000000E+00  0.00000000000E+00 -0.13769876199E+04  0.13769876236E+04  0.10100000352E+00 0.  1.
    10030    2    1    2    0    0  0.00000000000E+00  0.00000000000E+00 -0.32975705121E+03  0.24242181971E+04  0.24016856902E+04 0.  0.
        1    1    3    3  502    0 -0.68535849505E+03 -0.17904167728E+03 -0.11436414709E+04  0.13452464469E+04  0.50400001928E-02 0.  1.
       -1    1    3    3    0  502  0.68535849505E+03  0.17904167728E+03  0.81388441973E+03  0.10789717502E+04  0.50400001928E-02 0. -1.
</event>
<event>
 5   0  0.5371843E-06  0.2401118E+04  0.7818609E-02  0.8439085E-01
       -2   -1    0    0    0  501  0.00000000000E+00  0.00000000000E+00  0.16295423859E+04  0.16295423859E+04  0.25500000920E-02 0. -1.
        2   -1    0    0  501    0  0.00000000000E+00  0.00000000000E+00 -0.88450720199E+03  0.88450720199E+03  0.25500000920E-02 0.  1.
    10030    2    1    2    0    0  0.00000000000E+00  0.00000000000E+00  0.74503518390E+03  0.25140495879E+04  0.24011180531E+04 0.  0.
        4    1    3    3  502    0  0.36467539848E+03 -0.94232599198E+03  0.10513744662E+04  0.14582031075E+04  0.12699999809E+01 0. -1.
       -4    1    3    3    0  502 -0.36467539848E+03  0.94232599198E+03 -0.30633928235E+03  0.10558464804E+04  0.12699999809E+01 0.  1.
</event>
<event>
 5   0  0.2215700E-06  0.2399288E+04  0.7818609E-02  0.8439770E-01
       -1   -1    0    0    0  501  0.00000000000E+00  0.00000000000E+00  0.53488728659E+03  0.53488728661E+03  0.50400001928E-02 0.  1.
        1   -1    0    0  501    0  0.00000000000E+00  0.00000000000E+00 -0.26905594126E+04  0.26905594126E+04  0.50400001928E-02 0. -1.
    10030    2    1    2    0    0  0.00000000000E+00  0.00000000000E+00 -0.21556721260E+04  0.32254466992E+04  0.23992882475E+04 0.  0.
        3    1    3    3  502    0 -0.22157342432E+03  0.11693467095E+04 -0.87538306179E+03  0.14774173495E+04  0.10100000352E+00 0.  1.
       -3    1    3    3    0  502  0.22157342432E+03 -0.11693467095E+04 -0.12802890642E+04  0.17480293498E+04  0.10100000352E+00 0. -1.
</event>
<event>
 5   0  0.5371843E-06  0.2399633E+04  0.7818609E-02  0.8439641E-01
       -2   -1    0    0    0  501  0.00000000000E+00  0.00000000000E+00  0.56672217223E+03  0.56672217223E+03  0.25500000920E-02 0.  1.
        2   -1    0    0  501    0  0.00000000000E+00  0.00000000000E+00 -0.25401505017E+04  0.25401505017E+04  0.25500000920E-02 0. -1.
    10030    2    1    2    0    0  0.00000000000E+00  0.00000000000E+00 -0.19734283295E+04  0.31068726739E+04  0.23996329804E+04 0.  0.
        4    1    3    3  502    0 -0.62541633143E+03 -0.99960177290E+03 -0.12739241946E+04  0.17358668608E+04  0.12699999809E+01 0. -1.
       -4    1    3    3    0  502  0.62541633143E+03  0.99960177290E+03 -0.69950413488E+03  0.13710058131E+04  0.12699999809E+01 0.  1.
</event>
<event>
 5   0  0.2215700E-06  0.2398287E+04  0.7818609E-02  0.8440145E-01
        1   -1    0    0  501    0  0.00000000000E+00  0.00000000000E+00  0.11433529071E+04  0.11433529072E+04  0.50400001928E-02 0. -1.
       -1   -1    0    0    0  501  0.00000000000E+00  0.00000000000E+00 -0.12576565224E+04  0.12576565224E+04  0.50400001928E-02 0.  1.
    10030    2    1    2    0    0  0.00000000000E+00  0.00000000000E+00 -0.11430361524E+03  0.24010094296E+04  0.23982870896E+04 0.  0.
        3    1    3    3  502    0 -0.76364130025E+03 -0.91768242431E+03  0.55475508490E+02  0.11951429243E+04  0.10100000352E+00 0.  1.
       -3    1    3    3    0  502  0.76364130025E+03  0.91768242431E+03 -0.16977912373E+03  0.12058665052E+04  0.10100000352E+00 0. -1.
</event>
<event>
 5   0  0.2215700E-06  0.2400682E+04  0.7818609E-02  0.8439248E-01
        1   -1    0    0  501    0  0.00000000000E+00  0.00000000000E+00  0.18434590648E+04  0.18434590648E+04  0.50400001928E-02 0.  1.
       -1   -1    0    0    0  501  0.00000000000E+00  0.00000000000E+00 -0.78158407601E+03  0.78158407603E+03  0.50400001928E-02 0. -1.
    10030    2    1    2    0    0  0.00000000000E+00  0.00000000000E+00  0.10618749888E+04  0.26250431409E+04  0.24006817781E+04 0.  0.
        3    1    3    3  502    0 -0.45774281211E+03  0.17104566720E+03 -0.66789931530E+03  0.82757151225E+03  0.10100000352E+00 0. -1.
       -3    1    3    3    0  502  0.45774281211E+03 -0.17104566720E+03  0.17297743041E+04  0.17974716286E+04  0.10100000352E+00 0.  1.
</event>
<event>
 5   0  0.5349036E-06  0.2403883E+04  0.7818609E-02  0.8438051E-01
       -2   -1    0    0    0  501  0.00000000000E+00  0.00000000000E+00  0.63156256989E+03  0.63156256990E+03  0.25500000920E-02 0. -1.
        2   -1    0    0  501    0  0.00000000000E+00  0.00000000000E+00 -0.22874421132E+04  0.22874421132E+04  0.25500000920E-02 0.  1.
    10030    2    1    2    0    0  0.00000000000E+00  0.00000000000E+00 -0.16558795433E+04  0.29190046831E+04  0.24038825425E+04 0.  0.
        1    1    3    3  502    0  0.29381285833E+03  0.69751827019E+03  0.30584663948E+03  0.81633320395E+03  0.50400001928E-02 0. -1.
       -1    1    3    3    0  502 -0.29381285833E+03 -0.69751827019E+03 -0.19617261828E+04  0.21026714792E+04  0.50400001928E-02 0.  1.
</event>
<event>
 5   0  0.5349036E-06  0.2401172E+04  0.7818609E-02  0.8439065E-01
        2   -1    0    0  501    0  0.00000000000E+00  0.00000000000E+00  0.15545526047E+04  0.15545526047E+04  0.25500000920E-02 0.  1.
       -2   -1    0    0    0  501  0.00000000000E+00  0.00000000000E+00 -0.92721609810E+03  0.92721609810E+03  0.25500000920E-02 0. -1.
    10030    2    1    2    0    0  0.00000000000E+00  0.00000000000E+00  0.62733650660E+03  0.24817687028E+04  0.24011715477E+04 0.  0.
        1    1    3    3  502    0 -0.25562407066E+03 -0.50171404471E+03  0.14096113816E+04  0.15179146535E+04  0.50400001928E-02 0.  1.
       -1    1    3    3    0  502  0.25562407066E+03  0.50171404471E+03 -0.78227487503E+03  0.96385404927E+03  0.50400001928E-02 0. -1.
</event>
<event>
 5   0  0.5371843E-06  0.2402349E+04  0.7818609E-02  0.8438625E-01
        2   -1    0    0  501    0  0.00000000000E+00  0.00000000000E+00  0.13037206278E+04  0.13037206278E+04  0.25500000920E-02 0. -1.
       -2   -1    0    0    0  501  0.00000000000E+00  0.00000000000E+00 -0.11066944131E+04  0.11066944131E+04  0.25500000920E-02 0.  1.
    10030    2    1    2    0    0  0.00000000000E+00  0.00000000000E+00  0.19702621475E+03  0.24104150409E+04  0.24023491296E+04 0.  0.
        4    1    3    3  502    0  0.47010716159E+03 -0.52677042720E+03 -0.87651650351E+03  0.11255090494E+04  0.12699999809E+01 0.  1.
       -4    1    3    3    0  502 -0.47010716159E+03  0.52677042720E+03  0.10735427183E+04  0.12849059916E+04  0.12699999809E+01 0. -1.
</event>
<event>
 5   0  0.5371843E-06  0.2396959E+04  0.7818609E-02  0.8440643E-01
        2   -1    0    0  501    0  0.00000000000E+00  0.00000000000E+00  0.13873256362E+04  0.13873256362E+04  0.25500000920E-02 0.  1.
       -2   -1    0    0    0  501  0.00000000000E+00  0.00000000000E+00 -0.10353397767E+04  0.10353397767E+04  0.25500000920E-02 0. -1.
    10030    2    1    2    0    0  0.00000000000E+00  0.00000000000E+00  0.35198585947E+03  0.24226654129E+04  0.23969592524E+04 0.  0.
        4    1    3    3  502    0 -0.44305396184E+02  0.11747238617E+04 -0.59773982251E+02  0.11770784431E+04  0.12699999809E+01 0. -1.
       -4    1    3    3    0  502  0.44305396184E+02 -0.11747238617E+04  0.41175984172E+03  0.12455869698E+04  0.12699999809E+01 0.  1.
</event>
<event>
 5   0  0.2297414E-06  0.2399810E+04  0.7818609E-02  0.8439575E-01
       -1   -1    0    0    0  501  0.00000000000E+00  0.00000000000E+00  0.11809025271E+04  0.11809025271E+04  0.50400001928E-02 0. -1.
        1   -1    0    0  501    0  0.00000000000E+00  0.00000000000E+00 -0.12192133869E+04  0.12192133869E+04  0.50400001928E-02 0.  1.
    10030    2    1    2    0    0  0.00000000000E+00  0.00000000000E+00 -0.38310859731E+02  0.24001159140E+04  0.23998101339E+04 0.  0.
        1    1    3    3  502    0 -0.14740623738E+03  0.10312672225E+04  0.57634590517E+03  0.11905525127E+04  0.50400001928E-02 0. -1.
       -1    1    3    3    0  502  0.14740623738E+03 -0.10312672225E+04 -0.61465676490E+03  0.12095634013E+04  0.50400001928E-02 0.  1.
</event>
<event>
 5   0  0.2215700E-06  0.2403179E+04  0.7818609E-02  0.8438314E-01
       -1   -1    0    0    0  501  0.00000000000E+00  0.00000000000E+00  0.99721080521E+03  0.99721080522E+03  0.50400001928E-02 0.  1.
        1   -1    0    0  501    0  0.00000000000E+00  0.00000000000E+00 -0.14478558064E+04  0.14478558064E+04  0.50400001928E-02 0. -1.
    10030    2    1    2    0    0  0.00000000000E+00  0.00000000000E+00 -0.45064500117E+03  0.24450666116E+04  0.24031791065E+04 0.  0.
        3    1    3    3  502    0 -0.10104278740E+04 -0.47487877307E+03  0.22665366778E+03  0.11392305443E+04  0.10100000352E+00 0.  1.
       -3    1    3    3    0  502  0.10104278740E+04  0.47487877307E+03 -0.67729866894E+03  0.13058360674E+04  0.10100000352E+00 0. -1.
</event>
<event>
 5   0  0.5268358E-06  0.2401938E+04  0.7818609E-02  0.8438778E-01
        2   -1    0    0  501    0  0.00000000000E+00  0.00000000000E+00  0.21584440664E+04  0.21584440664E+04  0.25500000920E-02 0.  1.
       -2   -1    0    0    0  501  0.00000000000E+00  0.00000000000E+00 -0.66822517019E+03  0.66822517019E+03  0.25500000920E-02 0. -1.
    10030    2    1    2    0    0  0.00000000000E+00  0.00000000000E+00  0.14902188962E+04  0.28266692366E+04  0.24019380955E+04 0.  0.
        2    1    3    3  502    0  0.34483018432E+03  0.89766214272E+03 -0.10157059878E+03  0.96696523465E+03  0.25500000920E-02 0. -1.
       -2    1    3    3    0  502 -0.34483018432E+03 -0.89766214272E+03  0.15917894950E+04  0.18597040020E+04  0.25500000920E-02 0.  1.
</event>
<event>
 5   0  0.2254269E-06  0.2401946E+04  0.7818609E-02  0.8438775E-01
        1   -1    0    0  501    0  0.00000000000E+00  0.00000000000E+00  0.14957017709E+04  0.14957017709E+04  0.50400001928E-02 0. -1.
       -1   -1    0    0    0  501  0.00000000000E+00  0.00000000000E+00 -0.96432055832E+03  0.96432055833E+03  0.50400001928E-02 0.  1.
    10030    2    1    2    0    0  0.00000000000E+00  0.00000000000E+00  0.53138121256E+03  0.24600223292E+04  0.24019458502E+04 0.  0.
        2    1    3    3  502    0 -0.26090630907E+03 -0.33196664034E+03  0.14171802256E+04  0.14787405940E+04  0.25500000920E-02 0. -1.
       -2    1    3    3    0  502  0.26090630907E+03  0.33196664034E+03 -0.88579901305E+03  0.98128173525E+03  0.25500000920E-02 0.  1.
</event>
<event>
 5   0  0.2149029E-06  0.2334566E+04  0.7818609E-02  0.8464416E-01
        1   -1    0    0  501    0  0.00000000000E+00  0.00000000000E+00  0.12981593833E+04  0.12981593833E+04  0.50400001928E-02 0.  1.
       -1   -1    0    0    0  501  0.00000000000E+00  0.00000000000E+00 -0.10496010081E+04  0.10496010081E+04  0.50400001928E-02 0. -1.
    10030    2    1    2    0    0  0.00000000000E+00  0.00000000000E+00  0.24855837520E+03  0.23477603914E+04  0.23345658246E+04 0.  0.
        4    1    3    3  502    0  0.64099636031E+03  0.73857170300E+03 -0.51664797036E+03  0.11060249692E+04  0.12699999809E+01 0. -1.
       -4    1    3    3    0  502 -0.64099636031E+03 -0.73857170300E+03  0.76520634555E+03  0.12417354221E+04  0.12699999809E+01 0.  1.
</event>
<event>
 5   0  0.2149029E-06  0.2407699E+04  0.7818609E-02  0.8436627E-01
        1   -1    0    0  501    0  0.00000000000E+00  0.00000000000E+00  0.13862796346E+04  0.13862796346E+04  0.50400001928E-02 0.  1.
       -1   -1    0    0    0  501  0.00000000000E+00  0.00000000000E+00 -0.10454269393E+04  0.10454269393E+04  0.50400001928E-02 0. -1.
    10030    2    1    2    0    0  0.00000000000E+00  0.00000000000E+00  0.34085269530E+03  0.24317065739E+04  0.24076993794E+04 0.  0.
        4    1    3    3  502    0 -0.11583502896E+04 -0.19371642958E+03  0.43754604577E+03  0.12532954973E+04  0.12699999809E+01 0.  1.
       -4    1    3    3    0  502  0.11583502896E+04  0.19371642958E+03 -0.96693350471E+02  0.11784110766E+04  0.12699999809E+01 0. -1.
</event>
<event>
 5   0  0.5268358E-06  0.2396397E+04  0.7818609E-02  0.8440854E-01
       -2   -1    0    0    0  501  0.00000000000E+00  0.00000000000E+00  0.68278351695E+03  0.68278351695E+03  0.25500000920E-02 0. -1.
        2   -1    0    0  501    0  0.00000000000E+00  0.00000000000E+00 -0.21026868249E+04  0.21026868249E+04  0.25500000920E-02 0.  1.
    10030    2    1    2    0    0  0.00000000000E+00  0.00000000000E+00 -0.14199033079E+04  0.27854703418E+04  0.23963972169E+04 0.  0.
        2    1    3    3  502    0  0.27509489337E+03  0.37147851729E+03 -0.19948727966E+04  0.20477282446E+04  0.25500000920E-02 0.  1.
       -2    1    3    3    0  502 -0.27509489337E+03 -0.37147851729E+03  0.57496948864E+03  0.73774209724E+03  0.25500000920E-02 0. -1.
</event>
<event>
 5   0  0.2297414E-06  0.2396279E+04  0.7818609E-02  0.8440898E-01
        1   -1    0    0  501    0  0.00000000000E+00  0.00000000000E+00  0.16095017901E+04  0.16095017901E+04  0.50400001928E-02 0.  1.
       -1   -1    0    0    0  501  0.00000000000E+00  0.00000000000E+00 -0.89191456328E+03  0.89191456329E+03  0.50400001928E-02 0. -1.
    10030    2    1    2    0    0  0.00000000000E+00  0.00000000000E+00  0.71758722678E+03  0.25014163534E+04  0.23962788537E+04 0.  0.
        1    1    3    3  502    0 -0.85229450856E+03  0.69731931005E+03  0.85160662830E+03  0.13920826121E+04  0.50400001928E-02 0.  1.
       -1    1    3    3    0  502  0.85229450856E+03 -0.69731931005E+03 -0.13401940153E+03  0.11093337413E+04  0.50400001928E-02 0. -1.
</event>
<event>
 5   0  0.5268358E-06  0.2402886E+04  0.7818609E-02  0.8438424E-01
        2   -1    0    0  501    0  0.00000000000E+00  0.00000000000E+00  0.15824541344E+04  0.15824541344E+04  0.25500000920E-02 0. -1.
       -2   -1    0    0    0  501  0.00000000000E+00  0.00000000000E+00 -0.91216887644E+03  0.91216887644E+03  0.25500000920E-02 0.  1.
    10030    2    1    2    0    0  0.00000000000E+00  0.00000000000E+00  0.67028525794E+03  0.24946230108E+04  0.24028861061E+04 0.  0.
        2    1    3    3  502    0 -0.86195400379E+03  0.78573196133E+03  0.35819584915E+02  0.11668857966E+04  0.25500000920E-02 0. -1.
       -2    1    3    3    0  502  0.86195400379E+03 -0.78573196133E+03  0.63446567302E+03  0.13277372142E+04  0.25500000920E-02 0.  1.
</event>
<event>
 5   0  0.5268358E-06  0.2400259E+04  0.7818609E-02  0.8439406E-01
       -2   -1    0    0    0  501  0.00000000000E+00  0.00000000000E+00  0.12949252590E+04  0.12949252590E+04  0.25500000920E-02 0. -1.
        2   -1    0    0  501    0  0.00000000000E+00  0.00000000000E+00 -0.11122736068E+04  0.11122736068E+04  0.25500000920E-02 0.  1.
    10030    2    1    2    0    0  0.00000000000E+00  0.00000000000E+00  0.18265165216E+03  0.24071988658E+04  0.24002593096E+04 0.  0.
        2    1    3    3  502    0  0.12472582038E+03 -0.16537880287E+03 -0.10942105321E+04  0.11136441834E+04  0.25500000920E-02 0.  1.
       -2    1    3    3    0  502 -0.12472582038E+03  0.16537880287E+03  0.12768621842E+04  0.12935546824E+04  0.25500000920E-02 0. -1.
</event>
<event>
 5   0  0.5268358E-06  0.2428240E+04  0.7818609E-02  0.8429006E-01
       -2   -1    0    0    0  501  0.00000000000E+00  0.00000000000E+00  0.76137514350E+03  0.76137514350E+03  0.25500000920E-02 0.  1.
        2   -1    0    0  501    0  0.00000000000E+00  0.00000000000E+00 -0.19360847163E+04  0.19360847163E+04  0.25500000920E-02 0. -1.
    10030    2    1    2    0    0  0.00000000000E+00  0.00000000000E+00 -0.11747095728E+04  0.26974598598E+04  0.24282395094E+04 0.  0.
        2    1    3    3  502    0 -0.10447272903E+04  0.38933278652E+03 -0.11213261981E+04  0.15812677105E+04  0.25500000920E-02 0. -1.
       -2    1    3    3    0  502  0.10447272903E+04 -0.38933278652E+03 -0.53383374786E+02  0.11161921494E+04  0.25500000920E-02 0.  1.
</event>
<event>
 5   0  0.5349036E-06  0.2391362E+04  0.7818609E-02  0.8442745E-01
        2   -1    0    0  501    0  0.00000000000E+00  0.00000000000E+00  0.90237891897E+03  0.90237891898E+03  0.25500000920E-02 0. -1.
       -2   -1    0    0    0  501  0.00000000000E+00  0.00000000000E+00 -0.15843158799E+04  0.15843158799E+04  0.25500000920E-02 0.  1.
    10030    2    1    2    0    0  0.00000000000E+00  0.00000000000E+00 -0.68193696097E+03  0.24866947989E+04  0.23913621650E+04 0.  0.
        1    1    3    3  502    0 -0.44038421302E+03  0.11114789979E+04 -0.32209461504E+03  0.12381715385E+04  0.50400001928E-02 0. -1.
       -1    1    3    3    0  502  0.44038421302E+03 -0.11114789979E+04 -0.35984234593E+03  0.12485232604E+04  0.50400001928E-02 0.  1.
</event>
<event>
 5   0  0.2149029E-06  0.2401788E+04  0.7818609E-02  0.8438835E-01
        1   -1    0    0  501    0  0.00000000000E+00  0.00000000000E+00  0.23314323280E+04  0.23314323280E+04  0.50400001928E-02 0. -1.
       -1   -1    0    0    0  501  0.00000000000E+00  0.00000000000E+00 -0.61856654051E+03  0.61856654053E+03  0.50400001928E-02 0.  1.
    10030    2    1    2    0    0  0.00000000000E+00  0.00000000000E+00  0.17128657875E+04  0.29499988686E+04  0.24017876922E+04 0.  0.
        4    1    3    3  502    0  0.32256914994E+03 -0.28733780320E+03  0.22326941252E+04  0.22741016995E+04  0.12699999809E+01 0. -1.
       -4    1    3    3    0  502 -0.32256914994E+03  0.28733780320E+03 -0.51982833771E+03  0.67589716912E+03  0.12699999809E+01 0.  1.
</event>
<event>
 5   0  0.5371843E-06  0.2400582E+04  0.7818609E-02  0.8439286E-01
        2   -1    0    0  501    0  0.00000000000E+00  0.00000000000E+00  0.19527808925E+04  0.19527808925E+04  0.25500000920E-02 0.  1.
       -2   -1    0    0    0  501  0.00000000000E+00  0.00000000000E+00 -0.73776784166E+03  0.73776784166E+03  0.25500000920E-02 0. -1.
    10030    2    1    2    0    0  0.00000000000E+00  0.00000000000E+00  0.12150130508E+04  0.26905487341E+04  0.24005823829E+04 0.  0.
        4    1    3    3  502    0  0.99864413266E+03 -0.66539809781E+03  0.57887480186E+03  0.13323446932E+04  0.12699999809E+01 0. -1.
       -4    1    3    3    0  502 -0.99864413266E+03  0.66539809781E+03  0.63613824896E+03  0.13582040410E+04  0.12699999809E+01 0.  1.
</event>
<event>
 5   0  0.5379778E-06  0.2399340E+04  0.7818609E-02  0.8439751E-01
        2   -1    0    0  501    0  0.00000000000E+00  0.00000000000E+00  0.18536296976E+04  0.18536296976E+04  0.25500000920E-02 0.  1.
       -2   -1    0    0    0  501  0.00000000000E+00  0.00000000000E+00 -0.77642718823E+03  0.77642718824E+03  0.25500000920E-02 0. -1.
    10030    2    1    2    0    0  0.00000000000E+00  0.00000000000E+00  0.10772025093E+04  0.26300568858E+04  0.23993403211E+04 0.  0.
        5    1    3    3  502    0 -0.43672268121E+02 -0.10331615950E+04  0.12052388066E+04  0.15880657478E+04  0.46999998093E+01 0.  1.
       -5    1    3    3    0  502  0.43672268121E+02  0.10331615950E+04 -0.12803629727E+03  0.10419911380E+04  0.46999998093E+01 0. -1.
</event>
<event>
 5   0  0.2149417E-06  0.2409253E+04  0.7818609E-02  0.8436048E-01
       -1   -1    0    0    0  501  0.00000000000E+00  0.00000000000E+00  0.11264464735E+04  0.11264464736E+04  0.50400001928E-02 0. -1.
        1   -1    0    0  501    0  0.00000000000E+00  0.00000000000E+00 -0.12882324752E+04  0.12882324752E+04  0.50400001928E-02 0.  1.
    10030    2    1    2    0    0  0.00000000000E+00  0.00000000000E+00 -0.16178600166E+03  0.24146789488E+04  0.24092529372E+04 0.  0.
        5    1    3    3  502    0  0.29068880956E+03 -0.20587624386E+03  0.10724452982E+04  0.11300646085E+04  0.46999998093E+01 0. -1.
       -5    1    3    3    0  502 -0.29068880956E+03  0.20587624386E+03 -0.12342312998E+04  0.12846143403E+04  0.46999998093E+01 0.  1.
</event>
<event>
 5   0  0.5379778E-06  0.2403910E+04  0.7818609E-02  0.8438041E-01
       -2   -1    0    0    0  501  0.00000000000E+00  0.00000000000E+00  0.13540461995E+04  0.13540461995E+04  0.25500000920E-02 0.  1.
        2   -1    0    0  501    0  0.00000000000E+00  0.00000000000E+00 -0.10669473804E+04  0.10669473804E+04  0.25500000920E-02 0. -1.
    10030    2    1    2    0    0  0.00000000000E+00  0.00000000000E+00  0.28709881911E+03  0.24209935800E+04  0.24039101860E+04 0.  0.
        5    1    3    3  502    0  0.35125536080E+03  0.64450795522E+03  0.11021027356E+04  0.13241689328E+04  0.46999998093E+01 0.  1.
       -5    1    3    3    0  502 -0.35125536080E+03 -0.64450795522E+03 -0.81500391644E+03  0.10968246472E+04  0.46999998093E+01 0. -1.
</event>
<event>
 5   0  0.2149417E-06  0.2397936E+04  0.7818609E-02  0.8440277E-01
       -1   -1    0    0    0  501  0.00000000000E+00  0.00000000000E+00  0.15315543815E+04  0.15315543815E+04  0.50400001928E-02 0.  1.
        1   -1    0    0  501    0  0.00000000000E+00  0.00000000000E+00 -0.93860498132E+03  0.93860498133E+03  0.50400001928E-02 0. -1.
    10030    2    1    2    0    0  0.00000000000E+00  0.00000000000E+00  0.59294940016E+03  0.24701593628E+04  0.23979362557E+04 0.  0.
        5    1    3    3  502    0 -0.12886567968E+03  0.81415900390E+03 -0.60040409027E+03  0.10197884137E+04  0.46999998093E+01 0. -1.
       -5    1    3    3    0  502  0.12886567968E+03 -0.81415900390E+03  0.11933534904E+04  0.14503709492E+04  0.46999998093E+01 0.  1.
</event>
<event>
 5   0  0.5379778E-06  0.2400211E+04  0.7818609E-02  0.8439425E-01
       -2   -1    0    0    0  501  0.00000000000E+00  0.00000000000E+00  0.11793040151E+04  0.11793040151E+04  0.25500000920E-02 0. -1.
        2   -1    0    0  501    0  0.00000000000E+00  0.00000000000E+00 -0.12212734308E+04  0.12212734308E+04  0.25500000920E-02 0.  1.
    10030    2    1    2    0    0  0.00000000000E+00  0.00000000000E+00 -0.41969415702E+02  0.24005774460E+04  0.24002105412E+04 0.  0.
        5    1    3    3  502    0  0.29678735335E+02 -0.50514066115E+03 -0.11093526236E+04  0.12193167138E+04  0.46999998093E+01 0.  1.
       -5    1    3    3    0  502 -0.29678735335E+02  0.50514066115E+03  0.10673832079E+04  0.11812607322E+04  0.46999998093E+01 0. -1.
</event>
<event>
 5   0  0.5268358E-06  0.2399341E+04  0.7818609E-02  0.8439750E-01
       -2   -1    0    0    0  501  0.00000000000E+00  0.00000000000E+00  0.98752818486E+03  0.98752818487E+03  0.25500000920E-02 0.  1.
        2   -1    0    0  501    0  0.00000000000E+00  0.00000000000E+00 -0.14573852401E+04  0.14573852401E+04  0.25500000920E-02 0. -1.
    10030    2    1    2    0    0  0.00000000000E+00  0.00000000000E+00 -0.46985705523E+03  0.24449134250E+04  0.23993407435E+04 0.  0.
        2    1    3    3  502    0  0.90654822723E+03  0.17244418191E+03  0.54621005158E+03  0.10723395473E+04  0.25500000920E-02 0.  1.
       -2    1    3    3    0  502 -0.90654822723E+03 -0.17244418191E+03 -0.10160671068E+04  0.13725738777E+04  0.25500000920E-02 0. -1.
</event>
<event>
 5   0  0.2297414E-06  0.2398485E+04  0.7818609E-02  0.8440071E-01
       -1   -1    0    0    0  501  0.00000000000E+00  0.00000000000E+00  0.57500683803E+03  0.57500683805E+03  0.50400001928E-02 0. -1.
        1   -1    0    0  501    0  0.00000000000E+00  0.00000000000E+00 -0.25011576359E+04  0.25011576359E+04  0.50400001928E-02 0.  1.
    10030    2    1    2    0    0  0.00000000000E+00  0.00000000000E+00 -0.19261507979E+04  0.30761644740E+04  0.23984851416E+04 0.  0.
        1    1    3    3  502    0 -0.33436209966E+03  0.98793788260E+02 -0.24347218548E+04  0.24595586467E+04  0.50400001928E-02 0.  1.
       -1    1    3    3    0  502  0.33436209966E+03 -0.98793788260E+02  0.50857105690E+03  0.61660582728E+03  0.50400001928E-02 0. -1.
</event>
<event>
 5   0  0.2215700E-06  0.2397326E+04  0.7818609E-02  0.8440505E-01
        1   -1    0    0  501    0  0.00000000000E+00  0.00000000000E+00  0.11659224523E+04  0.11659224523E+04  0.50400001928E-02 0.  1.
       -1   -1    0    0    0  501  0.00000000000E+00  0.00000000000E+00 -0.12323230233E+04  0.12323230233E+04  0.50400001928E-02 0. -1.
    10030    2    1    2    0    0  0.00000000000E+00  0.00000000000E+00 -0.66400571000E+02  0.23982454757E+04  0.23973260783E+04 0.  0.
        3    1    3    3  502    0  0.83577935316E+03 -0.85792101414E+03 -0.80520408944E+02  0.12004328970E+04  0.10100000352E+00 0.  1.
       -3    1    3    3    0  502 -0.83577935316E+03  0.85792101414E+03  0.14119837944E+02  0.11978125787E+04  0.10100000352E+00 0. -1.
</event>
<event>
 5   0  0.5371843E-06  0.2411450E+04  0.7818609E-02  0.8435229E-01
       -2   -1    0    0    0  501  0.00000000000E+00  0.00000000000E+00  0.90490304952E+03  0.90490304952E+03  0.25500000920E-02 0.  1.
        2   -1    0    0  501    0  0.00000000000E+00  0.00000000000E+00 -0.16065513582E+04  0.16065513582E+04  0.25500000920E-02 0. -1.
    10030    2    1    2    0    0  0.00000000000E+00  0.00000000000E+00 -0.70164830873E+03  0.25114544078E+04  0.24114503713E+04 0.  0.
        4    1    3    3  502    0 -0.11689518804E+04 -0.10942518440E+03 -0.63670589022E+03  0.13355966357E+04  0.12699999809E+01 0.  1.
       -4    1    3    3    0  502  0.11689518804E+04  0.10942518440E+03 -0.64942418507E+02  0.11758577721E+04  0.12699999809E+01 0. -1.
</event>
<event>
 5   0  0.5371843E-06  0.2402378E+04  0.7818609E-02  0.8438614E-01
        2   -1    0    0  501    0  0.00000000000E+00  0.00000000000E+00  0.12524886993E+04  0.12524886993E+04  0.25500000920E-02 0.  1.
       -2   -1    0    0    0  501  0.00000000000E+00  0.00000000000E+00 -0.11519900967E+04  0.11519900967E+04  0.25500000920E-02 0. -1.
    10030    2    1    2    0    0  0.00000000000E+00  0.00000000000E+00  0.10049860264E+03  0.24044787960E+04  0.24023776371E+04 0.  0.
        4    1    3    3  502    0 -0.12346625029E+03  0.80426939181E+03  0.93462824911E+03  0.12392032709E+04  0.12699999809E+01 0.  1.
       -4    1    3    3    0  502  0.12346625029E+03 -0.80426939181E+03 -0.83412964648E+03  0.11652755252E+04  0.12699999809E+01 0. -1.
</event>
<event>
 5   0  0.5349036E-06  0.2403567E+04  0.7818609E-02  0.8438169E-01
       -2   -1    0    0    0  501  0.00000000000E+00  0.00000000000E+00  0.91327786927E+03  0.91327786928E+03  0.25500000920E-02 0.  1.
        2   -1    0    0  501    0  0.00000000000E+00  0.00000000000E+00 -0.15814284369E+04  0.15814284369E+04  0.25500000920E-02 0. -1.
    10030    2    1    2    0    0  0.00000000000E+00  0.00000000000E+00 -0.66815056765E+03  0.24947063062E+04  0.24035670103E+04 0.  0.
        1    1    3    3  502    0  0.37429615797E+03  0.48748323406E+03  0.73782158279E+03  0.96026986073E+03  0.50400001928E-02 0.  1.
       -1    1    3    3    0  502 -0.37429615797E+03 -0.48748323406E+03 -0.14059721504E+04  0.15344364455E+04  0.50400001928E-02 0. -1.
</event>
<event>
 5   0  0.2254269E-06  0.2397763E+04  0.7818609E-02  0.8440341E-01
       -1   -1    0    0    0  501  0.00000000000E+00  0.00000000000E+00  0.83677760460E+03  0.83677760461E+03  0.50400001928E-02 0.  1.
        1   -1    0    0  501    0  0.00000000000E+00  0.00000000000E+00 -0.17176812826E+04  0.17176812826E+04  0.50400001928E-02 0. -1.
    10030    2    1    2    0    0  0.00000000000E+00  0.00000000000E+00 -0.88090367799E+03  0.25544588872E+04  0.23977633154E+04 0.  0.
        2    1    3    3  502    0 -0.56876020124E+03  0.24996924501E+02  0.68358365994E+03  0.88960644832E+03  0.25500000920E-02 0.  1.
       -2    1    3    3    0  502  0.56876020124E+03 -0.24996924501E+02 -0.15644873379E+04  0.16648524389E+04  0.25500000920E-02 0. -1.
</event>
<event>
 5   0  0.2215700E-06  0.2391168E+04  0.7818609E-02  0.8442818E-01
       -1   -1    0    0    0  501  0.00000000000E+00  0.00000000000E+00  0.14446305357E+04  0.14446305357E+04  0.50400001928E-02 0.  1.
        1   -1    0    0  501    0  0.00000000000E+00  0.00000000000E+00 -0.98947147691E+03  0.98947147692E+03  0.50400001928E-02 0. -1.
    10030    2    1    2    0    0  0.00000000000E+00  0.00000000000E+00  0.45515905875E+03  0.24341020126E+04  0.23911676727E+04 0.  0.
        3    1    3    3  502    0 -0.25615941772E+03 -0.52112766746E+03  0.12914422671E+04  0.14159854634E+04  0.10100000352E+00 0.  1.
       -3    1    3    3    0  502  0.25615941772E+03  0.52112766746E+03 -0.83628320833E+03  0.10181165492E+04  0.10100000352E+00 0. -1.
</event>
<event>
 5   0  0.2297414E-06  0.2399761E+04  0.7818609E-02  0.8439593E-01
        1   -1    0    0  501    0  0.00000000000E+00  0.00000000000E+00  0.19990753847E+04  0.19990753847E+04  0.50400001928E-02 0. -1.
       -1   -1    0    0    0  501  0.00000000000E+00  0.00000000000E+00 -0.72018939909E+03  0.72018939911E+03  0.50400001928E-02 0.  1.
    10030    2    1    2    0    0  0.00000000000E+00  0.00000000000E+00  0.12788859856E+04  0.27192647838E+04  0.23997607382E+04 0.  0.
        1    1    3    3  502    0  0.11720222782E+04  0.21752734348E+03  0.48424610608E+03  0.12866423967E+04  0.50400001928E-02 0. -1.
       -1    1    3    3    0  502 -0.11720222782E+04 -0.21752734348E+03  0.79463987956E+03  0.14326223871E+04  0.50400001928E-02 0.  1.
</event>
<event>
 5   0  0.5268358E-06  0.2398562E+04  0.7818609E-02  0.8440042E-01
       -2   -1    0    0    0  501  0.00000000000E+00  0.00000000000E+00  0.81974921654E+03  0.81974921654E+03  0.25500000920E-02 0. -1.
        2   -1    0    0  501    0  0.00000000000E+00  0.00000000000E+00 -0.17545302507E+04  0.17545302507E+04  0.25500000920E-02 0.  1.
    10030    2    1    2    0    0  0.00000000000E+00  0.00000000000E+00 -0.93478103420E+03  0.25742794673E+04  0.23985619012E+04 0.  0.
        2    1    3    3  502    0  0.22053807965E+03 -0.37012244663E+02 -0.17319562071E+04  0.17463330879E+04  0.25500000920E-02 0.  1.
       -2    1    3    3    0  502 -0.22053807965E+03  0.37012244663E+02  0.79717517287E+03  0.82794637935E+03  0.25500000920E-02 0. -1.
</event>
<event>
 5   0  0.2149417E-06  0.2400945E+04  0.7818609E-02  0.8439150E-01
        1   -1    0    0  501    0  0.00000000000E+00  0.00000000000E+00  0.19868236827E+04  0.19868236828E+04  0.50400001928E-02 0. -1.
       -1   -1    0    0    0  501  0.00000000000E+00  0.00000000000E+00 -0.72534568564E+03  0.72534568566E+03  0.50400001928E-02 0.  1.
    10030    2    1    2    0    0  0.00000000000E+00  0.00000000000E+00  0.12614779971E+04  0.27121693684E+04  0.24009448027E+04 0.  0.
        5    1    3    3  502    0 -0.69544659424E+03  0.25785840721E+03 -0.43553147546E+03  0.86014340649E+03  0.46999998093E+01 0.  1.
       -5    1    3    3    0  502  0.69544659424E+03 -0.25785840721E+03  0.16970094726E+04  0.18520259619E+04  0.46999998093E+01 0. -1.
</event>
<event>
 5   0  0.2215700E-06  0.2375995E+04  0.7818609E-02  0.8448546E-01
        1   -1    0    0  501    0  0.00000000000E+00  0.00000000000E+00  0.12880210519E+04  0.12880210519E+04  0.50400001928E-02 0.  1.
       -1   -1    0    0    0  501  0.00000000000E+00  0.00000000000E+00 -0.10957416089E+04  0.10957416089E+04  0.50400001928E-02 0. -1.
    10030    2    1    2    0    0  0.00000000000E+00  0.00000000000E+00  0.19227944296E+03  0.23837626608E+04  0.23759951681E+04 0.  0.
        3    1    3    3  502    0 -0.94510005237E+02  0.21353976127E+02 -0.10917708304E+04  0.10960619005E+04  0.10100000352E+00 0. -1.
       -3    1    3    3    0  502  0.94510005237E+02 -0.21353976127E+02  0.12840502734E+04  0.12877007603E+04  0.10100000352E+00 0.  1.
</event>
<event>
 5   0  0.2254269E-06  0.2397119E+04  0.7818609E-02  0.8440583E-01
       -1   -1    0    0    0  501  0.00000000000E+00  0.00000000000E+00  0.61895465278E+03  0.61895465280E+03  0.50400001928E-02 0. -1.
        1   -1    0    0  501    0  0.00000000000E+00  0.00000000000E+00 -0.23209208961E+04  0.23209208961E+04  0.50400001928E-02 0.  1.
    10030    2    1    2    0    0  0.00000000000E+00  0.00000000000E+00 -0.17019662433E+04  0.29398755489E+04  0.23971189269E+04 0.  0.
        2    1    3    3  502    0  0.32368511417E+03 -0.24509079947E+03 -0.22340151994E+04  0.22706090514E+04  0.25500000920E-02 0.  1.
       -2    1    3    3    0  502 -0.32368511417E+03  0.24509079947E+03  0.53204895604E+03  0.66926649755E+03  0.25500000920E-02 0. -1.
</event>
<event>
 5   0  0.5268358E-06  0.2405989E+04  0.7818609E-02  0.8437265E-01
        2   -1    0    0  501    0  0.00000000000E+00  0.00000000000E+00  0.12731007794E+04  0.12731007794E+04  0.25500000920E-02 0. -1.
       -2   -1    0    0    0  501  0.00000000000E+00  0.00000000000E+00 -0.11367489374E+04  0.11367489374E+04  0.25500000920E-02 0.  1.
    10030    2    1    2    0    0  0.00000000000E+00  0.00000000000E+00  0.13635184200E+03  0.24098497168E+04  0.24059891589E+04 0.  0.
        2    1    3    3  502    0  0.10017545826E+04  0.50250126427E+03  0.50611449434E+03  0.12297038854E+04  0.25500000920E-02 0. -1.
       -2    1    3    3    0  502 -0.10017545826E+04 -0.50250126427E+03 -0.36976265234E+03  0.11801458314E+04  0.25500000920E-02 0.  1.
</event>
<event>
 5   0  0.5379778E-06  0.2401397E+04  0.7818609E-02  0.8438981E-01
        2   -1    0    0  501    0  0.00000000000E+00  0.00000000000E+00  0.14329365809E+04  0.14329365809E+04  0.25500000920E-02 0.  1.
       -2   -1    0    0    0  501  0.00000000000E+00  0.00000000000E+00 -0.10060992058E+04  0.10060992058E+04  0.25500000920E-02 0. -1.
    10030    2    1    2    0    0  0.00000000000E+00  0.00000000000E+00  0.42683737503E+03  0.24390357867E+04  0.24013965570E+04 0.  0.
        5    1    3    3  502    0 -0.94726535712E+03  0.72722701737E+03  0.33980164084E+03  0.12416352269E+04  0.46999998093E+01 0.  1.
       -5    1    3    3    0  502  0.94726535712E+03 -0.72722701737E+03  0.87035734191E+02  0.11974005598E+04  0.46999998093E+01 0. -1.
</event>
<event>
 5   0  0.2149417E-06  0.2402719E+04  0.7818609E-02  0.8438486E-01
        1   -1    0    0  501    0  0.00000000000E+00  0.00000000000E+00  0.12092732141E+04  0.12092732141E+04  0.50400001928E-02 0.  1.
       -1   -1    0    0    0  501  0.00000000000E+00  0.00000000000E+00 -0.11934971561E+04  0.11934971561E+04  0.50400001928E-02 0. -1.
    10030    2    1    2    0    0  0.00000000000E+00  0.00000000000E+00  0.15776057988E+02  0.24027703703E+04  0.24027185787E+04 0.  0.
        5    1    3    3  502    0 -0.10299060213E+04  0.30319756967E+03  0.54697930288E+03  0.12049247390E+04  0.46999998093E+01 0. -1.
       -5    1    3    3    0  502  0.10299060213E+04 -0.30319756967E+03 -0.53120324489E+03  0.11978456313E+04  0.46999998093E+01 0.  1.
</event>
<event>
 5   0  0.2297414E-06  0.2399425E+04  0.7818609E-02  0.8439719E-01
        1   -1    0    0  501    0  0.00000000000E+00  0.00000000000E+00  0.13112582595E+04  0.13112582595E+04  0.50400001928E-02 0.  1.
       -1   -1    0    0    0  501  0.00000000000E+00  0.00000000000E+00 -0.10976560852E+04  0.10976560852E+04  0.50400001928E-02 0. -1.
    10030    2    1    2    0    0  0.00000000000E+00  0.00000000000E+00  0.21360217430E+03  0.24089143447E+04  0.23994254377E+04 0.  0.
        1    1    3    3  502    0 -0.10860010617E+04  0.50969005030E+03  0.11817525227E+03  0.12054657372E+04  0.50400001928E-02 0.  1.
       -1    1    3    3    0  502  0.10860010617E+04 -0.50969005030E+03  0.95426922035E+02  0.12034486075E+04  0.50400001928E-02 0. -1.
</event>
<event>
 5   0  0.2149417E-06  0.2400689E+04  0.7818609E-02  0.8439246E-01
       -1   -1    0    0    0  501  0.00000000000E+00  0.00000000000E+00  0.70249272795E+03  0.70249272797E+03  0.50400001928E-02 0. -1.
        1   -1    0    0  501    0  0.00000000000E+00  0.00000000000E+00 -0.20510207524E+04  0.20510207524E+04  0.50400001928E-02 0.  1.
    10030    2    1    2    0    0  0.00000000000E+00  0.00000000000E+00 -0.13485280244E+04  0.27535134803E+04  0.24006892039E+04 0.  0.
        5    1    3    3  502    0 -0.97466484771E+03 -0.41036188812E+03 -0.22975446604E+02  0.10577893957E+04  0.46999998093E+01 0.  1.
       -5    1    3    3    0  502  0.97466484771E+03  0.41036188812E+03 -0.13255525778E+04  0.16957240846E+04  0.46999998093E+01 0. -1.
</event>
<event>
 5   0  0.5379778E-06  0.2398071E+04  0.7818609E-02  0.8440226E-01
        2   -1    0    0  501    0  0.00000000000E+00  0.00000000000E+00  0.18568440041E+04  0.18568440041E+04  0.25500000920E-02 0. -1.
       -2   -1    0    0    0  501  0.00000000000E+00  0.00000000000E+00 -0.77426344517E+03  0.77426344517E+03  0.25500000920E-02 0.  1.
    10030    2    1    2    0    0  0.00000000000E+00  0.00000000000E+00  0.10825805590E+04  0.26311074493E+04  0.23980712548E+04 0.  0.
        5    1    3    3  502    0 -0.52844873208E+03  0.37803697192E+03 -0.56435356546E+03  0.86063177458E+03  0.46999998093E+01 0.  1.
       -5    1    3    3    0  502  0.52844873208E+03 -0.37803697192E+03  0.16469341244E+04  0.17704756747E+04  0.46999998093E+01 0. -1.
</event>
<event>
 5   0  0.5268358E-06  0.2437896E+04  0.7818609E-02  0.8425451E-01
        2   -1    0    0  501    0  0.00000000000E+00  0.00000000000E+00  0.11162218392E+04  0.11162218392E+04  0.25500000920E-02 0. -1.
       -2   -1    0    0    0  501  0.00000000000E+00  0.00000000000E+00 -0.13311283923E+04  0.13311283923E+04  0.25500000920E-02 0.  1.
    10030    2    1    2    0    0  0.00000000000E+00  0.00000000000E+00 -0.21490655317E+03  0.24473502315E+04  0.24378962917E+04 0.  0.
        2    1    3    3  502    0  0.10847052570E+04 -0.55590661698E+03 -0.92667928062E+02  0.12223767857E+04  0.25500000920E-02 0.  1.
       -2    1    3    3    0  502 -0.10847052570E+04  0.55590661698E+03 -0.12223862510E+03  0.12249734458E+04  0.25500000920E-02 0. -1.
</event>
<event>
 5   0  0.5268358E-06  0.2397817E+04  0.7818609E-02  0.8440321E-01
       -2   -1    0    0    0  501  0.00000000000E+00  0.00000000000E+00  0.17795094056E+04  0.17795094056E+04  0.25500000920E-02 0.  1.
        2   -1    0    0  501    0  0.00000000000E+00  0.00000000000E+00 -0.80774015450E+03  0.80774015450E+03  0.25500000920E-02 0. -1.
    10030    2    1    2    0    0  0.00000000000E+00  0.00000000000E+00  0.97176925109E+03  0.25872495601E+04  0.23978166754E+04 0.  0.
        2    1    3    3  502    0 -0.10125200138E+04  0.64301244662E+02 -0.20336877328E+03  0.10347416520E+04  0.25500000920E-02 0. -1.
       -2    1    3    3    0  502  0.10125200138E+04 -0.64301244662E+02  0.11751380244E+04  0.15525079081E+04  0.25500000920E-02 0.  1.
</event>
<event>
 5   0  0.5379778E-06  0.2407050E+04  0.7818609E-02  0.8436869E-01
       -2   -1    0    0    0  501  0.00000000000E+00  0.00000000000E+00  0.98125165098E+03  0.98125165098E+03  0.25500000920E-02 0. -1.
        2   -1    0    0  501    0  0.00000000000E+00  0.00000000000E+00 -0.14761482317E+04  0.14761482317E+04  0.25500000920E-02 0.  1.
    10030    2    1    2    0    0  0.00000000000E+00  0.00000000000E+00 -0.49489658073E+03  0.24573998827E+04  0.24070503854E+04 0.  0.
        5    1    3    3  502    0 -0.51314572174E+03 -0.94904479165E+03 -0.79193935754E+03  0.13383551787E+04  0.46999998093E+01 0.  1.
       -5    1    3    3    0  502  0.51314572174E+03  0.94904479165E+03  0.29704277681E+03  0.11190447040E+04  0.46999998093E+01 0. -1.
</event>
<event>
 5   0  0.5349036E-06  0.2397650E+04  0.7818609E-02  0.8440384E-01
        2   -1    0    0  501    0  0.00000000000E+00  0.00000000000E+00  0.10410308421E+04  0.10410308421E+04  0.25500000920E-02 0. -1.
       -2   -1    0    0    0  501  0.00000000000E+00  0.00000000000E+00 -0.13805369349E+04  0.13805369349E+04  0.25500000920E-02 0.  1.
    10030    2    1    2    0    0  0.00000000000E+00  0.00000000000E+00 -0.33950609280E+03  0.24215677771E+04  0.23976501229E+04 0.  0.
        1    1    3    3  502    0  0.99449924593E+03  0.61320937460E+03  0.10149078915E+03  0.11727552462E+04  0.50400001928E-02 0.  1.
       -1    1    3    3    0  502 -0.99449924593E+03 -0.61320937460E+03 -0.44099688196E+03  0.12488125308E+04  0.50400001928E-02 0. -1.
</event>
<event>
 5   0  0.5268358E-06  0.2402184E+04  0.7818609E-02  0.8438686E-01
       -2   -1    0    0    0  501  0.00000000000E+00  0.00000000000E+00  0.10081797294E+04  0.10081797294E+04  0.25500000920E-02 0.  1.
        2   -1    0    0  501    0  0.00000000000E+00  0.00000000000E+00 -0.14309172789E+04  0.14309172789E+04  0.25500000920E-02 0. -1.
    10030    2    1    2    0    0  0.00000000000E+00  0.00000000000E+00 -0.42273754955E+03  0.24390970083E+04  0.24021838356E+04 0.  0.
        2    1    3    3  502    0 -0.57566003775E+03 -0.89791945925E+03  0.34936544604E+03  0.11223635994E+04  0.25500000920E-02 0.  1.
       -2    1    3    3    0  502  0.57566003775E+03  0.89791945925E+03 -0.77210299559E+03  0.13167334089E+04  0.25500000920E-02 0. -1.
</event>
<event>
 5   0  0.5349036E-06  0.2394194E+04  0.7818609E-02  0.8441681E-01
       -2   -1    0    0    0  501  0.00000000000E+00  0.00000000000E+00  0.80400052141E+03  0.80400052141E+03  0.25500000920E-02 0. -1.
        2   -1    0    0  501    0  0.00000000000E+00  0.00000000000E+00 -0.17823879358E+04  0.17823879358E+04  0.25500000920E-02 0.  1.
    10030    2    1    2    0    0  0.00000000000E+00  0.00000000000E+00 -0.97838741442E+03  0.25863884572E+04  0.23941936678E+04 0.  0.
        1    1    3    3  502    0  0.51915129884E+03  0.10756222937E+04 -0.57668560864E+03  0.13262909489E+04  0.50400001928E-02 0. -1.
       -1    1    3    3    0  502 -0.51915129884E+03 -0.10756222937E+04 -0.40170180579E+03  0.12600975084E+04  0.50400001928E-02 0.  1.
</event>
<event>
 5   0  0.2149029E-06  0.2398566E+04  0.7818609E-02  0.8440040E-01
       -1   -1    0    0    0  501  0.00000000000E+00  0.00000000000E+00  0.93772664340E+03  0.93772664342E+03  0.50400001928E-02 0.  1.
        1   -1    0    0  501    0  0.00000000000E+00  0.00000000000E+00 -0.15337947955E+04  0.15337947955E+04  0.50400001928E-02 0. -1.
    10030    2    1    2    0    0  0.00000000000E+00  0.00000000000E+00 -0.59606815208E+03  0.24715214389E+04  0.23985664429E+04 0.  0.
        4    1    3    3  502    0  0.89313504953E+03  0.79879883706E+03 -0.34964582260E+03  0.12482081609E+04  0.12699999809E+01 0.  1.
       -4    1    3    3    0  502 -0.89313504953E+03 -0.79879883706E+03 -0.24642232948E+03  0.12233132780E+04  0.12699999809E+01 0. -1.
</event>
<event>
 5   0  0.2297414E-06  0.2409881E+04  0.7818609E-02  0.8435813E-01
        1   -1    0    0  501    0  0.00000000000E+00  0.00000000000E+00  0.11046377306E+04  0.11046377306E+04  0.50400001928E-02 0.  1.
       -1   -1    0    0    0  501  0.00000000000E+00  0.00000000000E+00 -0.13143511586E+04  0.13143511587E+04  0.50400001928E-02 0. -1.
    10030    2    1    2    0    0  0.00000000000E+00  0.00000000000E+00 -0.20971342809E+03  0.24189888892E+04  0.24098812262E+04 0.  0.
        1    1    3    3  502    0 -0.20752255670E+03  0.10390924803E+04  0.47098644664E+03  0.11595719155E+04  0.50400001928E-02 0.  1.
       -1    1    3    3    0  502  0.20752255670E+03 -0.10390924803E+04 -0.68069987473E+03  0.12594169737E+04  0.50400001928E-02 0. -1.
</event>
<event>
 5   0  0.2297414E-06  0.2402317E+04  0.7818609E-02  0.8438636E-01
       -1   -1    0    0    0  501  0.00000000000E+00  0.00000000000E+00  0.11004225672E+04  0.11004225672E+04  0.50400001928E-02 0.  1.
        1   -1    0    0  501    0  0.00000000000E+00  0.00000000000E+00 -0.13111164810E+04  0.13111164810E+04  0.50400001928E-02 0. -1.
    10030    2    1    2    0    0  0.00000000000E+00  0.00000000000E+00 -0.21069391374E+03  0.24115390482E+04  0.24023173512E+04 0.  0.
        1    1    3    3  502    0 -0.73507317671E+03 -0.62878404897E+03 -0.82017610081E+03  0.12682234786E+04  0.50400001928E-02 0. -1.
       -1    1    3    3    0  502  0.73507317671E+03  0.62878404897E+03  0.60948218707E+03  0.11433155696E+04  0.50400001928E-02 0.  1.
</event>
<event>
 5   0  0.5371843E-06  0.2397991E+04  0.7818609E-02  0.8440256E-01
       -2   -1    0    0    0  501  0.00000000000E+00  0.00000000000E+00  0.70757423958E+03  0.70757423958E+03  0.25500000920E-02 0. -1.
        2   -1    0    0  501    0  0.00000000000E+00  0.00000000000E+00 -0.20317168618E+04  0.20317168618E+04  0.25500000920E-02 0.  1.
    10030    2    1    2    0    0  0.00000000000E+00  0.00000000000E+00 -0.13241426222E+04  0.27392911014E+04  0.23979912540E+04 0.  0.
        4    1    3    3  502    0 -0.99507226265E+03 -0.41499204585E+03 -0.12613324893E+04  0.16593216890E+04  0.12699999809E+01 0.  1.
       -4    1    3    3    0  502  0.99507226265E+03  0.41499204585E+03 -0.62810132909E+02  0.10799694124E+04  0.12699999809E+01 0. -1.
</event>
<event>
 5   0  0.2149417E-06  0.2397568E+04  0.7818609E-02  0.8440415E-01
        1   -1    0    0  501    0  0.00000000000E+00  0.00000000000E+00  0.11821863349E+04  0.11821863349E+04  0.50400001928E-02 0. -1.
       -1   -1    0    0    0  501  0.00000000000E+00  0.00000000000E+00 -0.12156147590E+04  0.12156147590E+04  0.50400001928E-02 0.  1.
    10030    2    1    2    0    0  0.00000000000E+00  0.00000000000E+00 -0.33428424042E+02  0.23978010939E+04  0.23975680650E+04 0.  0.
        5    1    3    3  502    0  0.60261263053E+03 -0.10359954604E+04 -0.41866012830E+02  0.11992511953E+04  0.46999998093E+01 0. -1.
       -5    1    3    3    0  502 -0.60261263053E+03  0.10359954604E+04  0.84375887880E+01  0.11985498986E+04  0.46999998093E+01 0.  1.
</event>
<event>
 5   0  0.2254269E-06  0.2400618E+04  0.7818609E-02  0.8439272E-01
        1   -1    0    0  501    0  0.00000000000E+00  0.00000000000E+00  0.21846399551E+04  0.21846399551E+04  0.50400001928E-02 0. -1.
       -1   -1    0    0    0  501  0.00000000000E+00  0.00000000000E+00 -0.65948694933E+03  0.65948694935E+03  0.50400001928E-02 0.  1.
    10030    2    1    2    0    0  0.00000000000E+00  0.00000000000E+00  0.15251530058E+04  0.28441269045E+04  0.24006178700E+04 0.  0.
        2    1    3    3  502    0  0.87151399829E+03 -0.61571124541E+03  0.11139122873E+03  0.10728676492E+04  0.25500000920E-02 0.  1.
       -2    1    3    3    0  502 -0.87151399829E+03  0.61571124541E+03  0.14137617771E+04  0.17712592552E+04  0.25500000920E-02 0. -1.
</event>
<event>
 5   0  0.2149029E-06  0.2402530E+04  0.7818609E-02  0.8438557E-01
        1   -1    0    0  501    0  0.00000000000E+00  0.00000000000E+00  0.16803877991E+04  0.16803877991E+04  0.50400001928E-02 0.  1.
       -1   -1    0    0    0  501  0.00000000000E+00  0.00000000000E+00 -0.85875242886E+03  0.85875242888E+03  0.50400001928E-02 0. -1.
    10030    2    1    2    0    0  0.00000000000E+00  0.00000000000E+00  0.82163537019E+03  0.25391402279E+04  0.24025295868E+04 0.  0.
        4    1    3    3  502    0  0.93287808432E+02  0.11900247233E+04  0.26834106434E+03  0.12234663857E+04  0.12699999809E+01 0.  1.
       -4    1    3    3    0  502 -0.93287808432E+02 -0.11900247233E+04  0.55329430585E+03  0.13156738422E+04  0.12699999809E+01 0. -1.
</event>
<event>
 5   0  0.2297414E-06  0.2394545E+04  0.7818609E-02  0.8441549E-01
        1   -1    0    0  501    0  0.00000000000E+00  0.00000000000E+00  0.16675398397E+04  0.16675398397E+04  0.50400001928E-02 0.  1.
       -1   -1    0    0    0  501  0.00000000000E+00  0.00000000000E+00 -0.85962649479E+03  0.85962649481E+03  0.50400001928E-02 0. -1.
    10030    2    1    2    0    0  0.00000000000E+00  0.00000000000E+00  0.80791334489E+03  0.25271663345E+04  0.23945449900E+04 0.  0.
        1    1    3    3  502    0 -0.62672800884E+03  0.39273593488E+03  0.13976068590E+04  0.15812445871E+04  0.50400001928E-02 0.  1.
       -1    1    3    3    0  502  0.62672800884E+03 -0.39273593488E+03 -0.58969351416E+03  0.94592174744E+03  0.50400001928E-02 0. -1.
</event>
<event>
 5   0  0.5440503E-06  0.2402369E+04  0.7818609E-02  0.8438617E-01
       -2   -1    0    0    0  501  0.00000000000E+00  0.00000000000E+00  0.12649783814E+04  0.12649783814E+04  0.25500000920E-02 0.  1.
        2   -1    0    0  501    0  0.00000000000E+00  0.00000000000E+00 -0.11406076559E+04  0.11406076559E+04  0.25500000920E-02 0. -1.
    10030    2    1    2    0    0  0.00000000000E+00  0.00000000000E+00  0.12437072549E+03  0.24055860374E+04  0.24023688530E+04 0.  0.
        3    1    3    3  502    0  0.32335277528E+03  0.76314607013E+02 -0.10936841208E+04  0.11430336403E+04  0.10100000352E+00 0. -1.
       -3    1    3    3    0  502 -0.32335277528E+03 -0.76314607013E+02  0.12180548463E+04  0.12625523971E+04  0.10100000352E+00 0.  1.
</event>
<event>
 5   0  0.2254269E-06  0.2404478E+04  0.7818609E-02  0.8437829E-01
        1   -1    0    0  501    0  0.00000000000E+00  0.00000000000E+00  0.11287129830E+04  0.11287129830E+04  0.50400001928E-02 0. -1.
       -1   -1    0    0    0  501  0.00000000000E+00  0.00000000000E+00 -0.12805544138E+04  0.12805544138E+04  0.50400001928E-02 0.  1.
    10030    2    1    2    0    0  0.00000000000E+00  0.00000000000E+00 -0.15184143078E+03  0.24092673968E+04  0.24044778163E+04 0.  0.
        2    1    3    3  502    0  0.40458747461E+03 -0.15295261698E+03  0.10480502586E+04  0.11337966626E+04  0.25500000920E-02 0. -1.
       -2    1    3    3    0  502 -0.40458747461E+03  0.15295261698E+03 -0.11998916893E+04  0.12754707342E+04  0.25500000920E-02 0.  1.
</event>
<event>
 5   0  0.5440503E-06  0.2400155E+04  0.7818609E-02  0.8439446E-01
        2   -1    0    0  501    0  0.00000000000E+00  0.00000000000E+00  0.87067455512E+03  0.87067455512E+03  0.25500000920E-02 0. -1.
       -2   -1    0    0    0  501  0.00000000000E+00  0.00000000000E+00 -0.16541030283E+04  0.16541030283E+04  0.25500000920E-02 0.  1.
    10030    2    1    2    0    0  0.00000000000E+00  0.00000000000E+00 -0.78342847321E+03  0.25247775834E+04  0.24001545103E+04 0.  0.
        3    1    3    3  502    0  0.11287327315E+04  0.40694348742E+03 -0.41626772652E+03  0.12700076423E+04  0.10100000352E+00 0. -1.
       -3    1    3    3    0  502 -0.11287327315E+04 -0.40694348742E+03 -0.36716074670E+03  0.12547699412E+04  0.10100000352E+00 0.  1.
</event>
<event>
 5   0  0.2149417E-06  0.2399852E+04  0.7818609E-02  0.8439559E-01
       -1   -1    0    0    0  501  0.00000000000E+00  0.00000000000E+00  0.66368932439E+03  0.66368932441E+03  0.50400001928E-02 0.  1.
        1   -1    0    0  501    0  0.00000000000E+00  0.00000000000E+00 -0.21694229213E+04  0.21694229213E+04  0.50400001928E-02 0. -1.
    10030    2    1    2    0    0  0.00000000000E+00  0.00000000000E+00 -0.15057335969E+04  0.28331122457E+04  0.23998523563E+04 0.  0.
        5    1    3    3  502    0 -0.19682184070E+03 -0.69001617237E+03 -0.18882329469E+04  0.20199769570E+04  0.46999998093E+01 0. -1.
       -5    1    3    3    0  502  0.19682184070E+03  0.69001617237E+03  0.38249934993E+03  0.81313528875E+03  0.46999998093E+01 0.  1.
</event>
<event>
 5   0  0.5379778E-06  0.2401121E+04  0.7818609E-02  0.8439084E-01
       -2   -1    0    0    0  501  0.00000000000E+00  0.00000000000E+00  0.75995678919E+03  0.75995678920E+03  0.25500000920E-02 0. -1.
        2   -1    0    0  501    0  0.00000000000E+00  0.00000000000E+00 -0.18966144423E+04  0.18966144423E+04  0.25500000920E-02 0.  1.
    10030    2    1    2    0    0  0.00000000000E+00  0.00000000000E+00 -0.11366576531E+04  0.26565712315E+04  0.24011205900E+04 0.  0.
        5    1    3    3  502    0  0.12661572415E+03  0.95957859346E+03  0.21751856056E+03  0.99204789845E+03  0.46999998093E+01 0. -1.
       -5    1    3    3    0  502 -0.12661572415E+03 -0.95957859346E+03 -0.13541762137E+04  0.16645233331E+04  0.46999998093E+01 0.  1.
</event>
<event>
 5   0  0.2215700E-06  0.2399776E+04  0.7818609E-02  0.8439587E-01
       -1   -1    0    0    0  501  0.00000000000E+00  0.00000000000E+00  0.63295857097E+03  0.63295857099E+03  0.50400001928E-02 0.  1.
        1   -1    0    0  501    0  0.00000000000E+00  0.00000000000E+00 -0.22746054526E+04  0.22746054526E+04  0.50400001928E-02 0. -1.
    10030    2    1    2    0    0  0.00000000000E+00  0.00000000000E+00 -0.16416468816E+04  0.29075640236E+04  0.23997758369E+04 0.  0.
        3    1    3    3  502    0 -0.77734187882E+03  0.29511073368E+03 -0.18689645954E+04  0.20455755695E+04  0.10100000352E+00 0. -1.
       -3    1    3    3    0  502  0.77734187882E+03 -0.29511073368E+03  0.22731771378E+03  0.86198845404E+03  0.10100000352E+00 0.  1.
</event>
<event>
 5   0  0.2149417E-06  0.2397821E+04  0.7818609E-02  0.8440320E-01
        1   -1    0    0  501    0  0.00000000000E+00  0.00000000000E+00  0.19224188752E+04  0.19224188752E+04  0.50400001928E-02 0.  1.
       -1   -1    0    0    0  501  0.00000000000E+00  0.00000000000E+00 -0.74769694027E+03  0.74769694029E+03  0.50400001928E-02 0. -1.
    10030    2    1    2    0    0  0.00000000000E+00  0.00000000000E+00  0.11747219349E+04  0.26701158155E+04  0.23978212702E+04 0.  0.
        5    1    3    3  502    0 -0.65232463192E+03  0.85839337586E+03  0.34077379052E+01  0.10781467042E+04  0.46999998093E+01 0. -1.
       -5    1    3    3    0  502  0.65232463192E+03 -0.85839337586E+03  0.11713141970E+04  0.15919691113E+04  0.46999998093E+01 0.  1.
</event>
<event>
 5   0  0.5379778E-06  0.2389468E+04  0.7818609E-02  0.8443457E-01
        2   -1    0    0  501    0  0.00000000000E+00  0.00000000000E+00  0.23824120854E+04  0.23824120854E+04  0.25500000920E-02 0.  1.
       -2   -1    0    0    0  501  0.00000000000E+00  0.00000000000E+00 -0.59913632854E+03  0.59913632855E+03  0.25500000920E-02 0. -1.
    10030    2    1    2    0    0  0.00000000000E+00  0.00000000000E+00  0.17832757569E+04  0.29815484140E+04  0.23894682504E+04 0.  0.
        5    1    3    3  502    0  0.10761116852E+04 -0.42062293187E+03  0.12709889151E+04  0.17176655443E+04  0.46999998093E+01 0.  1.
       -5    1    3    3    0  502 -0.10761116852E+04  0.42062293187E+03  0.51228684177E+03  0.12638828696E+04  0.46999998093E+01 0. -1.
</event>
<event>
 5   0  0.2215700E-06  0.2393571E+04  0.7818609E-02  0.8441915E-01
       -1   -1    0    0    0  501  0.00000000000E+00  0.00000000000E+00  0.11675187675E+04  0.11675187675E+04  0.50400001928E-02 0.  1.
        1   -1    0    0  501    0  0.00000000000E+00  0.00000000000E+00 -0.12267853663E+04  0.12267853663E+04  0.50400001928E-02 0. -1.
    10030    2    1    2    0    0  0.00000000000E+00  0.00000000000E+00 -0.59266598790E+02  0.23943041338E+04  0.23935705036E+04 0.  0.
        3    1    3    3  502    0  0.81428644050E+03 -0.71303957047E+03  0.48121598552E+03  0.11845069317E+04  0.10100000352E+00 0.  1.
       -3    1    3    3    0  502 -0.81428644050E+03  0.71303957047E+03 -0.54048258431E+03  0.12097972022E+04  0.10100000352E+00 0. -1.
</event>
<event>
 5   0  0.2254269E-06  0.2399476E+04  0.7818609E-02  0.8439700E-01
       -1   -1    0    0    0  501  0.00000000000E+00  0.00000000000E+00  0.90325263239E+03  0.90325263240E+03  0.50400001928E-02 0.  1.
        1   -1    0    0  501    0  0.00000000000E+00  0.00000000000E+00 -0.15935417684E+04  0.15935417684E+04  0.50400001928E-02 0. -1.
    10030    2    1    2    0    0  0.00000000000E+00  0.00000000000E+00 -0.69028913600E+03  0.24967944008E+04  0.23994756070E+04 0.  0.
        2    1    3    3  502    0  0.18137743362E+03  0.59486560028E+03 -0.14127229319E+04  0.15435507566E+04  0.25500000920E-02 0. -1.
       -2    1    3    3    0  502 -0.18137743362E+03 -0.59486560028E+03  0.72243379588E+03  0.95324364423E+03  0.25500000920E-02 0.  1.
</event>
<event>
 5   0  0.5268358E-06  0.2395507E+04  0.7818609E-02  0.8441188E-01
       -2   -1    0    0    0  501  0.00000000000E+00  0.00000000000E+00  0.69553524120E+03  0.69553524121E+03  0.25500000920E-02 0. -1.
        2   -1    0    0  501    0  0.00000000000E+00  0.00000000000E+00 -0.20626038560E+04  0.20626038560E+04  0.25500000920E-02 0.  1.
    10030    2    1    2    0    0  0.00000000000E+00  0.00000000000E+00 -0.13670686148E+04  0.27581390972E+04  0.23955071868E+04 0.  0.
        2    1    3    3  502    0 -0.22630812798E+03 -0.99031799405E+03  0.47087370648E+02  0.10169377162E+04  0.25500000920E-02 0. -1.
       -2    1    3    3    0  502  0.22630812798E+03  0.99031799405E+03 -0.14141559855E+04  0.17412013810E+04  0.25500000920E-02 0.  1.
</event>
<event>
 5   0  0.5268358E-06  0.2338351E+04  0.7818609E-02  0.8462951E-01
        2   -1    0    0  501    0  0.00000000000E+00  0.00000000000E+00  0.11083351366E+04  0.11083351366E+04  0.25500000920E-02 0.  1.
       -2   -1    0    0    0  501  0.00000000000E+00  0.00000000000E+00 -0.12333557849E+04  0.12333557849E+04  0.25500000920E-02 0. -1.
    10030    2    1    2    0    0  0.00000000000E+00  0.00000000000E+00 -0.12502064832E+03  0.23416909215E+04  0.23383511732E+04 0.  0.
        2    1    3    3  502    0 -0.18477561749E+03  0.18401191410E+03 -0.12038614060E+04  0.12317811081E+04  0.25500000920E-02 0. -1.
       -2    1    3    3    0  502  0.18477561749E+03 -0.18401191410E+03  0.10788407577E+04  0.11099098134E+04  0.25500000920E-02 0.  1.
</event>
<event>
 5   0  0.5371843E-06  0.2399738E+04  0.7818609E-02  0.8439602E-01
       -2   -1    0    0    0  501  0.00000000000E+00  0.00000000000E+00  0.11066068676E+04  0.11066068676E+04  0.25500000920E-02 0. -1.
        2   -1    0    0  501    0  0.00000000000E+00  0.00000000000E+00 -0.13009911426E+04  0.13009911426E+04  0.25500000920E-02 0.  1.
    10030    2    1    2    0    0  0.00000000000E+00  0.00000000000E+00 -0.19438427506E+03  0.24075980102E+04  0.23997380966E+04 0.  0.
        4    1    3    3  502    0 -0.57718720458E+03  0.84518158489E+03 -0.72550778752E+03  0.12545278567E+04  0.12699999809E+01 0.  1.
       -4    1    3    3    0  502  0.57718720458E+03 -0.84518158489E+03  0.53112351246E+03  0.11530701535E+04  0.12699999809E+01 0. -1.
</event>
<event>
 5   0  0.5349036E-06  0.2401845E+04  0.7818609E-02  0.8438813E-01
       -2   -1    0    0    0  501  0.00000000000E+00  0.00000000000E+00  0.72106253306E+03  0.72106253306E+03  0.25500000920E-02 0.  1.
        2   -1    0    0  501    0  0.00000000000E+00  0.00000000000E+00 -0.20001237376E+04  0.20001237376E+04  0.25500000920E-02 0. -1.
    10030    2    1    2    0    0  0.00000000000E+00  0.00000000000E+00 -0.12790612045E+04  0.27211862707E+04  0.24018445317E+04 0.  0.
        1    1    3    3  502    0  0.87389273635E+03  0.56453230898E+03  0.40082099690E+02  0.10411492771E+04  0.50400001928E-02 0.  1.
       -1    1    3    3    0  502 -0.87389273635E+03 -0.56453230898E+03 -0.13191433042E+04  0.16800369935E+04  0.50400001928E-02 0. -1.
</event>
<event>
 5   0  0.2254269E-06  0.2376716E+04  0.7818609E-02  0.8448273E-01
        1   -1    0    0  501    0  0.00000000000E+00  0.00000000000E+00  0.24220497725E+04  0.24220497725E+04  0.50400001928E-02 0. -1.
       -1   -1    0    0    0  501  0.00000000000E+00  0.00000000000E+00 -0.58305757561E+03  0.58305757563E+03  0.50400001928E-02 0.  1.
    10030    2    1    2    0    0  0.00000000000E+00  0.00000000000E+00  0.18389921969E+04  0.30051073481E+04  0.23767157747E+04 0.  0.
        2    1    3    3  502    0 -0.54282141068E+03  0.68872433688E+03  0.19335362292E+04  0.21231011859E+04  0.25500000920E-02 0. -1.
       -2    1    3    3    0  502  0.54282141068E+03 -0.68872433688E+03 -0.94544032295E+02  0.88200616220E+03  0.25500000920E-02 0.  1.
</event>
<event>
 5   0  0.5371843E-06  0.2386117E+04  0.7818609E-02  0.8444720E-01
        2   -1    0    0  501    0  0.00000000000E+00  0.00000000000E+00  0.15652528031E+04  0.15652528031E+04  0.25500000920E-02 0. -1.
       -2   -1    0    0    0  501  0.00000000000E+00  0.00000000000E+00 -0.90936639180E+03  0.90936639180E+03  0.25500000920E-02 0.  1.
    10030    2    1    2    0    0  0.00000000000E+00  0.00000000000E+00  0.65588641128E+03  0.24746191949E+04  0.23861167564E+04 0.  0.
        4    1    3    3  502    0  0.73502986865E+03 -0.88322157607E+03  0.66084349753E+03  0.13255432854E+04  0.12699999809E+01 0.  1.
       -4    1    3    3    0  502 -0.73502986865E+03  0.88322157607E+03 -0.49570862449E+01  0.11490759095E+04  0.12699999809E+01 0. -1.
</event>
<event>
 5   0  0.5440503E-06  0.2393919E+04  0.7818609E-02  0.8441784E-01
       -2   -1    0    0    0  501  0.00000000000E+00  0.00000000000E+00  0.59696197911E+03  0.59696197911E+03  0.25500000920E-02 0. -1.
        2   -1    0    0  501    0  0.00000000000E+00  0.00000000000E+00 -0.24000053892E+04  0.24000053892E+04  0.25500000920E-02 0.  1.
    10030    2    1    2    0    0  0.00000000000E+00  0.00000000000E+00 -0.18030434101E+04  0.29969673683E+04  0.23939189351E+04 0.  0.
        3    1    3    3  502    0 -0.16160950938E+03  0.84731349044E+03 -0.19404203167E+04  0.21235086061E+04  0.10100000352E+00 0.  1.
       -3    1    3    3    0  502  0.16160950938E+03 -0.84731349044E+03  0.13737690660E+03  0.87345876220E+03  0.10100000352E+00 0. -1.
</event>
<event>
 5   0  0.2215700E-06  0.2399263E+04  0.7818609E-02  0.8439780E-01
        1   -1    0    0  501    0  0.00000000000E+00  0.00000000000E+00  0.11642146114E+04  0.11642146115E+04  0.50400001928E-02 0.  1.
       -1   -1    0    0    0  501  0.00000000000E+00  0.00000000000E+00 -0.12361258801E+04  0.12361258801E+04  0.50400001928E-02 0. -1.
    10030    2    1    2    0    0  0.00000000000E+00  0.00000000000E+00 -0.71911268660E+02  0.24003404916E+04  0.23992630629E+04 0.  0.
        3    1    3    3  502    0  0.21998074591E+03 -0.11792826992E+04 -0.40030271641E+02  0.12002923169E+04  0.10100000352E+00 0.  1.
       -3    1    3    3    0  502 -0.21998074591E+03  0.11792826992E+04 -0.31880997020E+02  0.12000481746E+04  0.10100000352E+00 0. -1.
</event>
<event>
 5   0  0.5379778E-06  0.2396828E+04  0.7818609E-02  0.8440692E-01
       -2   -1    0    0    0  501  0.00000000000E+00  0.00000000000E+00  0.82362294887E+03  0.82362294887E+03  0.25500000920E-02 0.  1.
        2   -1    0    0  501    0  0.00000000000E+00  0.00000000000E+00 -0.17437537133E+04  0.17437537133E+04  0.25500000920E-02 0. -1.
    10030    2    1    2    0    0  0.00000000000E+00  0.00000000000E+00 -0.92013076441E+03  0.25673766621E+04  0.23968275494E+04 0.  0.
        5    1    3    3  502    0 -0.14196233842E+03  0.59974198826E+03  0.64084648242E+03  0.88912882196E+03  0.46999998093E+01 0.  1.
       -5    1    3    3    0  502  0.14196233842E+03 -0.59974198826E+03 -0.15609772468E+04  0.16782478402E+04  0.46999998093E+01 0. -1.
</event>
<event>
 5   0  0.2149029E-06  0.2402004E+04  0.7818609E-02  0.8438754E-01
        1   -1    0    0  501    0  0.00000000000E+00  0.00000000000E+00  0.16430535578E+04  0.16430535578E+04  0.50400001928E-02 0.  1.
       -1   -1    0    0    0  501  0.00000000000E+00  0.00000000000E+00 -0.87788111885E+03  0.87788111886E+03  0.50400001928E-02 0. -1.
    10030    2    1    2    0    0  0.00000000000E+00  0.00000000000E+00  0.76517243891E+03  0.25209346766E+04  0.24020039098E+04 0.  0.
        4    1    3    3  502    0 -0.74646740589E+03 -0.26827224236E+03  0.13290239400E+04  0.15477370029E+04  0.12699999809E+01 0.  1.
       -4    1    3    3    0  502  0.74646740589E+03  0.26827224236E+03 -0.56385150107E+03  0.97319767377E+03  0.12699999809E+01 0. -1.
</event>
<event>
 5   0  0.5349036E-06  0.2398380E+04  0.7818609E-02  0.8440110E-01
       -2   -1    0    0    0  501  0.00000000000E+00  0.00000000000E+00  0.16995033995E+04  0.16995033995E+04  0.25500000920E-02 0.  1.
        2   -1    0    0  501    0  0.00000000000E+00  0.00000000000E+00 -0.84616298932E+03  0.84616298932E+03  0.25500000920E-02 0. -1.
    10030    2    1    2    0    0  0.00000000000E+00  0.00000000000E+00  0.85334041013E+03  0.25456663888E+04  0.23983801841E+04 0.  0.
        1    1    3    3  502    0  0.10875641099E+04 -0.48818265982E+03  0.56481220376E+03  0.13191401851E+04  0.50400001928E-02 0.  1.
       -1    1    3    3    0  502 -0.10875641099E+04  0.48818265982E+03  0.28852820638E+03  0.12265262037E+04  0.50400001928E-02 0. -1.
</event>
<event>
 5   0  0.5268358E-06  0.2397400E+04  0.7818609E-02  0.8440478E-01
        2   -1    0    0  501    0  0.00000000000E+00  0.00000000000E+00  0.20462830066E+04  0.20462830066E+04  0.25500000920E-02 0.  1.
       -2   -1    0    0    0  501  0.00000000000E+00  0.00000000000E+00 -0.70219093807E+03  0.70219093807E+03  0.25500000920E-02 0. -1.
    10030    2    1    2    0    0  0.00000000000E+00  0.00000000000E+00  0.13440920686E+04  0.27484739447E+04  0.23973997447E+04 0.  0.
        2    1    3    3  502    0  0.44381248934E+03  0.55475328451E+03  0.17789158713E+04  0.19155318868E+04  0.25500000920E-02 0.  1.
       -2    1    3    3    0  502 -0.44381248934E+03 -0.55475328451E+03 -0.43482380272E+03  0.83294205788E+03  0.25500000920E-02 0. -1.
</event>
<event>
 5   0  0.2149417E-06  0.2396739E+04  0.7818609E-02  0.8440725E-01
       -1   -1    0    0    0  501  0.00000000000E+00  0.00000000000E+00  0.91262838965E+03  0.91262838967E+03  0.50400001928E-02 0.  1.
        1   -1    0    0  501    0  0.00000000000E+00  0.00000000000E+00 -0.15735756904E+04  0.15735756905E+04  0.50400001928E-02 0. -1.
    10030    2    1    2    0    0  0.00000000000E+00  0.00000000000E+00 -0.66094730079E+03  0.24862040801E+04  0.23967393253E+04 0.  0.
        5    1    3    3  502    0  0.58362762164E+03 -0.66266815262E+03 -0.11708483281E+04  0.14665122498E+04  0.46999998093E+01 0. -1.
       -5    1    3    3    0  502 -0.58362762164E+03  0.66266815262E+03  0.50990102733E+03  0.10196918304E+04  0.46999998093E+01 0.  1.
</event>
<event>
 5   0  0.5371843E-06  0.2400009E+04  0.7818609E-02  0.8439500E-01
       -2   -1    0    0    0  501  0.00000000000E+00  0.00000000000E+00  0.88365081722E+03  0.88365081723E+03  0.25500000920E-02 0. -1.
        2   -1    0    0  501    0  0.00000000000E+00  0.00000000000E+00 -0.16296153289E+04  0.16296153289E+04  0.25500000920E-02 0.  1.
    10030    2    1    2    0    0  0.00000000000E+00  0.00000000000E+00 -0.74596451171E+03  0.25132661462E+04  0.24000090976E+04 0.  0.
        4    1    3    3  502    0 -0.77015735367E+03  0.88718622823E+03 -0.62899307832E+03  0.13326198477E+04  0.12699999809E+01 0.  1.
       -4    1    3    3    0  502  0.77015735367E+03 -0.88718622823E+03 -0.11697143339E+03  0.11806462985E+04  0.12699999809E+01 0. -1.
</event>
<event>
 5   0  0.5379778E-06  0.2398201E+04  0.7818609E-02  0.8440177E-01
        2   -1    0    0  501    0  0.00000000000E+00  0.00000000000E+00  0.25274545946E+04  0.25274545946E+04  0.25500000920E-02 0.  1.
       -2   -1    0    0    0  501  0.00000000000E+00  0.00000000000E+00 -0.56888930016E+03  0.56888930017E+03  0.25500000920E-02 0. -1.
    10030    2    1    2    0    0  0.00000000000E+00  0.00000000000E+00  0.19585652944E+04  0.30963438947E+04  0.23982008886E+04 0.  0.
        5    1    3    3  502    0  0.57554010502E+03  0.89896545025E+03  0.16846057967E+04  0.19943179469E+04  0.46999998093E+01 0.  1.
       -5    1    3    3    0  502 -0.57554010502E+03 -0.89896545025E+03  0.27395949770E+03  0.11020259478E+04  0.46999998093E+01 0. -1.
</event>
<event>
 5   0  0.2149029E-06  0.2395998E+04  0.7818609E-02  0.8441003E-01
       -1   -1    0    0    0  501  0.00000000000E+00  0.00000000000E+00  0.66393790116E+03  0.66393790118E+03  0.50400001928E-02 0. -1.
        1   -1    0    0  501    0  0.00000000000E+00  0.00000000000E+00 -0.21616506764E+04  0.21616506764E+04  0.50400001928E-02 0.  1.
    10030    2    1    2    0    0  0.00000000000E+00  0.00000000000E+00 -0.14977127752E+04  0.28255885775E+04  0.23959981746E+04 0.  0.
        4    1    3    3  502    0  0.15840971118E+03  0.71402108169E+03  0.37009535032E+03  0.81969013835E+03  0.12699999809E+01 0. -1.
       -4    1    3    3    0  502 -0.15840971118E+03 -0.71402108169E+03 -0.18678081255E+04  0.20058984392E+04  0.12699999809E+01 0.  1.
</event>
<event>
 5   0  0.5440503E-06  0.2395636E+04  0.7818609E-02  0.8441139E-01
        2   -1    0    0  501    0  0.00000000000E+00  0.00000000000E+00  0.23634262108E+04  0.23634262108E+04  0.25500000920E-02 0. -1.
       -2   -1    0    0    0  501  0.00000000000E+00  0.00000000000E+00 -0.60707105669E+03  0.60707105669E+03  0.25500000920E-02 0.  1.
    10030    2    1    2    0    0  0.00000000000E+00  0.00000000000E+00  0.17563551541E+04  0.29704972675E+04  0.23956357379E+04 0.  0.
        3    1    3    3  502    0  0.95502273198E+03 -0.42851972919E+03  0.16002040075E+04  0.19121585846E+04  0.10100000352E+00 0. -1.
       -3    1    3    3    0  502 -0.95502273198E+03  0.42851972919E+03  0.15615114663E+03  0.10583386829E+04  0.10100000352E+00 0.  1.
</event>
<event>
 5   0  0.1796750E-06  0.2403302E+04  0.7818609E-02  0.8438268E-01
       -3   -1    0    0    0  501  0.00000000000E+00  0.00000000000E+00  0.17965030348E+04  0.17965030376E+04  0.10100000352E+00 0.  1.
        3   -1    0    0  501    0  0.00000000000E+00  0.00000000000E+00 -0.80376432372E+03  0.80376433007E+03  0.10100000352E+00 0. -1.
    10030    2    1    2    0    0  0.00000000000E+00  0.00000000000E+00  0.99273871104E+03  0.26002673677E+04  0.24033019442E+04 0.  0.
        4    1    3    3  502    0  0.31791193896E+03 -0.69381374354E+02 -0.75518863905E+03  0.82230971628E+03  0.12699999809E+01 0. -1.
       -4    1    3    3    0  502 -0.31791193896E+03  0.69381374354E+02  0.17479273501E+04  0.17779576514E+04  0.12699999809E+01 0.  1.
</event>
<event>
 5   0  0.2215700E-06  0.2403881E+04  0.7818609E-02  0.8438052E-01
        1   -1    0    0  501    0  0.00000000000E+00  0.00000000000E+00  0.16641525274E+04  0.16641525274E+04  0.50400001928E-02 0.  1.
       -1   -1    0    0    0  501  0.00000000000E+00  0.00000000000E+00 -0.86810615599E+03  0.86810615600E+03  0.50400001928E-02 0. -1.
    10030    2    1    2    0    0  0.00000000000E+00  0.00000000000E+00  0.79604637146E+03  0.25322586835E+04  0.24038810733E+04 0.  0.
        3    1    3    3  502    0  0.60544900591E+03  0.91113493681E+03 -0.12648931127E+03  0.11012424474E+04  0.10100000352E+00 0. -1.
       -3    1    3    3    0  502 -0.60544900591E+03 -0.91113493681E+03  0.92253568273E+03  0.14310162361E+04  0.10100000352E+00 0.  1.
</event>
<event>
 5   0  0.2215700E-06  0.2397478E+04  0.7818609E-02  0.8440448E-01
        1   -1    0    0  501    0  0.00000000000E+00  0.00000000000E+00  0.12968774799E+04  0.12968774799E+04  0.50400001928E-02 0.  1.
       -1   -1    0    0    0  501  0.00000000000E+00  0.00000000000E+00 -0.11080268558E+04  0.11080268558E+04  0.50400001928E-02 0. -1.
    10030    2    1    2    0    0  0.00000000000E+00  0.00000000000E+00  0.18885062408E+03  0.24049043357E+04  0.23974779052E+04 0.  0.
        3    1    3    3  502    0  0.11830809756E+03  0.52188349998E+03  0.11704156519E+04  0.12869467751E+04  0.10100000352E+00 0.  1.
       -3    1    3    3    0  502 -0.11830809756E+03 -0.52188349998E+03 -0.98156502778E+03  0.11179575607E+04  0.10100000352E+00 0. -1.
</event>
<event>
 5   0  0.2297414E-06  0.2403019E+04  0.7818609E-02  0.8438374E-01
       -1   -1    0    0    0  501  0.00000000000E+00  0.00000000000E+00  0.65554436296E+03  0.65554436298E+03  0.50400001928E-02 0.  1.
        1   -1    0    0  501    0  0.00000000000E+00  0.00000000000E+00 -0.22021779934E+04  0.22021779934E+04  0.50400001928E-02 0. -1.
    10030    2    1    2    0    0  0.00000000000E+00  0.00000000000E+00 -0.15466336305E+04  0.28577223564E+04  0.24030192424E+04 0.  0.
        1    1    3    3  502    0  0.88352668976E+03  0.23509499125E+03  0.15376993416E+03  0.92711070488E+03  0.50400001928E-02 0.  1.
       -1    1    3    3    0  502 -0.88352668976E+03 -0.23509499125E+03 -0.17004035646E+04  0.19306116515E+04  0.50400001928E-02 0. -1.
</event>
<event>
 5   0  0.5440503E-06  0.2396943E+04  0.7818609E-02  0.8440649E-01
        2   -1    0    0  501    0  0.00000000000E+00  0.00000000000E+00  0.97662044251E+03  0.97662044251E+03  0.25500000920E-02 0.  1.
       -2   -1    0    0    0  501  0.00000000000E+00  0.00000000000E+00 -0.14707180943E+04  0.14707180943E+04  0.25500000920E-02 0. -1.
    10030    2    1    2    0    0  0.00000000000E+00  0.00000000000E+00 -0.49409765178E+03  0.24473385368E+04  0.23969425158E+04 0.  0.
        3    1    3    3  502    0  0.37132585657E+03  0.11106012070E+04 -0.50739103966E+03  0.12762302339E+04  0.10100000352E+00 0.  1.
       -3    1    3    3    0  502 -0.37132585657E+03 -0.11106012070E+04  0.13293387883E+02  0.11711083029E+04  0.10100000352E+00 0. -1.
</event>
<event>
 5   0  0.1796750E-06  0.2393734E+04  0.7818609E-02  0.8441853E-01
       -3   -1    0    0    0  501  0.00000000000E+00  0.00000000000E+00  0.79763777576E+03  0.79763778216E+03  0.10100000352E+00 0.  1.
        3   -1    0    0  501    0  0.00000000000E+00  0.00000000000E+00 -0.17959168422E+04  0.17959168450E+04  0.10100000352E+00 0. -1.
    10030    2    1    2    0    0  0.00000000000E+00  0.00000000000E+00 -0.99827906644E+03  0.25935546272E+04  0.23937344276E+04 0.  0.
        5    1    3    3  502    0 -0.50194209114E+03 -0.95515153676E+03  0.61980633612E+02  0.10807978581E+04  0.46999998093E+01 0.  1.
       -5    1    3    3    0  502  0.50194209114E+03  0.95515153676E+03 -0.10602597001E+04  0.15127567691E+04  0.46999998093E+01 0. -1.
</event>
<event>
 5   0  0.5440503E-06  0.2403192E+04  0.7818609E-02  0.8438310E-01
        2   -1    0    0  501    0  0.00000000000E+00  0.00000000000E+00  0.19703820002E+04  0.19703820002E+04  0.25500000920E-02 0. -1.
       -2   -1    0    0    0  501  0.00000000000E+00  0.00000000000E+00 -0.73276786812E+03  0.73276786813E+03  0.25500000920E-02 0.  1.
    10030    2    1    2    0    0  0.00000000000E+00  0.00000000000E+00  0.12376141321E+04  0.27031498684E+04  0.24031917258E+04 0.  0.
        3    1    3    3  502    0 -0.49096235694E+03 -0.44110543256E+03  0.17482341264E+04  0.18686734892E+04  0.10100000352E+00 0. -1.
       -3    1    3    3    0  502  0.49096235694E+03  0.44110543256E+03 -0.51061999427E+03  0.83447637912E+03  0.10100000352E+00 0.  1.
</event>
<event>
 5   0  0.5379778E-06  0.2398282E+04  0.7818609E-02  0.8440147E-01
       -2   -1    0    0    0  501  0.00000000000E+00  0.00000000000E+00  0.88642350713E+03  0.88642350713E+03  0.25500000920E-02 0.  1.
        2   -1    0    0  501    0  0.00000000000E+00  0.00000000000E+00 -0.16221802350E+04  0.16221802350E+04  0.25500000920E-02 0. -1.
    10030    2    1    2    0    0  0.00000000000E+00  0.00000000000E+00 -0.73575672784E+03  0.25086037421E+04  0.23982816291E+04 0.  0.
        5    1    3    3  502    0 -0.45653213471E+03 -0.33445239731E+03  0.73793591657E+03  0.92997392601E+03  0.46999998093E+01 0.  1.
       -5    1    3    3    0  502  0.45653213471E+03  0.33445239731E+03 -0.14736926444E+04  0.15786298161E+04  0.46999998093E+01 0. -1.
</event>
<event>
 5   0  0.2149029E-06  0.2401512E+04  0.7818609E-02  0.8438938E-01
        1   -1    0    0  501    0  0.00000000000E+00  0.00000000000E+00  0.10358949681E+04  0.10358949681E+04  0.50400001928E-02 0.  1.
       -1   -1    0    0    0  501  0.00000000000E+00  0.00000000000E+00 -0.13918544471E+04  0.13918544471E+04  0.50400001928E-02 0. -1.
    10030    2    1    2    0    0  0.00000000000E+00  0.00000000000E+00 -0.35595947898E+03  0.24277494152E+04  0.24015120388E+04 0.  0.
        4    1    3    3  502    0 -0.10086861615E+04 -0.42263753077E+03 -0.67912058443E+03  0.12873525686E+04  0.12699999809E+01 0. -1.
       -4    1    3    3    0  502  0.10086861615E+04  0.42263753077E+03  0.32316110545E+03  0.11403968466E+04  0.12699999809E+01 0.  1.
</event>
<event>
 5   0  0.2297414E-06  0.2400756E+04  0.7818609E-02  0.8439221E-01
        1   -1    0    0  501    0  0.00000000000E+00  0.00000000000E+00  0.23358745840E+04  0.23358745840E+04  0.50400001928E-02 0. -1.
       -1   -1    0    0    0  501  0.00000000000E+00  0.00000000000E+00 -0.61685973683E+03  0.61685973685E+03  0.50400001928E-02 0.  1.
    10030    2    1    2    0    0  0.00000000000E+00  0.00000000000E+00  0.17190148472E+04  0.29527343209E+04  0.24007556987E+04 0.  0.
        1    1    3    3  502    0 -0.10558241263E+04 -0.52877859152E+03  0.59418799867E+03  0.13219042182E+04  0.50400001928E-02 0.  1.
       -1    1    3    3    0  502  0.10558241263E+04  0.52877859152E+03  0.11248268485E+04  0.16308301026E+04  0.50400001928E-02 0. -1.
</event>
<event>
 5   0  0.5268358E-06  0.2417219E+04  0.7818609E-02  0.8433085E-01
        2   -1    0    0  501    0  0.00000000000E+00  0.00000000000E+00  0.83250003142E+03  0.83250003142E+03  0.25500000920E-02 0.  1.
       -2   -1    0    0    0  501  0.00000000000E+00  0.00000000000E+00 -0.17546392980E+04  0.17546392980E+04  0.25500000920E-02 0. -1.
    10030    2    1    2    0    0  0.00000000000E+00  0.00000000000E+00 -0.92213926656E+03  0.25871393294E+04  0.24172192873E+04 0.  0.
        2    1    3    3  502    0  0.70258262029E+03  0.79911726214E+03  0.15239424089E+03  0.10749115041E+04  0.25500000920E-02 0.  1.
       -2    1    3    3    0  502 -0.70258262029E+03 -0.79911726214E+03 -0.10745335074E+04  0.15122278253E+04  0.25500000920E-02 0. -1.
</event>
<event>
 5   0  0.5440503E-06  0.2399069E+04  0.7818609E-02  0.8439852E-01
       -2   -1    0    0    0  501  0.00000000000E+00  0.00000000000E+00  0.95748331034E+03  0.95748331035E+03  0.25500000920E-02 0. -1.
        2   -1    0    0  501    0  0.00000000000E+00  0.00000000000E+00 -0.15027762901E+04  0.15027762901E+04  0.25500000920E-02 0.  1.
    10030    2    1    2    0    0  0.00000000000E+00  0.00000000000E+00 -0.54529297978E+03  0.24602596005E+04  0.23990691670E+04 0.  0.
        3    1    3    3  502    0 -0.11807956016E+04  0.16184976384E+03 -0.13350378703E+03  0.11992901526E+04  0.10100000352E+00 0.  1.
       -3    1    3    3    0  502  0.11807956016E+04 -0.16184976384E+03 -0.41178919275E+03  0.12609694478E+04  0.10100000352E+00 0. -1.
</event>
<event>
 5   0  0.2297414E-06  0.2406187E+04  0.7818609E-02  0.8437191E-01
        1   -1    0    0  501    0  0.00000000000E+00  0.00000000000E+00  0.14311889455E+04  0.14311889455E+04  0.50400001928E-02 0.  1.
       -1   -1    0    0    0  501  0.00000000000E+00  0.00000000000E+00 -0.10113510154E+04  0.10113510154E+04  0.50400001928E-02 0. -1.
    10030    2    1    2    0    0  0.00000000000E+00  0.00000000000E+00  0.41983793011E+03  0.24425399609E+04  0.24061873520E+04 0.  0.
        1    1    3    3  502    0  0.10238023816E+04  0.60421845726E+03  0.39759903963E+03  0.12535295198E+04  0.50400001928E-02 0. -1.
       -1    1    3    3    0  502 -0.10238023816E+04 -0.60421845726E+03  0.22238890472E+02  0.11890104411E+04  0.50400001928E-02 0.  1.
</event>
<event>
 5   0  0.5379778E-06  0.2405513E+04  0.7818609E-02  0.8437443E-01
        2   -1    0    0  501    0  0.00000000000E+00  0.00000000000E+00  0.16950174112E+04  0.16950174112E+04  0.25500000920E-02 0. -1.
       -2   -1    0    0    0  501  0.00000000000E+00  0.00000000000E+00 -0.85345604486E+03  0.85345604487E+03  0.25500000920E-02 0.  1.
    10030    2    1    2    0    0  0.00000000000E+00  0.00000000000E+00  0.84156136632E+03  0.25484734560E+04  0.24055127152E+04 0.  0.
        5    1    3    3  502    0 -0.89643108545E+03 -0.75292704826E+03  0.12849893816E+03  0.11777189385E+04  0.46999998093E+01 0.  1.
       -5    1    3    3    0  502  0.89643108545E+03  0.75292704826E+03  0.71306242815E+03  0.13707545176E+04  0.46999998093E+01 0. -1.
</event>
<event>
 5   0  0.2297414E-06  0.2421417E+04  0.7818609E-02  0.8431529E-01
        1   -1    0    0  501    0  0.00000000000E+00  0.00000000000E+00  0.11782767370E+04  0.11782767370E+04  0.50400001928E-02 0.  1.
       -1   -1    0    0    0  501  0.00000000000E+00  0.00000000000E+00 -0.12440326093E+04  0.12440326093E+04  0.50400001928E-02 0. -1.
    10030    2    1    2    0    0  0.00000000000E+00  0.00000000000E+00 -0.65755872309E+02  0.24223093463E+04  0.24214166792E+04 0.  0.
        1    1    3    3  502    0  0.63888039032E+03 -0.96017389506E+03 -0.40140568591E+03  0.12211587066E+04  0.50400001928E-02 0. -1.
       -1    1    3    3    0  502 -0.63888039032E+03  0.96017389506E+03  0.33564981360E+03  0.12011506397E+04  0.50400001928E-02 0.  1.
</event>
<event>
 5   0  0.2149417E-06  0.2391104E+04  0.7818609E-02  0.8442841E-01
       -1   -1    0    0    0  501  0.00000000000E+00  0.00000000000E+00  0.17534493614E+04  0.17534493614E+04  0.50400001928E-02 0.  1.
        1   -1    0    0  501    0  0.00000000000E+00  0.00000000000E+00 -0.81516184913E+03  0.81516184915E+03  0.50400001928E-02 0. -1.
    10030    2    1    2    0    0  0.00000000000E+00  0.00000000000E+00  0.93828751225E+03  0.25686112105E+04  0.23911043673E+04 0.  0.
        5    1    3    3  502    0 -0.17493473603E+03  0.71366827156E+03  0.14822337026E+04  0.16543770438E+04  0.46999998093E+01 0.  1.
       -5    1    3    3    0  502  0.17493473603E+03 -0.71366827156E+03 -0.54394619037E+03  0.91423416679E+03  0.46999998093E+01 0. -1.
</event>
<event>
 5   0  0.5268358E-06  0.2395494E+04  0.7818609E-02  0.8441193E-01
       -2   -1    0    0    0  501  0.00000000000E+00  0.00000000000E+00  0.12116444892E+04  0.12116444892E+04  0.25500000920E-02 0.  1.
        2   -1    0    0  501    0  0.00000000000E+00  0.00000000000E+00 -0.11840085524E+04  0.11840085524E+04  0.25500000920E-02 0. -1.
    10030    2    1    2    0    0  0.00000000000E+00  0.00000000000E+00  0.27635936713E+02  0.23956530416E+04  0.23954936340E+04 0.  0.
        2    1    3    3  502    0 -0.30855477834E+03  0.53089797602E+03  0.10422534197E+04  0.12096904162E+04  0.25500000920E-02 0.  1.
       -2    1    3    3    0  502  0.30855477834E+03 -0.53089797602E+03 -0.10146174830E+04  0.11859626254E+04  0.25500000920E-02 0. -1.
</event>
<event>
 5   0  0.2297414E-06  0.2398448E+04  0.7818609E-02  0.8440085E-01
        1   -1    0    0  501    0  0.00000000000E+00  0.00000000000E+00  0.22602299565E+04  0.22602299565E+04  0.50400001928E-02 0. -1.
       -1   -1    0    0    0  501  0.00000000000E+00  0.00000000000E+00 -0.63627947780E+03  0.63627947782E+03  0.50400001928E-02 0.  1.
    10030    2    1    2    0    0  0.00000000000E+00  0.00000000000E+00  0.16239504787E+04  0.28965094343E+04  0.23984477784E+04 0.  0.
        1    1    3    3  502    0 -0.55162791426E+03  0.10149709759E+04  0.12008314416E+04  0.16662699628E+04  0.50400001928E-02 0. -1.
       -1    1    3    3    0  502  0.55162791426E+03 -0.10149709759E+04  0.42311903705E+03  0.12302394715E+04  0.50400001928E-02 0.  1.
</event>
<event>
 5   0  0.2254269E-06  0.2394027E+04  0.7818609E-02  0.8441743E-01
       -1   -1    0    0    0  501  0.00000000000E+00  0.00000000000E+00  0.18858561259E+04  0.18858561260E+04  0.50400001928E-02 0. -1.
        1   -1    0    0  501    0  0.00000000000E+00  0.00000000000E+00 -0.75978296147E+03  0.75978296149E+03  0.50400001928E-02 0.  1.
    10030    2    1    2    0    0  0.00000000000E+00  0.00000000000E+00  0.11260731645E+04  0.26456390874E+04  0.23940270277E+04 0.  0.
        2    1    3    3  502    0 -0.64810209839E+03 -0.97200821871E+03  0.85122207578E+03  0.14454810028E+04  0.25500000920E-02 0.  1.
       -2    1    3    3    0  502  0.64810209839E+03  0.97200821871E+03  0.27485108869E+03  0.12001580846E+04  0.25500000920E-02 0. -1.
</event>
<event>
 5   0  0.5379778E-06  0.2401489E+04  0.7818609E-02  0.8438946E-01
        2   -1    0    0  501    0  0.00000000000E+00  0.00000000000E+00  0.13482045469E+04  0.13482045469E+04  0.25500000920E-02 0.  1.
       -2   -1    0    0    0  501  0.00000000000E+00  0.00000000000E+00 -0.10694125855E+04  0.10694125855E+04  0.25500000920E-02 0. -1.
    10030    2    1    2    0    0  0.00000000000E+00  0.00000000000E+00  0.27879196142E+03  0.24176171324E+04  0.24014886302E+04 0.  0.
        5    1    3    3  502    0  0.77785454075E+03 -0.24524266167E+02  0.10599252042E+04  0.13149610849E+04  0.46999998093E+01 0.  1.
       -5    1    3    3    0  502 -0.77785454075E+03  0.24524266167E+02 -0.78113324280E+03  0.11026560475E+04  0.46999998093E+01 0. -1.
</event>
<event>
 5   0  0.5371843E-06  0.2402004E+04  0.7818609E-02  0.8438754E-01
        2   -1    0    0  501    0  0.00000000000E+00  0.00000000000E+00  0.15554543960E+04  0.15554543960E+04  0.25500000920E-02 0. -1.
       -2   -1    0    0    0  501  0.00000000000E+00  0.00000000000E+00 -0.92732112713E+03  0.92732112714E+03  0.25500000920E-02 0.  1.
    10030    2    1    2    0    0  0.00000000000E+00  0.00000000000E+00  0.62813326886E+03  0.24827755231E+04  0.24020039331E+04 0.  0.
        4    1    3    3  502    0  0.99649711768E+03 -0.31028364368E+02  0.10062376623E+04  0.14165045397E+04  0.12699999809E+01 0. -1.
       -4    1    3    3    0  502 -0.99649711768E+03  0.31028364368E+02 -0.37810439344E+03  0.10662709835E+04  0.12699999809E+01 0.  1.
</event>
<event>
 5   0  0.2254269E-06  0.2397010E+04  0.7818609E-02  0.8440624E-01
        1   -1    0    0  501    0  0.00000000000E+00  0.00000000000E+00  0.16220799126E+04  0.16220799126E+04  0.50400001928E-02 0.  1.
       -1   -1    0    0    0  501  0.00000000000E+00  0.00000000000E+00 -0.88553823182E+03  0.88553823183E+03  0.50400001928E-02 0. -1.
    10030    2    1    2    0    0  0.00000000000E+00  0.00000000000E+00  0.73654168074E+03  0.25076181444E+04  0.23970096184E+04 0.  0.
        2    1    3    3  502    0 -0.57459526445E+03 -0.10428660518E+04  0.51126947040E+03  0.12958108624E+04  0.25500000920E-02 0.  1.
       -2    1    3    3    0  502  0.57459526445E+03  0.10428660518E+04  0.22527221033E+03  0.12118072820E+04  0.25500000920E-02 0. -1.
</event>
<event>
 5   0  0.2215700E-06  0.2401584E+04  0.7818609E-02  0.8438911E-01
       -1   -1    0    0    0  501  0.00000000000E+00  0.00000000000E+00  0.14445012860E+04  0.14445012860E+04  0.50400001928E-02 0. -1.
        1   -1    0    0  501    0  0.00000000000E+00  0.00000000000E+00 -0.99820037518E+03  0.99820037519E+03  0.50400001928E-02 0.  1.
    10030    2    1    2    0    0  0.00000000000E+00  0.00000000000E+00  0.44630091077E+03  0.24427016612E+04  0.24015842485E+04 0.  0.
        3    1    3    3  502    0 -0.75413092979E+03  0.26015407407E+03  0.11360175675E+04  0.13881388711E+04  0.10100000352E+00 0. -1.
       -3    1    3    3    0  502  0.75413092979E+03 -0.26015407407E+03 -0.68971665670E+03  0.10545627901E+04  0.10100000352E+00 0.  1.
</event>
<event>
 5   0  0.2254269E-06  0.2400582E+04  0.7818609E-02  0.8439286E-01
       -1   -1    0    0    0  501  0.00000000000E+00  0.00000000000E+00  0.11905396245E+04  0.11905396245E+04  0.50400001928E-02 0.  1.
        1   -1    0    0  501    0  0.00000000000E+00  0.00000000000E+00 -0.12101220852E+04  0.12101220853E+04  0.50400001928E-02 0. -1.
    10030    2    1    2    0    0  0.00000000000E+00  0.00000000000E+00 -0.19582460730E+02  0.24006617098E+04  0.24005818403E+04 0.  0.
        2    1    3    3  502    0  0.97459399880E+03 -0.34159952000E+03  0.60192724826E+03  0.11953410002E+04  0.25500000920E-02 0.  1.
       -2    1    3    3    0  502 -0.97459399880E+03  0.34159952000E+03 -0.62150970899E+03  0.12053207096E+04  0.25500000920E-02 0. -1.
</event>
<event>
 5   0  0.5440503E-06  0.2397635E+04  0.7818609E-02  0.8440390E-01
       -2   -1    0    0    0  501  0.00000000000E+00  0.00000000000E+00  0.11249302844E+04  0.11249302844E+04  0.25500000920E-02 0. -1.
        2   -1    0    0  501    0  0.00000000000E+00  0.00000000000E+00 -0.12775572832E+04  0.12775572832E+04  0.25500000920E-02 0.  1.
    10030    2    1    2    0    0  0.00000000000E+00  0.00000000000E+00 -0.15262699881E+03  0.24024875677E+04  0.23976345660E+04 0.  0.
        3    1    3    3  502    0 -0.20891342561E+03 -0.11714554931E+04  0.69618075958E+02  0.11919729353E+04  0.10100000352E+00 0. -1.
       -3    1    3    3    0  502  0.20891342561E+03  0.11714554931E+04 -0.22224507477E+03  0.12105146324E+04  0.10100000352E+00 0.  1.
</event>
<event>
 5   0  0.1796750E-06  0.2398288E+04  0.7818609E-02  0.8440145E-01
       -3   -1    0    0    0  501  0.00000000000E+00  0.00000000000E+00  0.24046089021E+04  0.24046089042E+04  0.10100000352E+00 0. -1.
        3   -1    0    0  501    0  0.00000000000E+00  0.00000000000E+00 -0.59799571237E+03  0.59799572090E+03  0.10100000352E+00 0.  1.
    10030    2    1    2    0    0  0.00000000000E+00  0.00000000000E+00  0.18066131897E+04  0.30026046251E+04  0.23982875802E+04 0.  0.
        1    1    3    3  502    0 -0.13587516357E+03 -0.26678110609E+03 -0.55045110503E+03  0.62660245586E+03  0.50400001928E-02 0.  1.
       -1    1    3    3    0  502  0.13587516357E+03  0.26678110609E+03  0.23570642947E+04  0.23760021692E+04  0.50400001928E-02 0. -1.
</event>
<event>
 5   0  0.2149029E-06  0.2399975E+04  0.7818609E-02  0.8439513E-01
       -1   -1    0    0    0  501  0.00000000000E+00  0.00000000000E+00  0.10295079934E+04  0.10295079934E+04  0.50400001928E-02 0. -1.
        1   -1    0    0  501    0  0.00000000000E+00  0.00000000000E+00 -0.13986977400E+04  0.13986977400E+04  0.50400001928E-02 0.  1.
    10030    2    1    2    0    0  0.00000000000E+00  0.00000000000E+00 -0.36918974659E+03  0.24282057334E+04  0.23999754196E+04 0.  0.
        4    1    3    3  502    0 -0.98987889075E+03  0.13280060306E+03 -0.85760548668E+03  0.13164288823E+04  0.12699999809E+01 0.  1.
       -4    1    3    3    0  502  0.98987889075E+03 -0.13280060306E+03  0.48841574009E+03  0.11117768511E+04  0.12699999809E+01 0. -1.
</event>
<event>
 5   0  0.2215700E-06  0.2397353E+04  0.7818609E-02  0.8440495E-01
       -1   -1    0    0    0  501  0.00000000000E+00  0.00000000000E+00  0.79637327574E+03  0.79637327575E+03  0.50400001928E-02 0. -1.
        1   -1    0    0  501    0  0.00000000000E+00  0.00000000000E+00 -0.18042104054E+04  0.18042104054E+04  0.50400001928E-02 0.  1.
    10030    2    1    2    0    0  0.00000000000E+00  0.00000000000E+00 -0.10078371297E+04  0.26005836812E+04  0.23973526655E+04 0.  0.
        3    1    3    3  502    0  0.10698019012E+04  0.43316048139E+03 -0.15287950321E+03  0.11642492272E+04  0.10100000352E+00 0.  1.
       -3    1    3    3    0  502 -0.10698019012E+04 -0.43316048139E+03 -0.85495762649E+03  0.14363344540E+04  0.10100000352E+00 0. -1.
</event>
<event>
 5   0  0.5349036E-06  0.2403649E+04  0.7818609E-02  0.8438139E-01
       -2   -1    0    0    0  501  0.00000000000E+00  0.00000000000E+00  0.97019214346E+03  0.97019214347E+03  0.25500000920E-02 0.  1.
        2   -1    0    0  501    0  0.00000000000E+00  0.00000000000E+00 -0.14887584208E+04  0.14887584208E+04  0.25500000920E-02 0. -1.
    10030    2    1    2    0    0  0.00000000000E+00  0.00000000000E+00 -0.51856627733E+03  0.24589505643E+04  0.24036486627E+04 0.  0.
        1    1    3    3  502    0 -0.59482104105E+03  0.10194864991E+04 -0.49080157676E+03  0.12783000354E+04  0.50400001928E-02 0. -1.
       -1    1    3    3    0  502  0.59482104105E+03 -0.10194864991E+04 -0.27764700573E+02  0.11806505289E+04  0.50400001928E-02 0.  1.
</event>
<event>
 5   0  0.2297414E-06  0.2399845E+04  0.7818609E-02  0.8439561E-01
       -1   -1    0    0    0  501  0.00000000000E+00  0.00000000000E+00  0.89028756675E+03  0.89028756676E+03  0.50400001928E-02 0.  1.
        1   -1    0    0  501    0  0.00000000000E+00  0.00000000000E+00 -0.16172463301E+04  0.16172463302E+04  0.50400001928E-02 0. -1.
    10030    2    1    2    0    0  0.00000000000E+00  0.00000000000E+00 -0.72695876340E+03  0.25075338969E+04  0.23998452451E+04 0.  0.
        1    1    3    3  502    0  0.76882687190E+03  0.83257416463E+03 -0.77556204695E+03  0.13732337701E+04  0.50400001928E-02 0. -1.
       -1    1    3    3    0  502 -0.76882687190E+03 -0.83257416463E+03  0.48603283553E+02  0.11343001268E+04  0.50400001928E-02 0.  1.
</event>
<event>
 5   0  0.5440503E-06  0.2400705E+04  0.7818609E-02  0.8439240E-01
        2   -1    0    0  501    0  0.00000000000E+00  0.00000000000E+00  0.13989327413E+04  0.13989327413E+04  0.25500000920E-02 0. -1.
       -2   -1    0    0    0  501  0.00000000000E+00  0.00000000000E+00 -0.10299606483E+04  0.10299606483E+04  0.25500000920E-02 0.  1.
    10030    2    1    2    0    0  0.00000000000E+00  0.00000000000E+00  0.36897209293E+03  0.24288933896E+04  0.24007046242E+04 0.  0.
        3    1    3    3  502    0 -0.43273136476E+03  0.72580231575E+03  0.10470220876E+04  0.13454741535E+04  0.10100000352E+00 0. -1.
       -3    1    3    3    0  502  0.43273136476E+03 -0.72580231575E+03 -0.67804999470E+03  0.10834192361E+04  0.10100000352E+00 0.  1.
</event>
<event>
 5   0  0.5440503E-06  0.2401609E+04  0.7818609E-02  0.8438901E-01
       -2   -1    0    0    0  501  0.00000000000E+00  0.00000000000E+00  0.12021035813E+04  0.12021035813E+04  0.25500000920E-02 0.  1.
        2   -1    0    0  501    0  0.00000000000E+00  0.00000000000E+00 -0.11995071178E+04  0.11995071178E+04  0.25500000920E-02 0. -1.
    10030    2    1    2    0    0  0.00000000000E+00  0.00000000000E+00  0.25964634975E+01  0.24016106992E+04  0.24016092956E+04 0.  0.
        3    1    3    3  502    0  0.16140078928E+03 -0.15240059373E+02 -0.11885130863E+04  0.11995190039E+04  0.10100000352E+00 0. -1.
       -3    1    3    3    0  502 -0.16140078928E+03  0.15240059373E+02  0.11911095498E+04  0.12020916953E+04  0.10100000352E+00 0.  1.
</event>
<event>
 5   0  0.5371843E-06  0.2399100E+04  0.7818609E-02  0.8439840E-01
        2   -1    0    0  501    0  0.00000000000E+00  0.00000000000E+00  0.19960076964E+04  0.19960076964E+04  0.25500000920E-02 0. -1.
       -2   -1    0    0    0  501  0.00000000000E+00  0.00000000000E+00 -0.72089939761E+03  0.72089939761E+03  0.25500000920E-02 0.  1.
    10030    2    1    2    0    0  0.00000000000E+00  0.00000000000E+00  0.12751082988E+04  0.27169070940E+04  0.23991004531E+04 0.  0.
        4    1    3    3  502    0 -0.66197514596E+03  0.92495548807E+03  0.20607691236E+03  0.11559511475E+04  0.12699999809E+01 0.  1.
       -4    1    3    3    0  502  0.66197514596E+03 -0.92495548807E+03  0.10690313864E+04  0.15609559465E+04  0.12699999809E+01 0. -1.
</event>
<event>
 5   0  0.2149417E-06  0.2397912E+04  0.7818609E-02  0.8440286E-01
        1   -1    0    0  501    0  0.00000000000E+00  0.00000000000E+00  0.12042673968E+04  0.12042673968E+04  0.50400001928E-02 0.  1.
       -1   -1    0    0    0  501  0.00000000000E+00  0.00000000000E+00 -0.11936682360E+04  0.11936682360E+04  0.50400001928E-02 0. -1.
    10030    2    1    2    0    0  0.00000000000E+00  0.00000000000E+00  0.10599160823E+02  0.23979356328E+04  0.23979122079E+04 0.  0.
        5    1    3    3  502    0 -0.49053705625E+03  0.39484554800E+03  0.10255761981E+04  0.12034775604E+04  0.46999998093E+01 0.  1.
       -5    1    3    3    0  502  0.49053705625E+03 -0.39484554800E+03 -0.10149770373E+04  0.11944580723E+04  0.46999998093E+01 0. -1.
</event>
<event>
 5   0  0.5371843E-06  0.2405481E+04  0.7818609E-02  0.8437454E-01
       -2   -1    0    0    0  501  0.00000000000E+00  0.00000000000E+00  0.21268531262E+04  0.21268531262E+04  0.25500000920E-02 0. -1.
        2   -1    0    0  501    0  0.00000000000E+00  0.00000000000E+00 -0.68015289087E+03  0.68015289087E+03  0.25500000920E-02 0.  1.
    10030    2    1    2    0    0  0.00000000000E+00  0.00000000000E+00  0.14467002354E+04  0.28070060171E+04  0.24054814921E+04 0.  0.
        4    1    3    3  502    0 -0.90965590926E+03 -0.74809083460E+03  0.10079206973E+04  0.15501675764E+04  0.12699999809E+01 0. -1.
       -4    1    3    3    0  502  0.90965590926E+03  0.74809083460E+03  0.43877953809E+03  0.12568384407E+04  0.12699999809E+01 0.  1.
</event>
<event>
 5   0  0.2149417E-06  0.2395746E+04  0.7818609E-02  0.8441098E-01
        1   -1    0    0  501    0  0.00000000000E+00  0.00000000000E+00  0.22695446085E+04  0.22695446085E+04  0.50400001928E-02 0. -1.
       -1   -1    0    0    0  501  0.00000000000E+00  0.00000000000E+00 -0.63224127081E+03  0.63224127083E+03  0.50400001928E-02 0.  1.
    10030    2    1    2    0    0  0.00000000000E+00  0.00000000000E+00  0.16373033377E+04  0.29017858793E+04  0.23957460362E+04 0.  0.
        5    1    3    3  502    0  0.13955434929E+03 -0.91661688885E+03  0.17372802755E+04  0.19692198412E+04  0.46999998093E+01 0. -1.
       -5    1    3    3    0  502 -0.13955434929E+03  0.91661688885E+03 -0.99976937837E+02  0.93256603811E+03  0.46999998093E+01 0.  1.
</event>
<event>
 5   0  0.5349036E-06  0.2404686E+04  0.7818609E-02  0.8437751E-01
        2   -1    0    0  501    0  0.00000000000E+00  0.00000000000E+00  0.23612135907E+04  0.23612135907E+04  0.25500000920E-02 0.  1.
       -2   -1    0    0    0  501  0.00000000000E+00  0.00000000000E+00 -0.61223959215E+03  0.61223959216E+03  0.25500000920E-02 0. -1.
    10030    2    1    2    0    0  0.00000000000E+00  0.00000000000E+00  0.17489739986E+04  0.29734531829E+04  0.24046857972E+04 0.  0.
        1    1    3    3  502    0  0.24808135883E+03  0.63253230069E+03 -0.35209741275E+03  0.76525424540E+03  0.50400001928E-02 0. -1.
       -1    1    3    3    0  502 -0.24808135883E+03 -0.63253230069E+03  0.21010714113E+04  0.22081989375E+04  0.50400001928E-02 0.  1.
</event>
<event>
 5   0  0.2254269E-06  0.2404337E+04  0.7818609E-02  0.8437882E-01
        1   -1    0    0  501    0  0.00000000000E+00  0.00000000000E+00  0.15480531650E+04  0.15480531650E+04  0.50400001928E-02 0.  1.
       -1   -1    0    0    0  501  0.00000000000E+00  0.00000000000E+00 -0.93356556100E+03  0.93356556101E+03  0.50400001928E-02 0. -1.
    10030    2    1    2    0    0  0.00000000000E+00  0.00000000000E+00  0.61448760404E+03  0.24816187261E+04  0.24043370159E+04 0.  0.
        2    1    3    3  502    0 -0.16631400199E+03 -0.81623581644E+03 -0.58739696234E+03  0.10192823194E+04  0.25500000920E-02 0. -1.
       -2    1    3    3    0  502  0.16631400199E+03  0.81623581644E+03  0.12018845664E+04  0.14623364066E+04  0.25500000920E-02 0.  1.
</event>
<event>
 5   0  0.1796750E-06  0.2401255E+04  0.7818609E-02  0.8439034E-01
       -4   -1    0    0    0  501  0.00000000000E+00  0.00000000000E+00  0.13626304248E+04  0.13626310167E+04  0.12699999809E+01 0.  1.
        4   -1    0    0  501    0  0.00000000000E+00  0.00000000000E+00 -0.10578839950E+04  0.10578847573E+04  0.12699999809E+01 0. -1.
    10030    2    1    2    0    0  0.00000000000E+00  0.00000000000E+00  0.30474642983E+03  0.24205157740E+04  0.24012551355E+04 0.  0.
        2    1    3    3  502    0 -0.11138988877E+04  0.39321555203E+03  0.36884525054E+03  0.12375120288E+04  0.25500000920E-02 0.  1.
       -2    1    3    3    0  502  0.11138988877E+04 -0.39321555203E+03 -0.64098820703E+02  0.11830037453E+04  0.25500000920E-02 0. -1.
</event>
<event>
 5   0  0.2215700E-06  0.2405217E+04  0.7818609E-02  0.8437553E-01
       -1   -1    0    0    0  501  0.00000000000E+00  0.00000000000E+00  0.11598307114E+04  0.11598307114E+04  0.50400001928E-02 0.  1.
        1   -1    0    0  501    0  0.00000000000E+00  0.00000000000E+00 -0.12469640406E+04  0.12469640406E+04  0.50400001928E-02 0. -1.
    10030    2    1    2    0    0  0.00000000000E+00  0.00000000000E+00 -0.87133329182E+02  0.24067947521E+04  0.24052169884E+04 0.  0.
        3    1    3    3  502    0  0.32124599829E+03 -0.55990032382E+03 -0.10589143969E+04  0.12401560685E+04  0.10100000352E+00 0. -1.
       -3    1    3    3    0  502 -0.32124599829E+03  0.55990032382E+03  0.97178106777E+03  0.11666386835E+04  0.10100000352E+00 0.  1.
</event>
<event>
 5   0  0.2215700E-06  0.2401565E+04  0.7818609E-02  0.8438918E-01
       -1   -1    0    0    0  501  0.00000000000E+00  0.00000000000E+00  0.72221939733E+03  0.72221939735E+03  0.50400001928E-02 0. -1.
        1   -1    0    0  501    0  0.00000000000E+00  0.00000000000E+00 -0.19964548177E+04  0.19964548177E+04  0.50400001928E-02 0.  1.
    10030    2    1    2    0    0  0.00000000000E+00  0.00000000000E+00 -0.12742354204E+04  0.27186742151E+04  0.24015648193E+04 0.  0.
        3    1    3    3  502    0 -0.59670060689E+03 -0.90677710714E+03 -0.12183112388E+04  0.16317409786E+04  0.10100000352E+00 0. -1.
       -3    1    3    3    0  502  0.59670060689E+03  0.90677710714E+03 -0.55924181543E+02  0.10869332365E+04  0.10100000352E+00 0.  1.
</event>
<event>
 5   0  0.2215700E-06  0.2400038E+04  0.7818609E-02  0.8439489E-01
       -1   -1    0    0    0  501  0.00000000000E+00  0.00000000000E+00  0.16710791088E+04  0.16710791088E+04  0.50400001928E-02 0. -1.
        1   -1    0    0  501    0  0.00000000000E+00  0.00000000000E+00 -0.86174613594E+03  0.86174613595E+03  0.50400001928E-02 0.  1.
    10030    2    1    2    0    0  0.00000000000E+00  0.00000000000E+00  0.80933297286E+03  0.25328252448E+04  0.24000383038E+04 0.  0.
        3    1    3    3  502    0  0.90933747949E+03 -0.67917487948E+03 -0.66035156613E+01  0.11349963811E+04  0.10100000352E+00 0.  1.
       -3    1    3    3    0  502 -0.90933747949E+03  0.67917487948E+03  0.81593648852E+03  0.13978288636E+04  0.10100000352E+00 0. -1.
</event>
<event>
 5   0  0.2149029E-06  0.2399744E+04  0.7818609E-02  0.8439599E-01
        1   -1    0    0  501    0  0.00000000000E+00  0.00000000000E+00  0.23668403072E+04  0.23668403072E+04  0.50400001928E-02 0. -1.
       -1   -1    0    0    0  501  0.00000000000E+00  0.00000000000E+00 -0.60827623765E+03  0.60827623767E+03  0.50400001928E-02 0.  1.
    10030    2    1    2    0    0  0.00000000000E+00  0.00000000000E+00  0.17585640695E+04  0.29751165448E+04  0.23997439173E+04 0.  0.
        4    1    3    3  502    0  0.11618400339E+03  0.51949998419E+03 -0.45386063088E+03  0.69954988484E+03  0.12699999809E+01 0.  1.
       -4    1    3    3    0  502 -0.11618400339E+03 -0.51949998419E+03  0.22124247004E+04  0.22755666600E+04  0.12699999809E+01 0. -1.
</event>
<event>
 5   0  0.2149417E-06  0.2398776E+04  0.7818609E-02  0.8439962E-01
        1   -1    0    0  501    0  0.00000000000E+00  0.00000000000E+00  0.92851632140E+03  0.92851632141E+03  0.50400001928E-02 0.  1.
       -1   -1    0    0    0  501  0.00000000000E+00  0.00000000000E+00 -0.15492797661E+04  0.15492797661E+04  0.50400001928E-02 0. -1.
    10030    2    1    2    0    0  0.00000000000E+00  0.00000000000E+00 -0.62076344469E+03  0.24777960875E+04  0.23987759789E+04 0.  0.
        5    1    3    3  502    0  0.95831968073E+02  0.83721874204E+03  0.57119070712E+03  0.10180372793E+04  0.46999998093E+01 0.  1.
       -5    1    3    3    0  502 -0.95831968073E+02 -0.83721874204E+03 -0.11919541518E+04  0.14597588082E+04  0.46999998093E+01 0. -1.
</event>
<event>
 5   0  0.1796750E-06  0.2385740E+04  0.7818609E-02  0.8444862E-01
       -4   -1    0    0    0  501  0.00000000000E+00  0.00000000000E+00  0.12017320339E+04  0.12017327050E+04  0.12699999809E+01 0.  1.
        4   -1    0    0  501    0  0.00000000000E+00  0.00000000000E+00 -0.11840720801E+04  0.11840727612E+04  0.12699999809E+01 0. -1.
    10030    2    1    2    0    0  0.00000000000E+00  0.00000000000E+00  0.17659953740E+02  0.23858054662E+04  0.23857401050E+04 0.  0.
        4    1    3    3  502    0 -0.94302876632E+03 -0.25061589139E+03  0.69501622602E+03  0.11979819475E+04  0.12699999809E+01 0.  1.
       -4    1    3    3    0  502  0.94302876632E+03  0.25061589139E+03 -0.67735627228E+03  0.11878235187E+04  0.12699999809E+01 0. -1.
</event>
<event>
 5   0  0.1796750E-06  0.2398055E+04  0.7818609E-02  0.8440232E-01
       -3   -1    0    0    0  501  0.00000000000E+00  0.00000000000E+00  0.14772974024E+04  0.14772974059E+04  0.10100000352E+00 0.  1.
        3   -1    0    0  501    0  0.00000000000E+00  0.00000000000E+00 -0.97317333095E+03  0.97317333619E+03  0.10100000352E+00 0. -1.
    10030    2    1    2    0    0  0.00000000000E+00  0.00000000000E+00  0.50412407150E+03  0.24504707421E+04  0.23980545820E+04 0.  0.
        4    1    3    3  502    0 -0.53091670904E+02 -0.56489442111E+03  0.13314362455E+04  0.14472900612E+04  0.12699999809E+01 0.  1.
       -4    1    3    3    0  502  0.53091670904E+02  0.56489442111E+03 -0.82731217395E+03  0.10031806809E+04  0.12699999809E+01 0. -1.
</event>
<event>
 5   0  0.5349036E-06  0.2405397E+04  0.7818609E-02  0.8437486E-01
       -2   -1    0    0    0  501  0.00000000000E+00  0.00000000000E+00  0.14923085340E+04  0.14923085340E+04  0.25500000920E-02 0.  1.
        2   -1    0    0  501    0  0.00000000000E+00  0.00000000000E+00 -0.96929237004E+03  0.96929237004E+03  0.25500000920E-02 0. -1.
    10030    2    1    2    0    0  0.00000000000E+00  0.00000000000E+00  0.52301616400E+03  0.24616009041E+04  0.24053966623E+04 0.  0.
        1    1    3    3  502    0 -0.87588681596E+03  0.82211669393E+03  0.20157602367E+03  0.12180666920E+04  0.50400001928E-02 0. -1.
       -1    1    3    3    0  502  0.87588681596E+03 -0.82211669393E+03  0.32144014033E+03  0.12435342121E+04  0.50400001928E-02 0.  1.
</event>
<event>
 5   0  0.2297414E-06  0.2402409E+04  0.7818609E-02  0.8438602E-01
        1   -1    0    0  501    0  0.00000000000E+00  0.00000000000E+00  0.17885582064E+04  0.17885582064E+04  0.50400001928E-02 0.  1.
       -1   -1    0    0    0  501  0.00000000000E+00  0.00000000000E+00 -0.80673483237E+03  0.80673483239E+03  0.50400001928E-02 0. -1.
    10030    2    1    2    0    0  0.00000000000E+00  0.00000000000E+00  0.98182337404E+03  0.25952930388E+04  0.24024089617E+04 0.  0.
        1    1    3    3  502    0  0.14438217218E+03  0.31966115443E+03 -0.75017994362E+03  0.82813007018E+03  0.50400001928E-02 0. -1.
       -1    1    3    3    0  502 -0.14438217218E+03 -0.31966115443E+03  0.17320033177E+04  0.17671629686E+04  0.50400001928E-02 0.  1.
</event>
<event>
 5   0  0.5371843E-06  0.2401945E+04  0.7818609E-02  0.8438776E-01
       -2   -1    0    0    0  501  0.00000000000E+00  0.00000000000E+00  0.71172438101E+03  0.71172438102E+03  0.25500000920E-02 0.  1.
        2   -1    0    0  501    0  0.00000000000E+00  0.00000000000E+00 -0.20265362972E+04  0.20265362972E+04  0.25500000920E-02 0. -1.
    10030    2    1    2    0    0  0.00000000000E+00  0.00000000000E+00 -0.13148119162E+04  0.27382606782E+04  0.24019452881E+04 0.  0.
        4    1    3    3  502    0  0.76408018189E+02 -0.11938891233E+04 -0.53716646328E+03  0.13113957626E+04  0.12699999809E+01 0.  1.
       -4    1    3    3    0  502 -0.76408018189E+02  0.11938891233E+04 -0.77764545290E+03  0.14268649156E+04  0.12699999809E+01 0. -1.
</event>
<event>
 5   0  0.5440503E-06  0.2399476E+04  0.7818609E-02  0.8439700E-01
       -2   -1    0    0    0  501  0.00000000000E+00  0.00000000000E+00  0.11662583752E+04  0.11662583752E+04  0.25500000920E-02 0. -1.
        2   -1    0    0  501    0  0.00000000000E+00  0.00000000000E+00 -0.12341788932E+04  0.12341788932E+04  0.25500000920E-02 0.  1.
    10030    2    1    2    0    0  0.00000000000E+00  0.00000000000E+00 -0.67920517923E+02  0.24004372684E+04  0.23994761684E+04 0.  0.
        3    1    3    3  502    0  0.10330744853E+04  0.59357854693E+03 -0.17470448150E+03  0.12042010005E+04  0.10100000352E+00 0.  1.
       -3    1    3    3    0  502 -0.10330744853E+04 -0.59357854693E+03  0.10678396358E+03  0.11962362679E+04  0.10100000352E+00 0. -1.
</event>
<event>
 5   0  0.2215700E-06  0.2400520E+04  0.7818609E-02  0.8439309E-01
       -1   -1    0    0    0  501  0.00000000000E+00  0.00000000000E+00  0.69975267169E+03  0.69975267171E+03  0.50400001928E-02 0.  1.
        1   -1    0    0  501    0  0.00000000000E+00  0.00000000000E+00 -0.20587611977E+04  0.20587611977E+04  0.50400001928E-02 0. -1.
    10030    2    1    2    0    0  0.00000000000E+00  0.00000000000E+00 -0.13590085260E+04  0.27585138694E+04  0.24005196508E+04 0.  0.
        3    1    3    3  502    0  0.10345128212E+04 -0.49255178512E+03 -0.10903082534E+04  0.15816434921E+04  0.10100000352E+00 0. -1.
       -3    1    3    3    0  502 -0.10345128212E+04  0.49255178512E+03 -0.26870027255E+03  0.11768703773E+04  0.10100000352E+00 0.  1.
</event>
<event>
 5   0  0.2149417E-06  0.2397419E+04  0.7818609E-02  0.8440471E-01
        1   -1    0    0  501    0  0.00000000000E+00  0.00000000000E+00  0.21948759283E+04  0.21948759283E+04  0.50400001928E-02 0.  1.
       -1   -1    0    0    0  501  0.00000000000E+00  0.00000000000E+00 -0.65466304593E+03  0.65466304595E+03  0.50400001928E-02 0. -1.
    10030    2    1    2    0    0  0.00000000000E+00  0.00000000000E+00  0.15402128824E+04  0.28495389743E+04  0.23974187458E+04 0.  0.
        5    1    3    3  502    0 -0.71392262515E+03 -0.16004907473E+03  0.18986882447E+04  0.20347826325E+04  0.46999998093E+01 0.  1.
       -5    1    3    3    0  502  0.71392262515E+03  0.16004907473E+03 -0.35847536233E+03  0.81475634175E+03  0.46999998093E+01 0. -1.
</event>
<event>
 5   0  0.2149029E-06  0.2404384E+04  0.7818609E-02  0.8437864E-01
        1   -1    0    0  501    0  0.00000000000E+00  0.00000000000E+00  0.11575441023E+04  0.11575441023E+04  0.50400001928E-02 0. -1.
       -1   -1    0    0    0  501  0.00000000000E+00  0.00000000000E+00 -0.12485623473E+04  0.12485623473E+04  0.50400001928E-02 0.  1.
    10030    2    1    2    0    0  0.00000000000E+00  0.00000000000E+00 -0.91018245027E+02  0.24061064496E+04  0.24043843132E+04 0.  0.
        4    1    3    3  502    0 -0.80017093582E+03  0.63557339918E+03 -0.67923776050E+03  0.12270259249E+04  0.12699999809E+01 0.  1.
       -4    1    3    3    0  502  0.80017093582E+03 -0.63557339918E+03  0.58821951547E+03  0.11790805246E+04  0.12699999809E+01 0. -1.
</event>
<event>
 5   0  0.5379778E-06  0.2405050E+04  0.7818609E-02  0.8437615E-01
       -2   -1    0    0    0  501  0.00000000000E+00  0.00000000000E+00  0.18878430904E+04  0.18878430904E+04  0.25500000920E-02 0. -1.
        2   -1    0    0  501    0  0.00000000000E+00  0.00000000000E+00 -0.76598871136E+03  0.76598871136E+03  0.25500000920E-02 0.  1.
    10030    2    1    2    0    0  0.00000000000E+00  0.00000000000E+00  0.11218543790E+04  0.26538318018E+04  0.24050501002E+04 0.  0.
        5    1    3    3  502    0  0.96289723991E+03 -0.72026384285E+03  0.57158600618E+03  0.13314217027E+04  0.46999998093E+01 0. -1.
       -5    1    3    3    0  502 -0.96289723991E+03  0.72026384285E+03  0.55026837287E+03  0.13224100991E+04  0.46999998093E+01 0.  1.
</event>
<event>
 5   0  0.5268358E-06  0.2392961E+04  0.7818609E-02  0.8442144E-01
        2   -1    0    0  501    0  0.00000000000E+00  0.00000000000E+00  0.13615280208E+04  0.13615280208E+04  0.25500000920E-02 0.  1.
       -2   -1    0    0    0  501  0.00000000000E+00  0.00000000000E+00 -0.10514401045E+04  0.10514401045E+04  0.25500000920E-02 0. -1.
    10030    2    1    2    0    0  0.00000000000E+00  0.00000000000E+00  0.31008791626E+03  0.24129681253E+04  0.23929606470E+04 0.  0.
        2    1    3    3  502    0 -0.11419097325E+04 -0.14538536980E+02  0.51495390831E+03  0.12527356999E+04  0.25500000920E-02 0.  1.
       -2    1    3    3    0  502  0.11419097325E+04  0.14538536980E+02 -0.20486599205E+03  0.11602324254E+04  0.25500000920E-02 0. -1.
</event>
<event>
 5   0  0.5440503E-06  0.2398160E+04  0.7818609E-02  0.8440193E-01
       -2   -1    0    0    0  501  0.00000000000E+00  0.00000000000E+00  0.75611817919E+03  0.75611817919E+03  0.25500000920E-02 0. -1.
        2   -1    0    0  501    0  0.00000000000E+00  0.00000000000E+00 -0.19015453030E+04  0.19015453030E+04  0.25500000920E-02 0.  1.
    10030    2    1    2    0    0  0.00000000000E+00  0.00000000000E+00 -0.11454271238E+04  0.26576634822E+04  0.23981601049E+04 0.  0.
        3    1    3    3  502    0  0.37458024010E+03 -0.44639792532E+03 -0.17340680651E+04  0.18293642416E+04  0.10100000352E+00 0.  1.
       -3    1    3    3    0  502 -0.37458024010E+03  0.44639792532E+03  0.58864094126E+03  0.82829924057E+03  0.10100000352E+00 0. -1.
</event>
<event>
 5   0  0.5268358E-06  0.2397400E+04  0.7818609E-02  0.8440478E-01
       -2   -1    0    0    0  501  0.00000000000E+00  0.00000000000E+00  0.78559753804E+03  0.78559753804E+03  0.25500000920E-02 0.  1.
        2   -1    0    0  501    0  0.00000000000E+00  0.00000000000E+00 -0.18290296281E+04  0.18290296281E+04  0.25500000920E-02 0. -1.
    10030    2    1    2    0    0  0.00000000000E+00  0.00000000000E+00 -0.10434320901E+04  0.26146271662E+04  0.23973995686E+04 0.  0.
        2    1    3    3  502    0 -0.43323292706E+02 -0.58580387116E+03 -0.16613056180E+04  0.17620951846E+04  0.25500000920E-02 0.  1.
       -2    1    3    3    0  502  0.43323292706E+02  0.58580387116E+03  0.61787352790E+03  0.85253198159E+03  0.25500000920E-02 0. -1.
</event>
<event>
 5   0  0.5440503E-06  0.2340059E+04  0.7818609E-02  0.8462292E-01
        2   -1    0    0  501    0  0.00000000000E+00  0.00000000000E+00  0.11451471113E+04  0.11451471113E+04  0.25500000920E-02 0. -1.
       -2   -1    0    0    0  501  0.00000000000E+00  0.00000000000E+00 -0.11954523013E+04  0.11954523013E+04  0.25500000920E-02 0.  1.
    10030    2    1    2    0    0  0.00000000000E+00  0.00000000000E+00 -0.50305190009E+02  0.23405994125E+04  0.23400587595E+04 0.  0.
        3    1    3    3  502    0  0.88748791775E+03  0.33726955936E+03  0.65880593268E+03  0.11555997694E+04  0.10100000352E+00 0. -1.
       -3    1    3    3    0  502 -0.88748791775E+03 -0.33726955936E+03 -0.70911112268E+03  0.11849996432E+04  0.10100000352E+00 0.  1.
</event>
<event>
 5   0  0.5379778E-06  0.2398261E+04  0.7818609E-02  0.8440155E-01
        2   -1    0    0  501    0  0.00000000000E+00  0.00000000000E+00  0.15247603087E+04  0.15247603087E+04  0.25500000920E-02 0.  1.
       -2   -1    0    0    0  501  0.00000000000E+00  0.00000000000E+00 -0.94304259895E+03  0.94304259896E+03  0.25500000920E-02 0. -1.
    10030    2    1    2    0    0  0.00000000000E+00  0.00000000000E+00  0.58171770974E+03  0.24678029077E+04  0.23982609735E+04 0.  0.
        5    1    3    3  502    0  0.10784176624E+04 -0.51805257919E+03  0.37400221131E+03  0.12535002487E+04  0.46999998093E+01 0.  1.
       -5    1    3    3    0  502 -0.10784176624E+04  0.51805257919E+03  0.20771549844E+03  0.12143026590E+04  0.46999998093E+01 0. -1.
</event>
<event>
 5   0  0.5371843E-06  0.2399551E+04  0.7818609E-02  0.8439672E-01
        2   -1    0    0  501    0  0.00000000000E+00  0.00000000000E+00  0.20363143086E+04  0.20363143086E+04  0.25500000920E-02 0. -1.
       -2   -1    0    0    0  501  0.00000000000E+00  0.00000000000E+00 -0.70689537947E+03  0.70689537947E+03  0.25500000920E-02 0.  1.
    10030    2    1    2    0    0  0.00000000000E+00  0.00000000000E+00  0.13294189291E+04  0.27432096881E+04  0.23995509379E+04 0.  0.
        4    1    3    3  502    0  0.34467662565E+02  0.53509089981E+03 -0.56229377574E+03  0.77697245379E+03  0.12699999809E+01 0.  1.
       -4    1    3    3    0  502 -0.34467662565E+02 -0.53509089981E+03  0.18917127049E+04  0.19662372343E+04  0.12699999809E+01 0. -1.
</event>
<event>
 5   0  0.5371843E-06  0.2405197E+04  0.7818609E-02  0.8437560E-01
        2   -1    0    0  501    0  0.00000000000E+00  0.00000000000E+00  0.10917914257E+04  0.10917914257E+04  0.25500000920E-02 0. -1.
       -2   -1    0    0    0  501  0.00000000000E+00  0.00000000000E+00 -0.13246519940E+04  0.13246519940E+04  0.25500000920E-02 0.  1.
    10030    2    1    2    0    0  0.00000000000E+00  0.00000000000E+00 -0.23286056827E+03  0.24164434197E+04  0.24051974464E+04 0.  0.
        4    1    3    3  502    0  0.56575869000E+03 -0.11217214767E+03  0.94376518256E+03  0.11060559745E+04  0.12699999809E+01 0. -1.
       -4    1    3    3    0  502 -0.56575869000E+03  0.11217214767E+03 -0.11766257508E+04  0.13103874452E+04  0.12699999809E+01 0.  1.
</event>
<event>
 5   0  0.2297414E-06  0.2402481E+04  0.7818609E-02  0.8438575E-01
       -1   -1    0    0    0  501  0.00000000000E+00  0.00000000000E+00  0.12194656136E+04  0.12194656136E+04  0.50400001928E-02 0. -1.
        1   -1    0    0  501    0  0.00000000000E+00  0.00000000000E+00 -0.11832874376E+04  0.11832874376E+04  0.50400001928E-02 0.  1.
    10030    2    1    2    0    0  0.00000000000E+00  0.00000000000E+00  0.36178175993E+02  0.24027530512E+04  0.24024806689E+04 0.  0.
        1    1    3    3  502    0  0.10621814391E+04  0.35254732147E+03  0.45455501681E+03  0.12079483792E+04  0.50400001928E-02 0.  1.
       -1    1    3    3    0  502 -0.10621814391E+04 -0.35254732147E+03 -0.41837684082E+03  0.11948046720E+04  0.50400001928E-02 0. -1.
</event>
<event>
 5   0  0.5268358E-06  0.2387448E+04  0.7818609E-02  0.8444218E-01
        2   -1    0    0  501    0  0.00000000000E+00  0.00000000000E+00  0.12720309963E+04  0.12720309963E+04  0.25500000920E-02 0.  1.
       -2   -1    0    0    0  501  0.00000000000E+00  0.00000000000E+00 -0.11202376190E+04  0.11202376190E+04  0.25500000920E-02 0. -1.
    10030    2    1    2    0    0  0.00000000000E+00  0.00000000000E+00  0.15179337723E+03  0.23922686153E+04  0.23874479886E+04 0.  0.
        2    1    3    3  502    0 -0.38159726126E+03  0.62723280417E+03  0.10190408048E+04  0.12559783526E+04  0.25500000920E-02 0.  1.
       -2    1    3    3    0  502  0.38159726126E+03 -0.62723280417E+03 -0.86724742756E+03  0.11362902627E+04  0.25500000920E-02 0. -1.
</event>
<event>
 5   0  0.2149417E-06  0.2396061E+04  0.7818609E-02  0.8440980E-01
       -1   -1    0    0    0  501  0.00000000000E+00  0.00000000000E+00  0.85321297090E+03  0.85321297091E+03  0.50400001928E-02 0. -1.
        1   -1    0    0  501    0  0.00000000000E+00  0.00000000000E+00 -0.16822031970E+04  0.16822031970E+04  0.50400001928E-02 0.  1.
    10030    2    1    2    0    0  0.00000000000E+00  0.00000000000E+00 -0.82899022611E+03  0.25354161679E+04  0.23960614244E+04 0.  0.
        5    1    3    3  502    0  0.49292443816E+03 -0.10810132782E+04 -0.57736681858E+03  0.13209612949E+04  0.46999998093E+01 0. -1.
       -5    1    3    3    0  502 -0.49292443816E+03  0.10810132782E+04 -0.25162340753E+03  0.12144548730E+04  0.46999998093E+01 0.  1.
</event>
<event>
 5   0  0.2297414E-06  0.2401118E+04  0.7818609E-02  0.8439085E-01
       -1   -1    0    0    0  501  0.00000000000E+00  0.00000000000E+00  0.10248933683E+04  0.10248933683E+04  0.50400001928E-02 0.  1.
        1   -1    0    0  501    0  0.00000000000E+00  0.00000000000E+00 -0.14063333926E+04  0.14063333926E+04  0.50400001928E-02 0. -1.
    10030    2    1    2    0    0  0.00000000000E+00  0.00000000000E+00 -0.38144002439E+03  0.24312267609E+04  0.24011178794E+04 0.  0.
        1    1    3    3  502    0  0.55516226959E+03 -0.49923277314E+03 -0.11426704846E+04  0.13649667922E+04  0.50400001928E-02 0. -1.
       -1    1    3    3    0  502 -0.55516226959E+03  0.49923277314E+03  0.76123046021E+03  0.10662599687E+04  0.50400001928E-02 0.  1.
</event>
<event>
 5   0  0.2149417E-06  0.2450112E+04  0.7818609E-02  0.8420977E-01
        1   -1    0    0  501    0  0.00000000000E+00  0.00000000000E+00  0.70832581706E+03  0.70832581708E+03  0.50400001928E-02 0. -1.
       -1   -1    0    0    0  501  0.00000000000E+00  0.00000000000E+00 -0.21187456685E+04  0.21187456685E+04  0.50400001928E-02 0.  1.
    10030    2    1    2    0    0  0.00000000000E+00  0.00000000000E+00 -0.14104198515E+04  0.28270714856E+04  0.24501120438E+04 0.  0.
        5    1    3    3  502    0  0.85191522371E+02 -0.63690208023E+03  0.49825384290E+03  0.81313027077E+03  0.46999998093E+01 0. -1.
       -5    1    3    3    0  502 -0.85191522371E+02  0.63690208023E+03 -0.19086736944E+04  0.20139412149E+04  0.46999998093E+01 0.  1.
</event>
<event>
 5   0  0.5349036E-06  0.2401233E+04  0.7818609E-02  0.8439042E-01
       -2   -1    0    0    0  501  0.00000000000E+00  0.00000000000E+00  0.10194190352E+04  0.10194190352E+04  0.25500000920E-02 0.  1.
        2   -1    0    0  501    0  0.00000000000E+00  0.00000000000E+00 -0.14140209433E+04  0.14140209433E+04  0.25500000920E-02 0. -1.
    10030    2    1    2    0    0  0.00000000000E+00  0.00000000000E+00 -0.39460190810E+03  0.24334399785E+04  0.24012329048E+04 0.  0.
        1    1    3    3  502    0  0.46171894514E+02  0.36672823519E+03 -0.13549263599E+04  0.14044382802E+04  0.50400001928E-02 0. -1.
       -1    1    3    3    0  502 -0.46171894514E+02 -0.36672823519E+03  0.96032445176E+03  0.10290016983E+04  0.50400001928E-02 0.  1.
</event>
<event>
 5   0  0.5440503E-06  0.2397360E+04  0.7818609E-02  0.8440493E-01
        2   -1    0    0  501    0  0.00000000000E+00  0.00000000000E+00  0.15344977318E+04  0.15344977318E+04  0.25500000920E-02 0.  1.
       -2   -1    0    0    0  501  0.00000000000E+00  0.00000000000E+00 -0.93635461179E+03  0.93635461180E+03  0.25500000920E-02 0. -1.
    10030    2    1    2    0    0  0.00000000000E+00  0.00000000000E+00  0.59814312002E+03  0.24708523436E+04  0.23973602382E+04 0.  0.
        3    1    3    3  502    0  0.39401713457E+03  0.11093949705E+04  0.53143194009E+03  0.12916758959E+04  0.10100000352E+00 0. -1.
       -3    1    3    3    0  502 -0.39401713457E+03 -0.11093949705E+04  0.66711179931E+02  0.11791764477E+04  0.10100000352E+00 0.  1.
</event>
<event>
 5   0  0.5379778E-06  0.2398671E+04  0.7818609E-02  0.8440001E-01
        2   -1    0    0  501    0  0.00000000000E+00  0.00000000000E+00  0.23358930922E+04  0.23358930922E+04  0.25500000920E-02 0.  1.
       -2   -1    0    0    0  501  0.00000000000E+00  0.00000000000E+00 -0.61578424061E+03  0.61578424062E+03  0.25500000920E-02 0. -1.
    10030    2    1    2    0    0  0.00000000000E+00  0.00000000000E+00  0.17201088516E+04  0.29516773328E+04  0.23986714272E+04 0.  0.
        5    1    3    3  502    0  0.99056592205E+03  0.64270885434E+03  0.60167316723E+03  0.13252653348E+04  0.46999998093E+01 0. -1.
       -5    1    3    3    0  502 -0.99056592205E+03 -0.64270885434E+03  0.11184356844E+04  0.16264119981E+04  0.46999998093E+01 0.  1.
</event>
<event>
 5   0  0.2149417E-06  0.2399638E+04  0.7818609E-02  0.8439639E-01
        1   -1    0    0  501    0  0.00000000000E+00  0.00000000000E+00  0.23901644754E+04  0.23901644754E+04  0.50400001928E-02 0. -1.
       -1   -1    0    0    0  501  0.00000000000E+00  0.00000000000E+00 -0.60228718822E+03  0.60228718824E+03  0.50400001928E-02 0.  1.
    10030    2    1    2    0    0  0.00000000000E+00  0.00000000000E+00  0.17878772872E+04  0.29924516637E+04  0.23996378405E+04 0.  0.
        5    1    3    3  502    0  0.27389895124E+03  0.12375103001E+03  0.23424468507E+04  0.23616549899E+04  0.46999998093E+01 0. -1.
       -5    1    3    3    0  502 -0.27389895124E+03 -0.12375103001E+03 -0.55456956349E+03  0.63079667379E+03  0.46999998093E+01 0.  1.
</event>
<event>
 5   0  0.5440503E-06  0.2378981E+04  0.7818609E-02  0.8447415E-01
       -2   -1    0    0    0  501  0.00000000000E+00  0.00000000000E+00  0.69134951284E+03  0.69134951284E+03  0.25500000920E-02 0. -1.
        2   -1    0    0  501    0  0.00000000000E+00  0.00000000000E+00 -0.20465592984E+04  0.20465592984E+04  0.25500000920E-02 0.  1.
    10030    2    1    2    0    0  0.00000000000E+00  0.00000000000E+00 -0.13552097855E+04  0.27379088112E+04  0.23789811045E+04 0.  0.
        3    1    3    3  502    0 -0.10861790937E+04 -0.40689756540E+03 -0.98108924959E+03  0.15191730573E+04  0.10100000352E+00 0.  1.
       -3    1    3    3    0  502  0.10861790937E+04  0.40689756540E+03 -0.37412053595E+03  0.12187357539E+04  0.10100000352E+00 0. -1.
</event>
<event>
 5   0  0.5371843E-06  0.2377438E+04  0.7818609E-02  0.8447999E-01
        2   -1    0    0  501    0  0.00000000000E+00  0.00000000000E+00  0.17764806473E+04  0.17764806473E+04  0.25500000920E-02 0.  1.
       -2   -1    0    0    0  501  0.00000000000E+00  0.00000000000E+00 -0.79542293117E+03  0.79542293118E+03  0.25500000920E-02 0. -1.
    10030    2    1    2    0    0  0.00000000000E+00  0.00000000000E+00  0.98105771608E+03  0.25719035784E+04  0.23774384902E+04 0.  0.
        4    1    3    3  502    0  0.95788340783E+02  0.16670872686E+03 -0.77848967415E+03  0.80188215562E+03  0.12699999809E+01 0. -1.
       -4    1    3    3    0  502 -0.95788340783E+02 -0.16670872686E+03  0.17595473902E+04  0.17700214228E+04  0.12699999809E+01 0.  1.
</event>
<event>
 5   0  0.1796750E-06  0.2397679E+04  0.7818609E-02  0.8440373E-01
        4   -1    0    0  501    0  0.00000000000E+00  0.00000000000E+00  0.17251604684E+04  0.17251609358E+04  0.12699999809E+01 0.  1.
       -4   -1    0    0    0  501  0.00000000000E+00  0.00000000000E+00 -0.83309038281E+03  0.83309135083E+03  0.12699999809E+01 0. -1.
    10030    2    1    2    0    0  0.00000000000E+00  0.00000000000E+00  0.89207008554E+03  0.25582522867E+04  0.23976792372E+04 0.  0.
        4    1    3    3  502    0  0.60842061440E+03 -0.36768316972E+03  0.14760057847E+04  0.16382799659E+04  0.12699999809E+01 0.  1.
       -4    1    3    3    0  502 -0.60842061440E+03  0.36768316972E+03 -0.58393569914E+03  0.91997232076E+03  0.12699999809E+01 0. -1.
</event>
<event>
 5   0  0.2149417E-06  0.2400985E+04  0.7818609E-02  0.8439135E-01
       -1   -1    0    0    0  501  0.00000000000E+00  0.00000000000E+00  0.11471630889E+04  0.11471630889E+04  0.50400001928E-02 0.  1.
        1   -1    0    0  501    0  0.00000000000E+00  0.00000000000E+00 -0.12563012558E+04  0.12563012558E+04  0.50400001928E-02 0. -1.
    10030    2    1    2    0    0  0.00000000000E+00  0.00000000000E+00 -0.10913816686E+03  0.24034643447E+04  0.24009851555E+04 0.  0.
        5    1    3    3  502    0 -0.40913579562E+03 -0.79543304822E+03  0.74691644899E+03  0.11653377644E+04  0.46999998093E+01 0.  1.
       -5    1    3    3    0  502  0.40913579562E+03  0.79543304822E+03 -0.85605461585E+03  0.12381265803E+04  0.46999998093E+01 0. -1.
</event>
<event>
 5   0  0.5440503E-06  0.2400049E+04  0.7818609E-02  0.8439485E-01
       -2   -1    0    0    0  501  0.00000000000E+00  0.00000000000E+00  0.78859733413E+03  0.78859733413E+03  0.25500000920E-02 0.  1.
        2   -1    0    0  501    0  0.00000000000E+00  0.00000000000E+00 -0.18261019705E+04  0.18261019705E+04  0.25500000920E-02 0. -1.
    10030    2    1    2    0    0  0.00000000000E+00  0.00000000000E+00 -0.10375046364E+04  0.26146993046E+04  0.24000492877E+04 0.  0.
        3    1    3    3  502    0 -0.66660331929E+03  0.49331025972E+03 -0.14637045641E+04  0.16823037951E+04  0.10100000352E+00 0. -1.
       -3    1    3    3    0  502  0.66660331929E+03 -0.49331025972E+03  0.42619992777E+03  0.93239550956E+03  0.10100000352E+00 0.  1.
</event>
<event>
 5   0  0.5349036E-06  0.2399033E+04  0.7818609E-02  0.8439865E-01
        2   -1    0    0  501    0  0.00000000000E+00  0.00000000000E+00  0.11243052923E+04  0.11243052923E+04  0.25500000920E-02 0.  1.
       -2   -1    0    0    0  501  0.00000000000E+00  0.00000000000E+00 -0.12797595456E+04  0.12797595456E+04  0.25500000920E-02 0. -1.
    10030    2    1    2    0    0  0.00000000000E+00  0.00000000000E+00 -0.15545425326E+03  0.24040648379E+04  0.23990334971E+04 0.  0.
        1    1    3    3  502    0  0.10716076160E+04  0.53630202388E+03 -0.23970550170E+02  0.11985563528E+04  0.50400001928E-02 0.  1.
       -1    1    3    3    0  502 -0.10716076160E+04 -0.53630202388E+03 -0.13148370309E+03  0.12055084851E+04  0.50400001928E-02 0. -1.
</event>
<event>
 5   0  0.5371843E-06  0.2400669E+04  0.7818609E-02  0.8439253E-01
       -2   -1    0    0    0  501  0.00000000000E+00  0.00000000000E+00  0.25607867307E+04  0.25607867307E+04  0.25500000920E-02 0.  1.
        2   -1    0    0  501    0  0.00000000000E+00  0.00000000000E+00 -0.56264093488E+03  0.56264093489E+03  0.25500000920E-02 0. -1.
    10030    2    1    2    0    0  0.00000000000E+00  0.00000000000E+00  0.19981457958E+04  0.31234276656E+04  0.24006694401E+04 0.  0.
        4    1    3    3  502    0 -0.11706471374E+04  0.25618477446E+03  0.90934212744E+03  0.15043104987E+04  0.12699999809E+01 0. -1.
       -4    1    3    3    0  502  0.11706471374E+04 -0.25618477446E+03  0.10888036684E+04  0.16191171669E+04  0.12699999809E+01 0.  1.
</event>
<event>
 5   0  0.5349036E-06  0.2400496E+04  0.7818609E-02  0.8439318E-01
       -2   -1    0    0    0  501  0.00000000000E+00  0.00000000000E+00  0.10193225083E+04  0.10193225083E+04  0.25500000920E-02 0.  1.
        2   -1    0    0  501    0  0.00000000000E+00  0.00000000000E+00 -0.14132870314E+04  0.14132870314E+04  0.25500000920E-02 0. -1.
    10030    2    1    2    0    0  0.00000000000E+00  0.00000000000E+00 -0.39396452314E+03  0.24326095397E+04  0.24004960169E+04 0.  0.
        1    1    3    3  502    0  0.96928074523E+03  0.66962513217E+03 -0.42960116172E+03  0.12539777266E+04  0.50400001928E-02 0. -1.
       -1    1    3    3    0  502 -0.96928074523E+03 -0.66962513217E+03  0.35636638585E+02  0.11786318131E+04  0.50400001928E-02 0.  1.
</event>
<event>
 5   0  0.5440503E-06  0.2400876E+04  0.7818609E-02  0.8439176E-01
       -2   -1    0    0    0  501  0.00000000000E+00  0.00000000000E+00  0.63431766742E+03  0.63431766743E+03  0.25500000920E-02 0.  1.
        2   -1    0    0  501    0  0.00000000000E+00  0.00000000000E+00 -0.22718125745E+04  0.22718125745E+04  0.25500000920E-02 0. -1.
    10030    2    1    2    0    0  0.00000000000E+00  0.00000000000E+00 -0.16374949071E+04  0.29061302419E+04  0.24008755512E+04 0.  0.
        3    1    3    3  502    0  0.75648618883E+03 -0.83077024202E+03 -0.13302955930E+04  0.17413032257E+04  0.10100000352E+00 0. -1.
       -3    1    3    3    0  502 -0.75648618883E+03  0.83077024202E+03 -0.30719931405E+03  0.11648270162E+04  0.10100000352E+00 0.  1.
</event>
<event>
 5   0  0.5268358E-06  0.2400135E+04  0.7818609E-02  0.8439453E-01
        2   -1    0    0  501    0  0.00000000000E+00  0.00000000000E+00  0.14582995185E+04  0.14582995185E+04  0.25500000920E-02 0.  1.
       -2   -1    0    0    0  501  0.00000000000E+00  0.00000000000E+00 -0.98756227276E+03  0.98756227276E+03  0.25500000920E-02 0. -1.
    10030    2    1    2    0    0  0.00000000000E+00  0.00000000000E+00  0.47073724578E+03  0.24458617913E+04  0.24001346520E+04 0.  0.
        2    1    3    3  502    0  0.98493857886E+03  0.20146906311E+03  0.90319198698E+03  0.13514620057E+04  0.25500000920E-02 0. -1.
       -2    1    3    3    0  502 -0.98493857886E+03 -0.20146906311E+03 -0.43245474121E+03  0.10943997856E+04  0.25500000920E-02 0.  1.
</event>
<event>
 5   0  0.5349036E-06  0.2400714E+04  0.7818609E-02  0.8439236E-01
        2   -1    0    0  501    0  0.00000000000E+00  0.00000000000E+00  0.20171121023E+04  0.20171121023E+04  0.25500000920E-02 0.  1.
       -2   -1    0    0    0  501  0.00000000000E+00  0.00000000000E+00 -0.71431689075E+03  0.71431689076E+03  0.25500000920E-02 0. -1.
    10030    2    1    2    0    0  0.00000000000E+00  0.00000000000E+00  0.13027952116E+04  0.27314289931E+04  0.24007142648E+04 0.  0.
        1    1    3    3  502    0 -0.11333499877E+04 -0.39526634090E+03  0.66483905564E+03  0.13721255937E+04  0.50400001928E-02 0. -1.
       -1    1    3    3    0  502  0.11333499877E+04  0.39526634090E+03  0.63795615593E+03  0.13593033994E+04  0.50400001928E-02 0.  1.
</event>
<event>
 5   0  0.5268358E-06  0.2404121E+04  0.7818609E-02  0.8437962E-01
        2   -1    0    0  501    0  0.00000000000E+00  0.00000000000E+00  0.26540428466E+04  0.26540428466E+04  0.25500000920E-02 0. -1.
       -2   -1    0    0    0  501  0.00000000000E+00  0.00000000000E+00 -0.54443336720E+03  0.54443336721E+03  0.25500000920E-02 0.  1.
    10030    2    1    2    0    0  0.00000000000E+00  0.00000000000E+00  0.21096094794E+04  0.31984762138E+04  0.24041210316E+04 0.  0.
        2    1    3    3  502    0 -0.40590570601E+03 -0.10557224822E+04  0.15962686509E+04  0.19563698544E+04  0.25500000920E-02 0. -1.
       -2    1    3    3    0  502  0.40590570601E+03  0.10557224822E+04  0.51334082850E+03  0.12421063593E+04  0.25500000920E-02 0.  1.
</event>
<event>
 5   0  0.2297414E-06  0.2401997E+04  0.7818609E-02  0.8438756E-01
       -1   -1    0    0    0  501  0.00000000000E+00  0.00000000000E+00  0.21773473426E+04  0.21773473426E+04  0.50400001928E-02 0.  1.
        1   -1    0    0  501    0  0.00000000000E+00  0.00000000000E+00 -0.66245645258E+03  0.66245645260E+03  0.50400001928E-02 0. -1.
    10030    2    1    2    0    0  0.00000000000E+00  0.00000000000E+00  0.15148908900E+04  0.28398037952E+04  0.24019973327E+04 0.  0.
        1    1    3    3  502    0 -0.20388181782E+03 -0.44109076944E+03  0.20559332825E+04  0.21125791167E+04  0.50400001928E-02 0.  1.
       -1    1    3    3    0  502  0.20388181782E+03  0.44109076944E+03 -0.54104239244E+03  0.72722467846E+03  0.50400001928E-02 0. -1.
</event>
<event>
 5   0  0.2254269E-06  0.2396402E+04  0.7818609E-02  0.8440852E-01
        1   -1    0    0  501    0  0.00000000000E+00  0.00000000000E+00  0.17602552557E+04  0.17602552557E+04  0.50400001928E-02 0. -1.
       -1   -1    0    0    0  501  0.00000000000E+00  0.00000000000E+00 -0.81561218613E+03  0.81561218615E+03  0.50400001928E-02 0.  1.
    10030    2    1    2    0    0  0.00000000000E+00  0.00000000000E+00  0.94464306956E+03  0.25758674418E+04  0.23964020007E+04 0.  0.
        2    1    3    3  502    0  0.38401049610E+03  0.86271647099E+03 -0.32043545518E+03  0.99720742646E+03  0.25500000920E-02 0.  1.
       -2    1    3    3    0  502 -0.38401049610E+03 -0.86271647099E+03  0.12650785247E+04  0.15786600154E+04  0.25500000920E-02 0. -1.
</event>
<event>
 5   0  0.2149029E-06  0.2400309E+04  0.7818609E-02  0.8439388E-01
       -1   -1    0    0    0  501  0.00000000000E+00  0.00000000000E+00  0.10133166648E+04  0.10133166648E+04  0.50400001928E-02 0. -1.
        1   -1    0    0  501    0  0.00000000000E+00  0.00000000000E+00 -0.14214421447E+04  0.14214421447E+04  0.50400001928E-02 0.  1.
    10030    2    1    2    0    0  0.00000000000E+00  0.00000000000E+00 -0.40812547989E+03  0.24347588096E+04  0.24003091579E+04 0.  0.
        4    1    3    3  502    0 -0.95746975174E+03  0.53149635969E+03  0.29403757171E+03  0.11338855376E+04  0.12699999809E+01 0. -1.
       -4    1    3    3    0  502  0.95746975174E+03 -0.53149635969E+03 -0.70216305160E+03  0.13008732720E+04  0.12699999809E+01 0.  1.
</event>
<event>
 5   0  0.1796750E-06  0.2400318E+04  0.7818609E-02  0.8439385E-01
        3   -1    0    0  501    0  0.00000000000E+00  0.00000000000E+00  0.89011731009E+03  0.89011731582E+03  0.10100000352E+00 0.  1.
       -3   -1    0    0    0  501  0.00000000000E+00  0.00000000000E+00 -0.16181928769E+04  0.16181928800E+04  0.10100000352E+00 0. -1.
    10030    2    1    2    0    0  0.00000000000E+00  0.00000000000E+00 -0.72807556678E+03  0.25083101958E+04  0.24003178972E+04 0.  0.
        2    1    3    3  502    0 -0.10119747352E+04  0.52548146899E+03 -0.75525793201E+03  0.13677127559E+04  0.25500000920E-02 0. -1.
       -2    1    3    3    0  502  0.10119747352E+04 -0.52548146899E+03  0.27182365237E+02  0.11405974399E+04  0.25500000920E-02 0.  1.
</event>
<event>
 5   0  0.5440503E-06  0.2401820E+04  0.7818609E-02  0.8438822E-01
       -2   -1    0    0    0  501  0.00000000000E+00  0.00000000000E+00  0.69775623471E+03  0.69775623472E+03  0.25500000920E-02 0.  1.
        2   -1    0    0  501    0  0.00000000000E+00  0.00000000000E+00 -0.20668896273E+04  0.20668896273E+04  0.25500000920E-02 0. -1.
    10030    2    1    2    0    0  0.00000000000E+00  0.00000000000E+00 -0.13691333926E+04  0.27646458620E+04  0.24018202463E+04 0.  0.
        3    1    3    3  502    0 -0.25252505922E+03  0.78650746200E+03  0.31878918741E+03  0.88543178705E+03  0.10100000352E+00 0.  1.
       -3    1    3    3    0  502  0.25252505922E+03 -0.78650746200E+03 -0.16879225800E+04  0.18792140750E+04  0.10100000352E+00 0. -1.
</event>
<event>
 5   0  0.5440503E-06  0.2400478E+04  0.7818609E-02  0.8439325E-01
       -2   -1    0    0    0  501  0.00000000000E+00  0.00000000000E+00  0.88137183082E+03  0.88137183083E+03  0.25500000920E-02 0. -1.
        2   -1    0    0  501    0  0.00000000000E+00  0.00000000000E+00 -0.16344675421E+04  0.16344675421E+04  0.25500000920E-02 0.  1.
    10030    2    1    2    0    0  0.00000000000E+00  0.00000000000E+00 -0.75309571131E+03  0.25158393730E+04  0.24004779941E+04 0.  0.
        3    1    3    3  502    0 -0.77403749940E+03  0.46184888359E+03 -0.12071857606E+04  0.15065642743E+04  0.10100000352E+00 0.  1.
       -3    1    3    3    0  502  0.77403749940E+03 -0.46184888359E+03  0.45409004929E+03  0.10092750987E+04  0.10100000352E+00 0. -1.
</event>
<event>
 5   0  0.2215700E-06  0.2403192E+04  0.7818609E-02  0.8438310E-01
       -1   -1    0    0    0  501  0.00000000000E+00  0.00000000000E+00  0.88065864680E+03  0.88065864682E+03  0.50400001928E-02 0.  1.
        1   -1    0    0  501    0  0.00000000000E+00  0.00000000000E+00 -0.16394921042E+04  0.16394921043E+04  0.50400001928E-02 0. -1.
    10030    2    1    2    0    0  0.00000000000E+00  0.00000000000E+00 -0.75883345744E+03  0.25201507511E+04  0.24031919590E+04 0.  0.
        3    1    3    3  502    0 -0.11318777567E+03 -0.14335500411E+03 -0.16248489617E+04  0.16350829607E+04  0.10100000352E+00 0. -1.
       -3    1    3    3    0  502  0.11318777567E+03  0.14335500411E+03  0.86601550426E+03  0.88506779039E+03  0.10100000352E+00 0.  1.
</event>
<event>
 5   0  0.2149029E-06  0.2400193E+04  0.7818609E-02  0.8439431E-01
        1   -1    0    0  501    0  0.00000000000E+00  0.00000000000E+00  0.15031331906E+04  0.15031331906E+04  0.50400001928E-02 0. -1.
       -1   -1    0    0    0  501  0.00000000000E+00  0.00000000000E+00 -0.95815301492E+03  0.95815301494E+03  0.50400001928E-02 0.  1.
    10030    2    1    2    0    0  0.00000000000E+00  0.00000000000E+00  0.54498017568E+03  0.24612862056E+04  0.24001929909E+04 0.  0.
        4    1    3    3  502    0 -0.15441842827E+03 -0.71613048065E+03 -0.70225295387E+03  0.10148146335E+04  0.12699999809E+01 0.  1.
       -4    1    3    3    0  502  0.15441842827E+03  0.71613048065E+03  0.12472331296E+04  0.14464715720E+04  0.12699999809E+01 0. -1.
</event>
<event>
 5   0  0.2149417E-06  0.2398560E+04  0.7818609E-02  0.8440043E-01
       -1   -1    0    0    0  501  0.00000000000E+00  0.00000000000E+00  0.70201377054E+03  0.70201377056E+03  0.50400001928E-02 0.  1.
        1   -1    0    0  501    0  0.00000000000E+00  0.00000000000E+00 -0.20487814710E+04  0.20487814710E+04  0.50400001928E-02 0. -1.
    10030    2    1    2    0    0  0.00000000000E+00  0.00000000000E+00 -0.13467677005E+04  0.27507952416E+04  0.23985602394E+04 0.  0.
        5    1    3    3  502    0  0.99607267953E+02  0.11362795546E+04 -0.10981807484E+04  0.15833748388E+04  0.46999998093E+01 0. -1.
       -5    1    3    3    0  502 -0.99607267953E+02 -0.11362795546E+04 -0.24858695208E+03  0.11674204028E+04  0.46999998093E+01 0.  1.
</event>
<event>
 5   0  0.5371843E-06  0.2411288E+04  0.7818609E-02  0.8435290E-01
       -2   -1    0    0    0  501  0.00000000000E+00  0.00000000000E+00  0.59076173295E+03  0.59076173295E+03  0.25500000920E-02 0.  1.
        2   -1    0    0  501    0  0.00000000000E+00  0.00000000000E+00 -0.24605133534E+04  0.24605133534E+04  0.25500000920E-02 0. -1.
    10030    2    1    2    0    0  0.00000000000E+00  0.00000000000E+00 -0.18697516205E+04  0.30512750864E+04  0.24112877328E+04 0.  0.
        4    1    3    3  502    0 -0.53424908981E+03  0.40874815018E+02 -0.23015703948E+04  0.23631167418E+04  0.12699999809E+01 0. -1.
       -4    1    3    3    0  502  0.53424908981E+03 -0.40874815018E+02  0.43181877429E+03  0.68815834457E+03  0.12699999809E+01 0.  1.
</event>
<event>
 5   0  0.5371843E-06  0.2400717E+04  0.7818609E-02  0.8439235E-01
        2   -1    0    0  501    0  0.00000000000E+00  0.00000000000E+00  0.10193492095E+04  0.10193492095E+04  0.25500000920E-02 0. -1.
       -2   -1    0    0    0  501  0.00000000000E+00  0.00000000000E+00 -0.14135102603E+04  0.14135102603E+04  0.25500000920E-02 0.  1.
    10030    2    1    2    0    0  0.00000000000E+00  0.00000000000E+00 -0.39416105079E+03  0.24328594697E+04  0.24007170315E+04 0.  0.
        4    1    3    3  502    0 -0.29085927220E+03 -0.11039291791E+04  0.17883095553E+03  0.11555262317E+04  0.12699999809E+01 0. -1.
       -4    1    3    3    0  502  0.29085927220E+03  0.11039291791E+04 -0.57299200631E+03  0.12773332380E+04  0.12699999809E+01 0.  1.
</event>
<event>
 5   0  0.5440503E-06  0.2396730E+04  0.7818609E-02  0.8440729E-01
       -2   -1    0    0    0  501  0.00000000000E+00  0.00000000000E+00  0.13880827195E+04  0.13880827195E+04  0.25500000920E-02 0. -1.
        2   -1    0    0  501    0  0.00000000000E+00  0.00000000000E+00 -0.10345772389E+04  0.10345772389E+04  0.25500000920E-02 0.  1.
    10030    2    1    2    0    0  0.00000000000E+00  0.00000000000E+00  0.35350548064E+03  0.24226599584E+04  0.23967300952E+04 0.  0.
        3    1    3    3  502    0 -0.83669392898E+03 -0.85245227341E+03  0.27447946719E+03  0.12255898977E+04  0.10100000352E+00 0.  1.
       -3    1    3    3    0  502  0.83669392898E+03  0.85245227341E+03  0.79026013447E+02  0.11970700607E+04  0.10100000352E+00 0. -1.
</event>
<event>
 5   0  0.2297414E-06  0.2392787E+04  0.7818609E-02  0.8442209E-01
       -1   -1    0    0    0  501  0.00000000000E+00  0.00000000000E+00  0.78641790599E+03  0.78641790601E+03  0.50400001928E-02 0. -1.
        1   -1    0    0  501    0  0.00000000000E+00  0.00000000000E+00 -0.18200970212E+04  0.18200970212E+04  0.50400001928E-02 0.  1.
    10030    2    1    2    0    0  0.00000000000E+00  0.00000000000E+00 -0.10336791152E+04  0.26065149272E+04  0.23927865665E+04 0.  0.
        1    1    3    3  502    0 -0.59606848457E+03  0.51323497879E+03  0.46515207143E+03  0.91382396080E+03  0.50400001928E-02 0. -1.
       -1    1    3    3    0  502  0.59606848457E+03 -0.51323497879E+03 -0.14988311867E+04  0.16926909665E+04  0.50400001928E-02 0.  1.
</event>
<event>
 5   0  0.5371843E-06  0.2407182E+04  0.7818609E-02  0.8436820E-01
       -2   -1    0    0    0  501  0.00000000000E+00  0.00000000000E+00  0.84848447066E+03  0.84848447066E+03  0.25500000920E-02 0.  1.
        2   -1    0    0  501    0  0.00000000000E+00  0.00000000000E+00 -0.17073161440E+04  0.17073161440E+04  0.25500000920E-02 0. -1.
    10030    2    1    2    0    0  0.00000000000E+00  0.00000000000E+00 -0.85883167334E+03  0.25558006147E+04  0.24071819497E+04 0.  0.
        4    1    3    3  502    0 -0.20328204988E+03 -0.34530227966E+03 -0.16344189904E+04  0.16828203426E+04  0.12699999809E+01 0. -1.
       -4    1    3    3    0  502  0.20328204988E+03  0.34530227966E+03  0.77558731710E+03  0.87298027210E+03  0.12699999809E+01 0.  1.
</event>
<event>
 5   0  0.2149029E-06  0.2365113E+04  0.7818609E-02  0.8452681E-01
       -1   -1    0    0    0  501  0.00000000000E+00  0.00000000000E+00  0.75956242836E+03  0.75956242837E+03  0.50400001928E-02 0.  1.
        1   -1    0    0  501    0  0.00000000000E+00  0.00000000000E+00 -0.18411125420E+04  0.18411125420E+04  0.50400001928E-02 0. -1.
    10030    2    1    2    0    0  0.00000000000E+00  0.00000000000E+00 -0.10815501136E+04  0.26006749704E+04  0.23651130318E+04 0.  0.
        4    1    3    3  502    0  0.21425176675E+03 -0.17018218427E+02 -0.18194549812E+04  0.18321057504E+04  0.12699999809E+01 0. -1.
       -4    1    3    3    0  502 -0.21425176675E+03  0.17018218427E+02  0.73790486757E+03  0.76856921991E+03  0.12699999809E+01 0.  1.
</event>
<event>
 5   0  0.5349036E-06  0.2399790E+04  0.7818609E-02  0.8439582E-01
       -2   -1    0    0    0  501  0.00000000000E+00  0.00000000000E+00  0.11565061925E+04  0.11565061925E+04  0.25500000920E-02 0.  1.
        2   -1    0    0  501    0  0.00000000000E+00  0.00000000000E+00 -0.12449115890E+04  0.12449115890E+04  0.25500000920E-02 0. -1.
    10030    2    1    2    0    0  0.00000000000E+00  0.00000000000E+00 -0.88405396508E+02  0.24014177815E+04  0.23997899589E+04 0.  0.
        1    1    3    3  502    0 -0.70730366246E+03  0.80181005678E+03  0.50074922464E+03  0.11806471209E+04  0.50400001928E-02 0.  1.
       -1    1    3    3    0  502  0.70730366246E+03 -0.80181005678E+03 -0.58915462115E+03  0.12207706606E+04  0.50400001928E-02 0. -1.
</event>
<event>
 5   0  0.5379778E-06  0.2396897E+04  0.7818609E-02  0.8440666E-01
       -2   -1    0    0    0  501  0.00000000000E+00  0.00000000000E+00  0.10464989720E+04  0.10464989720E+04  0.25500000920E-02 0. -1.
        2   -1    0    0  501    0  0.00000000000E+00  0.00000000000E+00 -0.13724612111E+04  0.13724612111E+04  0.25500000920E-02 0.  1.
    10030    2    1    2    0    0  0.00000000000E+00  0.00000000000E+00 -0.32596223914E+03  0.24189601831E+04  0.23968973666E+04 0.  0.
        5    1    3    3  502    0  0.27266105224E+03  0.11185830185E+03 -0.13353108195E+04  0.13674550829E+04  0.46999998093E+01 0.  1.
       -5    1    3    3    0  502 -0.27266105224E+03 -0.11185830185E+03  0.10093485803E+04  0.10515051002E+04  0.46999998093E+01 0. -1.
</event>
<event>
 5   0  0.2297414E-06  0.2396102E+04  0.7818609E-02  0.8440964E-01
       -1   -1    0    0    0  501  0.00000000000E+00  0.00000000000E+00  0.19906447359E+04  0.19906447359E+04  0.50400001928E-02 0. -1.
        1   -1    0    0  501    0  0.00000000000E+00  0.00000000000E+00 -0.72103588980E+03  0.72103588982E+03  0.50400001928E-02 0.  1.
    10030    2    1    2    0    0  0.00000000000E+00  0.00000000000E+00  0.12696088461E+04  0.27116806257E+04  0.23961020833E+04 0.  0.
        1    1    3    3  502    0  0.60038933855E+03 -0.10292035751E+04  0.77614953282E+03  0.14220180921E+04  0.50400001928E-02 0. -1.
       -1    1    3    3    0  502 -0.60038933855E+03  0.10292035751E+04  0.49345931327E+03  0.12896625336E+04  0.50400001928E-02 0.  1.
</event>
<event>
 5   0  0.2297414E-06  0.2402954E+04  0.7818609E-02  0.8438398E-01
       -1   -1    0    0    0  501  0.00000000000E+00  0.00000000000E+00  0.13117372508E+04  0.13117372508E+04  0.50400001928E-02 0. -1.
        1   -1    0    0  501    0  0.00000000000E+00  0.00000000000E+00 -0.11004852100E+04  0.11004852100E+04  0.50400001928E-02 0.  1.
    10030    2    1    2    0    0  0.00000000000E+00  0.00000000000E+00  0.21125204084E+03  0.24122224608E+04  0.24029543849E+04 0.  0.
        1    1    3    3  502    0  0.11087816048E+04  0.28974086233E+03 -0.25659949521E+03  0.11743890818E+04  0.50400001928E-02 0.  1.
       -1    1    3    3    0  502 -0.11087816048E+04 -0.28974086233E+03  0.46785153605E+03  0.12378333790E+04  0.50400001928E-02 0. -1.
</event>
<event>
 5   0  0.2149029E-06  0.2345486E+04  0.7818609E-02  0.8460199E-01
        1   -1    0    0  501    0  0.00000000000E+00  0.00000000000E+00  0.10109606590E+04  0.10109606590E+04  0.50400001928E-02 0. -1.
       -1   -1    0    0    0  501  0.00000000000E+00  0.00000000000E+00 -0.13604153163E+04  0.13604153163E+04  0.50400001928E-02 0.  1.
    10030    2    1    2    0    0  0.00000000000E+00  0.00000000000E+00 -0.34945465733E+03  0.23713759753E+04  0.23454861881E+04 0.  0.
        4    1    3    3  502    0 -0.29641185835E+03 -0.42381147656E+03  0.88943465806E+03  0.10288691760E+04  0.12699999809E+01 0. -1.
       -4    1    3    3    0  502  0.29641185835E+03  0.42381147656E+03 -0.12388893154E+04  0.13425067993E+04  0.12699999809E+01 0.  1.
</event>
<event>
 5   0  0.5371843E-06  0.2404263E+04  0.7818609E-02  0.8437909E-01
       -2   -1    0    0    0  501  0.00000000000E+00  0.00000000000E+00  0.11908608504E+04  0.11908608504E+04  0.25500000920E-02 0. -1.
        2   -1    0    0  501    0  0.00000000000E+00  0.00000000000E+00 -0.12135087121E+04  0.12135087121E+04  0.25500000920E-02 0.  1.
    10030    2    1    2    0    0  0.00000000000E+00  0.00000000000E+00 -0.22647861678E+02  0.24043695625E+04  0.24042628948E+04 0.  0.
        4    1    3    3  502    0  0.47264757462E+03 -0.30290387946E+03  0.10517246010E+04  0.11921714387E+04  0.12699999809E+01 0. -1.
       -4    1    3    3    0  502 -0.47264757462E+03  0.30290387946E+03 -0.10743724627E+04  0.12121981238E+04  0.12699999809E+01 0.  1.
</event>
<event>
 5   0  0.2297414E-06  0.2403914E+04  0.7818609E-02  0.8438040E-01
        1   -1    0    0  501    0  0.00000000000E+00  0.00000000000E+00  0.17172486898E+04  0.17172486898E+04  0.50400001928E-02 0. -1.
       -1   -1    0    0    0  501  0.00000000000E+00  0.00000000000E+00 -0.84128826515E+03  0.84128826516E+03  0.50400001928E-02 0.  1.
    10030    2    1    2    0    0  0.00000000000E+00  0.00000000000E+00  0.87596042461E+03  0.25585369549E+04  0.24039144503E+04 0.  0.
        1    1    3    3  502    0 -0.55246691867E+01  0.11843393321E+04  0.21983073684E+03  0.12045811423E+04  0.50400001928E-02 0.  1.
       -1    1    3    3    0  502  0.55246691867E+01 -0.11843393321E+04  0.65612968776E+03  0.13539558127E+04  0.50400001928E-02 0. -1.
</event>
<event>
 5   0  0.5349036E-06  0.2400037E+04  0.7818609E-02  0.8439490E-01
        2   -1    0    0  501    0  0.00000000000E+00  0.00000000000E+00  0.18777442632E+04  0.18777442632E+04  0.25500000920E-02 0.  1.
       -2   -1    0    0    0  501  0.00000000000E+00  0.00000000000E+00 -0.76690112280E+03  0.76690112280E+03  0.25500000920E-02 0. -1.
    10030    2    1    2    0    0  0.00000000000E+00  0.00000000000E+00  0.11108431404E+04  0.26446453860E+04  0.24000368196E+04 0.  0.
        1    1    3    3  502    0  0.52366658843E+03  0.10724890685E+04  0.41785954236E+03  0.12645418518E+04  0.50400001928E-02 0.  1.
       -1    1    3    3    0  502 -0.52366658843E+03 -0.10724890685E+04  0.69298359807E+03  0.13801035342E+04  0.50400001928E-02 0. -1.
</event>
<event>
 5   0  0.1796750E-06  0.2398871E+04  0.7818609E-02  0.8439927E-01
       -3   -1    0    0    0  501  0.00000000000E+00  0.00000000000E+00  0.24584631359E+04  0.24584631380E+04  0.10100000352E+00 0. -1.
        3   -1    0    0  501    0  0.00000000000E+00  0.00000000000E+00 -0.58518063409E+03  0.58518064281E+03  0.10100000352E+00 0.  1.
    10030    2    1    2    0    0  0.00000000000E+00  0.00000000000E+00  0.18732825018E+04  0.30436437808E+04  0.23988705953E+04 0.  0.
        2    1    3    3  502    0 -0.31099960719E+02  0.25745667089E+02  0.24576007520E+04  0.24579323635E+04  0.25500000920E-02 0. -1.
       -2    1    3    3    0  502  0.31099960719E+02 -0.25745667089E+02 -0.58431825018E+03  0.58571141737E+03  0.25500000920E-02 0.  1.
</event>
<event>
 5   0  0.5440503E-06  0.2391536E+04  0.7818609E-02  0.8442679E-01
       -2   -1    0    0    0  501  0.00000000000E+00  0.00000000000E+00  0.78682223279E+03  0.78682223280E+03  0.25500000920E-02 0.  1.
        2   -1    0    0  501    0  0.00000000000E+00  0.00000000000E+00 -0.18172600350E+04  0.18172600350E+04  0.25500000920E-02 0. -1.
    10030    2    1    2    0    0  0.00000000000E+00  0.00000000000E+00 -0.10304378022E+04  0.26040822678E+04  0.23915355723E+04 0.  0.
        3    1    3    3  502    0 -0.23250963708E+03  0.97268722984E+03  0.19853768158E+03  0.10196069829E+04  0.10100000352E+00 0.  1.
       -3    1    3    3    0  502  0.23250963708E+03 -0.97268722984E+03 -0.12289754838E+04  0.15844752849E+04  0.10100000352E+00 0. -1.
</event>
<event>
 5   0  0.2297414E-06  0.2398915E+04  0.7818609E-02  0.8439910E-01
       -1   -1    0    0    0  501  0.00000000000E+00  0.00000000000E+00  0.93478082810E+03  0.93478082811E+03  0.50400001928E-02 0.  1.
        1   -1    0    0  501    0  0.00000000000E+00  0.00000000000E+00 -0.15390751461E+04  0.15390751461E+04  0.50400001928E-02 0. -1.
    10030    2    1    2    0    0  0.00000000000E+00  0.00000000000E+00 -0.60429431803E+03  0.24738559742E+04  0.23989147043E+04 0.  0.
        1    1    3    3  502    0 -0.67703617852E+03 -0.99265572299E+02 -0.13180445254E+04  0.14850835033E+04  0.50400001928E-02 0. -1.
       -1    1    3    3    0  502  0.67703617852E+03  0.99265572299E+02  0.71375020732E+03  0.98877247097E+03  0.50400001928E-02 0.  1.
</event>
<event>
 5   0  0.1796750E-06  0.2402216E+04  0.7818609E-02  0.8438674E-01
       -3   -1    0    0    0  501  0.00000000000E+00  0.00000000000E+00  0.10459065313E+04  0.10459065362E+04  0.10100000352E+00 0.  1.
        3   -1    0    0  501    0  0.00000000000E+00  0.00000000000E+00 -0.13793401808E+04  0.13793401845E+04  0.10100000352E+00 0. -1.
    10030    2    1    2    0    0  0.00000000000E+00  0.00000000000E+00 -0.33343364953E+03  0.24252467207E+04  0.24022164053E+04 0.  0.
        4    1    3    3  502    0  0.10896663086E+03  0.41643445674E+03  0.96535761535E+03  0.10569807575E+04  0.12699999809E+01 0.  1.
       -4    1    3    3    0  502 -0.10896663086E+03 -0.41643445674E+03 -0.12987912649E+04  0.13682659632E+04  0.12699999809E+01 0. -1.
</event>
<event>
 5   0  0.5379778E-06  0.2332577E+04  0.7818609E-02  0.8465186E-01
        2   -1    0    0  501    0  0.00000000000E+00  0.00000000000E+00  0.15594580122E+04  0.15594580122E+04  0.25500000920E-02 0. -1.
       -2   -1    0    0    0  501  0.00000000000E+00  0.00000000000E+00 -0.87224463468E+03  0.87224463468E+03  0.25500000920E-02 0.  1.
    10030    2    1    2    0    0  0.00000000000E+00  0.00000000000E+00  0.68721337750E+03  0.24317026469E+04  0.23325770162E+04 0.  0.
        5    1    3    3  502    0  0.72595046429E+03 -0.26972102228E+03  0.12527047810E+04  0.14727677565E+04  0.46999998093E+01 0. -1.
       -5    1    3    3    0  502 -0.72595046429E+03  0.26972102228E+03 -0.56549140347E+03  0.95893489031E+03  0.46999998093E+01 0.  1.
</event>
<event>
 5   0  0.2297414E-06  0.2398705E+04  0.7818609E-02  0.8439988E-01
        1   -1    0    0  501    0  0.00000000000E+00  0.00000000000E+00  0.21334106451E+04  0.21334106451E+04  0.50400001928E-02 0. -1.
       -1   -1    0    0    0  501  0.00000000000E+00  0.00000000000E+00 -0.67424740822E+03  0.67424740824E+03  0.50400001928E-02 0.  1.
    10030    2    1    2    0    0  0.00000000000E+00  0.00000000000E+00  0.14591632368E+04  0.28076580533E+04  0.23987051491E+04 0.  0.
        1    1    3    3  502    0  0.52361578686E+03  0.10378938279E+04  0.10749244985E+04  0.15833065930E+04  0.50400001928E-02 0. -1.
       -1    1    3    3    0  502 -0.52361578686E+03 -0.10378938279E+04  0.38423873838E+03  0.12243514603E+04  0.50400001928E-02 0.  1.
</event>
<event>
 5   0  0.2149417E-06  0.2404416E+04  0.7818609E-02  0.8437852E-01
        1   -1    0    0  501    0  0.00000000000E+00  0.00000000000E+00  0.11024959919E+04  0.11024959919E+04  0.50400001928E-02 0. -1.
       -1   -1    0    0    0  501  0.00000000000E+00  0.00000000000E+00 -0.13109379422E+04  0.13109379422E+04  0.50400001928E-02 0.  1.
    10030    2    1    2    0    0  0.00000000000E+00  0.00000000000E+00 -0.20844195034E+03  0.24134339341E+04  0.24044157934E+04 0.  0.
        5    1    3    3  502    0 -0.17187973443E+03  0.38617354894E+03 -0.12338793909E+04  0.13042825975E+04  0.46999998093E+01 0.  1.
       -5    1    3    3    0  502  0.17187973443E+03 -0.38617354894E+03  0.10254374405E+04  0.11091513366E+04  0.46999998093E+01 0. -1.
</event>
<event>
 5   0  0.2215700E-06  0.2399706E+04  0.7818609E-02  0.8439614E-01
        1   -1    0    0  501    0  0.00000000000E+00  0.00000000000E+00  0.18430532164E+04  0.18430532164E+04  0.50400001928E-02 0.  1.
       -1   -1    0    0    0  501  0.00000000000E+00  0.00000000000E+00 -0.78112059466E+03  0.78112059468E+03  0.50400001928E-02 0. -1.
    10030    2    1    2    0    0  0.00000000000E+00  0.00000000000E+00  0.10619326217E+04  0.26241738111E+04  0.23997056690E+04 0.  0.
        3    1    3    3  502    0  0.70425058931E+03  0.22709062776E+03  0.15638306428E+04  0.17300593444E+04  0.10100000352E+00 0.  1.
       -3    1    3    3    0  502 -0.70425058931E+03 -0.22709062776E+03 -0.50189802104E+03  0.89411446666E+03  0.10100000352E+00 0. -1.
</event>
<event>
 5   0  0.5371843E-06  0.2403039E+04  0.7818609E-02  0.8438367E-01
       -2   -1    0    0    0  501  0.00000000000E+00  0.00000000000E+00  0.67383070649E+03  0.67383070649E+03  0.25500000920E-02 0.  1.
        2   -1    0    0  501    0  0.00000000000E+00  0.00000000000E+00 -0.21424508560E+04  0.21424508560E+04  0.25500000920E-02 0. -1.
    10030    2    1    2    0    0  0.00000000000E+00  0.00000000000E+00 -0.14686201495E+04  0.28162815625E+04  0.24030390541E+04 0.  0.
        4    1    3    3  502    0 -0.10540687169E+03 -0.41487641868E+03  0.58143556650E+03  0.72201245299E+03  0.12699999809E+01 0.  1.
       -4    1    3    3    0  502  0.10540687169E+03  0.41487641868E+03 -0.20500557160E+04  0.20942691095E+04  0.12699999809E+01 0. -1.
</event>
<event>
 5   0  0.2254269E-06  0.2413692E+04  0.7818609E-02  0.8434395E-01
        1   -1    0    0  501    0  0.00000000000E+00  0.00000000000E+00  0.17098184419E+04  0.17098184419E+04  0.50400001928E-02 0. -1.
       -1   -1    0    0    0  501  0.00000000000E+00  0.00000000000E+00 -0.85183133119E+03  0.85183133121E+03  0.50400001928E-02 0.  1.
    10030    2    1    2    0    0  0.00000000000E+00  0.00000000000E+00  0.85798711069E+03  0.25616497731E+04  0.24136917114E+04 0.  0.
        2    1    3    3  502    0  0.80300854460E+03  0.76005685130E+03  0.94234640917E+03  0.14527649138E+04  0.25500000920E-02 0.  1.
       -2    1    3    3    0  502 -0.80300854460E+03 -0.76005685130E+03 -0.84359298480E+02  0.11088848593E+04  0.25500000920E-02 0. -1.
</event>
<event>
 5   0  0.5349036E-06  0.2394249E+04  0.7818609E-02  0.8441660E-01
       -2   -1    0    0    0  501  0.00000000000E+00  0.00000000000E+00  0.92049547683E+03  0.92049547683E+03  0.25500000920E-02 0.  1.
        2   -1    0    0  501    0  0.00000000000E+00  0.00000000000E+00 -0.15568870779E+04  0.15568870779E+04  0.25500000920E-02 0. -1.
    10030    2    1    2    0    0  0.00000000000E+00  0.00000000000E+00 -0.63639160107E+03  0.24773825547E+04  0.23942493714E+04 0.  0.
        1    1    3    3  502    0 -0.70169093135E+03 -0.55054299530E+03 -0.11444456396E+04  0.14509388598E+04  0.50400001928E-02 0. -1.
       -1    1    3    3    0  502  0.70169093135E+03  0.55054299530E+03  0.50805403853E+03  0.10264436950E+04  0.50400001928E-02 0.  1.
</event>
<event>
 5   0  0.5349036E-06  0.2398148E+04  0.7818609E-02  0.8440197E-01
        2   -1    0    0  501    0  0.00000000000E+00  0.00000000000E+00  0.13747275766E+04  0.13747275766E+04  0.25500000920E-02 0. -1.
       -2   -1    0    0    0  501  0.00000000000E+00  0.00000000000E+00 -0.10458646043E+04  0.10458646043E+04  0.25500000920E-02 0.  1.
    10030    2    1    2    0    0  0.00000000000E+00  0.00000000000E+00  0.32886297235E+03  0.24205921809E+04  0.23981483798E+04 0.  0.
        1    1    3    3  502    0 -0.83522158116E+03 -0.63943293877E+03  0.74541313560E+03  0.12892285738E+04  0.50400001928E-02 0. -1.
       -1    1    3    3    0  502  0.83522158116E+03  0.63943293877E+03 -0.41655016326E+03  0.11313636071E+04  0.50400001928E-02 0.  1.
</event>
<event>
 5   0  0.5371843E-06  0.2400661E+04  0.7818609E-02  0.8439256E-01
        2   -1    0    0  501    0  0.00000000000E+00  0.00000000000E+00  0.67814813518E+03  0.67814813518E+03  0.25500000920E-02 0.  1.
       -2   -1    0    0    0  501  0.00000000000E+00  0.00000000000E+00 -0.21246002495E+04  0.21246002495E+04  0.25500000920E-02 0. -1.
    10030    2    1    2    0    0  0.00000000000E+00  0.00000000000E+00 -0.14464521143E+04  0.28027483847E+04  0.24006613232E+04 0.  0.
        4    1    3    3  502    0 -0.37980783064E+03  0.64532740413E+03 -0.18184852721E+04  0.19666193695E+04  0.12699999809E+01 0. -1.
       -4    1    3    3    0  502  0.37980783064E+03 -0.64532740413E+03  0.37203315775E+03  0.83612901522E+03  0.12699999809E+01 0.  1.
</event>
<event>
 5   0  0.5268358E-06  0.2401845E+04  0.7818609E-02  0.8438813E-01
       -2   -1    0    0    0  501  0.00000000000E+00  0.00000000000E+00  0.97951742808E+03  0.97951742808E+03  0.25500000920E-02 0. -1.
        2   -1    0    0  501    0  0.00000000000E+00  0.00000000000E+00 -0.14723730610E+04  0.14723730610E+04  0.25500000920E-02 0.  1.
    10030    2    1    2    0    0  0.00000000000E+00  0.00000000000E+00 -0.49285563291E+03  0.24518904891E+04  0.24018451856E+04 0.  0.
        2    1    3    3  502    0  0.56598114461E+03  0.28333498078E+03 -0.12882819029E+04  0.14353688128E+04  0.25500000920E-02 0.  1.
       -2    1    3    3    0  502 -0.56598114461E+03 -0.28333498078E+03  0.79542626998E+03  0.10165216763E+04  0.25500000920E-02 0. -1.
</event>
<event>
 5   0  0.5440503E-06  0.2456685E+04  0.7818609E-02  0.8418581E-01
        2   -1    0    0  501    0  0.00000000000E+00  0.00000000000E+00  0.12360412528E+04  0.12360412528E+04  0.25500000920E-02 0. -1.
       -2   -1    0    0    0  501  0.00000000000E+00  0.00000000000E+00 -0.12206919089E+04  0.12206919089E+04  0.25500000920E-02 0.  1.
    10030    2    1    2    0    0  0.00000000000E+00  0.00000000000E+00  0.15349343925E+02  0.24567331617E+04  0.24566852109E+04 0.  0.
        3    1    3    3  502    0  0.64423647776E+03  0.80986551077E+03  0.66942980487E+03  0.12325011394E+04  0.10100000352E+00 0.  1.
       -3    1    3    3    0  502 -0.64423647776E+03 -0.80986551077E+03 -0.65408046095E+03  0.12242320223E+04  0.10100000352E+00 0. -1.
</event>
<event>
 5   0  0.2215700E-06  0.2397750E+04  0.7818609E-02  0.8440346E-01
       -1   -1    0    0    0  501  0.00000000000E+00  0.00000000000E+00  0.98768677871E+03  0.98768677873E+03  0.50400001928E-02 0. -1.
        1   -1    0    0  501    0  0.00000000000E+00  0.00000000000E+00 -0.14552194460E+04  0.14552194461E+04  0.50400001928E-02 0.  1.
    10030    2    1    2    0    0  0.00000000000E+00  0.00000000000E+00 -0.46753266733E+03  0.24429062248E+04  0.23977497843E+04 0.  0.
        3    1    3    3  502    0 -0.15991602862E+02 -0.87572113105E+03 -0.10678151357E+04  0.13810765384E+04  0.10100000352E+00 0.  1.
       -3    1    3    3    0  502  0.15991602862E+02  0.87572113105E+03  0.60028246840E+03  0.10618296863E+04  0.10100000352E+00 0. -1.
</event>
<event>
 5   0  0.2149029E-06  0.2397397E+04  0.7818609E-02  0.8440479E-01
       -1   -1    0    0    0  501  0.00000000000E+00  0.00000000000E+00  0.96714757280E+03  0.96714757282E+03  0.50400001928E-02 0.  1.
        1   -1    0    0  501    0  0.00000000000E+00  0.00000000000E+00 -0.14856862829E+04  0.14856862829E+04  0.50400001928E-02 0. -1.
    10030    2    1    2    0    0  0.00000000000E+00  0.00000000000E+00 -0.51853871011E+03  0.24528338557E+04  0.23973968236E+04 0.  0.
        4    1    3    3  502    0  0.28487954558E+03 -0.84123319096E+03  0.56435908696E+03  0.10522986406E+04  0.12699999809E+01 0.  1.
       -4    1    3    3    0  502 -0.28487954558E+03  0.84123319096E+03 -0.10828977971E+04  0.14005352151E+04  0.12699999809E+01 0. -1.
</event>
<event>
 5   0  0.5440503E-06  0.2398686E+04  0.7818609E-02  0.8439996E-01
        2   -1    0    0  501    0  0.00000000000E+00  0.00000000000E+00  0.11002605013E+04  0.11002605013E+04  0.25500000920E-02 0. -1.
       -2   -1    0    0    0  501  0.00000000000E+00  0.00000000000E+00 -0.13073484299E+04  0.13073484299E+04  0.25500000920E-02 0.  1.
    10030    2    1    2    0    0  0.00000000000E+00  0.00000000000E+00 -0.20708792856E+03  0.24076089312E+04  0.23986861728E+04 0.  0.
        3    1    3    3  502    0  0.31779494637E+03 -0.63942939792E+03  0.86365886278E+03  0.11206115403E+04  0.10100000352E+00 0. -1.
       -3    1    3    3    0  502 -0.31779494637E+03  0.63942939792E+03 -0.10707467913E+04  0.12869973909E+04  0.10100000352E+00 0.  1.
</event>
<event>
 5   0  0.5268358E-06  0.2396066E+04  0.7818609E-02  0.8440978E-01
        2   -1    0    0  501    0  0.00000000000E+00  0.00000000000E+00  0.46532913454E+03  0.46532913455E+03  0.25500000920E-02 0.  1.
       -2   -1    0    0    0  501  0.00000000000E+00  0.00000000000E+00 -0.30844481530E+04  0.30844481530E+04  0.25500000920E-02 0. -1.
    10030    2    1    2    0    0  0.00000000000E+00  0.00000000000E+00 -0.26191190185E+04  0.35497772876E+04  0.23960664345E+04 0.  0.
        2    1    3    3  502    0 -0.33346464377E+03 -0.10591188886E+03  0.38795195152E+03  0.52242005469E+03  0.25500000920E-02 0.  1.
       -2    1    3    3    0  502  0.33346464377E+03  0.10591188886E+03 -0.30070709700E+04  0.30273572329E+04  0.25500000920E-02 0. -1.
</event>
<event>
 5   0  0.2297414E-06  0.2399203E+04  0.7818609E-02  0.8439802E-01
        1   -1    0    0  501    0  0.00000000000E+00  0.00000000000E+00  0.83589634488E+03  0.83589634489E+03  0.50400001928E-02 0. -1.
       -1   -1    0    0    0  501  0.00000000000E+00  0.00000000000E+00 -0.17215580376E+04  0.17215580376E+04  0.50400001928E-02 0.  1.
    10030    2    1    2    0    0  0.00000000000E+00  0.00000000000E+00 -0.88566169277E+03  0.25574543825E+04  0.23992032604E+04 0.  0.
        1    1    3    3  502    0  0.63182303536E+03 -0.92830584208E+03  0.70143034357E+01  0.11229431352E+04  0.50400001928E-02 0.  1.
       -1    1    3    3    0  502 -0.63182303536E+03  0.92830584208E+03 -0.89267599620E+03  0.14345112473E+04  0.50400001928E-02 0. -1.
</event>
<event>
 5   0  0.5349036E-06  0.2398693E+04  0.7818609E-02  0.8439993E-01
       -2   -1    0    0    0  501  0.00000000000E+00  0.00000000000E+00  0.12104801522E+04  0.12104801522E+04  0.25500000920E-02 0.  1.
        2   -1    0    0  501    0  0.00000000000E+00  0.00000000000E+00 -0.11883155258E+04  0.11883155258E+04  0.25500000920E-02 0. -1.
    10030    2    1    2    0    0  0.00000000000E+00  0.00000000000E+00  0.22164626407E+02  0.23987956781E+04  0.23986932764E+04 0.  0.
        1    1    3    3  502    0 -0.11443012242E+03 -0.11726529178E+03  0.11992352842E+04  0.12103762508E+04  0.50400001928E-02 0.  1.
       -1    1    3    3    0  502  0.11443012242E+03  0.11726529178E+03 -0.11770706578E+04  0.11884194273E+04  0.50400001928E-02 0. -1.
</event>
<event>
 5   0  0.2254269E-06  0.2396957E+04  0.7818609E-02  0.8440644E-01
       -1   -1    0    0    0  501  0.00000000000E+00  0.00000000000E+00  0.88526999288E+03  0.88526999289E+03  0.50400001928E-02 0. -1.
        1   -1    0    0  501    0  0.00000000000E+00  0.00000000000E+00 -0.16224996129E+04  0.16224996130E+04  0.50400001928E-02 0.  1.
    10030    2    1    2    0    0  0.00000000000E+00  0.00000000000E+00 -0.73722962007E+03  0.25077696058E+04  0.23969565877E+04 0.  0.
        2    1    3    3  502    0 -0.18784968711E+03 -0.11406761227E+04 -0.69933080324E+03  0.13511080987E+04  0.25500000920E-02 0.  1.
       -2    1    3    3    0  502  0.18784968711E+03  0.11406761227E+04 -0.37898816828E+02  0.11566615072E+04  0.25500000920E-02 0. -1.
</event>
<event>
 5   0  0.5379778E-06  0.2396655E+04  0.7818609E-02  0.8440757E-01
        2   -1    0    0  501    0  0.00000000000E+00  0.00000000000E+00  0.20092794042E+04  0.20092794042E+04  0.25500000920E-02 0.  1.
       -2   -1    0    0    0  501  0.00000000000E+00  0.00000000000E+00 -0.71467853280E+03  0.71467853280E+03  0.25500000920E-02 0. -1.
    10030    2    1    2    0    0  0.00000000000E+00  0.00000000000E+00  0.12946008714E+04  0.27239579370E+04  0.23966550495E+04 0.  0.
        5    1    3    3  502    0  0.17302578850E+03 -0.74318397515E+03 -0.40284425421E+03  0.86288233702E+03  0.46999998093E+01 0. -1.
       -5    1    3    3    0  502 -0.17302578850E+03  0.74318397515E+03  0.16974451256E+04  0.18610756000E+04  0.46999998093E+01 0.  1.
</event>
<event>
 5   0  0.2254269E-06  0.2405655E+04  0.7818609E-02  0.8437390E-01
        1   -1    0    0  501    0  0.00000000000E+00  0.00000000000E+00  0.22188601489E+04  0.22188601490E+04  0.50400001928E-02 0. -1.
       -1   -1    0    0    0  501  0.00000000000E+00  0.00000000000E+00 -0.65204357769E+03  0.65204357771E+03  0.50400001928E-02 0.  1.
    10030    2    1    2    0    0  0.00000000000E+00  0.00000000000E+00  0.15668165713E+04  0.28709037267E+04  0.24056545969E+04 0.  0.
        2    1    3    3  502    0 -0.10364415469E+04 -0.52299638140E+03  0.11590107335E+04  0.16404396287E+04  0.25500000920E-02 0. -1.
       -2    1    3    3    0  502  0.10364415469E+04  0.52299638140E+03  0.40780583780E+03  0.12304640980E+04  0.25500000920E-02 0.  1.
</event>
<event>
 5   0  0.2215700E-06  0.2407223E+04  0.7818609E-02  0.8436804E-01
       -1   -1    0    0    0  501  0.00000000000E+00  0.00000000000E+00  0.47933441820E+03  0.47933441822E+03  0.50400001928E-02 0.  1.
        1   -1    0    0  501    0  0.00000000000E+00  0.00000000000E+00 -0.30222749023E+04  0.30222749023E+04  0.50400001928E-02 0. -1.
    10030    2    1    2    0    0  0.00000000000E+00  0.00000000000E+00 -0.25429404841E+04  0.35016093205E+04  0.24072227832E+04 0.  0.
        3    1    3    3  502    0 -0.36225914220E+03  0.72584127089E+03  0.21923247581E+02  0.81151578889E+03  0.10100000352E+00 0.  1.
       -3    1    3    3    0  502  0.36225914220E+03 -0.72584127089E+03 -0.25648637317E+04  0.26900935317E+04  0.10100000352E+00 0. -1.
</event>
<event>
 5   0  0.2149417E-06  0.2400169E+04  0.7818609E-02  0.8439440E-01
        1   -1    0    0  501    0  0.00000000000E+00  0.00000000000E+00  0.16308897129E+04  0.16308897129E+04  0.50400001928E-02 0.  1.
       -1   -1    0    0    0  501  0.00000000000E+00  0.00000000000E+00 -0.88307832539E+03  0.88307832540E+03  0.50400001928E-02 0. -1.
    10030    2    1    2    0    0  0.00000000000E+00  0.00000000000E+00  0.74781138752E+03  0.25139680383E+04  0.24001694578E+04 0.  0.
        5    1    3    3  502    0 -0.69308464449E+03  0.83819343198E+01 -0.65220852305E+03  0.95175344958E+03  0.46999998093E+01 0. -1.
       -5    1    3    3    0  502  0.69308464449E+03 -0.83819343198E+01  0.14000199106E+04  0.15622145887E+04  0.46999998093E+01 0.  1.
</event>
<event>
 5   0  0.5349036E-06  0.2373711E+04  0.7818609E-02  0.8449412E-01
       -2   -1    0    0    0  501  0.00000000000E+00  0.00000000000E+00  0.15483806886E+04  0.15483806886E+04  0.25500000920E-02 0.  1.
        2   -1    0    0  501    0  0.00000000000E+00  0.00000000000E+00 -0.90974170022E+03  0.90974170022E+03  0.25500000920E-02 0. -1.
    10030    2    1    2    0    0  0.00000000000E+00  0.00000000000E+00  0.63863898837E+03  0.24581223888E+04  0.23737114233E+04 0.  0.
        1    1    3    3  502    0  0.89102232116E+03  0.67935217047E+03  0.72462788158E+03  0.13343634119E+04  0.50400001928E-02 0.  1.
       -1    1    3    3    0  502 -0.89102232116E+03 -0.67935217047E+03 -0.85988893212E+02  0.11237589769E+04  0.50400001928E-02 0. -1.
</event>
<event>
 5   0  0.2215700E-06  0.2401162E+04  0.7818609E-02  0.8439069E-01
       -1   -1    0    0    0  501  0.00000000000E+00  0.00000000000E+00  0.11267799057E+04  0.11267799058E+04  0.50400001928E-02 0.  1.
        1   -1    0    0  501    0  0.00000000000E+00  0.00000000000E+00 -0.12792160069E+04  0.12792160069E+04  0.50400001928E-02 0. -1.
    10030    2    1    2    0    0  0.00000000000E+00  0.00000000000E+00 -0.15243610113E+03  0.24059959126E+04  0.24011621284E+04 0.  0.
        3    1    3    3  502    0 -0.85923333930E+03 -0.62140486987E+03  0.48791527051E+03  0.11672562979E+04  0.10100000352E+00 0.  1.
       -3    1    3    3    0  502  0.85923333930E+03  0.62140486987E+03 -0.64035137164E+03  0.12387396147E+04  0.10100000352E+00 0. -1.
</event>
<event>
 5   0  0.5268358E-06  0.2384187E+04  0.7818609E-02  0.8445448E-01
       -2   -1    0    0    0  501  0.00000000000E+00  0.00000000000E+00  0.79057149550E+03  0.79057149551E+03  0.25500000920E-02 0. -1.
        2   -1    0    0  501    0  0.00000000000E+00  0.00000000000E+00 -0.17975436815E+04  0.17975436815E+04  0.25500000920E-02 0.  1.
    10030    2    1    2    0    0  0.00000000000E+00  0.00000000000E+00 -0.10069721860E+04  0.25881151770E+04  0.23841869025E+04 0.  0.
        2    1    3    3  502    0 -0.40746470066E+03  0.39017917284E+03  0.63648942712E+03  0.85052105208E+03  0.25500000920E-02 0. -1.
       -2    1    3    3    0  502  0.40746470066E+03 -0.39017917284E+03 -0.16434616131E+04  0.17375941250E+04  0.25500000920E-02 0.  1.
</event>
<event>
 5   0  0.2149029E-06  0.2397014E+04  0.7818609E-02  0.8440622E-01
       -1   -1    0    0    0  501  0.00000000000E+00  0.00000000000E+00  0.95615480736E+03  0.95615480737E+03  0.50400001928E-02 0.  1.
        1   -1    0    0  501    0  0.00000000000E+00  0.00000000000E+00 -0.15022873802E+04  0.15022873802E+04  0.50400001928E-02 0. -1.
    10030    2    1    2    0    0  0.00000000000E+00  0.00000000000E+00 -0.54613257282E+03  0.24584421876E+04  0.23970142266E+04 0.  0.
        4    1    3    3  502    0 -0.64436666835E+03  0.75110193167E+02 -0.13066456686E+04  0.14588263983E+04  0.12699999809E+01 0. -1.
       -4    1    3    3    0  502  0.64436666835E+03 -0.75110193167E+02  0.76051309574E+03  0.99961578924E+03  0.12699999809E+01 0.  1.
</event>
<event>
 5   0  0.2149417E-06  0.2401599E+04  0.7818609E-02  0.8438905E-01
       -1   -1    0    0    0  501  0.00000000000E+00  0.00000000000E+00  0.80921660731E+03  0.80921660732E+03  0.50400001928E-02 0. -1.
        1   -1    0    0  501    0  0.00000000000E+00  0.00000000000E+00 -0.17818703218E+04  0.17818703218E+04  0.50400001928E-02 0.  1.
    10030    2    1    2    0    0  0.00000000000E+00  0.00000000000E+00 -0.97265371447E+03  0.25910869291E+04  0.24015986813E+04 0.  0.
        5    1    3    3  502    0  0.64314574221E+03 -0.36547956167E+03 -0.15068354745E+04  0.16786265198E+04  0.46999998093E+01 0.  1.
       -5    1    3    3    0  502 -0.64314574221E+03  0.36547956167E+03  0.53418176007E+03  0.91246040928E+03  0.46999998093E+01 0. -1.
</event>
<event>
 5   0  0.5379778E-06  0.2401444E+04  0.7818609E-02  0.8438963E-01
        2   -1    0    0  501    0  0.00000000000E+00  0.00000000000E+00  0.10865803603E+04  0.10865803603E+04  0.25500000920E-02 0. -1.
       -2   -1    0    0    0  501  0.00000000000E+00  0.00000000000E+00 -0.13268541783E+04  0.13268541783E+04  0.25500000920E-02 0.  1.
    10030    2    1    2    0    0  0.00000000000E+00  0.00000000000E+00 -0.24027381801E+03  0.24134345387E+04  0.24014443081E+04 0.  0.
        5    1    3    3  502    0 -0.15470781005E+03 -0.10053128816E+04  0.52111087777E+03  0.11428766921E+04  0.46999998093E+01 0.  1.
       -5    1    3    3    0  502  0.15470781005E+03  0.10053128816E+04 -0.76138469579E+03  0.12705578466E+04  0.46999998093E+01 0. -1.
</event>
<event>
 5   0  0.2149417E-06  0.2387482E+04  0.7818609E-02  0.8444205E-01
        1   -1    0    0  501    0  0.00000000000E+00  0.00000000000E+00  0.11306421731E+04  0.11306421732E+04  0.50400001928E-02 0. -1.
       -1   -1    0    0    0  501  0.00000000000E+00  0.00000000000E+00 -0.12603616008E+04  0.12603616009E+04  0.50400001928E-02 0.  1.
    10030    2    1    2    0    0  0.00000000000E+00  0.00000000000E+00 -0.12971942771E+03  0.23910037740E+04  0.23874823387E+04 0.  0.
        5    1    3    3  502    0 -0.73521730326E+03 -0.83662224878E+03 -0.49504493339E+03  0.12188407797E+04  0.46999998093E+01 0.  1.
       -5    1    3    3    0  502  0.73521730326E+03  0.83662224878E+03  0.36532550568E+03  0.11721629943E+04  0.46999998093E+01 0. -1.
</event>
<event>
 5   0  0.2254269E-06  0.2398634E+04  0.7818609E-02  0.8440015E-01
        1   -1    0    0  501    0  0.00000000000E+00  0.00000000000E+00  0.13002384147E+04  0.13002384147E+04  0.50400001928E-02 0.  1.
       -1   -1    0    0    0  501  0.00000000000E+00  0.00000000000E+00 -0.11062286885E+04  0.11062286885E+04  0.50400001928E-02 0. -1.
    10030    2    1    2    0    0  0.00000000000E+00  0.00000000000E+00  0.19400972621E+03  0.24064671032E+04  0.23986338080E+04 0.  0.
        2    1    3    3  502    0 -0.50471914902E+03  0.87788299887E+03  0.74170833823E+03  0.12552096391E+04  0.25500000920E-02 0.  1.
       -2    1    3    3    0  502  0.50471914902E+03 -0.87788299887E+03 -0.54769861202E+03  0.11512574641E+04  0.25500000920E-02 0. -1.
</event>
<event>
 5   0  0.5349036E-06  0.2412954E+04  0.7818609E-02  0.8434670E-01
        2   -1    0    0  501    0  0.00000000000E+00  0.00000000000E+00  0.14288642672E+04  0.14288642672E+04  0.25500000920E-02 0. -1.
       -2   -1    0    0    0  501  0.00000000000E+00  0.00000000000E+00 -0.10187021304E+04  0.10187021304E+04  0.25500000920E-02 0.  1.
    10030    2    1    2    0    0  0.00000000000E+00  0.00000000000E+00  0.41016213687E+03  0.24475663976E+04  0.24129542665E+04 0.  0.
        1    1    3    3  502    0 -0.50679779967E+03  0.25563058520E+03 -0.87480078233E+03  0.10428170571E+04  0.50400001928E-02 0.  1.
       -1    1    3    3    0  502  0.50679779967E+03 -0.25563058520E+03  0.12849629192E+04  0.14047493405E+04  0.50400001928E-02 0. -1.
</event>
<event>
 5   0  0.2297414E-06  0.2402852E+04  0.7818609E-02  0.8438437E-01
        1   -1    0    0  501    0  0.00000000000E+00  0.00000000000E+00  0.14400544985E+04  0.14400544985E+04  0.50400001928E-02 0.  1.
       -1   -1    0    0    0  501  0.00000000000E+00  0.00000000000E+00 -0.10023401163E+04  0.10023401163E+04  0.50400001928E-02 0. -1.
    10030    2    1    2    0    0  0.00000000000E+00  0.00000000000E+00  0.43771438217E+03  0.24423946148E+04  0.24028519667E+04 0.  0.
        1    1    3    3  502    0  0.26142616750E+03 -0.64913622499E+03  0.12115054212E+04  0.13990950165E+04  0.50400001928E-02 0.  1.
       -1    1    3    3    0  502 -0.26142616750E+03  0.64913622499E+03 -0.77379103902E+03  0.10432995983E+04  0.50400001928E-02 0. -1.
</event>
<event>
 5   0  0.5349036E-06  0.2410430E+04  0.7818609E-02  0.8435609E-01
       -2   -1    0    0    0  501  0.00000000000E+00  0.00000000000E+00  0.12207315619E+04  0.12207315619E+04  0.25500000920E-02 0. -1.
        2   -1    0    0  501    0  0.00000000000E+00  0.00000000000E+00 -0.11898958308E+04  0.11898958308E+04  0.25500000920E-02 0.  1.
    10030    2    1    2    0    0  0.00000000000E+00  0.00000000000E+00  0.30835731111E+02  0.24106273928E+04  0.24104301659E+04 0.  0.
        1    1    3    3  502    0  0.69716244597E+03  0.73196160852E+03 -0.64094378387E+03  0.11969177944E+04  0.50400001928E-02 0.  1.
       -1    1    3    3    0  502 -0.69716244597E+03 -0.73196160852E+03  0.67177951499E+03  0.12137095984E+04  0.50400001928E-02 0. -1.
</event>
<event>
 5   0  0.5349036E-06  0.2400735E+04  0.7818609E-02  0.8439228E-01
       -2   -1    0    0    0  501  0.00000000000E+00  0.00000000000E+00  0.14342346966E+04  0.14342346966E+04  0.25500000920E-02 0. -1.
        2   -1    0    0  501    0  0.00000000000E+00  0.00000000000E+00 -0.10046351610E+04  0.10046351610E+04  0.25500000920E-02 0.  1.
    10030    2    1    2    0    0  0.00000000000E+00  0.00000000000E+00  0.42959953554E+03  0.24388698576E+04  0.24007353918E+04 0.  0.
        1    1    3    3  502    0  0.94663917193E+03  0.42633236371E+02 -0.53374877099E+03  0.10875803719E+04  0.50400001928E-02 0.  1.
       -1    1    3    3    0  502 -0.94663917193E+03 -0.42633236371E+02  0.96334830654E+03  0.13512894858E+04  0.50400001928E-02 0. -1.
</event>
<event>
 5   0  0.2149029E-06  0.2395659E+04  0.7818609E-02  0.8441131E-01
        1   -1    0    0  501    0  0.00000000000E+00  0.00000000000E+00  0.15758208400E+04  0.15758208400E+04  0.50400001928E-02 0. -1.
       -1   -1    0    0    0  501  0.00000000000E+00  0.00000000000E+00 -0.91050681034E+03  0.91050681035E+03  0.50400001928E-02 0.  1.
    10030    2    1    2    0    0  0.00000000000E+00  0.00000000000E+00  0.66531402962E+03  0.24863276503E+04  0.23956590798E+04 0.  0.
        4    1    3    3  502    0 -0.63501353140E+03 -0.75633512467E+03  0.10361833357E+04  0.14314197581E+04  0.12699999809E+01 0. -1.
       -4    1    3    3    0  502  0.63501353140E+03  0.75633512467E+03 -0.37086930611E+03  0.10549078922E+04  0.12699999809E+01 0.  1.
</event>
<event>
 5   0  0.2149417E-06  0.2395424E+04  0.7818609E-02  0.8441219E-01
        1   -1    0    0  501    0  0.00000000000E+00  0.00000000000E+00  0.13938535803E+04  0.13938535803E+04  0.50400001928E-02 0.  1.
       -1   -1    0    0    0  501  0.00000000000E+00  0.00000000000E+00 -0.10291714122E+04  0.10291714122E+04  0.50400001928E-02 0. -1.
    10030    2    1    2    0    0  0.00000000000E+00  0.00000000000E+00  0.36468216809E+03  0.24230249925E+04  0.23954241859E+04 0.  0.
        5    1    3    3  502    0 -0.63945514134E+03  0.70181548390E+03  0.92085234526E+03  0.13226635940E+04  0.46999998093E+01 0.  1.
       -5    1    3    3    0  502  0.63945514134E+03 -0.70181548390E+03 -0.55617017716E+03  0.11003613984E+04  0.46999998093E+01 0. -1.
</event>
<event>
 5   0  0.5371843E-06  0.2400362E+04  0.7818609E-02  0.8439368E-01
        2   -1    0    0  501    0  0.00000000000E+00  0.00000000000E+00  0.14473093807E+04  0.14473093807E+04  0.25500000920E-02 0. -1.
       -2   -1    0    0    0  501  0.00000000000E+00  0.00000000000E+00 -0.99524962931E+03  0.99524962931E+03  0.25500000920E-02 0.  1.
    10030    2    1    2    0    0  0.00000000000E+00  0.00000000000E+00  0.45205975142E+03  0.24425590100E+04  0.24003617433E+04 0.  0.
        4    1    3    3  502    0  0.23593877685E+03  0.10424313766E+04 -0.32955572452E+03  0.11184537852E+04  0.12699999809E+01 0.  1.
       -4    1    3    3    0  502 -0.23593877685E+03 -0.10424313766E+04  0.78161547593E+03  0.13241052248E+04  0.12699999809E+01 0. -1.
</event>
<event>
 5   0  0.2149029E-06  0.2399868E+04  0.7818609E-02  0.8439553E-01
        1   -1    0    0  501    0  0.00000000000E+00  0.00000000000E+00  0.94353012671E+03  0.94353012672E+03  0.50400001928E-02 0.  1.
       -1   -1    0    0    0  501  0.00000000000E+00  0.00000000000E+00 -0.15260155617E+04  0.15260155617E+04  0.50400001928E-02 0. -1.
    10030    2    1    2    0    0  0.00000000000E+00  0.00000000000E+00 -0.58248543497E+03  0.24695456884E+04  0.23998680433E+04 0.  0.
        4    1    3    3  502    0  0.28977556302E+03 -0.94762489280E+03 -0.98755527203E+03  0.13990103083E+04  0.12699999809E+01 0. -1.
       -4    1    3    3    0  502 -0.28977556302E+03  0.94762489280E+03  0.40506983706E+03  0.10705353802E+04  0.12699999809E+01 0.  1.
</event>
<event>
 5   0  0.2297414E-06  0.2401314E+04  0.7818609E-02  0.8439012E-01
       -1   -1    0    0    0  501  0.00000000000E+00  0.00000000000E+00  0.17507762195E+04  0.17507762195E+04  0.50400001928E-02 0.  1.
        1   -1    0    0  501    0  0.00000000000E+00  0.00000000000E+00 -0.82339297504E+03  0.82339297506E+03  0.50400001928E-02 0. -1.
    10030    2    1    2    0    0  0.00000000000E+00  0.00000000000E+00  0.92738324448E+03  0.25741691946E+04  0.24013136739E+04 0.  0.
        1    1    3    3  502    0 -0.53646121613E+03 -0.82743673614E+03  0.11979297804E+04  0.15516049586E+04  0.50400001928E-02 0.  1.
       -1    1    3    3    0  502  0.53646121613E+03  0.82743673614E+03 -0.27054653588E+03  0.10225642360E+04  0.50400001928E-02 0. -1.
</event>
<event>
 5   0  0.2149417E-06  0.2392929E+04  0.7818609E-02  0.8442156E-01
       -1   -1    0    0    0  501  0.00000000000E+00  0.00000000000E+00  0.74316705670E+03  0.74316705672E+03  0.50400001928E-02 0.  1.
        1   -1    0    0  501    0  0.00000000000E+00  0.00000000000E+00 -0.19262519715E+04  0.19262519715E+04  0.50400001928E-02 0. -1.
    10030    2    1    2    0    0  0.00000000000E+00  0.00000000000E+00 -0.11830849148E+04  0.26694190282E+04  0.23929287563E+04 0.  0.
        5    1    3    3  502    0  0.13499558091E+03 -0.18594160637E+03 -0.19013966265E+04  0.19152360975E+04  0.46999998093E+01 0. -1.
       -5    1    3    3    0  502 -0.13499558091E+03  0.18594160637E+03  0.71831171171E+03  0.75418293074E+03  0.46999998093E+01 0.  1.
</event>
<event>
 5   0  0.5371843E-06  0.2394857E+04  0.7818609E-02  0.8441431E-01
       -2   -1    0    0    0  501  0.00000000000E+00  0.00000000000E+00  0.12807709528E+04  0.12807709528E+04  0.25500000920E-02 0.  1.
        2   -1    0    0  501    0  0.00000000000E+00  0.00000000000E+00 -0.11195095849E+04  0.11195095849E+04  0.25500000920E-02 0. -1.
    10030    2    1    2    0    0  0.00000000000E+00  0.00000000000E+00  0.16126136788E+03  0.24002805377E+04  0.23948572882E+04 0.  0.
        4    1    3    3  502    0  0.11029041977E+04  0.44648858871E+03  0.21541203427E+03  0.12091954708E+04  0.12699999809E+01 0.  1.
       -4    1    3    3    0  502 -0.11029041977E+04 -0.44648858871E+03 -0.54150666394E+02  0.11910850669E+04  0.12699999809E+01 0. -1.
</event>
<event>
 5   0  0.5268358E-06  0.2399528E+04  0.7818609E-02  0.8439680E-01
        2   -1    0    0  501    0  0.00000000000E+00  0.00000000000E+00  0.11946157075E+04  0.11946157075E+04  0.25500000920E-02 0.  1.
       -2   -1    0    0    0  501  0.00000000000E+00  0.00000000000E+00 -0.12049342949E+04  0.12049342950E+04  0.25500000920E-02 0. -1.
    10030    2    1    2    0    0  0.00000000000E+00  0.00000000000E+00 -0.10318587413E+02  0.23995500025E+04  0.23995278163E+04 0.  0.
        2    1    3    3  502    0 -0.24180675859E+03 -0.10800742586E+04 -0.46819977523E+03  0.12017661761E+04  0.25500000920E-02 0. -1.
       -2    1    3    3    0  502  0.24180675859E+03  0.10800742586E+04  0.45788118782E+03  0.11977838264E+04  0.25500000920E-02 0.  1.
</event>
<event>
 5   0  0.2149417E-06  0.2397387E+04  0.7818609E-02  0.8440483E-01
        1   -1    0    0  501    0  0.00000000000E+00  0.00000000000E+00  0.16904440704E+04  0.16904440704E+04  0.50400001928E-02 0.  1.
       -1   -1    0    0    0  501  0.00000000000E+00  0.00000000000E+00 -0.84999294348E+03  0.84999294349E+03  0.50400001928E-02 0. -1.
    10030    2    1    2    0    0  0.00000000000E+00  0.00000000000E+00  0.84045112693E+03  0.25404370139E+04  0.23973865197E+04 0.  0.
        5    1    3    3  502    0  0.23427801964E+03 -0.99370716192E+03  0.10857985819E+04  0.14904095963E+04  0.46999998093E+01 0.  1.
       -5    1    3    3    0  502 -0.23427801964E+03  0.99370716192E+03 -0.24534745499E+03  0.10500274176E+04  0.46999998093E+01 0. -1.
</event>
<event>
 5   0  0.2297414E-06  0.2393942E+04  0.7818609E-02  0.8441775E-01
       -1   -1    0    0    0  501  0.00000000000E+00  0.00000000000E+00  0.55473315868E+03  0.55473315870E+03  0.50400001928E-02 0. -1.
        1   -1    0    0  501    0  0.00000000000E+00  0.00000000000E+00 -0.25827540633E+04  0.25827540634E+04  0.50400001928E-02 0.  1.
    10030    2    1    2    0    0  0.00000000000E+00  0.00000000000E+00 -0.20280209047E+04  0.31374872221E+04  0.23939417868E+04 0.  0.
        1    1    3    3  502    0  0.86907818325E+03  0.75950618621E+03 -0.14296834319E+04  0.18374278900E+04  0.50400001928E-02 0.  1.
       -1    1    3    3    0  502 -0.86907818325E+03 -0.75950618621E+03 -0.59833747276E+03  0.13000593320E+04  0.50400001928E-02 0. -1.
</event>
<event>
 5   0  0.5440503E-06  0.2400811E+04  0.7818609E-02  0.8439200E-01
        2   -1    0    0  501    0  0.00000000000E+00  0.00000000000E+00  0.16752406660E+04  0.16752406660E+04  0.25500000920E-02 0. -1.
       -2   -1    0    0    0  501  0.00000000000E+00  0.00000000000E+00 -0.86015924960E+03  0.86015924960E+03  0.25500000920E-02 0.  1.
    10030    2    1    2    0    0  0.00000000000E+00  0.00000000000E+00  0.81508141638E+03  0.25353999156E+04  0.24008113247E+04 0.  0.
        3    1    3    3  502    0 -0.97804301109E+03  0.25039711173E+03 -0.27825346914E+03  0.10472305612E+04  0.10100000352E+00 0.  1.
       -3    1    3    3    0  502  0.97804301109E+03 -0.25039711173E+03  0.10933348855E+04  0.14881693543E+04  0.10100000352E+00 0. -1.
</event>
<event>
 5   0  0.5371843E-06  0.2436410E+04  0.7818609E-02  0.8425997E-01
       -2   -1    0    0    0  501  0.00000000000E+00  0.00000000000E+00  0.13904560636E+04  0.13904560636E+04  0.25500000920E-02 0.  1.
        2   -1    0    0  501    0  0.00000000000E+00  0.00000000000E+00 -0.10672928412E+04  0.10672928412E+04  0.25500000920E-02 0. -1.
    10030    2    1    2    0    0  0.00000000000E+00  0.00000000000E+00  0.32316322238E+03  0.24577489049E+04  0.24364103125E+04 0.  0.
        4    1    3    3  502    0 -0.11462927393E+04  0.23286786163E+03  0.50486738754E+03  0.12740122358E+04  0.12699999809E+01 0.  1.
       -4    1    3    3    0  502  0.11462927393E+04 -0.23286786163E+03 -0.18170416516E+03  0.11837366690E+04  0.12699999809E+01 0. -1.
</event>
<event>
 5   0  0.5371843E-06  0.2403465E+04  0.7818609E-02  0.8438208E-01
       -2   -1    0    0    0  501  0.00000000000E+00  0.00000000000E+00  0.21445596712E+04  0.21445596712E+04  0.25500000920E-02 0.  1.
        2   -1    0    0  501    0  0.00000000000E+00  0.00000000000E+00 -0.67340650763E+03  0.67340650763E+03  0.25500000920E-02 0. -1.
    10030    2    1    2    0    0  0.00000000000E+00  0.00000000000E+00  0.14711531636E+04  0.28179661789E+04  0.24034645316E+04 0.  0.
        4    1    3    3  502    0 -0.11570130695E+04 -0.32238573406E+03  0.78169200547E+03  0.14330582015E+04  0.12699999809E+01 0.  1.
       -4    1    3    3    0  502  0.11570130695E+04  0.32238573406E+03  0.68946115814E+03  0.13849079774E+04  0.12699999809E+01 0. -1.
</event>
<event>
 5   0  0.2215700E-06  0.2402996E+04  0.7818609E-02  0.8438383E-01
       -1   -1    0    0    0  501  0.00000000000E+00  0.00000000000E+00  0.13415624638E+04  0.13415624638E+04  0.50400001928E-02 0.  1.
        1   -1    0    0  501    0  0.00000000000E+00  0.00000000000E+00 -0.10760565133E+04  0.10760565134E+04  0.50400001928E-02 0. -1.
    10030    2    1    2    0    0  0.00000000000E+00  0.00000000000E+00  0.26550595041E+03  0.24176189771E+04  0.24029956531E+04 0.  0.
        3    1    3    3  502    0 -0.11227345732E+04 -0.39058897515E+03 -0.42964818408E+02  0.11895119399E+04  0.10100000352E+00 0. -1.
       -3    1    3    3    0  502  0.11227345732E+04  0.39058897515E+03  0.30847076882E+03  0.12281070372E+04  0.10100000352E+00 0.  1.
</event>
<event>
 5   0  0.2149417E-06  0.2391283E+04  0.7818609E-02  0.8442774E-01
       -1   -1    0    0    0  501  0.00000000000E+00  0.00000000000E+00  0.64935742959E+03  0.64935742961E+03  0.50400001928E-02 0.  1.
        1   -1    0    0  501    0  0.00000000000E+00  0.00000000000E+00 -0.22014968569E+04  0.22014968569E+04  0.50400001928E-02 0. -1.
    10030    2    1    2    0    0  0.00000000000E+00  0.00000000000E+00 -0.15521394274E+04  0.28508542866E+04  0.23912827857E+04 0.  0.
        5    1    3    3  502    0  0.82852304363E+03 -0.30700234542E+03 -0.17363794743E+04  0.19482650340E+04  0.46999998093E+01 0. -1.
       -5    1    3    3    0  502 -0.82852304363E+03  0.30700234542E+03  0.18424004696E+03  0.90258925255E+03  0.46999998093E+01 0.  1.
</event>
<event>
 5   0  0.2215700E-06  0.2390775E+04  0.7818609E-02  0.8442965E-01
       -1   -1    0    0    0  501  0.00000000000E+00  0.00000000000E+00  0.62944592919E+03  0.62944592921E+03  0.50400001928E-02 0. -1.
        1   -1    0    0  501    0  0.00000000000E+00  0.00000000000E+00 -0.22701724076E+04  0.22701724076E+04  0.50400001928E-02 0.  1.
    10030    2    1    2    0    0  0.00000000000E+00  0.00000000000E+00 -0.16407264784E+04  0.28996183368E+04  0.23907745862E+04 0.  0.
        3    1    3    3  502    0 -0.20342096232E+03 -0.11423488272E+04 -0.11689557847E+04  0.16470575484E+04  0.10100000352E+00 0.  1.
       -3    1    3    3    0  502  0.20342096232E+03  0.11423488272E+04 -0.47177069370E+03  0.12525607884E+04  0.10100000352E+00 0. -1.
</event>
<event>
 5   0  0.2254269E-06  0.2396100E+04  0.7818609E-02  0.8440965E-01
        1   -1    0    0  501    0  0.00000000000E+00  0.00000000000E+00  0.13980337295E+04  0.13980337295E+04  0.50400001928E-02 0.  1.
       -1   -1    0    0    0  501  0.00000000000E+00  0.00000000000E+00 -0.10266735534E+04  0.10266735534E+04  0.50400001928E-02 0. -1.
    10030    2    1    2    0    0  0.00000000000E+00  0.00000000000E+00  0.37136017604E+03  0.24247072829E+04  0.23961003793E+04 0.  0.
        2    1    3    3  502    0 -0.33801287388E+03 -0.87343249083E+03  0.94171919496E+03  0.13281460993E+04  0.25500000920E-02 0.  1.
       -2    1    3    3    0  502  0.33801287388E+03  0.87343249083E+03 -0.57035901892E+03  0.10965611836E+04  0.25500000920E-02 0. -1.
</event>
<event>
 5   0  0.5440503E-06  0.2397588E+04  0.7818609E-02  0.8440407E-01
       -2   -1    0    0    0  501  0.00000000000E+00  0.00000000000E+00  0.45985526083E+03  0.45985526084E+03  0.25500000920E-02 0. -1.
        2   -1    0    0  501    0  0.00000000000E+00  0.00000000000E+00 -0.31251291492E+04  0.31251291492E+04  0.25500000920E-02 0.  1.
    10030    2    1    2    0    0  0.00000000000E+00  0.00000000000E+00 -0.26652738884E+04  0.35849844101E+04  0.23975880214E+04 0.  0.
        3    1    3    3  502    0 -0.77800424293E+03  0.89320701077E+03 -0.16083374125E+04  0.19974630432E+04  0.10100000352E+00 0.  1.
       -3    1    3    3    0  502  0.77800424293E+03 -0.89320701077E+03 -0.10569364759E+04  0.15875213669E+04  0.10100000352E+00 0. -1.
</event>
<event>
 5   0  0.5440503E-06  0.2401911E+04  0.7818609E-02  0.8438788E-01
        2   -1    0    0  501    0  0.00000000000E+00  0.00000000000E+00  0.24252944871E+04  0.24252944871E+04  0.25500000920E-02 0.  1.
       -2   -1    0    0    0  501  0.00000000000E+00  0.00000000000E+00 -0.59468831366E+03  0.59468831366E+03  0.25500000920E-02 0. -1.
    10030    2    1    2    0    0  0.00000000000E+00  0.00000000000E+00  0.18306061734E+04  0.30199828007E+04  0.24019111463E+04 0.  0.
        3    1    3    3  502    0  0.54378655037E+03 -0.84770798532E+03  0.92757265808E+02  0.10113933761E+04  0.10100000352E+00 0. -1.
       -3    1    3    3    0  502 -0.54378655037E+03  0.84770798532E+03  0.17378489076E+04  0.20085894246E+04  0.10100000352E+00 0.  1.
</event>
<event>
 5   0  0.2215700E-06  0.2398299E+04  0.7818609E-02  0.8440141E-01
       -1   -1    0    0    0  501  0.00000000000E+00  0.00000000000E+00  0.71944877858E+03  0.71944877860E+03  0.50400001928E-02 0. -1.
        1   -1    0    0  501    0  0.00000000000E+00  0.00000000000E+00 -0.19986961894E+04  0.19986961894E+04  0.50400001928E-02 0.  1.
    10030    2    1    2    0    0  0.00000000000E+00  0.00000000000E+00 -0.12792474108E+04  0.27181449680E+04  0.23982990074E+04 0.  0.
        3    1    3    3  502    0  0.17015475642E+03 -0.17869258755E+03  0.69036580952E+03  0.73313616957E+03  0.10100000352E+00 0. -1.
       -3    1    3    3    0  502 -0.17015475642E+03  0.17869258755E+03 -0.19696132203E+04  0.19850087984E+04  0.10100000352E+00 0.  1.
</event>
<event>
 5   0  0.5268358E-06  0.2402400E+04  0.7818609E-02  0.8438606E-01
       -2   -1    0    0    0  501  0.00000000000E+00  0.00000000000E+00  0.13574460634E+04  0.13574460634E+04  0.25500000920E-02 0.  1.
        2   -1    0    0  501    0  0.00000000000E+00  0.00000000000E+00 -0.10629380307E+04  0.10629380307E+04  0.25500000920E-02 0. -1.
    10030    2    1    2    0    0  0.00000000000E+00  0.00000000000E+00  0.29450803267E+03  0.24203840941E+04  0.24023996715E+04 0.  0.
        2    1    3    3  502    0  0.54966657174E+03 -0.34221992090E+03  0.11665755960E+04  0.13342212843E+04  0.25500000920E-02 0.  1.
       -2    1    3    3    0  502 -0.54966657174E+03  0.34221992090E+03 -0.87206756334E+03  0.10861628098E+04  0.25500000920E-02 0. -1.
</event>
<event>
 5   0  0.5349036E-06  0.2398511E+04  0.7818609E-02  0.8440061E-01
       -2   -1    0    0    0  501  0.00000000000E+00  0.00000000000E+00  0.11703680111E+04  0.11703680111E+04  0.25500000920E-02 0. -1.
        2   -1    0    0  501    0  0.00000000000E+00  0.00000000000E+00 -0.12288562159E+04  0.12288562159E+04  0.25500000920E-02 0.  1.
    10030    2    1    2    0    0  0.00000000000E+00  0.00000000000E+00 -0.58488204765E+02  0.23992242270E+04  0.23985112094E+04 0.  0.
        1    1    3    3  502    0  0.44875290078E+03 -0.27694683439E+03 -0.11066600627E+04  0.12258773223E+04  0.50400001928E-02 0.  1.
       -1    1    3    3    0  502 -0.44875290078E+03  0.27694683439E+03  0.10481718579E+04  0.11733469047E+04  0.50400001928E-02 0. -1.
</event>
<event>
 5   0  0.5371843E-06  0.2398046E+04  0.7818609E-02  0.8440236E-01
        2   -1    0    0  501    0  0.00000000000E+00  0.00000000000E+00  0.15977097771E+04  0.15977097771E+04  0.25500000920E-02 0. -1.
       -2   -1    0    0    0  501  0.00000000000E+00  0.00000000000E+00 -0.89982296484E+03  0.89982296484E+03  0.25500000920E-02 0.  1.
    10030    2    1    2    0    0  0.00000000000E+00  0.00000000000E+00  0.69788681224E+03  0.24975327419E+04  0.23980458282E+04 0.  0.
        4    1    3    3  502    0  0.49250605057E+03  0.83428253018E+02 -0.78629227134E+03  0.93154690280E+03  0.12699999809E+01 0.  1.
       -4    1    3    3    0  502 -0.49250605057E+03 -0.83428253018E+02  0.14841790836E+04  0.15659858391E+04  0.12699999809E+01 0. -1.
</event>
<event>
 5   0  0.2149417E-06  0.2401560E+04  0.7818609E-02  0.8438920E-01
        1   -1    0    0  501    0  0.00000000000E+00  0.00000000000E+00  0.13995402565E+04  0.13995402565E+04  0.50400001928E-02 0. -1.
       -1   -1    0    0    0  501  0.00000000000E+00  0.00000000000E+00 -0.10302474759E+04  0.10302474759E+04  0.50400001928E-02 0.  1.
    10030    2    1    2    0    0  0.00000000000E+00  0.00000000000E+00  0.36929278055E+03  0.24297877324E+04  0.24015601735E+04 0.  0.
        5    1    3    3  502    0 -0.63360998451E+03  0.66527794982E+03 -0.59761297318E+03  0.10960016965E+04  0.46999998093E+01 0.  1.
       -5    1    3    3    0  502  0.63360998451E+03 -0.66527794982E+03  0.96690575374E+03  0.13337860359E+04  0.46999998093E+01 0. -1.
</event>
<event>
 5   0  0.5349036E-06  0.2405742E+04  0.7818609E-02  0.8437357E-01
        2   -1    0    0  501    0  0.00000000000E+00  0.00000000000E+00  0.14240743455E+04  0.14240743455E+04  0.25500000920E-02 0.  1.
       -2   -1    0    0    0  501  0.00000000000E+00  0.00000000000E+00 -0.10160270899E+04  0.10160270899E+04  0.25500000920E-02 0. -1.
    10030    2    1    2    0    0  0.00000000000E+00  0.00000000000E+00  0.40804725557E+03  0.24401014354E+04  0.24057415598E+04 0.  0.
        1    1    3    3  502    0  0.76691173627E+03 -0.69954240527E+03  0.82047453117E+03  0.13231370467E+04  0.50400001928E-02 0.  1.
       -1    1    3    3    0  502 -0.76691173627E+03  0.69954240527E+03 -0.41242727561E+03  0.11169643887E+04  0.50400001928E-02 0. -1.
</event>
<event>
 5   0  0.5379778E-06  0.2401244E+04  0.7818609E-02  0.8439038E-01
       -2   -1    0    0    0  501  0.00000000000E+00  0.00000000000E+00  0.87468328832E+03  0.87468328832E+03  0.25500000920E-02 0. -1.
        2   -1    0    0  501    0  0.00000000000E+00  0.00000000000E+00 -0.16480179050E+04  0.16480179050E+04  0.25500000920E-02 0.  1.
    10030    2    1    2    0    0  0.00000000000E+00  0.00000000000E+00 -0.77333461664E+03  0.25227011933E+04  0.24012444443E+04 0.  0.
        5    1    3    3  502    0  0.99553869740E+03 -0.16009514761E+02  0.31817610103E+03  0.10452806914E+04  0.46999998093E+01 0. -1.
       -5    1    3    3    0  502 -0.99553869740E+03  0.16009514761E+02 -0.10915107177E+04  0.14774205019E+04  0.46999998093E+01 0.  1.
</event>
<event>
 5   0  0.2149029E-06  0.2420756E+04  0.7818609E-02  0.8431774E-01
       -1   -1    0    0    0  501  0.00000000000E+00  0.00000000000E+00  0.58380296674E+03  0.58380296676E+03  0.50400001928E-02 0.  1.
        1   -1    0    0  501    0  0.00000000000E+00  0.00000000000E+00 -0.25094336476E+04  0.25094336476E+04  0.50400001928E-02 0. -1.
    10030    2    1    2    0    0  0.00000000000E+00  0.00000000000E+00 -0.19256306808E+04  0.30932366143E+04  0.24207559219E+04 0.  0.
        4    1    3    3  502    0 -0.48975380106E+03  0.27268965024E+03  0.40794357114E+03  0.69328060779E+03  0.12699999809E+01 0.  1.
       -4    1    3    3    0  502  0.48975380106E+03 -0.27268965024E+03 -0.23335742520E+04  0.23999560065E+04  0.12699999809E+01 0. -1.
</event>
<event>
 5   0  0.5379778E-06  0.2404920E+04  0.7818609E-02  0.8437664E-01
       -2   -1    0    0    0  501  0.00000000000E+00  0.00000000000E+00  0.52344582408E+03  0.52344582408E+03  0.25500000920E-02 0. -1.
        2   -1    0    0  501    0  0.00000000000E+00  0.00000000000E+00 -0.27622923208E+04  0.27622923209E+04  0.25500000920E-02 0.  1.
    10030    2    1    2    0    0  0.00000000000E+00  0.00000000000E+00 -0.22388464968E+04  0.32857381449E+04  0.24049202733E+04 0.  0.
        5    1    3    3  502    0  0.50068456405E+02 -0.80142267558E+02 -0.27571988715E+04  0.27588217305E+04  0.46999998093E+01 0.  1.
       -5    1    3    3    0  502 -0.50068456405E+02  0.80142267558E+02  0.51835237477E+03  0.52691641444E+03  0.46999998093E+01 0. -1.
</event>
<event>
 5   0  0.5268358E-06  0.2397965E+04  0.7818609E-02  0.8440266E-01
        2   -1    0    0  501    0  0.00000000000E+00  0.00000000000E+00  0.21757725771E+04  0.21757725771E+04  0.25500000920E-02 0. -1.
       -2   -1    0    0    0  501  0.00000000000E+00  0.00000000000E+00 -0.66071187454E+03  0.66071187455E+03  0.25500000920E-02 0.  1.
    10030    2    1    2    0    0  0.00000000000E+00  0.00000000000E+00  0.15150607025E+04  0.28364844516E+04  0.23979647854E+04 0.  0.
        2    1    3    3  502    0  0.70640644023E+03  0.85923991593E+03  0.12868643843E+04  0.17009771414E+04  0.25500000920E-02 0. -1.
       -2    1    3    3    0  502 -0.70640644023E+03 -0.85923991593E+03  0.22819631822E+03  0.11355073102E+04  0.25500000920E-02 0.  1.
</event>
<event>
 5   0  0.5268358E-06  0.2402962E+04  0.7818609E-02  0.8438395E-01
       -2   -1    0    0    0  501  0.00000000000E+00  0.00000000000E+00  0.20406165730E+04  0.20406165730E+04  0.25500000920E-02 0.  1.
        2   -1    0    0  501    0  0.00000000000E+00  0.00000000000E+00 -0.70741207992E+03  0.70741207992E+03  0.25500000920E-02 0. -1.
    10030    2    1    2    0    0  0.00000000000E+00  0.00000000000E+00  0.13332044930E+04  0.27480286529E+04  0.24029621838E+04 0.  0.
        2    1    3    3  502    0 -0.63905774011E+02  0.10870304531E+04  0.12472964571E+04  0.16557377829E+04  0.25500000920E-02 0.  1.
       -2    1    3    3    0  502  0.63905774011E+02 -0.10870304531E+04  0.85908035957E+02  0.10922908700E+04  0.25500000920E-02 0. -1.
</event>
<event>
 5   0  0.2215700E-06  0.2409393E+04  0.7818609E-02  0.8435995E-01
       -1   -1    0    0    0  501  0.00000000000E+00  0.00000000000E+00  0.62783751985E+03  0.62783751987E+03  0.50400001928E-02 0. -1.
        1   -1    0    0  501    0  0.00000000000E+00  0.00000000000E+00 -0.23115747272E+04  0.23115747272E+04  0.50400001928E-02 0.  1.
    10030    2    1    2    0    0  0.00000000000E+00  0.00000000000E+00 -0.16837372073E+04  0.29394122470E+04  0.24093927398E+04 0.  0.
        3    1    3    3  502    0  0.30782951462E+03 -0.42110951452E+03 -0.21666579893E+04  0.22285643554E+04  0.10100000352E+00 0.  1.
       -3    1    3    3    0  502 -0.30782951462E+03  0.42110951452E+03  0.48292078195E+03  0.71084789170E+03  0.10100000352E+00 0. -1.
</event>
<event>
 5   0  0.2254269E-06  0.2399817E+04  0.7818609E-02  0.8439572E-01
       -1   -1    0    0    0  501  0.00000000000E+00  0.00000000000E+00  0.12032895204E+04  0.12032895205E+04  0.50400001928E-02 0.  1.
        1   -1    0    0  501    0  0.00000000000E+00  0.00000000000E+00 -0.11965366400E+04  0.11965366401E+04  0.50400001928E-02 0. -1.
    10030    2    1    2    0    0  0.00000000000E+00  0.00000000000E+00  0.67528804018E+01  0.23998261605E+04  0.23998166595E+04 0.  0.
        2    1    3    3  502    0  0.10603476060E+03 -0.38123281475E+02 -0.11912341845E+04  0.11965515607E+04  0.25500000920E-02 0. -1.
       -2    1    3    3    0  502 -0.10603476060E+03  0.38123281475E+02  0.11979870649E+04  0.12032745999E+04  0.25500000920E-02 0.  1.
</event>
<event>
 5   0  0.5349036E-06  0.2406761E+04  0.7818609E-02  0.8436977E-01
        2   -1    0    0  501    0  0.00000000000E+00  0.00000000000E+00  0.10197469697E+04  0.10197469697E+04  0.25500000920E-02 0. -1.
       -2   -1    0    0    0  501  0.00000000000E+00  0.00000000000E+00 -0.14200822378E+04  0.14200822378E+04  0.25500000920E-02 0.  1.
    10030    2    1    2    0    0  0.00000000000E+00  0.00000000000E+00 -0.40033526815E+03  0.24398292075E+04  0.24067609426E+04 0.  0.
        1    1    3    3  502    0 -0.33557682669E+03  0.70801884235E+03 -0.11260745091E+04  0.13718404746E+04  0.50400001928E-02 0.  1.
       -1    1    3    3    0  502  0.33557682669E+03 -0.70801884235E+03  0.72573924093E+03  0.10679887329E+04  0.50400001928E-02 0. -1.
</event>
<event>
 5   0  0.2254269E-06  0.2400117E+04  0.7818609E-02  0.8439460E-01
        1   -1    0    0  501    0  0.00000000000E+00  0.00000000000E+00  0.14989656480E+04  0.14989656480E+04  0.50400001928E-02 0. -1.
       -1   -1    0    0    0  501  0.00000000000E+00  0.00000000000E+00 -0.96075626401E+03  0.96075626402E+03  0.50400001928E-02 0.  1.
    10030    2    1    2    0    0  0.00000000000E+00  0.00000000000E+00  0.53820938401E+03  0.24597219120E+04  0.24001171937E+04 0.  0.
        2    1    3    3  502    0  0.93858090272E+03 -0.52161223558E+03 -0.28004498218E+03  0.11097020444E+04  0.25500000920E-02 0. -1.
       -2    1    3    3    0  502 -0.93858090272E+03  0.52161223558E+03  0.81825436619E+03  0.13500198677E+04  0.25500000920E-02 0.  1.
</event>
<event>
 5   0  0.2149417E-06  0.2400978E+04  0.7818609E-02  0.8439138E-01
       -1   -1    0    0    0  501  0.00000000000E+00  0.00000000000E+00  0.95741851204E+03  0.95741851206E+03  0.50400001928E-02 0. -1.
        1   -1    0    0  501    0  0.00000000000E+00  0.00000000000E+00 -0.15052699114E+04  0.15052699114E+04  0.50400001928E-02 0.  1.
    10030    2    1    2    0    0  0.00000000000E+00  0.00000000000E+00 -0.54785139935E+03  0.24626884235E+04  0.24009775333E+04 0.  0.
        5    1    3    3  502    0 -0.24945122778E+03  0.69659319780E+03 -0.12435716037E+04  0.14470523218E+04  0.46999998093E+01 0.  1.
       -5    1    3    3    0  502  0.24945122778E+03 -0.69659319780E+03  0.69572020440E+03  0.10156361017E+04  0.46999998093E+01 0. -1.
</event>
<event>
 5   0  0.5379778E-06  0.2400024E+04  0.7818609E-02  0.8439495E-01
        2   -1    0    0  501    0  0.00000000000E+00  0.00000000000E+00  0.20634393746E+04  0.20634393746E+04  0.25500000920E-02 0.  1.
       -2   -1    0    0    0  501  0.00000000000E+00  0.00000000000E+00 -0.69787801505E+03  0.69787801506E+03  0.25500000920E-02 0. -1.
    10030    2    1    2    0    0  0.00000000000E+00  0.00000000000E+00  0.13655613596E+04  0.27613173897E+04  0.24000241457E+04 0.  0.
        5    1    3    3  502    0 -0.56551649289E+03 -0.98085337869E+03  0.11402905618E+04  0.16069122284E+04  0.46999998093E+01 0.  1.
       -5    1    3    3    0  502  0.56551649289E+03  0.98085337869E+03  0.22527079773E+03  0.11544051613E+04  0.46999998093E+01 0. -1.
</event>
<event>
 5   0  0.2254269E-06  0.2399992E+04  0.7818609E-02  0.8439507E-01
        1   -1    0    0  501    0  0.00000000000E+00  0.00000000000E+00  0.17177716513E+04  0.17177716513E+04  0.50400001928E-02 0.  1.
       -1   -1    0    0    0  501  0.00000000000E+00  0.00000000000E+00 -0.83828977898E+03  0.83828977899E+03  0.50400001928E-02 0. -1.
    10030    2    1    2    0    0  0.00000000000E+00  0.00000000000E+00  0.87948187236E+03  0.25560614303E+04  0.23999920150E+04 0.  0.
        2    1    3    3  502    0  0.17404373758E+03 -0.73821784944E+03 -0.55064088011E+03  0.93726314057E+03  0.25500000920E-02 0. -1.
       -2    1    3    3    0  502 -0.17404373758E+03  0.73821784944E+03  0.14301227525E+04  0.16187982898E+04  0.25500000920E-02 0.  1.
</event>
<event>
 5   0  0.2215700E-06  0.2404493E+04  0.7818609E-02  0.8437823E-01
        1   -1    0    0  501    0  0.00000000000E+00  0.00000000000E+00  0.18809548462E+04  0.18809548462E+04  0.50400001928E-02 0.  1.
       -1   -1    0    0    0  501  0.00000000000E+00  0.00000000000E+00 -0.76843763953E+03  0.76843763955E+03  0.50400001928E-02 0. -1.
    10030    2    1    2    0    0  0.00000000000E+00  0.00000000000E+00  0.11125172066E+04  0.26493924857E+04  0.24044928797E+04 0.  0.
        3    1    3    3  502    0 -0.62658820880E+03 -0.62007376132E+03  0.14570122181E+04  0.17029353678E+04  0.10100000352E+00 0.  1.
       -3    1    3    3    0  502  0.62658820880E+03  0.62007376132E+03 -0.34449501152E+03  0.94645711791E+03  0.10100000352E+00 0. -1.
</event>
<event>
 5   0  0.2149417E-06  0.2401119E+04  0.7818609E-02  0.8439085E-01
       -1   -1    0    0    0  501  0.00000000000E+00  0.00000000000E+00  0.11840434818E+04  0.11840434818E+04  0.50400001928E-02 0.  1.
        1   -1    0    0  501    0  0.00000000000E+00  0.00000000000E+00 -0.12173062207E+04  0.12173062207E+04  0.50400001928E-02 0. -1.
    10030    2    1    2    0    0  0.00000000000E+00  0.00000000000E+00 -0.33262738883E+02  0.24013497026E+04  0.24011193190E+04 0.  0.
        5    1    3    3  502    0  0.23437689736E+03 -0.85959356745E+03  0.78811208759E+03  0.11895277987E+04  0.46999998093E+01 0.  1.
       -5    1    3    3    0  502 -0.23437689736E+03  0.85959356745E+03 -0.82137482648E+03  0.12118219039E+04  0.46999998093E+01 0. -1.
</event>
<event>
 5   0  0.5268358E-06  0.2401553E+04  0.7818609E-02  0.8438923E-01
        2   -1    0    0  501    0  0.00000000000E+00  0.00000000000E+00  0.15635455559E+04  0.15635455559E+04  0.25500000920E-02 0. -1.
       -2   -1    0    0    0  501  0.00000000000E+00  0.00000000000E+00 -0.92217572527E+03  0.92217572528E+03  0.25500000920E-02 0.  1.
    10030    2    1    2    0    0  0.00000000000E+00  0.00000000000E+00  0.64136983064E+03  0.24857212812E+04  0.24015526286E+04 0.  0.
        2    1    3    3  502    0 -0.30890875143E+03  0.11101598888E+04 -0.28763098588E+02  0.11526954981E+04  0.25500000920E-02 0.  1.
       -2    1    3    3    0  502  0.30890875143E+03 -0.11101598888E+04  0.67013292923E+03  0.13330257831E+04  0.25500000920E-02 0. -1.
</event>
<event>
 5   0  0.5440503E-06  0.2405294E+04  0.7818609E-02  0.8437524E-01
       -2   -1    0    0    0  501  0.00000000000E+00  0.00000000000E+00  0.74165417475E+03  0.74165417475E+03  0.25500000920E-02 0. -1.
        2   -1    0    0  501    0  0.00000000000E+00  0.00000000000E+00 -0.19501814342E+04  0.19501814342E+04  0.25500000920E-02 0.  1.
    10030    2    1    2    0    0  0.00000000000E+00  0.00000000000E+00 -0.12085272595E+04  0.26918356090E+04  0.24052943290E+04 0.  0.
        3    1    3    3  502    0  0.59367486389E+03 -0.10458779176E+04 -0.61215564144E+03  0.13494610042E+04  0.10100000352E+00 0. -1.
       -3    1    3    3    0  502 -0.59367486389E+03  0.10458779176E+04 -0.59637161805E+03  0.13423746047E+04  0.10100000352E+00 0.  1.
</event>
<event>
 5   0  0.2215700E-06  0.2400880E+04  0.7818609E-02  0.8439174E-01
       -1   -1    0    0    0  501  0.00000000000E+00  0.00000000000E+00  0.13738340741E+04  0.13738340741E+04  0.50400001928E-02 0. -1.
        1   -1    0    0  501    0  0.00000000000E+00  0.00000000000E+00 -0.10489302331E+04  0.10489302331E+04  0.50400001928E-02 0.  1.
    10030    2    1    2    0    0  0.00000000000E+00  0.00000000000E+00  0.32490384094E+03  0.24227643072E+04  0.24008799184E+04 0.  0.
        3    1    3    3  502    0  0.86634611736E+03  0.74429207568E+03  0.53531935030E+03  0.12613853915E+04  0.10100000352E+00 0.  1.
       -3    1    3    3    0  502 -0.86634611736E+03 -0.74429207568E+03 -0.21041550936E+03  0.11613789157E+04  0.10100000352E+00 0. -1.
</event>
<event>
 5   0  0.5349036E-06  0.2396885E+04  0.7818609E-02  0.8440671E-01
       -2   -1    0    0    0  501  0.00000000000E+00  0.00000000000E+00  0.71025606156E+03  0.71025606156E+03  0.25500000920E-02 0. -1.
        2   -1    0    0  501    0  0.00000000000E+00  0.00000000000E+00 -0.20221786669E+04  0.20221786669E+04  0.25500000920E-02 0.  1.
    10030    2    1    2    0    0  0.00000000000E+00  0.00000000000E+00 -0.13119226053E+04  0.27324347285E+04  0.23968851919E+04 0.  0.
        1    1    3    3  502    0  0.62892357965E+03  0.76831512324E+03  0.10911962466E+03  0.99887941722E+03  0.50400001928E-02 0. -1.
       -1    1    3    3    0  502 -0.62892357965E+03 -0.76831512324E+03 -0.14210422300E+04  0.17335553112E+04  0.50400001928E-02 0.  1.
</event>
<event>
 5   0  0.5349036E-06  0.2394561E+04  0.7818609E-02  0.8441543E-01
       -2   -1    0    0    0  501  0.00000000000E+00  0.00000000000E+00  0.64355190565E+03  0.64355190565E+03  0.25500000920E-02 0. -1.
        2   -1    0    0  501    0  0.00000000000E+00  0.00000000000E+00 -0.22274518707E+04  0.22274518707E+04  0.25500000920E-02 0.  1.
    10030    2    1    2    0    0  0.00000000000E+00  0.00000000000E+00 -0.15838999651E+04  0.28710037764E+04  0.23945612510E+04 0.  0.
        1    1    3    3  502    0  0.53862855912E+03  0.71395587961E+03 -0.17463374116E+04  0.19620265232E+04  0.50400001928E-02 0.  1.
       -1    1    3    3    0  502 -0.53862855912E+03 -0.71395587961E+03  0.16243744649E+03  0.90897725317E+03  0.50400001928E-02 0. -1.
</event>
<event>
 5   0  0.5379778E-06  0.2400532E+04  0.7818609E-02  0.8439304E-01
       -2   -1    0    0    0  501  0.00000000000E+00  0.00000000000E+00  0.11748581586E+04  0.11748581586E+04  0.25500000920E-02 0. -1.
        2   -1    0    0  501    0  0.00000000000E+00  0.00000000000E+00 -0.12262234498E+04  0.12262234498E+04  0.25500000920E-02 0.  1.
    10030    2    1    2    0    0  0.00000000000E+00  0.00000000000E+00 -0.51365291279E+02  0.24010816084E+04  0.24005321279E+04 0.  0.
        5    1    3    3  502    0  0.38164999442E+03 -0.11251360049E+04 -0.19610000806E+03  0.12041864685E+04  0.46999998093E+01 0.  1.
       -5    1    3    3    0  502 -0.38164999442E+03  0.11251360049E+04  0.14473471678E+03  0.11968951399E+04  0.46999998093E+01 0. -1.
</event>
<event>
 5   0  0.5440503E-06  0.2399315E+04  0.7818609E-02  0.8439760E-01
        2   -1    0    0  501    0  0.00000000000E+00  0.00000000000E+00  0.25774326792E+04  0.25774326792E+04  0.25500000920E-02 0. -1.
       -2   -1    0    0    0  501  0.00000000000E+00  0.00000000000E+00 -0.55837642116E+03  0.55837642116E+03  0.25500000920E-02 0.  1.
    10030    2    1    2    0    0  0.00000000000E+00  0.00000000000E+00  0.20190562581E+04  0.31358091004E+04  0.23993145981E+04 0.  0.
        3    1    3    3  502    0  0.45960414455E+03  0.80602748170E+03  0.15669748550E+02  0.92798805066E+03  0.10100000352E+00 0.  1.
       -3    1    3    3    0  502 -0.45960414455E+03 -0.80602748170E+03  0.20033865095E+04  0.22078210498E+04  0.10100000352E+00 0. -1.
</event>
<event>
 5   0  0.2297414E-06  0.2396148E+04  0.7818609E-02  0.8440947E-01
       -1   -1    0    0    0  501  0.00000000000E+00  0.00000000000E+00  0.11498190043E+04  0.11498190043E+04  0.50400001928E-02 0. -1.
        1   -1    0    0  501    0  0.00000000000E+00  0.00000000000E+00 -0.12483542659E+04  0.12483542659E+04  0.50400001928E-02 0.  1.
    10030    2    1    2    0    0  0.00000000000E+00  0.00000000000E+00 -0.98535261631E+02  0.23981732702E+04  0.23961481249E+04 0.  0.
        1    1    3    3  502    0  0.75954257659E+03  0.23188152069E+03 -0.94708069210E+03  0.12359756481E+04  0.50400001928E-02 0.  1.
       -1    1    3    3    0  502 -0.75954257659E+03 -0.23188152069E+03  0.84854543047E+03  0.11621976221E+04  0.50400001928E-02 0. -1.
</event>
<event>
 5   0  0.2297414E-06  0.2398077E+04  0.7818609E-02  0.8440224E-01
        1   -1    0    0  501    0  0.00000000000E+00  0.00000000000E+00  0.15002914223E+04  0.15002914223E+04  0.50400001928E-02 0. -1.
       -1   -1    0    0    0  501  0.00000000000E+00  0.00000000000E+00 -0.95827608846E+03  0.95827608847E+03  0.50400001928E-02 0.  1.
    10030    2    1    2    0    0  0.00000000000E+00  0.00000000000E+00  0.54201533384E+03  0.24585675108E+04  0.23980770594E+04 0.  0.
        1    1    3    3  502    0  0.29250668724E+03 -0.49035785089E+03 -0.80995170451E+03  0.99097565443E+03  0.50400001928E-02 0.  1.
       -1    1    3    3    0  502 -0.29250668724E+03  0.49035785089E+03  0.13519670384E+04  0.14675918563E+04  0.50400001928E-02 0. -1.
</event>
<event>
 5   0  0.2215700E-06  0.2400036E+04  0.7818609E-02  0.8439490E-01
       -1   -1    0    0    0  501  0.00000000000E+00  0.00000000000E+00  0.10884641194E+04  0.10884641195E+04  0.50400001928E-02 0. -1.
        1   -1    0    0  501    0  0.00000000000E+00  0.00000000000E+00 -0.13230045273E+04  0.13230045273E+04  0.50400001928E-02 0.  1.
    10030    2    1    2    0    0  0.00000000000E+00  0.00000000000E+00 -0.23454040789E+03  0.24114686468E+04  0.24000357980E+04 0.  0.
        3    1    3    3  502    0 -0.77281801847E+02  0.96452954442E+03  0.59586655276E+03  0.11363743564E+04  0.10100000352E+00 0. -1.
       -3    1    3    3    0  502  0.77281801847E+02 -0.96452954442E+03 -0.83040696065E+03  0.12750942904E+04  0.10100000352E+00 0.  1.
</event>
<event>
 5   0  0.5379778E-06  0.2389986E+04  0.7818609E-02  0.8443262E-01
        2   -1    0    0  501    0  0.00000000000E+00  0.00000000000E+00  0.11034832240E+04  0.11034832240E+04  0.25500000920E-02 0. -1.
       -2   -1    0    0    0  501  0.00000000000E+00  0.00000000000E+00 -0.12940918238E+04  0.12940918238E+04  0.25500000920E-02 0.  1.
    10030    2    1    2    0    0  0.00000000000E+00  0.00000000000E+00 -0.19060859983E+03  0.23975750478E+04  0.23899862911E+04 0.  0.
        5    1    3    3  502    0  0.38125788306E+03  0.24636227810E+03  0.10136171352E+04  0.11106276299E+04  0.46999998093E+01 0. -1.
       -5    1    3    3    0  502 -0.38125788306E+03 -0.24636227810E+03 -0.12042257351E+04  0.12869474179E+04  0.46999998093E+01 0.  1.
</event>
<event>
 5   0  0.5349036E-06  0.2381433E+04  0.7818609E-02  0.8446487E-01
       -2   -1    0    0    0  501  0.00000000000E+00  0.00000000000E+00  0.10506288048E+04  0.10506288048E+04  0.25500000920E-02 0. -1.
        2   -1    0    0  501    0  0.00000000000E+00  0.00000000000E+00 -0.13494834857E+04  0.13494834857E+04  0.25500000920E-02 0.  1.
    10030    2    1    2    0    0  0.00000000000E+00  0.00000000000E+00 -0.29885468092E+03  0.24001122904E+04  0.23814333680E+04 0.  0.
        1    1    3    3  502    0  0.32367660502E+03 -0.37888215885E+02 -0.13036630838E+04  0.13437780686E+04  0.50400001928E-02 0.  1.
       -1    1    3    3    0  502 -0.32367660502E+03  0.37888215885E+02  0.10048084029E+04  0.10563342218E+04  0.50400001928E-02 0. -1.
</event>
<event>
 5   0  0.2149417E-06  0.2394726E+04  0.7818609E-02  0.8441481E-01
        1   -1    0    0  501    0  0.00000000000E+00  0.00000000000E+00  0.18821125011E+04  0.18821125011E+04  0.50400001928E-02 0.  1.
       -1   -1    0    0    0  501  0.00000000000E+00  0.00000000000E+00 -0.76173852113E+03  0.76173852115E+03  0.50400001928E-02 0. -1.
    10030    2    1    2    0    0  0.00000000000E+00  0.00000000000E+00  0.11203739799E+04  0.26438510222E+04  0.23947255318E+04 0.  0.
        5    1    3    3  502    0  0.33125327430E+03  0.77938344139E+03 -0.37432690481E+03  0.92591036397E+03  0.46999998093E+01 0. -1.
       -5    1    3    3    0  502 -0.33125327430E+03 -0.77938344139E+03  0.14947008848E+04  0.17179406583E+04  0.46999998093E+01 0.  1.
</event>
<event>
 5   0  0.2149417E-06  0.2397841E+04  0.7818609E-02  0.8440312E-01
       -1   -1    0    0    0  501  0.00000000000E+00  0.00000000000E+00  0.84370751531E+03  0.84370751532E+03  0.50400001928E-02 0. -1.
        1   -1    0    0  501    0  0.00000000000E+00  0.00000000000E+00 -0.17036837774E+04  0.17036837774E+04  0.50400001928E-02 0.  1.
    10030    2    1    2    0    0  0.00000000000E+00  0.00000000000E+00 -0.85997626211E+03  0.25473912927E+04  0.23978413682E+04 0.  0.
        5    1    3    3  502    0  0.11824200114E+04  0.14030978132E+03 -0.57866204280E+03  0.13238866144E+04  0.46999998093E+01 0.  1.
       -5    1    3    3    0  502 -0.11824200114E+04 -0.14030978132E+03 -0.28131421931E+03  0.12235046784E+04  0.46999998093E+01 0. -1.
</event>
<event>
 5   0  0.5349036E-06  0.2398296E+04  0.7818609E-02  0.8440142E-01
       -2   -1    0    0    0  501  0.00000000000E+00  0.00000000000E+00  0.84810577635E+03  0.84810577636E+03  0.25500000920E-02 0. -1.
        2   -1    0    0  501    0  0.00000000000E+00  0.00000000000E+00 -0.16954908590E+04  0.16954908590E+04  0.25500000920E-02 0.  1.
    10030    2    1    2    0    0  0.00000000000E+00  0.00000000000E+00 -0.84738508265E+03  0.25435966354E+04  0.23982957210E+04 0.  0.
        1    1    3    3  502    0 -0.47058540281E+02  0.11045357387E+04  0.68928259339E+02  0.11076844358E+04  0.50400001928E-02 0. -1.
       -1    1    3    3    0  502  0.47058540281E+02 -0.11045357387E+04 -0.91631334199E+03  0.14359121996E+04  0.50400001928E-02 0.  1.
</event>
<event>
 5   0  0.2215700E-06  0.2399042E+04  0.7818609E-02  0.8439862E-01
       -1   -1    0    0    0  501  0.00000000000E+00  0.00000000000E+00  0.16417270054E+04  0.16417270054E+04  0.50400001928E-02 0. -1.
        1   -1    0    0  501    0  0.00000000000E+00  0.00000000000E+00 -0.87642514902E+03  0.87642514903E+03  0.50400001928E-02 0.  1.
    10030    2    1    2    0    0  0.00000000000E+00  0.00000000000E+00  0.76530185638E+03  0.25181521544E+04  0.23990421717E+04 0.  0.
        3    1    3    3  502    0  0.94161824062E+03  0.69316900748E+03  0.10154356420E+03  0.11736435957E+04  0.10100000352E+00 0.  1.
       -3    1    3    3    0  502 -0.94161824062E+03 -0.69316900748E+03  0.66375829218E+03  0.13445085588E+04  0.10100000352E+00 0. -1.
</event>
<event>
 5   0  0.2254269E-06  0.2400567E+04  0.7818609E-02  0.8439291E-01
        1   -1    0    0  501    0  0.00000000000E+00  0.00000000000E+00  0.24195503687E+04  0.24195503687E+04  0.50400001928E-02 0.  1.
       -1   -1    0    0    0  501  0.00000000000E+00  0.00000000000E+00 -0.59543338599E+03  0.59543338601E+03  0.50400001928E-02 0. -1.
    10030    2    1    2    0    0  0.00000000000E+00  0.00000000000E+00  0.18241169827E+04  0.30149837547E+04  0.24005674901E+04 0.  0.
        2    1    3    3  502    0 -0.45354352428E+03 -0.52930558123E+03  0.21393017620E+04  0.22499951457E+04  0.25500000920E-02 0.  1.
       -2    1    3    3    0  502  0.45354352428E+03  0.52930558123E+03 -0.31518477933E+03  0.76498860898E+03  0.25500000920E-02 0. -1.
</event>
<event>
 5   0  0.2149029E-06  0.2397060E+04  0.7818609E-02  0.8440605E-01
        1   -1    0    0  501    0  0.00000000000E+00  0.00000000000E+00  0.74712304837E+03  0.74712304839E+03  0.50400001928E-02 0. -1.
       -1   -1    0    0    0  501  0.00000000000E+00  0.00000000000E+00 -0.19226744930E+04  0.19226744930E+04  0.50400001928E-02 0.  1.
    10030    2    1    2    0    0  0.00000000000E+00  0.00000000000E+00 -0.11755514446E+04  0.26697975414E+04  0.23970602231E+04 0.  0.
        4    1    3    3  502    0 -0.42066533582E+03  0.86783320479E+03  0.20479355790E+03  0.98591876458E+03  0.12699999809E+01 0. -1.
       -4    1    3    3    0  502  0.42066533582E+03 -0.86783320479E+03 -0.13803450025E+04  0.16838787768E+04  0.12699999809E+01 0.  1.
</event>
<event>
 5   0  0.2149029E-06  0.2407031E+04  0.7818609E-02  0.8436876E-01
       -1   -1    0    0    0  501  0.00000000000E+00  0.00000000000E+00  0.92794948170E+03  0.92794948171E+03  0.50400001928E-02 0.  1.
        1   -1    0    0  501    0  0.00000000000E+00  0.00000000000E+00 -0.15609140359E+04  0.15609140359E+04  0.50400001928E-02 0. -1.
    10030    2    1    2    0    0  0.00000000000E+00  0.00000000000E+00 -0.63296455419E+03  0.24888635176E+04  0.24070308437E+04 0.  0.
        4    1    3    3  502    0  0.39988648580E+03 -0.15768394135E+03 -0.14788325134E+04  0.15400391692E+04  0.12699999809E+01 0. -1.
       -4    1    3    3    0  502 -0.39988648580E+03  0.15768394135E+03  0.84586795923E+03  0.94882434846E+03  0.12699999809E+01 0.  1.
</event>
<event>
 5   0  0.2297414E-06  0.2392204E+04  0.7818609E-02  0.8442428E-01
        1   -1    0    0  501    0  0.00000000000E+00  0.00000000000E+00  0.25404729653E+04  0.25404729653E+04  0.50400001928E-02 0.  1.
       -1   -1    0    0    0  501  0.00000000000E+00  0.00000000000E+00 -0.56314722554E+03  0.56314722556E+03  0.50400001928E-02 0. -1.
    10030    2    1    2    0    0  0.00000000000E+00  0.00000000000E+00  0.19773257398E+04  0.31036201909E+04  0.23922042572E+04 0.  0.
        1    1    3    3  502    0 -0.75490986527E+02 -0.57008825041E+03 -0.37202625471E+03  0.68491096977E+03  0.50400001928E-02 0. -1.
       -1    1    3    3    0  502  0.75490986527E+02  0.57008825041E+03  0.23493519945E+04  0.24187092211E+04  0.50400001928E-02 0.  1.
</event>
<event>
 5   0  0.2215700E-06  0.2403442E+04  0.7818609E-02  0.8438216E-01
       -1   -1    0    0    0  501  0.00000000000E+00  0.00000000000E+00  0.95227480126E+03  0.95227480127E+03  0.50400001928E-02 0. -1.
        1   -1    0    0  501    0  0.00000000000E+00  0.00000000000E+00 -0.15165088563E+04  0.15165088564E+04  0.50400001928E-02 0.  1.
    10030    2    1    2    0    0  0.00000000000E+00  0.00000000000E+00 -0.56423405509E+03  0.24687836576E+04  0.24034418402E+04 0.  0.
        3    1    3    3  502    0 -0.11922810031E+04  0.98777862397E+02 -0.39852091741E+03  0.12609956337E+04  0.10100000352E+00 0. -1.
       -3    1    3    3    0  502  0.11922810031E+04 -0.98777862397E+02 -0.16571313768E+03  0.12077880239E+04  0.10100000352E+00 0.  1.
</event>
<event>
 5   0  0.2149029E-06  0.2400318E+04  0.7818609E-02  0.8439384E-01
        1   -1    0    0  501    0  0.00000000000E+00  0.00000000000E+00  0.90589206497E+03  0.90589206499E+03  0.50400001928E-02 0. -1.
       -1   -1    0    0    0  501  0.00000000000E+00  0.00000000000E+00 -0.15900148046E+04  0.15900148046E+04  0.50400001928E-02 0.  1.
    10030    2    1    2    0    0  0.00000000000E+00  0.00000000000E+00 -0.68412273958E+03  0.24959068695E+04  0.24003181411E+04 0.  0.
        4    1    3    3  502    0  0.51633562139E+03 -0.11871773405E+03 -0.14618327556E+04  0.15548803788E+04  0.12699999809E+01 0.  1.
       -4    1    3    3    0  502 -0.51633562139E+03  0.11871773405E+03  0.77771001601E+03  0.94102649070E+03  0.12699999809E+01 0. -1.
</event>
<event>
 5   0  0.5379778E-06  0.2399909E+04  0.7818609E-02  0.8439538E-01
       -2   -1    0    0    0  501  0.00000000000E+00  0.00000000000E+00  0.72889186256E+03  0.72889186256E+03  0.25500000920E-02 0. -1.
        2   -1    0    0  501    0  0.00000000000E+00  0.00000000000E+00 -0.19754512630E+04  0.19754512631E+04  0.25500000920E-02 0.  1.
    10030    2    1    2    0    0  0.00000000000E+00  0.00000000000E+00 -0.12465594005E+04  0.27043431256E+04  0.23999086237E+04 0.  0.
        5    1    3    3  502    0  0.11556125681E+04 -0.29867244562E+03 -0.48424863918E+03  0.12880855840E+04  0.46999998093E+01 0. -1.
       -5    1    3    3    0  502 -0.11556125681E+04  0.29867244562E+03 -0.76231076131E+03  0.14162575416E+04  0.46999998093E+01 0.  1.
</event>
<event>
 5   0  0.2149029E-06  0.2399799E+04  0.7818609E-02  0.8439579E-01
        1   -1    0    0  501    0  0.00000000000E+00  0.00000000000E+00  0.12443882104E+04  0.12443882104E+04  0.50400001928E-02 0. -1.
       -1   -1    0    0    0  501  0.00000000000E+00  0.00000000000E+00 -0.11570010054E+04  0.11570010054E+04  0.50400001928E-02 0.  1.
    10030    2    1    2    0    0  0.00000000000E+00  0.00000000000E+00  0.87387204966E+02  0.24013892158E+04  0.23997986670E+04 0.  0.
        4    1    3    3  502    0  0.45962878518E+03  0.78035544167E+03 -0.74393897797E+03  0.11720324447E+04  0.12699999809E+01 0.  1.
       -4    1    3    3    0  502 -0.45962878518E+03 -0.78035544167E+03  0.83132618293E+03  0.12293567712E+04  0.12699999809E+01 0. -1.
</event>
<event>
 5   0  0.2215700E-06  0.2395540E+04  0.7818609E-02  0.8441175E-01
        1   -1    0    0  501    0  0.00000000000E+00  0.00000000000E+00  0.12191767078E+04  0.12191767079E+04  0.50400001928E-02 0.  1.
       -1   -1    0    0    0  501  0.00000000000E+00  0.00000000000E+00 -0.11767394802E+04  0.11767394802E+04  0.50400001928E-02 0. -1.
    10030    2    1    2    0    0  0.00000000000E+00  0.00000000000E+00  0.42437227644E+02  0.23959161881E+04  0.23955403278E+04 0.  0.
        3    1    3    3  502    0 -0.65539976073E+03 -0.96139002905E+03  0.30557593935E+03  0.12029947212E+04  0.10100000352E+00 0.  1.
       -3    1    3    3    0  502  0.65539976073E+03  0.96139002905E+03 -0.26313871171E+03  0.11929214669E+04  0.10100000352E+00 0. -1.
</event>
<event>
 5   0  0.2254269E-06  0.2398714E+04  0.7818609E-02  0.8439985E-01
       -1   -1    0    0    0  501  0.00000000000E+00  0.00000000000E+00  0.72766910675E+03  0.72766910677E+03  0.50400001928E-02 0.  1.
        1   -1    0    0  501    0  0.00000000000E+00  0.00000000000E+00 -0.19768014399E+04  0.19768014399E+04  0.50400001928E-02 0. -1.
    10030    2    1    2    0    0  0.00000000000E+00  0.00000000000E+00 -0.12491323331E+04  0.27044705467E+04  0.23987141039E+04 0.  0.
        2    1    3    3  502    0  0.93629275019E+03  0.20067319196E+03 -0.14387997920E+04  0.17283109342E+04  0.25500000920E-02 0. -1.
       -2    1    3    3    0  502 -0.93629275019E+03 -0.20067319196E+03  0.18966745881E+03  0.97615961244E+03  0.25500000920E-02 0.  1.
</event>
<event>
 5   0  0.5349036E-06  0.2401049E+04  0.7818609E-02  0.8439111E-01
        2   -1    0    0  501    0  0.00000000000E+00  0.00000000000E+00  0.22666990342E+04  0.22666990342E+04  0.25500000920E-02 0.  1.
       -2   -1    0    0    0  501  0.00000000000E+00  0.00000000000E+00 -0.63584026674E+03  0.63584026675E+03  0.25500000920E-02 0. -1.
    10030    2    1    2    0    0  0.00000000000E+00  0.00000000000E+00  0.16308587674E+04  0.29025393009E+04  0.24010485364E+04 0.  0.
        1    1    3    3  502    0 -0.41457526553E+03 -0.63530246433E+03 -0.30938303625E+03  0.81926780427E+03  0.50400001928E-02 0. -1.
       -1    1    3    3    0  502  0.41457526553E+03  0.63530246433E+03  0.19402418037E+04  0.20832714966E+04  0.50400001928E-02 0.  1.
</event>
<event>
 5   0  0.2297414E-06  0.2441494E+04  0.7818609E-02  0.8424130E-01
       -1   -1    0    0    0  501  0.00000000000E+00  0.00000000000E+00  0.75452000030E+03  0.75452000031E+03  0.50400001928E-02 0. -1.
        1   -1    0    0  501    0  0.00000000000E+00  0.00000000000E+00 -0.19750605624E+04  0.19750605624E+04  0.50400001928E-02 0.  1.
    10030    2    1    2    0    0  0.00000000000E+00  0.00000000000E+00 -0.12205405621E+04  0.27295805627E+04  0.24414935561E+04 0.  0.
        1    1    3    3  502    0  0.60969574421E+03 -0.10217652152E+04 -0.30513791673E+03  0.12283493818E+04  0.50400001928E-02 0. -1.
       -1    1    3    3    0  502 -0.60969574421E+03  0.10217652152E+04 -0.91540264538E+03  0.15012311809E+04  0.50400001928E-02 0.  1.
</event>
<event>
 5   0  0.5268358E-06  0.2400531E+04  0.7818609E-02  0.8439305E-01
       -2   -1    0    0    0  501  0.00000000000E+00  0.00000000000E+00  0.69407759474E+03  0.69407759475E+03  0.25500000920E-02 0. -1.
        2   -1    0    0  501    0  0.00000000000E+00  0.00000000000E+00 -0.20756141439E+04  0.20756141439E+04  0.25500000920E-02 0.  1.
    10030    2    1    2    0    0  0.00000000000E+00  0.00000000000E+00 -0.13815365492E+04  0.27696917386E+04  0.24005310018E+04 0.  0.
        2    1    3    3  502    0 -0.81071081437E+03 -0.52184923433E+03 -0.15155888338E+04  0.17962706258E+04  0.25500000920E-02 0.  1.
       -2    1    3    3    0  502  0.81071081437E+03  0.52184923433E+03  0.13405228465E+03  0.97342111285E+03  0.25500000920E-02 0. -1.
</event>
<event>
 5   0  0.1796750E-06  0.2406132E+04  0.7818609E-02  0.8437211E-01
       -3   -1    0    0    0  501  0.00000000000E+00  0.00000000000E+00  0.17074573817E+04  0.17074573847E+04  0.10100000352E+00 0. -1.
        3   -1    0    0  501    0  0.00000000000E+00  0.00000000000E+00 -0.84767456266E+03  0.84767456868E+03  0.10100000352E+00 0.  1.
    10030    2    1    2    0    0  0.00000000000E+00  0.00000000000E+00  0.85978281907E+03  0.25551319534E+04  0.24061323329E+04 0.  0.
        1    1    3    3  502    0  0.64698595077E+03  0.34087677256E+03 -0.58455566485E+03  0.93621211266E+03  0.50400001928E-02 0.  1.
       -1    1    3    3    0  502 -0.64698595077E+03 -0.34087677256E+03  0.14443384839E+04  0.16189198407E+04  0.50400001928E-02 0. -1.
</event>
<event>
 5   0  0.2297414E-06  0.2405155E+04  0.7818609E-02  0.8437576E-01
       -1   -1    0    0    0  501  0.00000000000E+00  0.00000000000E+00  0.11106740751E+04  0.11106740751E+04  0.50400001928E-02 0.  1.
        1   -1    0    0  501    0  0.00000000000E+00  0.00000000000E+00 -0.13020852616E+04  0.13020852616E+04  0.50400001928E-02 0. -1.
    10030    2    1    2    0    0  0.00000000000E+00  0.00000000000E+00 -0.19141118654E+03  0.24127593367E+04  0.24051547506E+04 0.  0.
        1    1    3    3  502    0 -0.32713383672E+03  0.78114660821E+03  0.76080059784E+03  0.11384305514E+04  0.50400001928E-02 0.  1.
       -1    1    3    3    0  502  0.32713383672E+03 -0.78114660821E+03 -0.95221178438E+03  0.12743287853E+04  0.50400001928E-02 0. -1.
</event>
<event>
 5   0  0.2215700E-06  0.2396643E+04  0.7818609E-02  0.8440762E-01
       -1   -1    0    0    0  501  0.00000000000E+00  0.00000000000E+00  0.11460769462E+04  0.11460769462E+04  0.50400001928E-02 0. -1.
        1   -1    0    0  501    0  0.00000000000E+00  0.00000000000E+00 -0.12529473484E+04  0.12529473484E+04  0.50400001928E-02 0.  1.
    10030    2    1    2    0    0  0.00000000000E+00  0.00000000000E+00 -0.10687040224E+03  0.23990242947E+04  0.23966427108E+04 0.  0.
        3    1    3    3  502    0  0.47801196424E+03 -0.84713278623E+03 -0.75401973031E+03  0.12307213979E+04  0.10100000352E+00 0.  1.
       -3    1    3    3    0  502 -0.47801196424E+03  0.84713278623E+03  0.64714932806E+03  0.11683028967E+04  0.10100000352E+00 0. -1.
</event>
<event>
 5   0  0.5379778E-06  0.2399560E+04  0.7818609E-02  0.8439668E-01
       -2   -1    0    0    0  501  0.00000000000E+00  0.00000000000E+00  0.71373206625E+03  0.71373206625E+03  0.25500000920E-02 0. -1.
        2   -1    0    0  501    0  0.00000000000E+00  0.00000000000E+00 -0.20168245264E+04  0.20168245264E+04  0.25500000920E-02 0.  1.
    10030    2    1    2    0    0  0.00000000000E+00  0.00000000000E+00 -0.13030924601E+04  0.27305565926E+04  0.23995602401E+04 0.  0.
        5    1    3    3  502    0  0.62530352451E+03  0.10229220427E+04 -0.59969505002E+03  0.13405335677E+04  0.46999998093E+01 0. -1.
       -5    1    3    3    0  502 -0.62530352451E+03 -0.10229220427E+04 -0.70339741011E+03  0.13900230249E+04  0.46999998093E+01 0.  1.
</event>
<event>
 5   0  0.5371843E-06  0.2399928E+04  0.7818609E-02  0.8439531E-01
       -2   -1    0    0    0  501  0.00000000000E+00  0.00000000000E+00  0.10804800116E+04  0.10804800116E+04  0.25500000920E-02 0.  1.
        2   -1    0    0  501    0  0.00000000000E+00  0.00000000000E+00 -0.13326608084E+04  0.13326608084E+04  0.25500000920E-02 0. -1.
    10030    2    1    2    0    0  0.00000000000E+00  0.00000000000E+00 -0.25218079679E+03  0.24131408200E+04  0.23999278036E+04 0.  0.
        4    1    3    3  502    0  0.29419316147E+03 -0.11633134079E+04 -0.11804311956E+03  0.12057294441E+04  0.12699999809E+01 0.  1.
       -4    1    3    3    0  502 -0.29419316147E+03  0.11633134079E+04 -0.13413767723E+03  0.12074113759E+04  0.12699999809E+01 0. -1.
</event>
<event>
 5   0  0.2297414E-06  0.2399520E+04  0.7818609E-02  0.8439683E-01
        1   -1    0    0  501    0  0.00000000000E+00  0.00000000000E+00  0.67755722041E+03  0.67755722043E+03  0.50400001928E-02 0.  1.
       -1   -1    0    0    0  501  0.00000000000E+00  0.00000000000E+00 -0.21244316887E+04  0.21244316887E+04  0.50400001928E-02 0. -1.
    10030    2    1    2    0    0  0.00000000000E+00  0.00000000000E+00 -0.14468744683E+04  0.28019889091E+04  0.23995199770E+04 0.  0.
        1    1    3    3  502    0 -0.53752877939E+02 -0.97698940572E+03 -0.15341694595E+04  0.18196355683E+04  0.50400001928E-02 0. -1.
       -1    1    3    3    0  502  0.53752877939E+02  0.97698940572E+03  0.87294991244E+02  0.98235334086E+03  0.50400001928E-02 0.  1.
</event>
<event>
 5   0  0.2149417E-06  0.2399038E+04  0.7818609E-02  0.8439864E-01
        1   -1    0    0  501    0  0.00000000000E+00  0.00000000000E+00  0.18683819316E+04  0.18683819316E+04  0.50400001928E-02 0. -1.
       -1   -1    0    0    0  501  0.00000000000E+00  0.00000000000E+00 -0.77010235451E+03  0.77010235452E+03  0.50400001928E-02 0.  1.
    10030    2    1    2    0    0  0.00000000000E+00  0.00000000000E+00  0.10982795771E+04  0.26384842861E+04  0.23990375776E+04 0.  0.
        5    1    3    3  502    0  0.10709710451E+04  0.50638595719E+03  0.75611890117E+03  0.14053980218E+04  0.46999998093E+01 0.  1.
       -5    1    3    3    0  502 -0.10709710451E+04 -0.50638595719E+03  0.34216067593E+03  0.12330862643E+04  0.46999998093E+01 0. -1.
</event>
<event>
 5   0  0.5440503E-06  0.2399974E+04  0.7818609E-02  0.8439513E-01
        2   -1    0    0  501    0  0.00000000000E+00  0.00000000000E+00  0.16704934917E+04  0.16704934917E+04  0.25500000920E-02 0.  1.
       -2   -1    0    0    0  501  0.00000000000E+00  0.00000000000E+00 -0.86200172492E+03  0.86200172493E+03  0.25500000920E-02 0. -1.
    10030    2    1    2    0    0  0.00000000000E+00  0.00000000000E+00  0.80849176681E+03  0.25324952167E+04  0.23999735593E+04 0.  0.
        3    1    3    3  502    0 -0.62326873853E+03 -0.93305508631E+03 -0.44578579851E+02  0.11229616977E+04  0.10100000352E+00 0. -1.
       -3    1    3    3    0  502  0.62326873853E+03  0.93305508631E+03  0.85307034666E+03  0.14095335190E+04  0.10100000352E+00 0.  1.
</event>
<event>
 5   0  0.2149029E-06  0.2397372E+04  0.7818609E-02  0.8440488E-01
       -1   -1    0    0    0  501  0.00000000000E+00  0.00000000000E+00  0.75485430595E+03  0.75485430597E+03  0.50400001928E-02 0.  1.
        1   -1    0    0  501    0  0.00000000000E+00  0.00000000000E+00 -0.19034768416E+04  0.19034768416E+04  0.50400001928E-02 0. -1.
    10030    2    1    2    0    0  0.00000000000E+00  0.00000000000E+00 -0.11486225357E+04  0.26583311476E+04  0.23973716359E+04 0.  0.
        4    1    3    3  502    0  0.11302248594E+03  0.69822577315E+03 -0.16474103966E+04  0.17928346105E+04  0.12699999809E+01 0. -1.
       -4    1    3    3    0  502 -0.11302248594E+03 -0.69822577315E+03  0.49878786098E+03  0.86549653713E+03  0.12699999809E+01 0.  1.
</event>
<event>
 5   0  0.5440503E-06  0.2399806E+04  0.7818609E-02  0.8439576E-01
       -2   -1    0    0    0  501  0.00000000000E+00  0.00000000000E+00  0.72031886173E+03  0.72031886173E+03  0.25500000920E-02 0.  1.
        2   -1    0    0  501    0  0.00000000000E+00  0.00000000000E+00 -0.19987912159E+04  0.19987912159E+04  0.25500000920E-02 0. -1.
    10030    2    1    2    0    0  0.00000000000E+00  0.00000000000E+00 -0.12784723541E+04  0.27191100776E+04  0.23998058367E+04 0.  0.
        3    1    3    3  502    0  0.30420581801E+03  0.61139094333E+03 -0.17571346539E+04  0.18851690289E+04  0.10100000352E+00 0. -1.
       -3    1    3    3    0  502 -0.30420581801E+03 -0.61139094333E+03  0.47866229978E+03  0.83394104871E+03  0.10100000352E+00 0.  1.
</event>
<event>
 5   0  0.1796750E-06  0.2397728E+04  0.7818609E-02  0.8440355E-01
       -3   -1    0    0    0  501  0.00000000000E+00  0.00000000000E+00  0.10140209762E+04  0.10140209813E+04  0.10100000352E+00 0. -1.
        3   -1    0    0  501    0  0.00000000000E+00  0.00000000000E+00 -0.14174016278E+04  0.14174016314E+04  0.10100000352E+00 0.  1.
    10030    2    1    2    0    0  0.00000000000E+00  0.00000000000E+00 -0.40338065158E+03  0.24314226127E+04  0.23977280854E+04 0.  0.
        4    1    3    3  502    0 -0.93742577054E+03  0.45701157866E+02 -0.95810682436E+03  0.13412031803E+04  0.12699999809E+01 0.  1.
       -4    1    3    3    0  502  0.93742577054E+03 -0.45701157866E+02  0.55472617277E+03  0.10902194324E+04  0.12699999809E+01 0. -1.
</event>
<event>
 5   0  0.2254269E-06  0.2419606E+04  0.7818609E-02  0.8432200E-01
       -1   -1    0    0    0  501  0.00000000000E+00  0.00000000000E+00  0.75414293585E+03  0.75414293587E+03  0.50400001928E-02 0.  1.
        1   -1    0    0  501    0  0.00000000000E+00  0.00000000000E+00 -0.19407765751E+04  0.19407765751E+04  0.50400001928E-02 0. -1.
    10030    2    1    2    0    0  0.00000000000E+00  0.00000000000E+00 -0.11866336393E+04  0.26949195110E+04  0.24196057069E+04 0.  0.
        2    1    3    3  502    0 -0.47235540013E+03 -0.10284201097E+04 -0.10695888649E+04  0.15571730430E+04  0.25500000920E-02 0. -1.
       -2    1    3    3    0  502  0.47235540013E+03  0.10284201097E+04 -0.11704477438E+03  0.11377464679E+04  0.25500000920E-02 0.  1.
</event>
<event>
 5   0  0.5379778E-06  0.2455913E+04  0.7818609E-02  0.8418862E-01
       -2   -1    0    0    0  501  0.00000000000E+00  0.00000000000E+00  0.11465573083E+04  0.11465573083E+04  0.25500000920E-02 0.  1.
        2   -1    0    0  501    0  0.00000000000E+00  0.00000000000E+00 -0.13151343607E+04  0.13151343607E+04  0.25500000920E-02 0. -1.
    10030    2    1    2    0    0  0.00000000000E+00  0.00000000000E+00 -0.16857705239E+03  0.24616916690E+04  0.24559127938E+04 0.  0.
        5    1    3    3  502    0 -0.40258448480E+03 -0.36662055296E+03 -0.11875008586E+04  0.13063939974E+04  0.46999998093E+01 0. -1.
       -5    1    3    3    0  502  0.40258448480E+03  0.36662055296E+03  0.10189238062E+04  0.11552976716E+04  0.46999998093E+01 0.  1.
</event>
<event>
 5   0  0.2297414E-06  0.2400573E+04  0.7818609E-02  0.8439289E-01
        1   -1    0    0  501    0  0.00000000000E+00  0.00000000000E+00  0.17174042511E+04  0.17174042511E+04  0.50400001928E-02 0.  1.
       -1   -1    0    0    0  501  0.00000000000E+00  0.00000000000E+00 -0.83887491525E+03  0.83887491526E+03  0.50400001928E-02 0. -1.
    10030    2    1    2    0    0  0.00000000000E+00  0.00000000000E+00  0.87852933583E+03  0.25562791663E+04  0.24005727197E+04 0.  0.
        1    1    3    3  502    0  0.90042313249E+03 -0.59723463511E+03  0.99588956371E+03  0.14694376646E+04  0.50400001928E-02 0.  1.
       -1    1    3    3    0  502 -0.90042313249E+03  0.59723463511E+03 -0.11736022788E+03  0.10868415018E+04  0.50400001928E-02 0. -1.
</event>
<event>
 5   0  0.2297414E-06  0.2377386E+04  0.7818609E-02  0.8448019E-01
       -1   -1    0    0    0  501  0.00000000000E+00  0.00000000000E+00  0.78382418855E+03  0.78382418857E+03  0.50400001928E-02 0.  1.
        1   -1    0    0  501    0  0.00000000000E+00  0.00000000000E+00 -0.18026883114E+04  0.18026883114E+04  0.50400001928E-02 0. -1.
    10030    2    1    2    0    0  0.00000000000E+00  0.00000000000E+00 -0.10188641228E+04  0.25865124999E+04  0.23773857095E+04 0.  0.
        1    1    3    3  502    0 -0.71906814556E+03 -0.48255019760E+03  0.37649286167E+03  0.94427780133E+03  0.50400001928E-02 0. -1.
       -1    1    3    3    0  502  0.71906814556E+03  0.48255019760E+03 -0.13953569845E+04  0.16422346986E+04  0.50400001928E-02 0.  1.
</event>
<event>
 5   0  0.5379778E-06  0.2402817E+04  0.7818609E-02  0.8438450E-01
        2   -1    0    0  501    0  0.00000000000E+00  0.00000000000E+00  0.10982408544E+04  0.10982408544E+04  0.25500000920E-02 0. -1.
       -2   -1    0    0    0  501  0.00000000000E+00  0.00000000000E+00 -0.13142678664E+04  0.13142678664E+04  0.25500000920E-02 0.  1.
    10030    2    1    2    0    0  0.00000000000E+00  0.00000000000E+00 -0.21602701201E+03  0.24125087208E+04  0.24028172336E+04 0.  0.
        5    1    3    3  502    0 -0.19736031910E+03 -0.10267288570E+04  0.48618201304E+03  0.11530473890E+04  0.46999998093E+01 0. -1.
       -5    1    3    3    0  502  0.19736031910E+03  0.10267288570E+04 -0.70220902505E+03  0.12594613318E+04  0.46999998093E+01 0.  1.
</event>
<event>
 5   0  0.2149029E-06  0.2396342E+04  0.7818609E-02  0.8440874E-01
       -1   -1    0    0    0  501  0.00000000000E+00  0.00000000000E+00  0.84244740240E+03  0.84244740242E+03  0.50400001928E-02 0. -1.
        1   -1    0    0  501    0  0.00000000000E+00  0.00000000000E+00 -0.17040992346E+04  0.17040992346E+04  0.50400001928E-02 0.  1.
    10030    2    1    2    0    0  0.00000000000E+00  0.00000000000E+00 -0.86165183216E+03  0.25465466370E+04  0.23963421906E+04 0.  0.
        4    1    3    3  502    0  0.19079956846E+02  0.11587402753E+04 -0.75414866836E+03  0.13826730985E+04  0.12699999809E+01 0.  1.
       -4    1    3    3    0  502 -0.19079956846E+02 -0.11587402753E+04 -0.10750316379E+03  0.11638735385E+04  0.12699999809E+01 0. -1.
</event>
<event>
 5   0  0.2297414E-06  0.2402340E+04  0.7818609E-02  0.8438628E-01
        1   -1    0    0  501    0  0.00000000000E+00  0.00000000000E+00  0.77774536001E+03  0.77774536003E+03  0.50400001928E-02 0. -1.
       -1   -1    0    0    0  501  0.00000000000E+00  0.00000000000E+00 -0.18551174582E+04  0.18551174582E+04  0.50400001928E-02 0.  1.
    10030    2    1    2    0    0  0.00000000000E+00  0.00000000000E+00 -0.10773720982E+04  0.26328628182E+04  0.24023396890E+04 0.  0.
        1    1    3    3  502    0 -0.14605192547E+03  0.10736805561E+04  0.29404892880E+02  0.10839675960E+04  0.50400001928E-02 0. -1.
       -1    1    3    3    0  502  0.14605192547E+03 -0.10736805561E+04 -0.11067769910E+04  0.15488952222E+04  0.50400001928E-02 0.  1.
</event>
<event>
 5   0  0.5379778E-06  0.2402124E+04  0.7818609E-02  0.8438709E-01
       -2   -1    0    0    0  501  0.00000000000E+00  0.00000000000E+00  0.81964298762E+03  0.81964298762E+03  0.25500000920E-02 0. -1.
        2   -1    0    0  501    0  0.00000000000E+00  0.00000000000E+00 -0.17599730333E+04  0.17599730333E+04  0.25500000920E-02 0.  1.
    10030    2    1    2    0    0  0.00000000000E+00  0.00000000000E+00 -0.94033004568E+03  0.25796160209E+04  0.24021236897E+04 0.  0.
        5    1    3    3  502    0  0.10200613799E+04  0.36959271716E+03  0.83074244452E+02  0.10881394283E+04  0.46999998093E+01 0. -1.
       -5    1    3    3    0  502 -0.10200613799E+04 -0.36959271716E+03 -0.10234042901E+04  0.14914765926E+04  0.46999998093E+01 0.  1.
</event>
<event>
 5   0  0.2149417E-06  0.2398972E+04  0.7818609E-02  0.8439888E-01
        1   -1    0    0  501    0  0.00000000000E+00  0.00000000000E+00  0.76986148105E+03  0.76986148107E+03  0.50400001928E-02 0.  1.
       -1   -1    0    0    0  501  0.00000000000E+00  0.00000000000E+00 -0.18688647104E+04  0.18688647104E+04  0.50400001928E-02 0. -1.
    10030    2    1    2    0    0  0.00000000000E+00  0.00000000000E+00 -0.10990032293E+04  0.26387261915E+04  0.23989722415E+04 0.  0.
        5    1    3    3  502    0 -0.87719280545E+03 -0.81755990236E+03 -0.51699373679E+03  0.13058238877E+04  0.46999998093E+01 0.  1.
       -5    1    3    3    0  502  0.87719280545E+03  0.81755990236E+03 -0.58200949254E+03  0.13329023037E+04  0.46999998093E+01 0. -1.
</event>
<event>
 5   0  0.5440503E-06  0.2399598E+04  0.7818609E-02  0.8439654E-01
        2   -1    0    0  501    0  0.00000000000E+00  0.00000000000E+00  0.21322765235E+04  0.21322765235E+04  0.25500000920E-02 0. -1.
       -2   -1    0    0    0  501  0.00000000000E+00  0.00000000000E+00 -0.67510810754E+03  0.67510810754E+03  0.25500000920E-02 0.  1.
    10030    2    1    2    0    0  0.00000000000E+00  0.00000000000E+00  0.14571684160E+04  0.28073846311E+04  0.23995976067E+04 0.  0.
        3    1    3    3  502    0 -0.63086455252E+02 -0.65162249511E+02  0.21282601220E+04  0.21301918169E+04  0.10100000352E+00 0. -1.
       -3    1    3    3    0  502  0.63086455252E+02  0.65162249511E+02 -0.67109170598E+03  0.67719281422E+03  0.10100000352E+00 0.  1.
</event>
<event>
 5   0  0.2254269E-06  0.2397124E+04  0.7818609E-02  0.8440581E-01
        1   -1    0    0  501    0  0.00000000000E+00  0.00000000000E+00  0.12455212975E+04  0.12455212975E+04  0.50400001928E-02 0. -1.
       -1   -1    0    0    0  501  0.00000000000E+00  0.00000000000E+00 -0.11533731747E+04  0.11533731747E+04  0.50400001928E-02 0.  1.
    10030    2    1    2    0    0  0.00000000000E+00  0.00000000000E+00  0.92148122842E+02  0.23988944722E+04  0.23971239877E+04 0.  0.
        2    1    3    3  502    0  0.11869322470E+04 -0.12988233642E+03  0.15042606453E+03  0.12034556831E+04  0.25500000920E-02 0.  1.
       -2    1    3    3    0  502 -0.11869322470E+04  0.12988233642E+03 -0.58277941692E+02  0.11954387892E+04  0.25500000920E-02 0. -1.
</event>
<event>
 5   0  0.2149029E-06  0.2399612E+04  0.7818609E-02  0.8439649E-01
       -1   -1    0    0    0  501  0.00000000000E+00  0.00000000000E+00  0.25683015521E+04  0.25683015521E+04  0.50400001928E-02 0. -1.
        1   -1    0    0  501    0  0.00000000000E+00  0.00000000000E+00 -0.56050048474E+03  0.56050048477E+03  0.50400001928E-02 0.  1.
    10030    2    1    2    0    0  0.00000000000E+00  0.00000000000E+00  0.20078010673E+04  0.31288020368E+04  0.23996118561E+04 0.  0.
        4    1    3    3  502    0  0.53143659205E+03 -0.10321696556E+04  0.60898764135E+03  0.13109792559E+04  0.12699999809E+01 0. -1.
       -4    1    3    3    0  502 -0.53143659205E+03  0.10321696556E+04  0.13988134260E+04  0.18178227809E+04  0.12699999809E+01 0.  1.
</event>
<event>
 5   0  0.2297414E-06  0.2406406E+04  0.7818609E-02  0.8437109E-01
       -1   -1    0    0    0  501  0.00000000000E+00  0.00000000000E+00  0.10640853043E+04  0.10640853043E+04  0.50400001928E-02 0.  1.
        1   -1    0    0  501    0  0.00000000000E+00  0.00000000000E+00 -0.13605087261E+04  0.13605087261E+04  0.50400001928E-02 0. -1.
    10030    2    1    2    0    0  0.00000000000E+00  0.00000000000E+00 -0.29642342179E+03  0.24245940304E+04  0.24064059025E+04 0.  0.
        1    1    3    3  502    0 -0.57887582628E+03 -0.63157750746E+03 -0.99941056381E+03  0.13163619735E+04  0.50400001928E-02 0.  1.
       -1    1    3    3    0  502  0.57887582628E+03  0.63157750746E+03  0.70298714202E+03  0.11082320569E+04  0.50400001928E-02 0. -1.
</event>
<event>
 5   0  0.2149029E-06  0.2400591E+04  0.7818609E-02  0.8439282E-01
        1   -1    0    0  501    0  0.00000000000E+00  0.00000000000E+00  0.12053738293E+04  0.12053738293E+04  0.50400001928E-02 0.  1.
       -1   -1    0    0    0  501  0.00000000000E+00  0.00000000000E+00 -0.11952383730E+04  0.11952383730E+04  0.50400001928E-02 0. -1.
    10030    2    1    2    0    0  0.00000000000E+00  0.00000000000E+00  0.10135456320E+02  0.24006122023E+04  0.24005908061E+04 0.  0.
        4    1    3    3  502    0  0.99410927382E+03 -0.55196606553E+03  0.38950275566E+03  0.12019291973E+04  0.12699999809E+01 0.  1.
       -4    1    3    3    0  502 -0.99410927382E+03  0.55196606553E+03 -0.37936729934E+03  0.11986830050E+04  0.12699999809E+01 0. -1.
</event>
<event>
 5   0  0.5268358E-06  0.2437860E+04  0.7818609E-02  0.8425464E-01
        2   -1    0    0  501    0  0.00000000000E+00  0.00000000000E+00  0.13005510501E+04  0.13005510501E+04  0.25500000920E-02 0. -1.
       -2   -1    0    0    0  501  0.00000000000E+00  0.00000000000E+00 -0.11424317359E+04  0.11424317359E+04  0.25500000920E-02 0.  1.
    10030    2    1    2    0    0  0.00000000000E+00  0.00000000000E+00  0.15811931421E+03  0.24429827860E+04  0.24378603683E+04 0.  0.
        2    1    3    3  502    0  0.37634534608E+03  0.81906136887E+03  0.90132838525E+03  0.12747118120E+04  0.25500000920E-02 0. -1.
       -2    1    3    3    0  502 -0.37634534608E+03 -0.81906136887E+03 -0.74320907103E+03  0.11682709740E+04  0.25500000920E-02 0.  1.
</event>
<event>
 5   0  0.5349036E-06  0.2399320E+04  0.7818609E-02  0.8439758E-01
        2   -1    0    0  501    0  0.00000000000E+00  0.00000000000E+00  0.99924400771E+03  0.99924400771E+03  0.25500000920E-02 0.  1.
       -2   -1    0    0    0  501  0.00000000000E+00  0.00000000000E+00 -0.14402734089E+04  0.14402734089E+04  0.25500000920E-02 0. -1.
    10030    2    1    2    0    0  0.00000000000E+00  0.00000000000E+00 -0.44102940117E+03  0.24395174166E+04  0.23993203815E+04 0.  0.
        1    1    3    3  502    0 -0.11843707415E+04  0.16906336575E+03 -0.13032632360E+03  0.12034539565E+04  0.50400001928E-02 0. -1.
       -1    1    3    3    0  502  0.11843707415E+04 -0.16906336575E+03 -0.31070307757E+03  0.12360634601E+04  0.50400001928E-02 0.  1.
</event>
<event>
 5   0  0.5440503E-06  0.2397460E+04  0.7818609E-02  0.8440455E-01
       -2   -1    0    0    0  501  0.00000000000E+00  0.00000000000E+00  0.22464724522E+04  0.22464724522E+04  0.25500000920E-02 0.  1.
        2   -1    0    0  501    0  0.00000000000E+00  0.00000000000E+00 -0.63964879522E+03  0.63964879522E+03  0.25500000920E-02 0. -1.
    10030    2    1    2    0    0  0.00000000000E+00  0.00000000000E+00  0.16068236570E+04  0.28861212474E+04  0.23974598203E+04 0.  0.
        3    1    3    3  502    0 -0.11534791757E+04 -0.35977094874E+02  0.11937645310E+04  0.16603861978E+04  0.10100000352E+00 0.  1.
       -3    1    3    3    0  502  0.11534791757E+04  0.35977094874E+02  0.41305912600E+03  0.12257350496E+04  0.10100000352E+00 0. -1.
</event>
<event>
 5   0  0.5349036E-06  0.2397863E+04  0.7818609E-02  0.8440304E-01
       -2   -1    0    0    0  501  0.00000000000E+00  0.00000000000E+00  0.11441950853E+04  0.11441950853E+04  0.25500000920E-02 0.  1.
        2   -1    0    0  501    0  0.00000000000E+00  0.00000000000E+00 -0.12562862013E+04  0.12562862013E+04  0.25500000920E-02 0. -1.
    10030    2    1    2    0    0  0.00000000000E+00  0.00000000000E+00 -0.11209111603E+03  0.24004812865E+04  0.23978627961E+04 0.  0.
        1    1    3    3  502    0  0.64369511802E+03  0.14913840744E+03 -0.10575633560E+04  0.12470067848E+04  0.50400001928E-02 0. -1.
       -1    1    3    3    0  502 -0.64369511802E+03 -0.14913840744E+03  0.94547223994E+03  0.11534745017E+04  0.50400001928E-02 0.  1.
</event>
<event>
 5   0  0.5371843E-06  0.2402005E+04  0.7818609E-02  0.8438753E-01
        2   -1    0    0  501    0  0.00000000000E+00  0.00000000000E+00  0.14734378760E+04  0.14734378760E+04  0.25500000920E-02 0. -1.
       -2   -1    0    0    0  501  0.00000000000E+00  0.00000000000E+00 -0.97893943339E+03  0.97893943339E+03  0.25500000920E-02 0.  1.
    10030    2    1    2    0    0  0.00000000000E+00  0.00000000000E+00  0.49449844265E+03  0.24523773094E+04  0.24020045292E+04 0.  0.
        4    1    3    3  502    0  0.57074161143E+03  0.39574488262E+03 -0.75311747097E+03  0.10244742735E+04  0.12699999809E+01 0.  1.
       -4    1    3    3    0  502 -0.57074161143E+03 -0.39574488262E+03  0.12476159136E+04  0.14279030359E+04  0.12699999809E+01 0. -1.
</event>
<event>
 5   0  0.2215700E-06  0.2403439E+04  0.7818609E-02  0.8438217E-01
       -1   -1    0    0    0  501  0.00000000000E+00  0.00000000000E+00  0.11587995041E+04  0.11587995041E+04  0.50400001928E-02 0.  1.
        1   -1    0    0  501    0  0.00000000000E+00  0.00000000000E+00 -0.12462296024E+04  0.12462296024E+04  0.50400001928E-02 0. -1.
    10030    2    1    2    0    0  0.00000000000E+00  0.00000000000E+00 -0.87430098346E+02  0.24050291065E+04  0.24034394065E+04 0.  0.
        3    1    3    3  502    0  0.57206293024E+03 -0.92465486041E+03  0.46837301134E+03  0.11838986000E+04  0.10100000352E+00 0. -1.
       -3    1    3    3    0  502 -0.57206293024E+03  0.92465486041E+03 -0.55580310968E+03  0.12211305065E+04  0.10100000352E+00 0.  1.
</event>
<event>
 5   0  0.2297414E-06  0.2398410E+04  0.7818609E-02  0.8440099E-01
        1   -1    0    0  501    0  0.00000000000E+00  0.00000000000E+00  0.23993367446E+04  0.23993367446E+04  0.50400001928E-02 0.  1.
       -1   -1    0    0    0  501  0.00000000000E+00  0.00000000000E+00 -0.59937072916E+03  0.59937072918E+03  0.50400001928E-02 0. -1.
    10030    2    1    2    0    0  0.00000000000E+00  0.00000000000E+00  0.17999660155E+04  0.29987074738E+04  0.23984096516E+04 0.  0.
        1    1    3    3  502    0 -0.10412655140E+03 -0.35284722094E+03  0.23270391707E+04  0.23559403223E+04  0.50400001928E-02 0.  1.
       -1    1    3    3    0  502  0.10412655140E+03  0.35284722094E+03 -0.52707315527E+03  0.64276715151E+03  0.50400001928E-02 0. -1.
</event>
<event>
 5   0  0.1796750E-06  0.2394430E+04  0.7818609E-02  0.8441592E-01
       -3   -1    0    0    0  501  0.00000000000E+00  0.00000000000E+00  0.15987298571E+04  0.15987298602E+04  0.10100000352E+00 0. -1.
        3   -1    0    0  501    0  0.00000000000E+00  0.00000000000E+00 -0.89653896888E+03  0.89653897457E+03  0.10100000352E+00 0.  1.
    10030    2    1    2    0    0  0.00000000000E+00  0.00000000000E+00  0.70219088818E+03  0.24952688348E+04  0.23944298934E+04 0.  0.
        1    1    3    3  502    0  0.50446342884E+03 -0.10663377485E+04  0.13812629524E+03  0.11877030009E+04  0.50400001928E-02 0.  1.
       -1    1    3    3    0  502 -0.50446342884E+03  0.10663377485E+04  0.56406459294E+03  0.13075658339E+04  0.50400001928E-02 0. -1.
</event>
<event>
 5   0  0.2297414E-06  0.2393998E+04  0.7818609E-02  0.8441754E-01
       -1   -1    0    0    0  501  0.00000000000E+00  0.00000000000E+00  0.80930984471E+03  0.80930984472E+03  0.50400001928E-02 0.  1.
        1   -1    0    0  501    0  0.00000000000E+00  0.00000000000E+00 -0.17704059773E+04  0.17704059773E+04  0.50400001928E-02 0. -1.
    10030    2    1    2    0    0  0.00000000000E+00  0.00000000000E+00 -0.96109613255E+03  0.25797158220E+04  0.23939983179E+04 0.  0.
        1    1    3    3  502    0  0.11829546461E+04  0.70600251312E+02 -0.29882097861E+03  0.12221538640E+04  0.50400001928E-02 0.  1.
       -1    1    3    3    0  502 -0.11829546461E+04 -0.70600251312E+02 -0.66227515395E+03  0.13575619580E+04  0.50400001928E-02 0. -1.
</event>
<event>
 5   0  0.2149029E-06  0.2401180E+04  0.7818609E-02  0.8439062E-01
       -1   -1    0    0    0  501  0.00000000000E+00  0.00000000000E+00  0.10002761252E+04  0.10002761252E+04  0.50400001928E-02 0. -1.
        1   -1    0    0  501    0  0.00000000000E+00  0.00000000000E+00 -0.14410181088E+04  0.14410181088E+04  0.50400001928E-02 0.  1.
    10030    2    1    2    0    0  0.00000000000E+00  0.00000000000E+00 -0.44074198358E+03  0.24412942340E+04  0.24011797185E+04 0.  0.
        4    1    3    3  502    0 -0.74689529951E+03 -0.93775164417E+03 -0.28613280671E+03  0.12325195051E+04  0.12699999809E+01 0. -1.
       -4    1    3    3    0  502  0.74689529951E+03  0.93775164417E+03 -0.15460917688E+03  0.12087747288E+04  0.12699999809E+01 0.  1.
</event>
<event>
 5   0  0.2215700E-06  0.2399841E+04  0.7818609E-02  0.8439563E-01
        1   -1    0    0  501    0  0.00000000000E+00  0.00000000000E+00  0.86523038099E+03  0.86523038100E+03  0.50400001928E-02 0. -1.
       -1   -1    0    0    0  501  0.00000000000E+00  0.00000000000E+00 -0.16640763073E+04  0.16640763073E+04  0.50400001928E-02 0.  1.
    10030    2    1    2    0    0  0.00000000000E+00  0.00000000000E+00 -0.79884592629E+03  0.25293066883E+04  0.23998411425E+04 0.  0.
        3    1    3    3  502    0  0.17955257061E+03  0.89409495954E+03 -0.12213428926E+04  0.15242451882E+04  0.10100000352E+00 0.  1.
       -3    1    3    3    0  502 -0.17955257061E+03 -0.89409495954E+03  0.42249696627E+03  0.10050615001E+04  0.10100000352E+00 0. -1.
</event>
<event>
 5   0  0.5371843E-06  0.2399163E+04  0.7818609E-02  0.8439817E-01
       -2   -1    0    0    0  501  0.00000000000E+00  0.00000000000E+00  0.93145549560E+03  0.93145549560E+03  0.25500000920E-02 0.  1.
        2   -1    0    0  501    0  0.00000000000E+00  0.00000000000E+00 -0.15448892695E+04  0.15448892695E+04  0.25500000920E-02 0. -1.
    10030    2    1    2    0    0  0.00000000000E+00  0.00000000000E+00 -0.61343377385E+03  0.24763447651E+04  0.23991628541E+04 0.  0.
        4    1    3    3  502    0  0.83093364505E+03 -0.84563512448E+03 -0.49547852617E+03  0.12849319317E+04  0.12699999809E+01 0. -1.
       -4    1    3    3    0  502 -0.83093364505E+03  0.84563512448E+03 -0.11795524768E+03  0.11914128334E+04  0.12699999809E+01 0.  1.
</event>
<event>
 5   0  0.2254269E-06  0.2435540E+04  0.7818609E-02  0.8426316E-01
       -1   -1    0    0    0  501  0.00000000000E+00  0.00000000000E+00  0.10233444153E+04  0.10233444153E+04  0.50400001928E-02 0. -1.
        1   -1    0    0  501    0  0.00000000000E+00  0.00000000000E+00 -0.14491347458E+04  0.14491347458E+04  0.50400001928E-02 0.  1.
    10030    2    1    2    0    0  0.00000000000E+00  0.00000000000E+00 -0.42579033050E+03  0.24724791612E+04  0.24355401448E+04 0.  0.
        2    1    3    3  502    0 -0.27580370619E+03  0.82443994844E+03 -0.10785859618E+04  0.13853218362E+04  0.25500000920E-02 0.  1.
       -2    1    3    3    0  502  0.27580370619E+03 -0.82443994844E+03  0.65279563131E+03  0.10871573249E+04  0.25500000920E-02 0. -1.
</event>
<event>
 5   0  0.2215700E-06  0.2407134E+04  0.7818609E-02  0.8436838E-01
       -1   -1    0    0    0  501  0.00000000000E+00  0.00000000000E+00  0.10233467922E+04  0.10233467922E+04  0.50400001928E-02 0.  1.
        1   -1    0    0  501    0  0.00000000000E+00  0.00000000000E+00 -0.14155252855E+04  0.14155252855E+04  0.50400001928E-02 0. -1.
    10030    2    1    2    0    0  0.00000000000E+00  0.00000000000E+00 -0.39217849332E+03  0.24388720777E+04  0.24071337812E+04 0.  0.
        3    1    3    3  502    0 -0.71978170867E+03  0.26043919844E+03 -0.11371298534E+04  0.13707584024E+04  0.10100000352E+00 0. -1.
       -3    1    3    3    0  502  0.71978170867E+03 -0.26043919844E+03  0.74495136004E+03  0.10681136752E+04  0.10100000352E+00 0.  1.
</event>
<event>
 5   0  0.5379778E-06  0.2399071E+04  0.7818609E-02  0.8439852E-01
        2   -1    0    0  501    0  0.00000000000E+00  0.00000000000E+00  0.17884635965E+04  0.17884635965E+04  0.25500000920E-02 0.  1.
       -2   -1    0    0    0  501  0.00000000000E+00  0.00000000000E+00 -0.80453693715E+03  0.80453693715E+03  0.25500000920E-02 0. -1.
    10030    2    1    2    0    0  0.00000000000E+00  0.00000000000E+00  0.98392665931E+03  0.25930005336E+04  0.23990706735E+04 0.  0.
        5    1    3    3  502    0  0.10832192325E+04  0.51144211693E+03  0.42424065138E+03  0.12708025673E+04  0.46999998093E+01 0. -1.
       -5    1    3    3    0  502 -0.10832192325E+04 -0.51144211693E+03  0.55968600793E+03  0.13221979663E+04  0.46999998093E+01 0.  1.
</event>
<event>
 5   0  0.2254269E-06  0.2391276E+04  0.7818609E-02  0.8442777E-01
        1   -1    0    0  501    0  0.00000000000E+00  0.00000000000E+00  0.10133302323E+04  0.10133302323E+04  0.50400001928E-02 0. -1.
       -1   -1    0    0    0  501  0.00000000000E+00  0.00000000000E+00 -0.14107444422E+04  0.14107444422E+04  0.50400001928E-02 0.  1.
    10030    2    1    2    0    0  0.00000000000E+00  0.00000000000E+00 -0.39741420986E+03  0.24240746745E+04  0.23912758046E+04 0.  0.
        2    1    3    3  502    0  0.86645503043E+03 -0.67769021754E+03  0.27627230040E+03  0.11341669783E+04  0.25500000920E-02 0. -1.
       -2    1    3    3    0  502 -0.86645503043E+03  0.67769021754E+03 -0.67368651025E+03  0.12899076962E+04  0.25500000920E-02 0.  1.
</event>
<event>
 5   0  0.2149417E-06  0.2399432E+04  0.7818609E-02  0.8439716E-01
       -1   -1    0    0    0  501  0.00000000000E+00  0.00000000000E+00  0.11085356100E+04  0.11085356100E+04  0.50400001928E-02 0. -1.
        1   -1    0    0  501    0  0.00000000000E+00  0.00000000000E+00 -0.12983959490E+04  0.12983959490E+04  0.50400001928E-02 0.  1.
    10030    2    1    2    0    0  0.00000000000E+00  0.00000000000E+00 -0.18986033906E+03  0.24069315590E+04  0.23994317205E+04 0.  0.
        5    1    3    3  502    0  0.94728292326E+03 -0.73341362049E+03 -0.15881265823E+03  0.12085048721E+04  0.46999998093E+01 0. -1.
       -5    1    3    3    0  502 -0.94728292326E+03  0.73341362049E+03 -0.31047680826E+02  0.11984266869E+04  0.46999998093E+01 0.  1.
</event>
<event>
 5   0  0.2149417E-06  0.2396359E+04  0.7818609E-02  0.8440868E-01
       -1   -1    0    0    0  501  0.00000000000E+00  0.00000000000E+00  0.10947074188E+04  0.10947074188E+04  0.50400001928E-02 0.  1.
        1   -1    0    0  501    0  0.00000000000E+00  0.00000000000E+00 -0.13114313937E+04  0.13114313937E+04  0.50400001928E-02 0. -1.
    10030    2    1    2    0    0  0.00000000000E+00  0.00000000000E+00 -0.21672397488E+03  0.24061388126E+04  0.23963586343E+04 0.  0.
        5    1    3    3  502    0 -0.78360649413E+03  0.14910561552E+03 -0.10060690204E+04  0.12839270174E+04  0.46999998093E+01 0. -1.
       -5    1    3    3    0  502  0.78360649413E+03 -0.14910561552E+03  0.78934504553E+03  0.11222117951E+04  0.46999998093E+01 0.  1.
</event>
<event>
 5   0  0.5268358E-06  0.2397110E+04  0.7818609E-02  0.8440586E-01
       -2   -1    0    0    0  501  0.00000000000E+00  0.00000000000E+00  0.74418110572E+03  0.74418110572E+03  0.25500000920E-02 0. -1.
        2   -1    0    0  501    0  0.00000000000E+00  0.00000000000E+00 -0.19303555187E+04  0.19303555187E+04  0.25500000920E-02 0.  1.
    10030    2    1    2    0    0  0.00000000000E+00  0.00000000000E+00 -0.11861744130E+04  0.26745366244E+04  0.23971100136E+04 0.  0.
        2    1    3    3  502    0 -0.98505074747E+03  0.12948049662E+03  0.15490718771E+03  0.10055279265E+04  0.25500000920E-02 0. -1.
       -2    1    3    3    0  502  0.98505074747E+03 -0.12948049662E+03 -0.13410816007E+04  0.16690086980E+04  0.25500000920E-02 0.  1.
</event>
<event>
 5   0  0.5268358E-06  0.2401671E+04  0.7818609E-02  0.8438878E-01
       -2   -1    0    0    0  501  0.00000000000E+00  0.00000000000E+00  0.12346467178E+04  0.12346467178E+04  0.25500000920E-02 0.  1.
        2   -1    0    0  501    0  0.00000000000E+00  0.00000000000E+00 -0.11679503621E+04  0.11679503621E+04  0.25500000920E-02 0. -1.
    10030    2    1    2    0    0  0.00000000000E+00  0.00000000000E+00  0.66696355746E+02  0.24025970799E+04  0.24016711524E+04 0.  0.
        2    1    3    3  502    0 -0.70401441941E+03  0.70078273811E+03 -0.64165141269E+03  0.11825604780E+04  0.25500000920E-02 0. -1.
       -2    1    3    3    0  502  0.70401441941E+03 -0.70078273811E+03  0.70834776843E+03  0.12200366018E+04  0.25500000920E-02 0.  1.
</event>
<event>
 5   0  0.5379778E-06  0.2401988E+04  0.7818609E-02  0.8438760E-01
       -2   -1    0    0    0  501  0.00000000000E+00  0.00000000000E+00  0.99905166951E+03  0.99905166951E+03  0.25500000920E-02 0. -1.
        2   -1    0    0  501    0  0.00000000000E+00  0.00000000000E+00 -0.14437554837E+04  0.14437554837E+04  0.25500000920E-02 0.  1.
    10030    2    1    2    0    0  0.00000000000E+00  0.00000000000E+00 -0.44470381417E+03  0.24428071532E+04  0.24019877821E+04 0.  0.
        5    1    3    3  502    0 -0.57627567300E+03 -0.98619547760E+03 -0.59972255238E+03  0.12901024770E+04  0.46999998093E+01 0.  1.
       -5    1    3    3    0  502  0.57627567300E+03  0.98619547760E+03  0.15501873820E+03  0.11527046762E+04  0.46999998093E+01 0. -1.
</event>
<event>
 5   0  0.5371843E-06  0.2403668E+04  0.7818609E-02  0.8438131E-01
       -2   -1    0    0    0  501  0.00000000000E+00  0.00000000000E+00  0.18196830025E+04  0.18196830025E+04  0.25500000920E-02 0. -1.
        2   -1    0    0  501    0  0.00000000000E+00  0.00000000000E+00 -0.79376760551E+03  0.79376760552E+03  0.25500000920E-02 0.  1.
    10030    2    1    2    0    0  0.00000000000E+00  0.00000000000E+00  0.10259153970E+04  0.26134506080E+04  0.24036683795E+04 0.  0.
        4    1    3    3  502    0 -0.81591260514E+03 -0.68694658675E+03  0.11151895951E+04  0.15431326703E+04  0.12699999809E+01 0. -1.
       -4    1    3    3    0  502  0.81591260514E+03  0.68694658675E+03 -0.89274198174E+02  0.10703179376E+04  0.12699999809E+01 0.  1.
</event>
<event>
 5   0  0.2297414E-06  0.2409428E+04  0.7818609E-02  0.8435982E-01
        1   -1    0    0  501    0  0.00000000000E+00  0.00000000000E+00  0.12133460338E+04  0.12133460338E+04  0.50400001928E-02 0.  1.
       -1   -1    0    0    0  501  0.00000000000E+00  0.00000000000E+00 -0.11961438390E+04  0.11961438390E+04  0.50400001928E-02 0. -1.
    10030    2    1    2    0    0  0.00000000000E+00  0.00000000000E+00  0.17202194828E+02  0.24094898728E+04  0.24094284657E+04 0.  0.
        1    1    3    3  502    0  0.67186858954E+03  0.77352421496E+03 -0.62512576829E+03  0.12002205376E+04  0.50400001928E-02 0. -1.
       -1    1    3    3    0  502 -0.67186858954E+03 -0.77352421496E+03  0.64232796312E+03  0.12092693352E+04  0.50400001928E-02 0.  1.
</event>
<event>
 5   0  0.5371843E-06  0.2400184E+04  0.7818609E-02  0.8439435E-01
       -2   -1    0    0    0  501  0.00000000000E+00  0.00000000000E+00  0.85398170840E+03  0.85398170841E+03  0.25500000920E-02 0.  1.
        2   -1    0    0  501    0  0.00000000000E+00  0.00000000000E+00 -0.16864768462E+04  0.16864768462E+04  0.25500000920E-02 0. -1.
    10030    2    1    2    0    0  0.00000000000E+00  0.00000000000E+00 -0.83249513781E+03  0.25404585546E+04  0.24001836416E+04 0.  0.
        4    1    3    3  502    0  0.10731196253E+03  0.82917190032E+03  0.49498360934E+03  0.97162352997E+03  0.12699999809E+01 0.  1.
       -4    1    3    3    0  502 -0.10731196253E+03 -0.82917190032E+03 -0.13274787472E+04  0.15688350247E+04  0.12699999809E+01 0. -1.
</event>
<event>
 5   0  0.2149029E-06  0.2399406E+04  0.7818609E-02  0.8439726E-01
        1   -1    0    0  501    0  0.00000000000E+00  0.00000000000E+00  0.16391770704E+04  0.16391770704E+04  0.50400001928E-02 0. -1.
       -1   -1    0    0    0  501  0.00000000000E+00  0.00000000000E+00 -0.87805475838E+03  0.87805475840E+03  0.50400001928E-02 0.  1.
    10030    2    1    2    0    0  0.00000000000E+00  0.00000000000E+00  0.76112231204E+03  0.25172318288E+04  0.23994059486E+04 0.  0.
        4    1    3    3  502    0  0.49839117302E+02 -0.45817247660E+03  0.15425995196E+04  0.16099754181E+04  0.12699999809E+01 0. -1.
       -4    1    3    3    0  502 -0.49839117302E+02  0.45817247660E+03 -0.78147720761E+03  0.90725641074E+03  0.12699999809E+01 0.  1.
</event>
<event>
 5   0  0.5349036E-06  0.2414621E+04  0.7818609E-02  0.8434050E-01
       -2   -1    0    0    0  501  0.00000000000E+00  0.00000000000E+00  0.55290166744E+03  0.55290166744E+03  0.25500000920E-02 0.  1.
        2   -1    0    0  501    0  0.00000000000E+00  0.00000000000E+00 -0.26362707683E+04  0.26362707683E+04  0.25500000920E-02 0. -1.
    10030    2    1    2    0    0  0.00000000000E+00  0.00000000000E+00 -0.20833691008E+04  0.31891724357E+04  0.24146208842E+04 0.  0.
        1    1    3    3  502    0 -0.12502496725E+02  0.10924937215E+04 -0.17201823824E+04  0.20378239062E+04  0.50400001928E-02 0.  1.
       -1    1    3    3    0  502  0.12502496725E+02 -0.10924937215E+04 -0.36318671840E+03  0.11513485295E+04  0.50400001928E-02 0. -1.
</event>
<event>
 5   0  0.2215700E-06  0.2400947E+04  0.7818609E-02  0.8439149E-01
       -1   -1    0    0    0  501  0.00000000000E+00  0.00000000000E+00  0.91536219435E+03  0.91536219436E+03  0.50400001928E-02 0.  1.
        1   -1    0    0  501    0  0.00000000000E+00  0.00000000000E+00 -0.15743891646E+04  0.15743891646E+04  0.50400001928E-02 0. -1.
    10030    2    1    2    0    0  0.00000000000E+00  0.00000000000E+00 -0.65902697026E+03  0.24897513590E+04  0.24009467470E+04 0.  0.
        3    1    3    3  502    0 -0.11590982386E+04  0.20224477407E+03 -0.57649207423E+03  0.13102498988E+04  0.10100000352E+00 0.  1.
       -3    1    3    3    0  502  0.11590982386E+04 -0.20224477407E+03 -0.82534896033E+02  0.11795014602E+04  0.10100000352E+00 0. -1.
</event>
<event>
 5   0  0.5440503E-06  0.2399967E+04  0.7818609E-02  0.8439516E-01
        2   -1    0    0  501    0  0.00000000000E+00  0.00000000000E+00  0.13952593746E+04  0.13952593746E+04  0.25500000920E-02 0. -1.
       -2   -1    0    0    0  501  0.00000000000E+00  0.00000000000E+00 -0.10320381703E+04  0.10320381703E+04  0.25500000920E-02 0.  1.
    10030    2    1    2    0    0  0.00000000000E+00  0.00000000000E+00  0.36322120432E+03  0.24272975450E+04  0.23999674432E+04 0.  0.
        3    1    3    3  502    0  0.64495863612E+03  0.37749404761E+03 -0.76795669933E+03  0.10715553651E+04  0.10100000352E+00 0.  1.
       -3    1    3    3    0  502 -0.64495863612E+03 -0.37749404761E+03  0.11311779036E+04  0.13557421798E+04  0.10100000352E+00 0. -1.
</event>
<event>
 5   0  0.2149417E-06  0.2401195E+04  0.7818609E-02  0.8439056E-01
       -1   -1    0    0    0  501  0.00000000000E+00  0.00000000000E+00  0.94473821401E+03  0.94473821402E+03  0.50400001928E-02 0.  1.
        1   -1    0    0  501    0  0.00000000000E+00  0.00000000000E+00 -0.15257504290E+04  0.15257504291E+04  0.50400001928E-02 0. -1.
    10030    2    1    2    0    0  0.00000000000E+00  0.00000000000E+00 -0.58101221504E+03  0.24704886431E+04  0.24011953152E+04 0.  0.
        5    1    3    3  502    0  0.29820002651E+03  0.11621931511E+04 -0.24689819852E+03  0.12249885659E+04  0.46999998093E+01 0.  1.
       -5    1    3    3    0  502 -0.29820002651E+03 -0.11621931511E+04 -0.33411401652E+03  0.12455000772E+04  0.46999998093E+01 0. -1.
</event>
<event>
 5   0  0.5349036E-06  0.2402089E+04  0.7818609E-02  0.8438722E-01
       -2   -1    0    0    0  501  0.00000000000E+00  0.00000000000E+00  0.63372788382E+03  0.63372788383E+03  0.25500000920E-02 0. -1.
        2   -1    0    0  501    0  0.00000000000E+00  0.00000000000E+00 -0.22762269465E+04  0.22762269465E+04  0.25500000920E-02 0.  1.
    10030    2    1    2    0    0  0.00000000000E+00  0.00000000000E+00 -0.16424990627E+04  0.29099548304E+04  0.24020894954E+04 0.  0.
        1    1    3    3  502    0 -0.77330539426E+03 -0.90001240661E+03 -0.10462128354E+04  0.15819560240E+04  0.50400001928E-02 0. -1.
       -1    1    3    3    0  502  0.77330539426E+03  0.90001240661E+03 -0.59628622728E+03  0.13279988064E+04  0.50400001928E-02 0.  1.
</event>
<event>
 5   0  0.5440503E-06  0.2400846E+04  0.7818609E-02  0.8439187E-01
       -2   -1    0    0    0  501  0.00000000000E+00  0.00000000000E+00  0.92184238108E+03  0.92184238108E+03  0.25500000920E-02 0.  1.
        2   -1    0    0  501    0  0.00000000000E+00  0.00000000000E+00 -0.15631909757E+04  0.15631909757E+04  0.25500000920E-02 0. -1.
    10030    2    1    2    0    0  0.00000000000E+00  0.00000000000E+00 -0.64134859466E+03  0.24850333568E+04  0.24008462601E+04 0.  0.
        3    1    3    3  502    0 -0.21709971718E+02 -0.11336981702E+04  0.87189903534E+02  0.11372532495E+04  0.10100000352E+00 0.  1.
       -3    1    3    3    0  502  0.21709971718E+02  0.11336981702E+04 -0.72853849819E+03  0.13477801073E+04  0.10100000352E+00 0. -1.
</event>
<event>
 5   0  0.1796750E-06  0.2400986E+04  0.7818609E-02  0.8439134E-01
       -3   -1    0    0    0  501  0.00000000000E+00  0.00000000000E+00  0.84976376194E+03  0.84976376794E+03  0.10100000352E+00 0.  1.
        3   -1    0    0  501    0  0.00000000000E+00  0.00000000000E+00 -0.16959818360E+04  0.16959818390E+04  0.10100000352E+00 0. -1.
    10030    2    1    2    0    0  0.00000000000E+00  0.00000000000E+00 -0.84621807406E+03  0.25457456069E+04  0.24009863945E+04 0.  0.
        1    1    3    3  502    0  0.31356916817E+03 -0.11588123969E+04 -0.42680063403E+03  0.12740999081E+04  0.50400001928E-02 0.  1.
       -1    1    3    3    0  502 -0.31356916817E+03  0.11588123969E+04 -0.41941744003E+03  0.12716456989E+04  0.50400001928E-02 0. -1.
</event>
<event>
 5   0  0.2149029E-06  0.2400600E+04  0.7818609E-02  0.8439279E-01
        1   -1    0    0  501    0  0.00000000000E+00  0.00000000000E+00  0.21181242920E+04  0.21181242921E+04  0.50400001928E-02 0. -1.
       -1   -1    0    0    0  501  0.00000000000E+00  0.00000000000E+00 -0.68018670461E+03  0.68018670463E+03  0.50400001928E-02 0.  1.
    10030    2    1    2    0    0  0.00000000000E+00  0.00000000000E+00  0.14379375874E+04  0.27983109967E+04  0.24005999102E+04 0.  0.
        4    1    3    3  502    0 -0.48841799032E+03  0.10948981393E+04  0.65135682369E+03  0.13644124719E+04  0.12699999809E+01 0. -1.
       -4    1    3    3    0  502  0.48841799032E+03 -0.10948981393E+04  0.78658076375E+03  0.14338985248E+04  0.12699999809E+01 0.  1.
</event>
<event>
 5   0  0.2149029E-06  0.2397314E+04  0.7818609E-02  0.8440510E-01
       -1   -1    0    0    0  501  0.00000000000E+00  0.00000000000E+00  0.79621055720E+03  0.79621055722E+03  0.50400001928E-02 0.  1.
        1   -1    0    0  501    0  0.00000000000E+00  0.00000000000E+00 -0.18045205776E+04  0.18045205776E+04  0.50400001928E-02 0. -1.
    10030    2    1    2    0    0  0.00000000000E+00  0.00000000000E+00 -0.10083100204E+04  0.26007311348E+04  0.23973137755E+04 0.  0.
        4    1    3    3  502    0 -0.58699006624E+03  0.71183269491E+03 -0.13342715533E+04  0.16222038448E+04  0.12699999809E+01 0. -1.
       -4    1    3    3    0  502  0.58699006624E+03 -0.71183269491E+03  0.32596153289E+03  0.97852728998E+03  0.12699999809E+01 0.  1.
</event>
<event>
 5   0  0.5371843E-06  0.2391891E+04  0.7818609E-02  0.8442546E-01
       -2   -1    0    0    0  501  0.00000000000E+00  0.00000000000E+00  0.78517813278E+03  0.78517813278E+03  0.25500000920E-02 0.  1.
        2   -1    0    0  501    0  0.00000000000E+00  0.00000000000E+00 -0.18216071684E+04  0.18216071684E+04  0.25500000920E-02 0. -1.
    10030    2    1    2    0    0  0.00000000000E+00  0.00000000000E+00 -0.10364290357E+04  0.26067853012E+04  0.23918913982E+04 0.  0.
        4    1    3    3  502    0 -0.10534527501E+04 -0.56544308749E+03 -0.54896122635E+03  0.13156172022E+04  0.12699999809E+01 0.  1.
       -4    1    3    3    0  502  0.10534527501E+04  0.56544308749E+03 -0.48746780932E+03  0.12911680990E+04  0.12699999809E+01 0. -1.
</event>
<event>
 5   0  0.5349036E-06  0.2397735E+04  0.7818609E-02  0.8440352E-01
        2   -1    0    0  501    0  0.00000000000E+00  0.00000000000E+00  0.23883502930E+04  0.23883502930E+04  0.25500000920E-02 0. -1.
       -2   -1    0    0    0  501  0.00000000000E+00  0.00000000000E+00 -0.60178913335E+03  0.60178913336E+03  0.25500000920E-02 0.  1.
    10030    2    1    2    0    0  0.00000000000E+00  0.00000000000E+00  0.17865611597E+04  0.29901394264E+04  0.23977349753E+04 0.  0.
        1    1    3    3  502    0 -0.35427900347E+03  0.89162447946E+03  0.17897617849E+04  0.20307030978E+04  0.50400001928E-02 0. -1.
       -1    1    3    3    0  502  0.35427900347E+03 -0.89162447946E+03 -0.32006251793E+01  0.95943632863E+03  0.50400001928E-02 0.  1.
</event>
<event>
 5   0  0.2297414E-06  0.2401257E+04  0.7818609E-02  0.8439033E-01
       -1   -1    0    0    0  501  0.00000000000E+00  0.00000000000E+00  0.11299359093E+04  0.11299359093E+04  0.50400001928E-02 0. -1.
        1   -1    0    0  501    0  0.00000000000E+00  0.00000000000E+00 -0.12757443739E+04  0.12757443739E+04  0.50400001928E-02 0.  1.
    10030    2    1    2    0    0  0.00000000000E+00  0.00000000000E+00 -0.14580846456E+03  0.24056802832E+04  0.24012574865E+04 0.  0.
        1    1    3    3  502    0 -0.75167450230E+03 -0.80998052029E+03  0.39745639359E+03  0.11743315484E+04  0.50400001928E-02 0. -1.
       -1    1    3    3    0  502  0.75167450230E+03  0.80998052029E+03 -0.54326485815E+03  0.12313487348E+04  0.50400001928E-02 0.  1.
</event>
<event>
 5   0  0.5379778E-06  0.2390926E+04  0.7818609E-02  0.8442909E-01
       -2   -1    0    0    0  501  0.00000000000E+00  0.00000000000E+00  0.52169398238E+03  0.52169398239E+03  0.25500000920E-02 0.  1.
        2   -1    0    0  501    0  0.00000000000E+00  0.00000000000E+00 -0.27394054827E+04  0.27394054827E+04  0.25500000920E-02 0. -1.
    10030    2    1    2    0    0  0.00000000000E+00  0.00000000000E+00 -0.22177115003E+04  0.32610994651E+04  0.23909256414E+04 0.  0.
        5    1    3    3  502    0  0.74861239488E+03 -0.52938709519E+03 -0.21551367768E+04  0.23420734043E+04  0.46999998093E+01 0. -1.
       -5    1    3    3    0  502 -0.74861239488E+03  0.52938709519E+03 -0.62574723445E+02  0.91902606074E+03  0.46999998093E+01 0.  1.
</event>
<event>
 5   0  0.2149029E-06  0.2394047E+04  0.7818609E-02  0.8441736E-01
       -1   -1    0    0    0  501  0.00000000000E+00  0.00000000000E+00  0.64797480278E+03  0.64797480280E+03  0.50400001928E-02 0. -1.
        1   -1    0    0  501    0  0.00000000000E+00  0.00000000000E+00 -0.22112981621E+04  0.22112981621E+04  0.50400001928E-02 0.  1.
    10030    2    1    2    0    0  0.00000000000E+00  0.00000000000E+00 -0.15633233593E+04  0.28592729649E+04  0.23940471929E+04 0.  0.
        4    1    3    3  502    0 -0.50035537540E+03  0.35061557602E+03  0.44772694744E+03  0.75746142886E+03  0.12699999809E+01 0. -1.
       -4    1    3    3    0  502  0.50035537540E+03 -0.35061557602E+03 -0.20110503067E+04  0.21018115360E+04  0.12699999809E+01 0.  1.
</event>
<event>
 5   0  0.2149417E-06  0.2398360E+04  0.7818609E-02  0.8440118E-01
       -1   -1    0    0    0  501  0.00000000000E+00  0.00000000000E+00  0.88860785570E+03  0.88860785572E+03  0.50400001928E-02 0.  1.
        1   -1    0    0  501    0  0.00000000000E+00  0.00000000000E+00 -0.16182990370E+04  0.16182990370E+04  0.50400001928E-02 0. -1.
    10030    2    1    2    0    0  0.00000000000E+00  0.00000000000E+00 -0.72969118131E+03  0.25069068927E+04  0.23983604710E+04 0.  0.
        5    1    3    3  502    0 -0.61864071764E+03  0.94848256314E+03  0.47569048432E+02  0.11334109645E+04  0.46999998093E+01 0. -1.
       -5    1    3    3    0  502  0.61864071764E+03 -0.94848256314E+03 -0.77726022975E+03  0.13734959282E+04  0.46999998093E+01 0.  1.
</event>
<event>
 5   0  0.2254269E-06  0.2426139E+04  0.7818609E-02  0.8429782E-01
        1   -1    0    0  501    0  0.00000000000E+00  0.00000000000E+00  0.17365312359E+04  0.17365312359E+04  0.50400001928E-02 0.  1.
       -1   -1    0    0    0  501  0.00000000000E+00  0.00000000000E+00 -0.84740040158E+03  0.84740040159E+03  0.50400001928E-02 0. -1.
    10030    2    1    2    0    0  0.00000000000E+00  0.00000000000E+00  0.88913083436E+03  0.25839316375E+04  0.24261387155E+04 0.  0.
        2    1    3    3  502    0  0.73143691486E+03 -0.84356956111E+03 -0.60545626792E+02  0.11181571168E+04  0.25500000920E-02 0. -1.
       -2    1    3    3    0  502 -0.73143691486E+03  0.84356956111E+03  0.94967646115E+03  0.14657745208E+04  0.25500000920E-02 0.  1.
</event>
<event>
 5   0  0.5371843E-06  0.2398465E+04  0.7818609E-02  0.8440079E-01
        2   -1    0    0  501    0  0.00000000000E+00  0.00000000000E+00  0.14681847225E+04  0.14681847225E+04  0.25500000920E-02 0. -1.
       -2   -1    0    0    0  501  0.00000000000E+00  0.00000000000E+00 -0.97954855812E+03  0.97954855812E+03  0.25500000920E-02 0.  1.
    10030    2    1    2    0    0  0.00000000000E+00  0.00000000000E+00  0.48863616435E+03  0.24477332806E+04  0.23984646989E+04 0.  0.
        4    1    3    3  502    0 -0.29200804202E+03  0.40209890940E+03  0.13581608871E+04  0.14462208813E+04  0.12699999809E+01 0. -1.
       -4    1    3    3    0  502  0.29200804202E+03 -0.40209890940E+03 -0.86952472272E+03  0.10015123993E+04  0.12699999809E+01 0.  1.
</event>
<event>
 5   0  0.2297414E-06  0.2400146E+04  0.7818609E-02  0.8439449E-01
        1   -1    0    0  501    0  0.00000000000E+00  0.00000000000E+00  0.98499584964E+03  0.98499584966E+03  0.50400001928E-02 0. -1.
       -1   -1    0    0    0  501  0.00000000000E+00  0.00000000000E+00 -0.14621126374E+04  0.14621126374E+04  0.50400001928E-02 0.  1.
    10030    2    1    2    0    0  0.00000000000E+00  0.00000000000E+00 -0.47711678778E+03  0.24471084871E+04  0.24001457286E+04 0.  0.
        1    1    3    3  502    0  0.77202187423E+03  0.78182626431E+03 -0.73060340104E+03  0.13194890721E+04  0.50400001928E-02 0.  1.
       -1    1    3    3    0  502 -0.77202187423E+03 -0.78182626431E+03  0.25348661326E+03  0.11276194149E+04  0.50400001928E-02 0. -1.
</event>
<event>
 5   0  0.2215700E-06  0.2398929E+04  0.7818609E-02  0.8439905E-01
        1   -1    0    0  501    0  0.00000000000E+00  0.00000000000E+00  0.13834285597E+04  0.13834285597E+04  0.50400001928E-02 0. -1.
       -1   -1    0    0    0  501  0.00000000000E+00  0.00000000000E+00 -0.10399630593E+04  0.10399630593E+04  0.50400001928E-02 0.  1.
    10030    2    1    2    0    0  0.00000000000E+00  0.00000000000E+00  0.34346550034E+03  0.24233916190E+04  0.23989285919E+04 0.  0.
        3    1    3    3  502    0 -0.84759289065E+03 -0.28810592967E+03 -0.63471609968E+03  0.10973984110E+04  0.10100000352E+00 0.  1.
       -3    1    3    3    0  502  0.84759289065E+03  0.28810592967E+03  0.97818160002E+03  0.13259932081E+04  0.10100000352E+00 0. -1.
</event>
<event>
 5   0  0.5268358E-06  0.2402590E+04  0.7818609E-02  0.8438534E-01
       -2   -1    0    0    0  501  0.00000000000E+00  0.00000000000E+00  0.96529932605E+03  0.96529932606E+03  0.25500000920E-02 0. -1.
        2   -1    0    0  501    0  0.00000000000E+00  0.00000000000E+00 -0.14949872783E+04  0.14949872784E+04  0.25500000920E-02 0.  1.
    10030    2    1    2    0    0  0.00000000000E+00  0.00000000000E+00 -0.52968795230E+03  0.24602866044E+04  0.24025904455E+04 0.  0.
        2    1    3    3  502    0 -0.83953997904E+02  0.11159821656E+04  0.18227130616E+03  0.11338815179E+04  0.25500000920E-02 0. -1.
       -2    1    3    3    0  502  0.83953997904E+02 -0.11159821656E+04 -0.71195925846E+03  0.13264050865E+04  0.25500000920E-02 0.  1.
</event>
<event>
 5   0  0.5371843E-06  0.2396674E+04  0.7818609E-02  0.8440750E-01
        2   -1    0    0  501    0  0.00000000000E+00  0.00000000000E+00  0.13157667143E+04  0.13157667143E+04  0.25500000920E-02 0. -1.
       -2   -1    0    0    0  501  0.00000000000E+00  0.00000000000E+00 -0.10913873621E+04  0.10913873621E+04  0.25500000920E-02 0.  1.
    10030    2    1    2    0    0  0.00000000000E+00  0.00000000000E+00  0.22437935212E+03  0.24071540764E+04  0.23966736644E+04 0.  0.
        4    1    3    3  502    0 -0.10231564136E+04 -0.41679568219E+03  0.57837654199E+03  0.12470319661E+04  0.12699999809E+01 0. -1.
       -4    1    3    3    0  502  0.10231564136E+04  0.41679568219E+03 -0.35399718986E+03  0.11601221103E+04  0.12699999809E+01 0.  1.
</event>
<event>
 5   0  0.2149417E-06  0.2399345E+04  0.7818609E-02  0.8439749E-01
       -1   -1    0    0    0  501  0.00000000000E+00  0.00000000000E+00  0.15780374723E+04  0.15780374723E+04  0.50400001928E-02 0.  1.
        1   -1    0    0  501    0  0.00000000000E+00  0.00000000000E+00 -0.91202773676E+03  0.91202773678E+03  0.50400001928E-02 0. -1.
    10030    2    1    2    0    0  0.00000000000E+00  0.00000000000E+00  0.66600973557E+03  0.24900652091E+04  0.23993448643E+04 0.  0.
        5    1    3    3  502    0  0.38151179969E+03  0.10065127625E+04 -0.21671409765E+03  0.10980010403E+04  0.46999998093E+01 0. -1.
       -5    1    3    3    0  502 -0.38151179969E+03 -0.10065127625E+04  0.88272383322E+03  0.13920641688E+04  0.46999998093E+01 0.  1.
</event>
<event>
 5   0  0.5371843E-06  0.2396510E+04  0.7818609E-02  0.8440811E-01
        2   -1    0    0  501    0  0.00000000000E+00  0.00000000000E+00  0.20205704672E+04  0.20205704672E+04  0.25500000920E-02 0. -1.
       -2   -1    0    0    0  501  0.00000000000E+00  0.00000000000E+00 -0.71059891448E+03  0.71059891448E+03  0.25500000920E-02 0.  1.
    10030    2    1    2    0    0  0.00000000000E+00  0.00000000000E+00  0.13099715528E+04  0.27311693817E+04  0.23965101132E+04 0.  0.
        4    1    3    3  502    0  0.22809277537E+03 -0.11757225212E+04  0.69858826126E+03  0.13864980825E+04  0.12699999809E+01 0. -1.
       -4    1    3    3    0  502 -0.22809277537E+03  0.11757225212E+04  0.61138329151E+03  0.13446712993E+04  0.12699999809E+01 0.  1.
</event>
<event>
 5   0  0.2254269E-06  0.2404494E+04  0.7818609E-02  0.8437823E-01
        1   -1    0    0  501    0  0.00000000000E+00  0.00000000000E+00  0.10430015482E+04  0.10430015482E+04  0.50400001928E-02 0. -1.
       -1   -1    0    0    0  501  0.00000000000E+00  0.00000000000E+00 -0.13858060027E+04  0.13858060027E+04  0.50400001928E-02 0.  1.
    10030    2    1    2    0    0  0.00000000000E+00  0.00000000000E+00 -0.34280445455E+03  0.24288075509E+04  0.24044939645E+04 0.  0.
        2    1    3    3  502    0 -0.10938066005E+04  0.43254608460E+03  0.79887933973E+02  0.11789364176E+04  0.25500000920E-02 0.  1.
       -2    1    3    3    0  502  0.10938066005E+04 -0.43254608460E+03 -0.42269238852E+03  0.12498711333E+04  0.25500000920E-02 0. -1.
</event>
<event>
 5   0  0.5379778E-06  0.2402304E+04  0.7818609E-02  0.8438642E-01
        2   -1    0    0  501    0  0.00000000000E+00  0.00000000000E+00  0.14473480261E+04  0.14473480261E+04  0.25500000920E-02 0.  1.
       -2   -1    0    0    0  501  0.00000000000E+00  0.00000000000E+00 -0.99683424068E+03  0.99683424068E+03  0.25500000920E-02 0. -1.
    10030    2    1    2    0    0  0.00000000000E+00  0.00000000000E+00  0.45051378543E+03  0.24441822668E+04  0.24023039530E+04 0.  0.
        5    1    3    3  502    0  0.42371014386E+03  0.11216037071E+04  0.15175614754E+03  0.12085434126E+04  0.46999998093E+01 0. -1.
       -5    1    3    3    0  502 -0.42371014386E+03 -0.11216037071E+04  0.29875763788E+03  0.12356388542E+04  0.46999998093E+01 0.  1.
</event>
<event>
 5   0  0.2149029E-06  0.2399576E+04  0.7818609E-02  0.8439662E-01
        1   -1    0    0  501    0  0.00000000000E+00  0.00000000000E+00  0.24760118461E+04  0.24760118461E+04  0.50400001928E-02 0. -1.
       -1   -1    0    0    0  501  0.00000000000E+00  0.00000000000E+00 -0.58137517351E+03  0.58137517353E+03  0.50400001928E-02 0.  1.
    10030    2    1    2    0    0  0.00000000000E+00  0.00000000000E+00  0.18946366726E+04  0.30573870197E+04  0.23995764766E+04 0.  0.
        4    1    3    3  502    0 -0.26856738900E+02 -0.88247838529E+02 -0.57684949567E+03  0.58417969751E+03  0.12699999809E+01 0.  1.
       -4    1    3    3    0  502  0.26856738900E+02  0.88247838529E+02  0.24714861683E+04  0.24732073222E+04  0.12699999809E+01 0. -1.
</event>
<event>
 5   0  0.5440503E-06  0.2400195E+04  0.7818609E-02  0.8439430E-01
       -2   -1    0    0    0  501  0.00000000000E+00  0.00000000000E+00  0.96009839397E+03  0.96009839397E+03  0.25500000920E-02 0.  1.
        2   -1    0    0  501    0  0.00000000000E+00  0.00000000000E+00 -0.15000905633E+04  0.15000905633E+04  0.25500000920E-02 0. -1.
    10030    2    1    2    0    0  0.00000000000E+00  0.00000000000E+00 -0.53999216936E+03  0.24601889573E+04  0.24001954426E+04 0.  0.
        3    1    3    3  502    0  0.56574699677E+03 -0.86257649932E+03 -0.89861712118E+03  0.13680718630E+04  0.10100000352E+00 0. -1.
       -3    1    3    3    0  502 -0.56574699677E+03  0.86257649932E+03  0.35862495182E+03  0.10921170944E+04  0.10100000352E+00 0.  1.
</event>
<event>
 5   0  0.2254269E-06  0.2380723E+04  0.7818609E-02  0.8446756E-01
        1   -1    0    0  501    0  0.00000000000E+00  0.00000000000E+00  0.12051364625E+04  0.12051364625E+04  0.50400001928E-02 0.  1.
       -1   -1    0    0    0  501  0.00000000000E+00  0.00000000000E+00 -0.11757678170E+04  0.11757678170E+04  0.50400001928E-02 0. -1.
    10030    2    1    2    0    0  0.00000000000E+00  0.00000000000E+00  0.29368645576E+02  0.23809042795E+04  0.23807231403E+04 0.  0.
        2    1    3    3  502    0  0.32313923119E+03  0.67082089583E+03 -0.91411721139E+03  0.11789952982E+04  0.25500000920E-02 0. -1.
       -2    1    3    3    0  502 -0.32313923119E+03 -0.67082089583E+03  0.94348585697E+03  0.12019089813E+04  0.25500000920E-02 0.  1.
</event>
<event>
 5   0  0.5268358E-06  0.2395057E+04  0.7818609E-02  0.8441356E-01
       -2   -1    0    0    0  501  0.00000000000E+00  0.00000000000E+00  0.10600266779E+04  0.10600266779E+04  0.25500000920E-02 0.  1.
        2   -1    0    0  501    0  0.00000000000E+00  0.00000000000E+00 -0.13528667225E+04  0.13528667225E+04  0.25500000920E-02 0. -1.
    10030    2    1    2    0    0  0.00000000000E+00  0.00000000000E+00 -0.29284004466E+03  0.24128934004E+04  0.23950572582E+04 0.  0.
        2    1    3    3  502    0  0.10260718465E+04 -0.28661200094E+02 -0.76780330840E+03  0.12818606863E+04  0.25500000920E-02 0. -1.
       -2    1    3    3    0  502 -0.10260718465E+04  0.28661200094E+02  0.47496326375E+03  0.11310327142E+04  0.25500000920E-02 0.  1.
</event>
<event>
 5   0  0.5371843E-06  0.2398818E+04  0.7818609E-02  0.8439946E-01
        2   -1    0    0  501    0  0.00000000000E+00  0.00000000000E+00  0.17107495007E+04  0.17107495007E+04  0.25500000920E-02 0.  1.
       -2   -1    0    0    0  501  0.00000000000E+00  0.00000000000E+00 -0.84090771191E+03  0.84090771191E+03  0.25500000920E-02 0. -1.
    10030    2    1    2    0    0  0.00000000000E+00  0.00000000000E+00  0.86984178883E+03  0.25516572126E+04  0.23988184161E+04 0.  0.
        4    1    3    3  502    0  0.17245722524E+03 -0.11707487704E+04  0.22705617651E+03  0.12049690029E+04  0.12699999809E+01 0.  1.
       -4    1    3    3    0  502 -0.17245722524E+03  0.11707487704E+04  0.64278561232E+03  0.13466882097E+04  0.12699999809E+01 0. -1.
</event>
<event>
 5   0  0.5379778E-06  0.2395774E+04  0.7818609E-02  0.8441087E-01
        2   -1    0    0  501    0  0.00000000000E+00  0.00000000000E+00  0.21996197209E+04  0.21996197209E+04  0.25500000920E-02 0. -1.
       -2   -1    0    0    0  501  0.00000000000E+00  0.00000000000E+00 -0.65235523988E+03  0.65235523989E+03  0.25500000920E-02 0.  1.
    10030    2    1    2    0    0  0.00000000000E+00  0.00000000000E+00  0.15472644810E+04  0.28519749608E+04  0.23957741552E+04 0.  0.
        5    1    3    3  502    0  0.53279518795E+03 -0.89997912810E+03  0.78404928667E+02  0.10488100715E+04  0.46999998093E+01 0.  1.
       -5    1    3    3    0  502 -0.53279518795E+03  0.89997912810E+03  0.14688595523E+04  0.18031648892E+04  0.46999998093E+01 0. -1.
</event>
<event>
 5   0  0.2297414E-06  0.2401879E+04  0.7818609E-02  0.8438801E-01
       -1   -1    0    0    0  501  0.00000000000E+00  0.00000000000E+00  0.14495096617E+04  0.14495096617E+04  0.50400001928E-02 0.  1.
        1   -1    0    0  501    0  0.00000000000E+00  0.00000000000E+00 -0.99499539022E+03  0.99499539023E+03  0.50400001928E-02 0. -1.
    10030    2    1    2    0    0  0.00000000000E+00  0.00000000000E+00  0.45451427144E+03  0.24445050519E+04  0.24018787908E+04 0.  0.
        1    1    3    3  502    0  0.30581884183E+03  0.50230901801E+03  0.12929388598E+04  0.14203979755E+04  0.50400001928E-02 0.  1.
       -1    1    3    3    0  502 -0.30581884183E+03 -0.50230901801E+03 -0.83842458835E+03  0.10241070764E+04  0.50400001928E-02 0. -1.
</event>
<event>
 5   0  0.2254269E-06  0.2401075E+04  0.7818609E-02  0.8439101E-01
       -1   -1    0    0    0  501  0.00000000000E+00  0.00000000000E+00  0.62366219663E+03  0.62366219665E+03  0.50400001928E-02 0.  1.
        1   -1    0    0  501    0  0.00000000000E+00  0.00000000000E+00 -0.23110107975E+04  0.23110107975E+04  0.50400001928E-02 0. -1.
    10030    2    1    2    0    0  0.00000000000E+00  0.00000000000E+00 -0.16873486009E+04  0.29346729942E+04  0.24010748180E+04 0.  0.
        2    1    3    3  502    0  0.23021457593E+03  0.36749808334E+03 -0.22119403036E+04  0.22540482468E+04  0.25500000920E-02 0. -1.
       -2    1    3    3    0  502 -0.23021457593E+03 -0.36749808334E+03  0.52459170269E+03  0.68062474740E+03  0.25500000920E-02 0.  1.
</event>
<event>
 5   0  0.5379778E-06  0.2404873E+04  0.7818609E-02  0.8437682E-01
       -2   -1    0    0    0  501  0.00000000000E+00  0.00000000000E+00  0.91156368784E+03  0.91156368785E+03  0.25500000920E-02 0. -1.
        2   -1    0    0  501    0  0.00000000000E+00  0.00000000000E+00 -0.15861239614E+04  0.15861239614E+04  0.25500000920E-02 0.  1.
    10030    2    1    2    0    0  0.00000000000E+00  0.00000000000E+00 -0.67456027356E+03  0.24976876493E+04  0.24048725601E+04 0.  0.
        5    1    3    3  502    0 -0.25386045845E+03  0.59748362455E+03 -0.13884687654E+04  0.15327424494E+04  0.46999998093E+01 0.  1.
       -5    1    3    3    0  502  0.25386045845E+03 -0.59748362455E+03  0.71390849180E+03  0.96494519980E+03  0.46999998093E+01 0. -1.
</event>
<event>
 5   0  0.2215700E-06  0.2406536E+04  0.7818609E-02  0.8437061E-01
       -1   -1    0    0    0  501  0.00000000000E+00  0.00000000000E+00  0.88665065829E+03  0.88665065831E+03  0.50400001928E-02 0.  1.
        1   -1    0    0  501    0  0.00000000000E+00  0.00000000000E+00 -0.16329472216E+04  0.16329472216E+04  0.50400001928E-02 0. -1.
    10030    2    1    2    0    0  0.00000000000E+00  0.00000000000E+00 -0.74629656328E+03  0.25195978799E+04  0.24065358746E+04 0.  0.
        3    1    3    3  502    0  0.18115237240E+03  0.11362189726E+04 -0.44027676479E+01  0.11505777376E+04  0.10100000352E+00 0. -1.
       -3    1    3    3    0  502 -0.18115237240E+03 -0.11362189726E+04 -0.74189379563E+03  0.13690201423E+04  0.10100000352E+00 0.  1.
</event>
<event>
 5   0  0.5349036E-06  0.2398483E+04  0.7818609E-02  0.8440072E-01
       -2   -1    0    0    0  501  0.00000000000E+00  0.00000000000E+00  0.92929287934E+03  0.92929287934E+03  0.25500000920E-02 0. -1.
        2   -1    0    0  501    0  0.00000000000E+00  0.00000000000E+00 -0.15476071010E+04  0.15476071010E+04  0.25500000920E-02 0.  1.
    10030    2    1    2    0    0  0.00000000000E+00  0.00000000000E+00 -0.61831422169E+03  0.24768999804E+04  0.23984830698E+04 0.  0.
        1    1    3    3  502    0  0.69463172003E+03  0.48131493257E+03 -0.11878598613E+04  0.14578025727E+04  0.50400001928E-02 0.  1.
       -1    1    3    3    0  502 -0.69463172003E+03 -0.48131493257E+03  0.56954563960E+03  0.10190974077E+04  0.50400001928E-02 0. -1.
</event>
<event>
 5   0  0.2297414E-06  0.2405545E+04  0.7818609E-02  0.8437431E-01
       -1   -1    0    0    0  501  0.00000000000E+00  0.00000000000E+00  0.19775336854E+04  0.19775336854E+04  0.50400001928E-02 0.  1.
        1   -1    0    0  501    0  0.00000000000E+00  0.00000000000E+00 -0.73154827669E+03  0.73154827670E+03  0.50400001928E-02 0. -1.
    10030    2    1    2    0    0  0.00000000000E+00  0.00000000000E+00  0.12459854087E+04  0.27090819621E+04  0.24055447281E+04 0.  0.
        1    1    3    3  502    0 -0.24074976825E+03 -0.52028352935E+03 -0.56778519909E+03  0.80686766830E+03  0.50400001928E-02 0. -1.
       -1    1    3    3    0  502  0.24074976825E+03  0.52028352935E+03  0.18137706078E+04  0.19022142938E+04  0.50400001928E-02 0.  1.
</event>
<event>
 5   0  0.5349036E-06  0.2403804E+04  0.7818609E-02  0.8438081E-01
       -2   -1    0    0    0  501  0.00000000000E+00  0.00000000000E+00  0.16482935097E+04  0.16482935097E+04  0.25500000920E-02 0. -1.
        2   -1    0    0  501    0  0.00000000000E+00  0.00000000000E+00 -0.87640210083E+03  0.87640210084E+03  0.25500000920E-02 0.  1.
    10030    2    1    2    0    0  0.00000000000E+00  0.00000000000E+00  0.77189140887E+03  0.25246956105E+04  0.24038035649E+04 0.  0.
        1    1    3    3  502    0 -0.79605883951E+03  0.58196154697E+03  0.11076567853E+04  0.14830011706E+04  0.50400001928E-02 0.  1.
       -1    1    3    3    0  502  0.79605883951E+03 -0.58196154697E+03 -0.33576537641E+03  0.10416944399E+04  0.50400001928E-02 0. -1.
</event>
<event>
 5   0  0.5349036E-06  0.2400186E+04  0.7818609E-02  0.8439434E-01
        2   -1    0    0  501    0  0.00000000000E+00  0.00000000000E+00  0.19212933245E+04  0.19212933245E+04  0.25500000920E-02 0.  1.
       -2   -1    0    0    0  501  0.00000000000E+00  0.00000000000E+00 -0.74961141177E+03  0.74961141178E+03  0.25500000920E-02 0. -1.
    10030    2    1    2    0    0  0.00000000000E+00  0.00000000000E+00  0.11716819127E+04  0.26709047363E+04  0.24001861606E+04 0.  0.
        1    1    3    3  502    0  0.90758727923E+03  0.35428422561E+03 -0.19390013604E+03  0.99339279477E+03  0.50400001928E-02 0. -1.
       -1    1    3    3    0  502 -0.90758727923E+03 -0.35428422561E+03  0.13655820487E+04  0.16775119415E+04  0.50400001928E-02 0.  1.
</event>
<event>
 5   0  0.5379778E-06  0.2392328E+04  0.7818609E-02  0.8442382E-01
       -2   -1    0    0    0  501  0.00000000000E+00  0.00000000000E+00  0.94925983353E+03  0.94925983353E+03  0.25500000920E-02 0. -1.
        2   -1    0    0  501    0  0.00000000000E+00  0.00000000000E+00 -0.15072879831E+04  0.15072879831E+04  0.25500000920E-02 0.  1.
    10030    2    1    2    0    0  0.00000000000E+00  0.00000000000E+00 -0.55802814961E+03  0.24565478167E+04  0.23923276866E+04 0.  0.
        5    1    3    3  502    0 -0.10421069086E+04 -0.58352773954E+03 -0.21172311572E+03  0.12129881284E+04  0.46999998093E+01 0.  1.
       -5    1    3    3    0  502  0.10421069086E+04  0.58352773954E+03 -0.34630503388E+03  0.12435596883E+04  0.46999998093E+01 0. -1.
</event>
<event>
 5   0  0.5440503E-06  0.2402110E+04  0.7818609E-02  0.8438714E-01
       -2   -1    0    0    0  501  0.00000000000E+00  0.00000000000E+00  0.61273990564E+03  0.61273990564E+03  0.25500000920E-02 0. -1.
        2   -1    0    0  501    0  0.00000000000E+00  0.00000000000E+00 -0.23542343233E+04  0.23542343233E+04  0.25500000920E-02 0.  1.
    10030    2    1    2    0    0  0.00000000000E+00  0.00000000000E+00 -0.17414944177E+04  0.29669742290E+04  0.24021101699E+04 0.  0.
        3    1    3    3  502    0  0.13438442578E+03 -0.20392158863E+03  0.58174793427E+03  0.63093094505E+03  0.10100000352E+00 0. -1.
       -3    1    3    3    0  502 -0.13438442578E+03  0.20392158863E+03 -0.23232423519E+04  0.23360432839E+04  0.10100000352E+00 0.  1.
</event>
<event>
 5   0  0.2149029E-06  0.2404333E+04  0.7818609E-02  0.8437883E-01
        1   -1    0    0  501    0  0.00000000000E+00  0.00000000000E+00  0.11779594304E+04  0.11779594304E+04  0.50400001928E-02 0.  1.
       -1   -1    0    0    0  501  0.00000000000E+00  0.00000000000E+00 -0.12268712257E+04  0.12268712257E+04  0.50400001928E-02 0. -1.
    10030    2    1    2    0    0  0.00000000000E+00  0.00000000000E+00 -0.48911795252E+02  0.24048306561E+04  0.24043331967E+04 0.  0.
        4    1    3    3  502    0  0.96954530448E+03 -0.58190403150E+03 -0.43267330684E+03  0.12107180525E+04  0.12699999809E+01 0. -1.
       -4    1    3    3    0  502 -0.96954530448E+03  0.58190403150E+03  0.38376151159E+03  0.11941126036E+04  0.12699999809E+01 0.  1.
</event>
<event>
 5   0  0.2215700E-06  0.2399102E+04  0.7818609E-02  0.8439840E-01
        1   -1    0    0  501    0  0.00000000000E+00  0.00000000000E+00  0.17921616302E+04  0.17921616302E+04  0.50400001928E-02 0. -1.
       -1   -1    0    0    0  501  0.00000000000E+00  0.00000000000E+00 -0.80289795383E+03  0.80289795384E+03  0.50400001928E-02 0.  1.
    10030    2    1    2    0    0  0.00000000000E+00  0.00000000000E+00  0.98926367638E+03  0.25950595841E+04  0.23991022536E+04 0.  0.
        3    1    3    3  502    0 -0.85821164874E+03 -0.59818033715E+03  0.11295840695E+04  0.15395801798E+04  0.10100000352E+00 0.  1.
       -3    1    3    3    0  502  0.85821164874E+03  0.59818033715E+03 -0.14032039317E+03  0.10554794042E+04  0.10100000352E+00 0. -1.
</event>
<event>
 5   0  0.2254269E-06  0.2403257E+04  0.7818609E-02  0.8438285E-01
        1   -1    0    0  501    0  0.00000000000E+00  0.00000000000E+00  0.12151548222E+04  0.12151548222E+04  0.50400001928E-02 0.  1.
       -1   -1    0    0    0  501  0.00000000000E+00  0.00000000000E+00 -0.11882523733E+04  0.11882523733E+04  0.50400001928E-02 0. -1.
    10030    2    1    2    0    0  0.00000000000E+00  0.00000000000E+00  0.26902448869E+02  0.24034071956E+04  0.24032566251E+04 0.  0.
        2    1    3    3  502    0  0.99011637962E+03 -0.26161300567E+03 -0.61518882052E+03  0.11946669389E+04  0.25500000920E-02 0. -1.
       -2    1    3    3    0  502 -0.99011637962E+03  0.26161300567E+03  0.64209126939E+03  0.12087402567E+04  0.25500000920E-02 0.  1.
</event>
<event>
 5   0  0.2297414E-06  0.2395477E+04  0.7818609E-02  0.8441199E-01
       -1   -1    0    0    0  501  0.00000000000E+00  0.00000000000E+00  0.30981073985E+04  0.30981073985E+04  0.50400001928E-02 0.  1.
        1   -1    0    0  501    0  0.00000000000E+00  0.00000000000E+00 -0.46304980332E+03  0.46304980335E+03  0.50400001928E-02 0. -1.
    10030    2    1    2    0    0  0.00000000000E+00  0.00000000000E+00  0.26350575951E+04  0.35611572018E+04  0.23954774235E+04 0.  0.
        1    1    3    3  502    0 -0.15793007273E+03  0.11872069144E+04  0.13372429315E+04  0.17951659598E+04  0.50400001928E-02 0.  1.
       -1    1    3    3    0  502  0.15793007273E+03 -0.11872069144E+04  0.12978146637E+04  0.17659912420E+04  0.50400001928E-02 0. -1.
</event>
<event>
 5   0  0.5349036E-06  0.2370273E+04  0.7818609E-02  0.8450717E-01
       -2   -1    0    0    0  501  0.00000000000E+00  0.00000000000E+00  0.12918924180E+04  0.12918924180E+04  0.25500000920E-02 0. -1.
        2   -1    0    0  501    0  0.00000000000E+00  0.00000000000E+00 -0.10872028013E+04  0.10872028013E+04  0.25500000920E-02 0.  1.
    10030    2    1    2    0    0  0.00000000000E+00  0.00000000000E+00  0.20468961663E+03  0.23790952193E+04  0.23702734491E+04 0.  0.
        1    1    3    3  502    0 -0.67883822443E+03  0.96724701793E+03  0.19301888124E+03  0.11973489120E+04  0.50400001928E-02 0. -1.
       -1    1    3    3    0  502  0.67883822443E+03 -0.96724701793E+03  0.11670735396E+02  0.11817463073E+04  0.50400001928E-02 0.  1.
</event>
<event>
 5   0  0.2215700E-06  0.2400584E+04  0.7818609E-02  0.8439285E-01
        1   -1    0    0  501    0  0.00000000000E+00  0.00000000000E+00  0.12550229660E+04  0.12550229660E+04  0.50400001928E-02 0.  1.
       -1   -1    0    0    0  501  0.00000000000E+00  0.00000000000E+00 -0.11479475557E+04  0.11479475557E+04  0.50400001928E-02 0. -1.
    10030    2    1    2    0    0  0.00000000000E+00  0.00000000000E+00  0.10707541032E+03  0.24029705218E+04  0.24005837176E+04 0.  0.
        3    1    3    3  502    0 -0.10381301147E+04 -0.40789153348E+02  0.65523655042E+03  0.12282967220E+04  0.10100000352E+00 0.  1.
       -3    1    3    3    0  502  0.10381301147E+04  0.40789153348E+02 -0.54816114010E+03  0.11746737998E+04  0.10100000352E+00 0. -1.
</event>
<event>
 5   0  0.5268358E-06  0.2398312E+04  0.7818609E-02  0.8440136E-01
       -2   -1    0    0    0  501  0.00000000000E+00  0.00000000000E+00  0.10522686190E+04  0.10522686190E+04  0.25500000920E-02 0.  1.
        2   -1    0    0  501    0  0.00000000000E+00  0.00000000000E+00 -0.13665475451E+04  0.13665475451E+04  0.25500000920E-02 0. -1.
    10030    2    1    2    0    0  0.00000000000E+00  0.00000000000E+00 -0.31427892602E+03  0.24188161641E+04  0.23983119881E+04 0.  0.
        2    1    3    3  502    0  0.11659146181E+04 -0.16553863746E+03 -0.38538193069E+03  0.12390638280E+04  0.25500000920E-02 0. -1.
       -2    1    3    3    0  502 -0.11659146181E+04  0.16553863746E+03  0.71103004670E+02  0.11797523361E+04  0.25500000920E-02 0.  1.
</event>
<event>
 5   0  0.2149417E-06  0.2403484E+04  0.7818609E-02  0.8438201E-01
        1   -1    0    0  501    0  0.00000000000E+00  0.00000000000E+00  0.15871447741E+04  0.15871447741E+04  0.50400001928E-02 0.  1.
       -1   -1    0    0    0  501  0.00000000000E+00  0.00000000000E+00 -0.90992533839E+03  0.90992533840E+03  0.50400001928E-02 0. -1.
    10030    2    1    2    0    0  0.00000000000E+00  0.00000000000E+00  0.67721943571E+03  0.24970701125E+04  0.24034835100E+04 0.  0.
        5    1    3    3  502    0 -0.57930296171E+03 -0.19633053041E+02  0.14323028474E+04  0.15451507741E+04  0.46999998093E+01 0.  1.
       -5    1    3    3    0  502  0.57930296171E+03  0.19633053041E+02 -0.75508341166E+03  0.95191933838E+03  0.46999998093E+01 0. -1.
</event>
<event>
 5   0  0.5371843E-06  0.2396834E+04  0.7818609E-02  0.8440690E-01
       -2   -1    0    0    0  501  0.00000000000E+00  0.00000000000E+00  0.57002660426E+03  0.57002660427E+03  0.25500000920E-02 0.  1.
        2   -1    0    0  501    0  0.00000000000E+00  0.00000000000E+00 -0.25195363830E+04  0.25195363830E+04  0.25500000920E-02 0. -1.
    10030    2    1    2    0    0  0.00000000000E+00  0.00000000000E+00 -0.19495097788E+04  0.30895629873E+04  0.23968335518E+04 0.  0.
        4    1    3    3  502    0 -0.33199020515E+03 -0.74364445967E+03  0.15853847315E+03  0.82967502016E+03  0.12699999809E+01 0.  1.
       -4    1    3    3    0  502  0.33199020515E+03  0.74364445967E+03 -0.21080482519E+04  0.22598879672E+04  0.12699999809E+01 0. -1.
</event>
<event>
 5   0  0.5349036E-06  0.2400836E+04  0.7818609E-02  0.8439191E-01
       -2   -1    0    0    0  501  0.00000000000E+00  0.00000000000E+00  0.11349641865E+04  0.11349641865E+04  0.25500000920E-02 0.  1.
        2   -1    0    0  501    0  0.00000000000E+00  0.00000000000E+00 -0.12696466951E+04  0.12696466951E+04  0.25500000920E-02 0. -1.
    10030    2    1    2    0    0  0.00000000000E+00  0.00000000000E+00 -0.13468250860E+03  0.24046108816E+04  0.24008361280E+04 0.  0.
        1    1    3    3  502    0  0.57578988237E+03  0.66893833098E+02  0.98549879921E+03  0.11433357586E+04  0.50400001928E-02 0.  1.
       -1    1    3    3    0  502 -0.57578988237E+03 -0.66893833098E+02 -0.11201813078E+04  0.12612751230E+04  0.50400001928E-02 0. -1.
</event>
<event>
 5   0  0.5440503E-06  0.2373036E+04  0.7818609E-02  0.8449668E-01
        2   -1    0    0  501    0  0.00000000000E+00  0.00000000000E+00  0.13956506489E+04  0.13956506489E+04  0.25500000920E-02 0. -1.
       -2   -1    0    0    0  501  0.00000000000E+00  0.00000000000E+00 -0.10087231959E+04  0.10087231959E+04  0.25500000920E-02 0.  1.
    10030    2    1    2    0    0  0.00000000000E+00  0.00000000000E+00  0.38692745304E+03  0.24043738448E+04  0.23730361842E+04 0.  0.
        3    1    3    3  502    0 -0.25895341638E+03  0.11547027855E+04  0.28079816896E+03  0.12162413480E+04  0.10100000352E+00 0. -1.
       -3    1    3    3    0  502  0.25895341638E+03 -0.11547027855E+04  0.10612928408E+03  0.11881324968E+04  0.10100000352E+00 0.  1.
</event>
<event>
 5   0  0.2149029E-06  0.2402255E+04  0.7818609E-02  0.8438660E-01
       -1   -1    0    0    0  501  0.00000000000E+00  0.00000000000E+00  0.80973470899E+03  0.80973470901E+03  0.50400001928E-02 0. -1.
        1   -1    0    0  501    0  0.00000000000E+00  0.00000000000E+00 -0.17817039180E+04  0.17817039180E+04  0.50400001928E-02 0.  1.
    10030    2    1    2    0    0  0.00000000000E+00  0.00000000000E+00 -0.97196920903E+03  0.25914386270E+04  0.24022551934E+04 0.  0.
        4    1    3    3  502    0  0.11204429625E+04  0.36419269338E+03 -0.73823083472E+03  0.13903291439E+04  0.12699999809E+01 0.  1.
       -4    1    3    3    0  502 -0.11204429625E+04 -0.36419269338E+03 -0.23373837431E+03  0.12011094832E+04  0.12699999809E+01 0. -1.
</event>
<event>
 5   0  0.5371843E-06  0.2400841E+04  0.7818609E-02  0.8439189E-01
       -2   -1    0    0    0  501  0.00000000000E+00  0.00000000000E+00  0.14452747849E+04  0.14452747849E+04  0.25500000920E-02 0.  1.
        2   -1    0    0  501    0  0.00000000000E+00  0.00000000000E+00 -0.99704883914E+03  0.99704883914E+03  0.25500000920E-02 0. -1.
    10030    2    1    2    0    0  0.00000000000E+00  0.00000000000E+00  0.44822594575E+03  0.24423236240E+04  0.24008411414E+04 0.  0.
        4    1    3    3  502    0  0.50779923701E+03  0.65783637946E+03 -0.65711029773E+03  0.10594358515E+04  0.12699999809E+01 0. -1.
       -4    1    3    3    0  502 -0.50779923701E+03 -0.65783637946E+03  0.11053362435E+04  0.13828877725E+04  0.12699999809E+01 0.  1.
</event>
<event>
 5   0  0.5371843E-06  0.2402694E+04  0.7818609E-02  0.8438496E-01
       -2   -1    0    0    0  501  0.00000000000E+00  0.00000000000E+00  0.15528567762E+04  0.15528567762E+04  0.25500000920E-02 0.  1.
        2   -1    0    0  501    0  0.00000000000E+00  0.00000000000E+00 -0.92940609437E+03  0.92940609437E+03  0.25500000920E-02 0. -1.
    10030    2    1    2    0    0  0.00000000000E+00  0.00000000000E+00  0.62345068180E+03  0.24822628705E+04  0.24026939476E+04 0.  0.
        4    1    3    3  502    0  0.10244180565E+04  0.62470404518E+03  0.25020986430E+03  0.12256810709E+04  0.12699999809E+01 0. -1.
       -4    1    3    3    0  502 -0.10244180565E+04 -0.62470404518E+03  0.37324081750E+03  0.12565817996E+04  0.12699999809E+01 0.  1.
</event>
<event>
 5   0  0.2254269E-06  0.2401043E+04  0.7818609E-02  0.8439113E-01
       -1   -1    0    0    0  501  0.00000000000E+00  0.00000000000E+00  0.10258248795E+04  0.10258248796E+04  0.50400001928E-02 0. -1.
        1   -1    0    0  501    0  0.00000000000E+00  0.00000000000E+00 -0.14049688764E+04  0.14049688764E+04  0.50400001928E-02 0.  1.
    10030    2    1    2    0    0  0.00000000000E+00  0.00000000000E+00 -0.37914399686E+03  0.24307937560E+04  0.24010431303E+04 0.  0.
        2    1    3    3  502    0  0.19375183946E+03 -0.95527485384E+03 -0.89908543045E+03  0.13260635101E+04  0.25500000920E-02 0.  1.
       -2    1    3    3    0  502 -0.19375183946E+03  0.95527485384E+03  0.51994143359E+03  0.11047302458E+04  0.25500000920E-02 0. -1.
</event>
<event>
 5   0  0.5349036E-06  0.2401181E+04  0.7818609E-02  0.8439061E-01
        2   -1    0    0  501    0  0.00000000000E+00  0.00000000000E+00  0.19402195806E+04  0.19402195806E+04  0.25500000920E-02 0. -1.
       -2   -1    0    0    0  501  0.00000000000E+00  0.00000000000E+00 -0.74291486517E+03  0.74291486517E+03  0.25500000920E-02 0.  1.
    10030    2    1    2    0    0  0.00000000000E+00  0.00000000000E+00  0.11973047155E+04  0.26831344458E+04  0.24011813494E+04 0.  0.
        1    1    3    3  502    0  0.34356096068E+03 -0.72200335599E+03 -0.40210864758E+03  0.89499404705E+03  0.50400001928E-02 0.  1.
       -1    1    3    3    0  502 -0.34356096068E+03  0.72200335599E+03  0.15994133630E+04  0.17881403988E+04  0.50400001928E-02 0. -1.
</event>
<event>
 5   0  0.2149417E-06  0.2400571E+04  0.7818609E-02  0.8439290E-01
       -1   -1    0    0    0  501  0.00000000000E+00  0.00000000000E+00  0.91261186891E+03  0.91261186892E+03  0.50400001928E-02 0.  1.
        1   -1    0    0  501    0  0.00000000000E+00  0.00000000000E+00 -0.15786394177E+04  0.15786394177E+04  0.50400001928E-02 0. -1.
    10030    2    1    2    0    0  0.00000000000E+00  0.00000000000E+00 -0.66602754879E+03  0.24912512866E+04  0.24005708232E+04 0.  0.
        5    1    3    3  502    0 -0.86732815860E+03 -0.64007099749E+03  0.21486235105E+03  0.10991528267E+04  0.46999998093E+01 0.  1.
       -5    1    3    3    0  502  0.86732815860E+03  0.64007099749E+03 -0.88088989984E+03  0.13920984599E+04  0.46999998093E+01 0. -1.
</event>
<event>
 5   0  0.2149417E-06  0.2401466E+04  0.7818609E-02  0.8438955E-01
       -1   -1    0    0    0  501  0.00000000000E+00  0.00000000000E+00  0.99368458948E+03  0.99368458949E+03  0.50400001928E-02 0.  1.
        1   -1    0    0  501    0  0.00000000000E+00  0.00000000000E+00 -0.14509233811E+04  0.14509233811E+04  0.50400001928E-02 0. -1.
    10030    2    1    2    0    0  0.00000000000E+00  0.00000000000E+00 -0.45723879160E+03  0.24446079706E+04  0.24014663890E+04 0.  0.
        5    1    3    3  502    0 -0.63198438092E+03  0.27085240050E+03 -0.12306673633E+04  0.14097267571E+04  0.46999998093E+01 0. -1.
       -5    1    3    3    0  502  0.63198438092E+03 -0.27085240050E+03  0.77342857168E+03  0.10348812135E+04  0.46999998093E+01 0.  1.
</event>
<event>
 5   0  0.2149417E-06  0.2396142E+04  0.7818609E-02  0.8440949E-01
       -1   -1    0    0    0  501  0.00000000000E+00  0.00000000000E+00  0.78757452145E+03  0.78757452147E+03  0.50400001928E-02 0. -1.
        1   -1    0    0  501    0  0.00000000000E+00  0.00000000000E+00 -0.18225244263E+04  0.18225244263E+04  0.50400001928E-02 0.  1.
    10030    2    1    2    0    0  0.00000000000E+00  0.00000000000E+00 -0.10349499048E+04  0.26100989478E+04  0.23961417345E+04 0.  0.
        5    1    3    3  502    0 -0.55108913361E+03  0.92207728486E+03 -0.10953401594E+04  0.15341831401E+04  0.46999998093E+01 0.  1.
       -5    1    3    3    0  502  0.55108913361E+03 -0.92207728486E+03  0.60390254567E+02  0.10759158077E+04  0.46999998093E+01 0. -1.
</event>
<event>
 5   0  0.2254269E-06  0.2400803E+04  0.7818609E-02  0.8439203E-01
        1   -1    0    0  501    0  0.00000000000E+00  0.00000000000E+00  0.77366451137E+03  0.77366451139E+03  0.50400001928E-02 0.  1.
       -1   -1    0    0    0  501  0.00000000000E+00  0.00000000000E+00 -0.18625181351E+04  0.18625181351E+04  0.50400001928E-02 0. -1.
    10030    2    1    2    0    0  0.00000000000E+00  0.00000000000E+00 -0.10888536237E+04  0.26361826465E+04  0.24008033513E+04 0.  0.
        2    1    3    3  502    0  0.10026751751E+04  0.63412257607E+03 -0.34346644200E+03  0.12350862905E+04  0.25500000920E-02 0.  1.
       -2    1    3    3    0  502 -0.10026751751E+04 -0.63412257607E+03 -0.74538718174E+03  0.14010963560E+04  0.25500000920E-02 0. -1.
</event>
<event>
 5   0  0.5440503E-06  0.2394096E+04  0.7818609E-02  0.8441717E-01
       -2   -1    0    0    0  501  0.00000000000E+00  0.00000000000E+00  0.90302073304E+03  0.90302073304E+03  0.25500000920E-02 0.  1.
        2   -1    0    0  501    0  0.00000000000E+00  0.00000000000E+00 -0.15868120156E+04  0.15868120156E+04  0.25500000920E-02 0. -1.
    10030    2    1    2    0    0  0.00000000000E+00  0.00000000000E+00 -0.68379128252E+03  0.24898327486E+04  0.23940961965E+04 0.  0.
        3    1    3    3  502    0  0.12421468915E+03  0.33209932792E+03  0.84715515905E+03  0.91836328668E+03  0.10100000352E+00 0.  1.
       -3    1    3    3    0  502 -0.12421468915E+03 -0.33209932792E+03 -0.15309464416E+04  0.15714694619E+04  0.10100000352E+00 0. -1.
</event>
<event>
 5   0  0.5379778E-06  0.2408135E+04  0.7818609E-02  0.8436464E-01
       -2   -1    0    0    0  501  0.00000000000E+00  0.00000000000E+00  0.10638445038E+04  0.10638445038E+04  0.25500000920E-02 0. -1.
        2   -1    0    0  501    0  0.00000000000E+00  0.00000000000E+00 -0.13627728555E+04  0.13627728555E+04  0.25500000920E-02 0.  1.
    10030    2    1    2    0    0  0.00000000000E+00  0.00000000000E+00 -0.29892835171E+03  0.24266173592E+04  0.24081348900E+04 0.  0.
        5    1    3    3  502    0 -0.24453263936E+03 -0.89731673067E+03  0.62111591395E+03  0.11183830271E+04  0.46999998093E+01 0. -1.
       -5    1    3    3    0  502  0.24453263936E+03  0.89731673067E+03 -0.92004426565E+03  0.13082343321E+04  0.46999998093E+01 0.  1.
</event>
<event>
 5   0  0.5268358E-06  0.2401288E+04  0.7818609E-02  0.8439021E-01
       -2   -1    0    0    0  501  0.00000000000E+00  0.00000000000E+00  0.61582386348E+03  0.61582386348E+03  0.25500000920E-02 0. -1.
        2   -1    0    0  501    0  0.00000000000E+00  0.00000000000E+00 -0.23408422979E+04  0.23408422979E+04  0.25500000920E-02 0.  1.
    10030    2    1    2    0    0  0.00000000000E+00  0.00000000000E+00 -0.17250184344E+04  0.29566661614E+04  0.24012884439E+04 0.  0.
        2    1    3    3  502    0  0.77936834918E+03 -0.12202430607E+03  0.25194942577E+03  0.82812044301E+03  0.25500000920E-02 0. -1.
       -2    1    3    3    0  502 -0.77936834918E+03  0.12202430607E+03 -0.19769678602E+04  0.21285457184E+04  0.25500000920E-02 0.  1.
</event>
<event>
 5   0  0.2149029E-06  0.2400218E+04  0.7818609E-02  0.8439422E-01
        1   -1    0    0  501    0  0.00000000000E+00  0.00000000000E+00  0.15176337556E+04  0.15176337556E+04  0.50400001928E-02 0.  1.
       -1   -1    0    0    0  501  0.00000000000E+00  0.00000000000E+00 -0.94901755601E+03  0.94901755602E+03  0.50400001928E-02 0. -1.
    10030    2    1    2    0    0  0.00000000000E+00  0.00000000000E+00  0.56861619959E+03  0.24666513116E+04  0.24002175549E+04 0.  0.
        4    1    3    3  502    0  0.12897159801E+02  0.10946577232E+04 -0.22105218004E+03  0.11168292380E+04  0.12699999809E+01 0. -1.
       -4    1    3    3    0  502 -0.12897159801E+02 -0.10946577232E+04  0.78966837963E+03  0.13498220736E+04  0.12699999809E+01 0.  1.
</event>
<event>
 5   0  0.5349036E-06  0.2375976E+04  0.7818609E-02  0.8448553E-01
       -2   -1    0    0    0  501  0.00000000000E+00  0.00000000000E+00  0.57531776942E+03  0.57531776943E+03  0.25500000920E-02 0. -1.
        2   -1    0    0  501    0  0.00000000000E+00  0.00000000000E+00 -0.24531051542E+04  0.24531051542E+04  0.25500000920E-02 0.  1.
    10030    2    1    2    0    0  0.00000000000E+00  0.00000000000E+00 -0.18777873848E+04  0.30284229237E+04  0.23759755769E+04 0.  0.
        1    1    3    3  502    0 -0.66375828069E+03 -0.96287068176E+03 -0.67268803166E+03  0.13491494331E+04  0.50400001928E-02 0. -1.
       -1    1    3    3    0  502  0.66375828069E+03  0.96287068176E+03 -0.12050993531E+04  0.16792734905E+04  0.50400001928E-02 0.  1.
</event>
<event>
 5   0  0.2254269E-06  0.2402090E+04  0.7818609E-02  0.8438722E-01
       -1   -1    0    0    0  501  0.00000000000E+00  0.00000000000E+00  0.10125660820E+04  0.10125660820E+04  0.50400001928E-02 0. -1.
        1   -1    0    0  501    0  0.00000000000E+00  0.00000000000E+00 -0.14246073490E+04  0.14246073490E+04  0.50400001928E-02 0.  1.
    10030    2    1    2    0    0  0.00000000000E+00  0.00000000000E+00 -0.41204126704E+03  0.24371734310E+04  0.24020899915E+04 0.  0.
        2    1    3    3  502    0  0.22793582502E+03  0.11061884167E+04 -0.62052328967E+03  0.12886646991E+04  0.25500000920E-02 0. -1.
       -2    1    3    3    0  502 -0.22793582502E+03 -0.11061884167E+04  0.20848202263E+03  0.11485087320E+04  0.25500000920E-02 0.  1.
</event>
<event>
 5   0  0.2297414E-06  0.2399588E+04  0.7818609E-02  0.8439658E-01
       -1   -1    0    0    0  501  0.00000000000E+00  0.00000000000E+00  0.13080018872E+04  0.13080018872E+04  0.50400001928E-02 0. -1.
        1   -1    0    0  501    0  0.00000000000E+00  0.00000000000E+00 -0.11005380787E+04  0.11005380788E+04  0.50400001928E-02 0.  1.
    10030    2    1    2    0    0  0.00000000000E+00  0.00000000000E+00  0.20746380849E+03  0.24085399660E+04  0.23995882013E+04 0.  0.
        1    1    3    3  502    0  0.48784758182E+03  0.10246618324E+04 -0.28705166945E+03  0.11706091554E+04  0.50400001928E-02 0.  1.
       -1    1    3    3    0  502 -0.48784758182E+03 -0.10246618324E+04  0.49451547793E+03  0.12379308106E+04  0.50400001928E-02 0. -1.
</event>
<event>
 5   0  0.2215700E-06  0.2402799E+04  0.7818609E-02  0.8438456E-01
       -1   -1    0    0    0  501  0.00000000000E+00  0.00000000000E+00  0.10393022932E+04  0.10393022932E+04  0.50400001928E-02 0. -1.
        1   -1    0    0  501    0  0.00000000000E+00  0.00000000000E+00 -0.13887783509E+04  0.13887783509E+04  0.50400001928E-02 0.  1.
    10030    2    1    2    0    0  0.00000000000E+00  0.00000000000E+00 -0.34947605762E+03  0.24280806441E+04  0.24027988055E+04 0.  0.
        3    1    3    3  502    0 -0.35910375229E+03  0.13276131948E+03 -0.13254821318E+04  0.13796680632E+04  0.10100000352E+00 0.  1.
       -3    1    3    3    0  502  0.35910375229E+03 -0.13276131948E+03  0.97600607413E+03  0.10484125809E+04  0.10100000352E+00 0. -1.
</event>
<event>
 5   0  0.2254269E-06  0.2400054E+04  0.7818609E-02  0.8439483E-01
        1   -1    0    0  501    0  0.00000000000E+00  0.00000000000E+00  0.12174479294E+04  0.12174479294E+04  0.50400001928E-02 0.  1.
       -1   -1    0    0    0  501  0.00000000000E+00  0.00000000000E+00 -0.11828553064E+04  0.11828553064E+04  0.50400001928E-02 0. -1.
    10030    2    1    2    0    0  0.00000000000E+00  0.00000000000E+00  0.34592622997E+02  0.24003032358E+04  0.24000539524E+04 0.  0.
        2    1    3    3  502    0 -0.64800941512E+03 -0.50307322219E+03 -0.85861762642E+03  0.11875281459E+04  0.25500000920E-02 0. -1.
       -2    1    3    3    0  502  0.64800941512E+03  0.50307322219E+03  0.89321024942E+03  0.12127750899E+04  0.25500000920E-02 0.  1.
</event>
<event>
 5   0  0.2215700E-06  0.2410302E+04  0.7818609E-02  0.8435657E-01
        1   -1    0    0  501    0  0.00000000000E+00  0.00000000000E+00  0.10945138026E+04  0.10945138026E+04  0.50400001928E-02 0.  1.
       -1   -1    0    0    0  501  0.00000000000E+00  0.00000000000E+00 -0.13269716681E+04  0.13269716681E+04  0.50400001928E-02 0. -1.
    10030    2    1    2    0    0  0.00000000000E+00  0.00000000000E+00 -0.23245786554E+03  0.24214854707E+04  0.24103018951E+04 0.  0.
        3    1    3    3  502    0 -0.22352677595E+03 -0.54262921196E+03 -0.11737183172E+04  0.13122596464E+04  0.10100000352E+00 0. -1.
       -3    1    3    3    0  502  0.22352677595E+03  0.54262921196E+03  0.94126045165E+03  0.11092258243E+04  0.10100000352E+00 0.  1.
</event>
<event>
 5   0  0.2297414E-06  0.2398888E+04  0.7818609E-02  0.8439920E-01
        1   -1    0    0  501    0  0.00000000000E+00  0.00000000000E+00  0.81516330741E+03  0.81516330743E+03  0.50400001928E-02 0. -1.
       -1   -1    0    0    0  501  0.00000000000E+00  0.00000000000E+00 -0.17648811079E+04  0.17648811079E+04  0.50400001928E-02 0.  1.
    10030    2    1    2    0    0  0.00000000000E+00  0.00000000000E+00 -0.94971780049E+03  0.25800444153E+04  0.23988883435E+04 0.  0.
        1    1    3    3  502    0 -0.10628891346E+04 -0.49109075312E+03 -0.75482991988E+03  0.13930799145E+04  0.50400001928E-02 0.  1.
       -1    1    3    3    0  502  0.10628891346E+04  0.49109075312E+03 -0.19488788061E+03  0.11869645008E+04  0.50400001928E-02 0. -1.
</event>
<event>
 5   0  0.2254269E-06  0.2395559E+04  0.7818609E-02  0.8441168E-01
       -1   -1    0    0    0  501  0.00000000000E+00  0.00000000000E+00  0.13517531835E+04  0.13517531835E+04  0.50400001928E-02 0. -1.
        1   -1    0    0  501    0  0.00000000000E+00  0.00000000000E+00 -0.10613443001E+04  0.10613443001E+04  0.50400001928E-02 0.  1.
    10030    2    1    2    0    0  0.00000000000E+00  0.00000000000E+00  0.29040888341E+03  0.24130974836E+04  0.23955588379E+04 0.  0.
        2    1    3    3  502    0 -0.45406947473E+03  0.93153489582E+03 -0.45980852884E+03  0.11337372858E+04  0.25500000920E-02 0.  1.
       -2    1    3    3    0  502  0.45406947473E+03 -0.93153489582E+03  0.75021741225E+03  0.12793601978E+04  0.25500000920E-02 0. -1.
</event>
<event>
 5   0  0.5268358E-06  0.2404047E+04  0.7818609E-02  0.8437990E-01
       -2   -1    0    0    0  501  0.00000000000E+00  0.00000000000E+00  0.59910801336E+03  0.59910801337E+03  0.25500000920E-02 0. -1.
        2   -1    0    0  501    0  0.00000000000E+00  0.00000000000E+00 -0.24116861743E+04  0.24116861743E+04  0.25500000920E-02 0.  1.
    10030    2    1    2    0    0  0.00000000000E+00  0.00000000000E+00 -0.18125781609E+04  0.30107941877E+04  0.24040470151E+04 0.  0.
        2    1    3    3  502    0  0.70870275195E+03  0.92876306750E+03 -0.55206071049E+03  0.12921421958E+04  0.25500000920E-02 0. -1.
       -2    1    3    3    0  502 -0.70870275195E+03 -0.92876306750E+03 -0.12605174505E+04  0.17186519919E+04  0.25500000920E-02 0.  1.
</event>
<event>
 5   0  0.2254269E-06  0.2400052E+04  0.7818609E-02  0.8439484E-01
       -1   -1    0    0    0  501  0.00000000000E+00  0.00000000000E+00  0.88279057538E+03  0.88279057539E+03  0.50400001928E-02 0.  1.
        1   -1    0    0  501    0  0.00000000000E+00  0.00000000000E+00 -0.16312619115E+04  0.16312619115E+04  0.50400001928E-02 0. -1.
    10030    2    1    2    0    0  0.00000000000E+00  0.00000000000E+00 -0.74847133608E+03  0.25140524869E+04  0.24000522006E+04 0.  0.
        2    1    3    3  502    0 -0.11009489920E+04  0.30407660443E+02 -0.87336577599E+03  0.14056248032E+04  0.25500000920E-02 0.  1.
       -2    1    3    3    0  502  0.11009489920E+04 -0.30407660443E+02  0.12489443991E+03  0.11084276836E+04  0.25500000920E-02 0. -1.
</event>
<event>
 5   0  0.2149417E-06  0.2398121E+04  0.7818609E-02  0.8440207E-01
       -1   -1    0    0    0  501  0.00000000000E+00  0.00000000000E+00  0.12808303752E+04  0.12808303752E+04  0.50400001928E-02 0.  1.
        1   -1    0    0  501    0  0.00000000000E+00  0.00000000000E+00 -0.11225105730E+04  0.11225105730E+04  0.50400001928E-02 0. -1.
    10030    2    1    2    0    0  0.00000000000E+00  0.00000000000E+00  0.15831980218E+03  0.24033409483E+04  0.23981206296E+04 0.  0.
        5    1    3    3  502    0  0.68264860793E+03 -0.35025961045E+03  0.10025953710E+04  0.12625016771E+04  0.46999998093E+01 0.  1.
       -5    1    3    3    0  502 -0.68264860793E+03  0.35025961045E+03 -0.84427556883E+03  0.11408392712E+04  0.46999998093E+01 0. -1.
</event>
<event>
 5   0  0.5440503E-06  0.2404398E+04  0.7818609E-02  0.8437859E-01
        2   -1    0    0  501    0  0.00000000000E+00  0.00000000000E+00  0.13844927604E+04  0.13844927604E+04  0.25500000920E-02 0. -1.
       -2   -1    0    0    0  501  0.00000000000E+00  0.00000000000E+00 -0.10439074169E+04  0.10439074169E+04  0.25500000920E-02 0.  1.
    10030    2    1    2    0    0  0.00000000000E+00  0.00000000000E+00  0.34058534344E+03  0.24284001773E+04  0.24043978550E+04 0.  0.
        3    1    3    3  502    0 -0.33741403242E+03  0.27524632325E+03  0.13020473167E+04  0.13729297116E+04  0.10100000352E+00 0. -1.
       -3    1    3    3    0  502  0.33741403242E+03 -0.27524632325E+03 -0.96146197328E+03  0.10554704657E+04  0.10100000352E+00 0.  1.
</event>
<event>
 5   0  0.5440503E-06  0.2404038E+04  0.7818609E-02  0.8437993E-01
        2   -1    0    0  501    0  0.00000000000E+00  0.00000000000E+00  0.15818611152E+04  0.15818611152E+04  0.25500000920E-02 0.  1.
       -2   -1    0    0    0  501  0.00000000000E+00  0.00000000000E+00 -0.91338590273E+03  0.91338590273E+03  0.25500000920E-02 0. -1.
    10030    2    1    2    0    0  0.00000000000E+00  0.00000000000E+00  0.66847521252E+03  0.24952470180E+04  0.24040379720E+04 0.  0.
        3    1    3    3  502    0 -0.25772866756E+03  0.11700784789E+04  0.23391696738E+03  0.12207476687E+04  0.10100000352E+00 0. -1.
       -3    1    3    3    0  502  0.25772866756E+03 -0.11700784789E+04  0.43455824513E+03  0.12744993493E+04  0.10100000352E+00 0.  1.
</event>
<event>
 5   0  0.5371843E-06  0.2398554E+04  0.7818609E-02  0.8440045E-01
        2   -1    0    0  501    0  0.00000000000E+00  0.00000000000E+00  0.12861184363E+04  0.12861184364E+04  0.25500000920E-02 0.  1.
       -2   -1    0    0    0  501  0.00000000000E+00  0.00000000000E+00 -0.11182994414E+04  0.11182994414E+04  0.25500000920E-02 0. -1.
    10030    2    1    2    0    0  0.00000000000E+00  0.00000000000E+00  0.16781899497E+03  0.24044178777E+04  0.23985541719E+04 0.  0.
        4    1    3    3  502    0 -0.36477117359E+03 -0.10780806948E+04  0.46291833865E+03  0.12286622785E+04  0.12699999809E+01 0.  1.
       -4    1    3    3    0  502  0.36477117359E+03  0.10780806948E+04 -0.29509934368E+03  0.11757555992E+04  0.12699999809E+01 0. -1.
</event>
<event>
 5   0  0.5440503E-06  0.2397749E+04  0.7818609E-02  0.8440347E-01
       -2   -1    0    0    0  501  0.00000000000E+00  0.00000000000E+00  0.59346632326E+03  0.59346632327E+03  0.25500000920E-02 0. -1.
        2   -1    0    0  501    0  0.00000000000E+00  0.00000000000E+00 -0.24218724779E+04  0.24218724779E+04  0.25500000920E-02 0.  1.
    10030    2    1    2    0    0  0.00000000000E+00  0.00000000000E+00 -0.18284061546E+04  0.30153388012E+04  0.23977487399E+04 0.  0.
        3    1    3    3  502    0  0.60836275874E+03  0.65008533898E+03  0.95449722528E+02  0.89544785103E+03  0.10100000352E+00 0. -1.
       -3    1    3    3    0  502 -0.60836275874E+03 -0.65008533898E+03 -0.19238558772E+04  0.21198909501E+04  0.10100000352E+00 0.  1.
</event>
<event>
 5   0  0.5349036E-06  0.2398492E+04  0.7818609E-02  0.8440068E-01
       -2   -1    0    0    0  501  0.00000000000E+00  0.00000000000E+00  0.29038137676E+04  0.29038137676E+04  0.25500000920E-02 0. -1.
        2   -1    0    0  501    0  0.00000000000E+00  0.00000000000E+00 -0.49527653149E+03  0.49527653150E+03  0.25500000920E-02 0.  1.
    10030    2    1    2    0    0  0.00000000000E+00  0.00000000000E+00  0.24085372361E+04  0.33990902991E+04  0.23984918686E+04 0.  0.
        1    1    3    3  502    0 -0.11578771573E+04  0.31149455173E+03  0.11731408638E+04  0.16774885554E+04  0.50400001928E-02 0.  1.
       -1    1    3    3    0  502  0.11578771573E+04 -0.31149455173E+03  0.12353963723E+04  0.17216017437E+04  0.50400001928E-02 0. -1.
</event>
<event>
 5   0  0.5379778E-06  0.2350220E+04  0.7818609E-02  0.8458379E-01
       -2   -1    0    0    0  501  0.00000000000E+00  0.00000000000E+00  0.66818629164E+03  0.66818629165E+03  0.25500000920E-02 0.  1.
        2   -1    0    0  501    0  0.00000000000E+00  0.00000000000E+00 -0.20666141813E+04  0.20666141813E+04  0.25500000920E-02 0. -1.
    10030    2    1    2    0    0  0.00000000000E+00  0.00000000000E+00 -0.13984278896E+04  0.27348004729E+04  0.23502197906E+04 0.  0.
        5    1    3    3  502    0 -0.11280164130E+04  0.29717685288E+03 -0.86429476430E+03  0.14518135691E+04  0.46999998093E+01 0.  1.
       -5    1    3    3    0  502  0.11280164130E+04 -0.29717685288E+03 -0.53413312532E+03  0.12829869038E+04  0.46999998093E+01 0. -1.
</event>
<event>
 5   0  0.5379778E-06  0.2390942E+04  0.7818609E-02  0.8442903E-01
       -2   -1    0    0    0  501  0.00000000000E+00  0.00000000000E+00  0.88925105567E+03  0.88925105568E+03  0.25500000920E-02 0. -1.
        2   -1    0    0  501    0  0.00000000000E+00  0.00000000000E+00 -0.16071394361E+04  0.16071394361E+04  0.25500000920E-02 0.  1.
    10030    2    1    2    0    0  0.00000000000E+00  0.00000000000E+00 -0.71788838042E+03  0.24963904918E+04  0.23909416055E+04 0.  0.
        5    1    3    3  502    0  0.39232871118E+03 -0.46349455565E+03 -0.14341068599E+04  0.15573803634E+04  0.46999998093E+01 0.  1.
       -5    1    3    3    0  502 -0.39232871118E+03  0.46349455565E+03  0.71621847951E+03  0.93901012834E+03  0.46999998093E+01 0. -1.
</event>
<event>
 5   0  0.2149417E-06  0.2400584E+04  0.7818609E-02  0.8439285E-01
        1   -1    0    0  501    0  0.00000000000E+00  0.00000000000E+00  0.11222651730E+04  0.11222651730E+04  0.50400001928E-02 0. -1.
       -1   -1    0    0    0  501  0.00000000000E+00  0.00000000000E+00 -0.12837433796E+04  0.12837433796E+04  0.50400001928E-02 0.  1.
    10030    2    1    2    0    0  0.00000000000E+00  0.00000000000E+00 -0.16147820654E+03  0.24060085526E+04  0.24005836674E+04 0.  0.
        5    1    3    3  502    0 -0.86901141917E+03  0.69074014891E+03 -0.53825242827E+03  0.12337100820E+04  0.46999998093E+01 0.  1.
       -5    1    3    3    0  502  0.86901141917E+03 -0.69074014891E+03  0.37677422174E+03  0.11722984706E+04  0.46999998093E+01 0. -1.
</event>
<event>
 5   0  0.2297414E-06  0.2400628E+04  0.7818609E-02  0.8439269E-01
        1   -1    0    0  501    0  0.00000000000E+00  0.00000000000E+00  0.14893397204E+04  0.14893397204E+04  0.50400001928E-02 0. -1.
       -1   -1    0    0    0  501  0.00000000000E+00  0.00000000000E+00 -0.96737719385E+03  0.96737719386E+03  0.50400001928E-02 0.  1.
    10030    2    1    2    0    0  0.00000000000E+00  0.00000000000E+00  0.52196252658E+03  0.24567169143E+04  0.24006276508E+04 0.  0.
        1    1    3    3  502    0  0.11128040818E+04  0.22331295380E+03  0.66068555258E+03  0.13132810054E+04  0.50400001928E-02 0. -1.
       -1    1    3    3    0  502 -0.11128040818E+04 -0.22331295380E+03 -0.13872302600E+03  0.11434359089E+04  0.50400001928E-02 0.  1.
</event>
<event>
 5   0  0.2215700E-06  0.2420418E+04  0.7818609E-02  0.8431899E-01
        1   -1    0    0  501    0  0.00000000000E+00  0.00000000000E+00  0.14337665061E+04  0.14337665061E+04  0.50400001928E-02 0. -1.
       -1   -1    0    0    0  501  0.00000000000E+00  0.00000000000E+00 -0.10215090895E+04  0.10215090895E+04  0.50400001928E-02 0.  1.
    10030    2    1    2    0    0  0.00000000000E+00  0.00000000000E+00  0.41225741655E+03  0.24552755956E+04  0.24204177476E+04 0.  0.
        3    1    3    3  502    0  0.20511065867E+02 -0.32251049141E+02  0.14331541108E+04  0.14336636808E+04  0.10100000352E+00 0. -1.
       -3    1    3    3    0  502 -0.20511065867E+02  0.32251049141E+02 -0.10208966943E+04  0.10216119148E+04  0.10100000352E+00 0.  1.
</event>
<event>
 5   0  0.2297414E-06  0.2399187E+04  0.7818609E-02  0.8439808E-01
       -1   -1    0    0    0  501  0.00000000000E+00  0.00000000000E+00  0.13869911811E+04  0.13869911811E+04  0.50400001928E-02 0. -1.
        1   -1    0    0  501    0  0.00000000000E+00  0.00000000000E+00 -0.10375156924E+04  0.10375156924E+04  0.50400001928E-02 0.  1.
    10030    2    1    2    0    0  0.00000000000E+00  0.00000000000E+00  0.34947548877E+03  0.24245068735E+04  0.23991874588E+04 0.  0.
        1    1    3    3  502    0  0.70450782139E+03 -0.87657160377E+03 -0.24718015327E+03  0.11514369610E+04  0.50400001928E-02 0.  1.
       -1    1    3    3    0  502 -0.70450782139E+03  0.87657160377E+03  0.59665564204E+03  0.12730699125E+04  0.50400001928E-02 0. -1.
</event>
<event>
 5   0  0.2149029E-06  0.2386333E+04  0.7818609E-02  0.8444638E-01
        1   -1    0    0  501    0  0.00000000000E+00  0.00000000000E+00  0.21432491776E+04  0.21432491776E+04  0.50400001928E-02 0. -1.
       -1   -1    0    0    0  501  0.00000000000E+00  0.00000000000E+00 -0.66424664825E+03  0.66424664827E+03  0.50400001928E-02 0.  1.
    10030    2    1    2    0    0  0.00000000000E+00  0.00000000000E+00  0.14790025293E+04  0.28074958258E+04  0.23863328205E+04 0.  0.
        4    1    3    3  502    0  0.89737195933E+03  0.33500172333E+03 -0.97496392794E+02  0.96281345417E+03  0.12699999809E+01 0.  1.
       -4    1    3    3    0  502 -0.89737195933E+03 -0.33500172333E+03  0.15764989221E+04  0.18446823717E+04  0.12699999809E+01 0. -1.
</event>
<event>
 5   0  0.5371843E-06  0.2404331E+04  0.7818609E-02  0.8437884E-01
       -2   -1    0    0    0  501  0.00000000000E+00  0.00000000000E+00  0.17362194817E+04  0.17362194817E+04  0.25500000920E-02 0.  1.
        2   -1    0    0  501    0  0.00000000000E+00  0.00000000000E+00 -0.83238409750E+03  0.83238409750E+03  0.25500000920E-02 0. -1.
    10030    2    1    2    0    0  0.00000000000E+00  0.00000000000E+00  0.90383538417E+03  0.25686035792E+04  0.24043306647E+04 0.  0.
        4    1    3    3  502    0  0.11045821531E+03 -0.11868186490E+04  0.61900144693E+03  0.13430949062E+04  0.12699999809E+01 0.  1.
       -4    1    3    3    0  502 -0.11045821531E+03  0.11868186490E+04  0.28483393724E+03  0.12255086730E+04  0.12699999809E+01 0. -1.
</event>
<event>
 5   0  0.5379778E-06  0.2405757E+04  0.7818609E-02  0.8437351E-01
        2   -1    0    0  501    0  0.00000000000E+00  0.00000000000E+00  0.13412267038E+04  0.13412267038E+04  0.25500000920E-02 0. -1.
       -2   -1    0    0    0  501  0.00000000000E+00  0.00000000000E+00 -0.10788008219E+04  0.10788008219E+04  0.25500000920E-02 0.  1.
    10030    2    1    2    0    0  0.00000000000E+00  0.00000000000E+00  0.26242588189E+03  0.24200275257E+04  0.24057568210E+04 0.  0.
        5    1    3    3  502    0 -0.41748078455E+03 -0.44124527161E+03 -0.91316858932E+03  0.10967618510E+04  0.46999998093E+01 0.  1.
       -5    1    3    3    0  502  0.41748078455E+03  0.44124527161E+03  0.11755944712E+04  0.13232656747E+04  0.46999998093E+01 0. -1.
</event>
<event>
 5   0  0.2297414E-06  0.2395413E+04  0.7818609E-02  0.8441223E-01
       -1   -1    0    0    0  501  0.00000000000E+00  0.00000000000E+00  0.95002892687E+03  0.95002892689E+03  0.50400001928E-02 0. -1.
        1   -1    0    0  501    0  0.00000000000E+00  0.00000000000E+00 -0.15099548487E+04  0.15099548487E+04  0.50400001928E-02 0.  1.
    10030    2    1    2    0    0  0.00000000000E+00  0.00000000000E+00 -0.55992592183E+03  0.24599837756E+04  0.23954129369E+04 0.  0.
        1    1    3    3  502    0  0.10665331677E+04  0.34394157768E+03 -0.71410184213E+03  0.13288078295E+04  0.50400001928E-02 0.  1.
       -1    1    3    3    0  502 -0.10665331677E+04 -0.34394157768E+03  0.15417592030E+03  0.11311759461E+04  0.50400001928E-02 0. -1.
</event>
<event>
 5   0  0.5440503E-06  0.2400136E+04  0.7818609E-02  0.8439453E-01
        2   -1    0    0  501    0  0.00000000000E+00  0.00000000000E+00  0.84883715728E+03  0.84883715728E+03  0.25500000920E-02 0. -1.
       -2   -1    0    0    0  501  0.00000000000E+00  0.00000000000E+00 -0.16966303668E+04  0.16966303668E+04  0.25500000920E-02 0.  1.
    10030    2    1    2    0    0  0.00000000000E+00  0.00000000000E+00 -0.84779320947E+03  0.25454675240E+04  0.24001357441E+04 0.  0.
        3    1    3    3  502    0  0.62592144969E+03  0.33163662028E+03  0.60347203701E+03  0.93055844457E+03  0.10100000352E+00 0. -1.
       -3    1    3    3    0  502 -0.62592144969E+03 -0.33163662028E+03 -0.14512652465E+04  0.16149090795E+04  0.10100000352E+00 0.  1.
</event>
<event>
 5   0  0.5349036E-06  0.2398975E+04  0.7818609E-02  0.8439887E-01
        2   -1    0    0  501    0  0.00000000000E+00  0.00000000000E+00  0.10869145669E+04  0.10869145669E+04  0.25500000920E-02 0. -1.
       -2   -1    0    0    0  501  0.00000000000E+00  0.00000000000E+00 -0.13237200676E+04  0.13237200676E+04  0.25500000920E-02 0.  1.
    10030    2    1    2    0    0  0.00000000000E+00  0.00000000000E+00 -0.23680550066E+03  0.24106346345E+04  0.23989753013E+04 0.  0.
        1    1    3    3  502    0 -0.76686375064E+03 -0.41077213941E+03  0.71141757279E+03  0.11238010168E+04  0.50400001928E-02 0. -1.
       -1    1    3    3    0  502  0.76686375064E+03  0.41077213941E+03 -0.94822307346E+03  0.12868336177E+04  0.50400001928E-02 0.  1.
</event>
<event>
 5   0  0.5268358E-06  0.2406826E+04  0.7818609E-02  0.8436952E-01
       -2   -1    0    0    0  501  0.00000000000E+00  0.00000000000E+00  0.14729957244E+04  0.14729957244E+04  0.25500000920E-02 0. -1.
        2   -1    0    0  501    0  0.00000000000E+00  0.00000000000E+00 -0.98316826326E+03  0.98316826326E+03  0.25500000920E-02 0.  1.
    10030    2    1    2    0    0  0.00000000000E+00  0.00000000000E+00  0.48982746113E+03  0.24561639876E+04  0.24068258334E+04 0.  0.
        2    1    3    3  502    0 -0.47463501279E+02  0.18008052672E+03  0.14582014655E+04  0.14700453374E+04  0.25500000920E-02 0. -1.
       -2    1    3    3    0  502  0.47463501279E+02 -0.18008052672E+03 -0.96837400435E+03  0.98611865025E+03  0.25500000920E-02 0.  1.
</event>
<event>
 5   0  0.2254269E-06  0.2417780E+04  0.7818609E-02  0.8432877E-01
       -1   -1    0    0    0  501  0.00000000000E+00  0.00000000000E+00  0.11140123901E+04  0.11140123901E+04  0.50400001928E-02 0. -1.
        1   -1    0    0  501    0  0.00000000000E+00  0.00000000000E+00 -0.13118477858E+04  0.13118477858E+04  0.50400001928E-02 0.  1.
    10030    2    1    2    0    0  0.00000000000E+00  0.00000000000E+00 -0.19783539565E+03  0.24258601759E+04  0.24177797148E+04 0.  0.
        2    1    3    3  502    0 -0.48116850655E+03  0.98447077607E+03  0.41338532643E+03  0.11711504040E+04  0.25500000920E-02 0. -1.
       -2    1    3    3    0  502  0.48116850655E+03 -0.98447077607E+03 -0.61122072209E+03  0.12547097719E+04  0.25500000920E-02 0.  1.
</event>
<event>
 5   0  0.2149029E-06  0.2397741E+04  0.7818609E-02  0.8440350E-01
       -1   -1    0    0    0  501  0.00000000000E+00  0.00000000000E+00  0.84143101427E+03  0.84143101428E+03  0.50400001928E-02 0. -1.
        1   -1    0    0  501    0  0.00000000000E+00  0.00000000000E+00 -0.17081495100E+04  0.17081495100E+04  0.50400001928E-02 0.  1.
    10030    2    1    2    0    0  0.00000000000E+00  0.00000000000E+00 -0.86671849571E+03  0.25495805243E+04  0.23977405821E+04 0.  0.
        4    1    3    3  502    0 -0.82814822229E+03  0.29020745303E+03  0.43521528951E+03  0.97952223303E+03  0.12699999809E+01 0. -1.
       -4    1    3    3    0  502  0.82814822229E+03 -0.29020745303E+03 -0.13019337852E+04  0.15700582912E+04  0.12699999809E+01 0.  1.
</event>
<event>
 5   0  0.5379778E-06  0.2398413E+04  0.7818609E-02  0.8440098E-01
        2   -1    0    0  501    0  0.00000000000E+00  0.00000000000E+00  0.14054024567E+04  0.14054024567E+04  0.25500000920E-02 0.  1.
       -2   -1    0    0    0  501  0.00000000000E+00  0.00000000000E+00 -0.10232629735E+04  0.10232629735E+04  0.25500000920E-02 0. -1.
    10030    2    1    2    0    0  0.00000000000E+00  0.00000000000E+00  0.38213948322E+03  0.24286654302E+04  0.23984130560E+04 0.  0.
        5    1    3    3  502    0  0.77778079582E+03 -0.33241421136E+03 -0.66973037252E+03  0.10788897238E+04  0.46999998093E+01 0. -1.
       -5    1    3    3    0  502 -0.77778079582E+03  0.33241421136E+03  0.10518698557E+04  0.13497757064E+04  0.46999998093E+01 0.  1.
</event>
<event>
 5   0  0.2254269E-06  0.2399303E+04  0.7818609E-02  0.8439765E-01
       -1   -1    0    0    0  501  0.00000000000E+00  0.00000000000E+00  0.68167479495E+03  0.68167479496E+03  0.50400001928E-02 0.  1.
        1   -1    0    0  501    0  0.00000000000E+00  0.00000000000E+00 -0.21112168909E+04  0.21112168909E+04  0.50400001928E-02 0. -1.
    10030    2    1    2    0    0  0.00000000000E+00  0.00000000000E+00 -0.14295420960E+04  0.27928916859E+04  0.23993026831E+04 0.  0.
        2    1    3    3  502    0  0.10322126619E+04  0.35948557845E+03 -0.13922209681E+03  0.11018510120E+04  0.25500000920E-02 0.  1.
       -2    1    3    3    0  502 -0.10322126619E+04 -0.35948557845E+03 -0.12903199992E+04  0.16910406739E+04  0.25500000920E-02 0. -1.
</event>
<event>
 5   0  0.2149417E-06  0.2398142E+04  0.7818609E-02  0.8440199E-01
        1   -1    0    0  501    0  0.00000000000E+00  0.00000000000E+00  0.13889815966E+04  0.13889815966E+04  0.50400001928E-02 0. -1.
       -1   -1    0    0    0  501  0.00000000000E+00  0.00000000000E+00 -0.10351265021E+04  0.10351265021E+04  0.50400001928E-02 0.  1.
    10030    2    1    2    0    0  0.00000000000E+00  0.00000000000E+00  0.35385509452E+03  0.24241080987E+04  0.23981423323E+04 0.  0.
        5    1    3    3  502    0  0.11920967819E+04  0.12027643632E+03  0.12964055640E+03  0.12051514105E+04  0.46999998093E+01 0.  1.
       -5    1    3    3    0  502 -0.11920967819E+04 -0.12027643632E+03  0.22421453811E+03  0.12189566881E+04  0.46999998093E+01 0. -1.
</event>
<event>
 5   0  0.2149029E-06  0.2400770E+04  0.7818609E-02  0.8439216E-01
       -1   -1    0    0    0  501  0.00000000000E+00  0.00000000000E+00  0.10208479658E+04  0.10208479658E+04  0.50400001928E-02 0.  1.
        1   -1    0    0  501    0  0.00000000000E+00  0.00000000000E+00 -0.14114967394E+04  0.14114967394E+04  0.50400001928E-02 0. -1.
    10030    2    1    2    0    0  0.00000000000E+00  0.00000000000E+00 -0.39064877360E+03  0.24323447052E+04  0.24007695226E+04 0.  0.
        4    1    3    3  502    0 -0.63474281326E+03  0.87686647922E+03  0.33027477058E+03  0.11317580565E+04  0.12699999809E+01 0.  1.
       -4    1    3    3    0  502  0.63474281326E+03 -0.87686647922E+03 -0.72092354418E+03  0.13005866487E+04  0.12699999809E+01 0. -1.
</event>
<event>
 5   0  0.2215700E-06  0.2394321E+04  0.7818609E-02  0.8441633E-01
       -1   -1    0    0    0  501  0.00000000000E+00  0.00000000000E+00  0.12193585649E+04  0.12193585649E+04  0.50400001928E-02 0.  1.
        1   -1    0    0  501    0  0.00000000000E+00  0.00000000000E+00 -0.11753664559E+04  0.11753664559E+04  0.50400001928E-02 0. -1.
    10030    2    1    2    0    0  0.00000000000E+00  0.00000000000E+00  0.43992108922E+02  0.23947250208E+04  0.23943209099E+04 0.  0.
        3    1    3    3  502    0  0.83295190906E+03 -0.84820469540E+03  0.16320436065E+03  0.11999565666E+04  0.10100000352E+00 0.  1.
       -3    1    3    3    0  502 -0.83295190906E+03  0.84820469540E+03 -0.11921225173E+03  0.11947684542E+04  0.10100000352E+00 0. -1.
</event>
<event>
 5   0  0.2149417E-06  0.2401715E+04  0.7818609E-02  0.8438862E-01
       -1   -1    0    0    0  501  0.00000000000E+00  0.00000000000E+00  0.12088016057E+04  0.12088016057E+04  0.50400001928E-02 0.  1.
        1   -1    0    0  501    0  0.00000000000E+00  0.00000000000E+00 -0.11929659309E+04  0.11929659309E+04  0.50400001928E-02 0. -1.
    10030    2    1    2    0    0  0.00000000000E+00  0.00000000000E+00  0.15835674832E+02  0.24017675366E+04  0.24017153310E+04 0.  0.
        5    1    3    3  502    0 -0.35899646019E+03 -0.94204497571E+02  0.11499952426E+04  0.12084138752E+04  0.46999998093E+01 0.  1.
       -5    1    3    3    0  502  0.35899646019E+03  0.94204497571E+02 -0.11341595678E+04  0.11933536613E+04  0.46999998093E+01 0. -1.
</event>
<event>
 5   0  0.2297414E-06  0.2400360E+04  0.7818609E-02  0.8439369E-01
       -1   -1    0    0    0  501  0.00000000000E+00  0.00000000000E+00  0.11642389223E+04  0.11642389223E+04  0.50400001928E-02 0.  1.
        1   -1    0    0  501    0  0.00000000000E+00  0.00000000000E+00 -0.12372308278E+04  0.12372308278E+04  0.50400001928E-02 0. -1.
    10030    2    1    2    0    0  0.00000000000E+00  0.00000000000E+00 -0.72991905427E+02  0.24014697501E+04  0.24003602110E+04 0.  0.
        1    1    3    3  502    0  0.26311488917E+03  0.31827652647E+03  0.10909246258E+04  0.11664672869E+04  0.50400001928E-02 0.  1.
       -1    1    3    3    0  502 -0.26311488917E+03 -0.31827652647E+03 -0.11639165313E+04  0.12350024632E+04  0.50400001928E-02 0. -1.
</event>
<event>
 5   0  0.5349036E-06  0.2401855E+04  0.7818609E-02  0.8438809E-01
        2   -1    0    0  501    0  0.00000000000E+00  0.00000000000E+00  0.22232201932E+04  0.22232201932E+04  0.25500000920E-02 0. -1.
       -2   -1    0    0    0  501  0.00000000000E+00  0.00000000000E+00 -0.64871100706E+03  0.64871100706E+03  0.25500000920E-02 0.  1.
    10030    2    1    2    0    0  0.00000000000E+00  0.00000000000E+00  0.15745091861E+04  0.28719312002E+04  0.24018554581E+04 0.  0.
        1    1    3    3  502    0 -0.21124084910E+03  0.10489276241E+04  0.14392810081E+04  0.17934329308E+04  0.50400001928E-02 0. -1.
       -1    1    3    3    0  502  0.21124084910E+03 -0.10489276241E+04  0.13522817799E+03  0.10784982694E+04  0.50400001928E-02 0.  1.
</event>
<event>
 5   0  0.2297414E-06  0.2396003E+04  0.7818609E-02  0.8441001E-01
        1   -1    0    0  501    0  0.00000000000E+00  0.00000000000E+00  0.12248439713E+04  0.12248439713E+04  0.50400001928E-02 0.  1.
       -1   -1    0    0    0  501  0.00000000000E+00  0.00000000000E+00 -0.11717472919E+04  0.11717472919E+04  0.50400001928E-02 0. -1.
    10030    2    1    2    0    0  0.00000000000E+00  0.00000000000E+00  0.53096679373E+02  0.23965912632E+04  0.23960030103E+04 0.  0.
        1    1    3    3  502    0  0.86338420622E+02  0.96645496705E+03 -0.67627492367E+03  0.11827245236E+04  0.50400001928E-02 0. -1.
       -1    1    3    3    0  502 -0.86338420622E+02 -0.96645496705E+03  0.72937160305E+03  0.12138667396E+04  0.50400001928E-02 0.  1.
</event>
<event>
 5   0  0.5349036E-06  0.2380605E+04  0.7818609E-02  0.8446800E-01
        2   -1    0    0  501    0  0.00000000000E+00  0.00000000000E+00  0.12191613051E+04  0.12191613051E+04  0.25500000920E-02 0. -1.
       -2   -1    0    0    0  501  0.00000000000E+00  0.00000000000E+00 -0.11621272376E+04  0.11621272376E+04  0.25500000920E-02 0.  1.
    10030    2    1    2    0    0  0.00000000000E+00  0.00000000000E+00  0.57034067547E+02  0.23812885427E+04  0.23806054353E+04 0.  0.
        1    1    3    3  502    0 -0.44338029468E+02 -0.44087016612E+03  0.11335911157E+04  0.12171118198E+04  0.50400001928E-02 0. -1.
       -1    1    3    3    0  502  0.44338029468E+02  0.44087016612E+03 -0.10765570481E+04  0.11641767229E+04  0.50400001928E-02 0.  1.
</event>
<event>
 5   0  0.5379778E-06  0.2401893E+04  0.7818609E-02  0.8438795E-01
       -2   -1    0    0    0  501  0.00000000000E+00  0.00000000000E+00  0.62322477610E+03  0.62322477610E+03  0.25500000920E-02 0.  1.
        2   -1    0    0  501    0  0.00000000000E+00  0.00000000000E+00 -0.23142095308E+04  0.23142095308E+04  0.25500000920E-02 0. -1.
    10030    2    1    2    0    0  0.00000000000E+00  0.00000000000E+00 -0.16909847547E+04  0.29374343069E+04  0.24018931839E+04 0.  0.
        5    1    3    3  502    0 -0.59002933843E+02 -0.49681086718E+03  0.48969793291E+03  0.70009180787E+03  0.46999998093E+01 0.  1.
       -5    1    3    3    0  502  0.59002933843E+02  0.49681086718E+03 -0.21806826876E+04  0.22373424991E+04  0.46999998093E+01 0. -1.
</event>
<event>
 5   0  0.2254269E-06  0.2394400E+04  0.7818609E-02  0.8441603E-01
        1   -1    0    0  501    0  0.00000000000E+00  0.00000000000E+00  0.18158965143E+04  0.18158965143E+04  0.50400001928E-02 0. -1.
       -1   -1    0    0    0  501  0.00000000000E+00  0.00000000000E+00 -0.78930044872E+03  0.78930044874E+03  0.50400001928E-02 0.  1.
    10030    2    1    2    0    0  0.00000000000E+00  0.00000000000E+00  0.10265960655E+04  0.26051969630E+04  0.23944000782E+04 0.  0.
        2    1    3    3  502    0 -0.68410176372E+03  0.94538868092E+03  0.80430066704E+03  0.14172701027E+04  0.25500000920E-02 0. -1.
       -2    1    3    3    0  502  0.68410176372E+03 -0.94538868092E+03  0.22229539851E+03  0.11879268603E+04  0.25500000920E-02 0.  1.
</event>
<event>
 5   0  0.2297414E-06  0.2400564E+04  0.7818609E-02  0.8439292E-01
       -1   -1    0    0    0  501  0.00000000000E+00  0.00000000000E+00  0.20209353084E+04  0.20209353084E+04  0.50400001928E-02 0.  1.
        1   -1    0    0  501    0  0.00000000000E+00  0.00000000000E+00 -0.71287645247E+03  0.71287645248E+03  0.50400001928E-02 0. -1.
    10030    2    1    2    0    0  0.00000000000E+00  0.00000000000E+00  0.13080588560E+04  0.27338117609E+04  0.24005642615E+04 0.  0.
        1    1    3    3  502    0 -0.14735801389E+03 -0.46305128001E+02  0.20095696321E+04  0.20154971236E+04  0.50400001928E-02 0.  1.
       -1    1    3    3    0  502  0.14735801389E+03  0.46305128001E+02 -0.70151077611E+03  0.71831463730E+03  0.50400001928E-02 0. -1.
</event>
<event>
 5   0  0.5268358E-06  0.2396570E+04  0.7818609E-02  0.8440789E-01
        2   -1    0    0  501    0  0.00000000000E+00  0.00000000000E+00  0.18960571105E+04  0.18960571105E+04  0.25500000920E-02 0.  1.
       -2   -1    0    0    0  501  0.00000000000E+00  0.00000000000E+00 -0.75730169377E+03  0.75730169377E+03  0.25500000920E-02 0. -1.
    10030    2    1    2    0    0  0.00000000000E+00  0.00000000000E+00  0.11387554167E+04  0.26533588043E+04  0.23965702671E+04 0.  0.
        2    1    3    3  502    0  0.79829582471E+03 -0.73179549293E+03  0.11372556628E+04  0.15703984557E+04  0.25500000920E-02 0.  1.
       -2    1    3    3    0  502 -0.79829582471E+03  0.73179549293E+03  0.14997539478E+01  0.10829603485E+04  0.25500000920E-02 0. -1.
</event>
<event>
 5   0  0.2215700E-06  0.2386586E+04  0.7818609E-02  0.8444543E-01
        1   -1    0    0  501    0  0.00000000000E+00  0.00000000000E+00  0.11204793610E+04  0.11204793610E+04  0.50400001928E-02 0.  1.
       -1   -1    0    0    0  501  0.00000000000E+00  0.00000000000E+00 -0.12708387407E+04  0.12708387408E+04  0.50400001928E-02 0. -1.
    10030    2    1    2    0    0  0.00000000000E+00  0.00000000000E+00 -0.15035937975E+03  0.23913181018E+04  0.23865863321E+04 0.  0.
        3    1    3    3  502    0  0.17180890560E+03 -0.59495329305E+03  0.94687250159E+03  0.11313952737E+04  0.10100000352E+00 0.  1.
       -3    1    3    3    0  502 -0.17180890560E+03  0.59495329305E+03 -0.10972318813E+04  0.12599228280E+04  0.10100000352E+00 0. -1.
</event>
<event>
 5   0  0.2215700E-06  0.2381756E+04  0.7818609E-02  0.8446366E-01
        1   -1    0    0  501    0  0.00000000000E+00  0.00000000000E+00  0.16447355735E+04  0.16447355735E+04  0.50400001928E-02 0.  1.
       -1   -1    0    0    0  501  0.00000000000E+00  0.00000000000E+00 -0.86226047742E+03  0.86226047743E+03  0.50400001928E-02 0. -1.
    10030    2    1    2    0    0  0.00000000000E+00  0.00000000000E+00  0.78247509609E+03  0.25069960509E+04  0.23817560588E+04 0.  0.
        3    1    3    3  502    0  0.31329509263E+03  0.10516573062E+04  0.87822481358E+03  0.14054948375E+04  0.10100000352E+00 0. -1.
       -3    1    3    3    0  502 -0.31329509263E+03 -0.10516573062E+04 -0.95749717497E+02  0.11015012135E+04  0.10100000352E+00 0.  1.
</event>
<event>
 5   0  0.5268358E-06  0.2405779E+04  0.7818609E-02  0.8437343E-01
       -2   -1    0    0    0  501  0.00000000000E+00  0.00000000000E+00  0.15438938472E+04  0.15438938472E+04  0.25500000920E-02 0. -1.
        2   -1    0    0  501    0  0.00000000000E+00  0.00000000000E+00 -0.93720400389E+03  0.93720400389E+03  0.25500000920E-02 0.  1.
    10030    2    1    2    0    0  0.00000000000E+00  0.00000000000E+00  0.60668984331E+03  0.24810978511E+04  0.24057792876E+04 0.  0.
        2    1    3    3  502    0 -0.19884194508E+02  0.25144177013E+03 -0.90962560279E+03  0.94394760565E+03  0.25500000920E-02 0.  1.
       -2    1    3    3    0  502  0.19884194508E+02 -0.25144177013E+03  0.15163154461E+04  0.15371502454E+04  0.25500000920E-02 0. -1.
</event>
<event>
 5   0  0.2149417E-06  0.2405484E+04  0.7818609E-02  0.8437453E-01
       -1   -1    0    0    0  501  0.00000000000E+00  0.00000000000E+00  0.80130296072E+03  0.80130296074E+03  0.50400001928E-02 0.  1.
        1   -1    0    0  501    0  0.00000000000E+00  0.00000000000E+00 -0.18052957035E+04  0.18052957036E+04  0.50400001928E-02 0. -1.
    10030    2    1    2    0    0  0.00000000000E+00  0.00000000000E+00 -0.10039927428E+04  0.26065986643E+04  0.24054843939E+04 0.  0.
        5    1    3    3  502    0 -0.79875115209E+03  0.12778218687E+03  0.46249565265E+03  0.93180255900E+03  0.46999998093E+01 0.  1.
       -5    1    3    3    0  502  0.79875115209E+03 -0.12778218687E+03 -0.14664883955E+04  0.16747961053E+04  0.46999998093E+01 0. -1.
</event>
<event>
 5   0  0.5440503E-06  0.2401594E+04  0.7818609E-02  0.8438907E-01
       -2   -1    0    0    0  501  0.00000000000E+00  0.00000000000E+00  0.93356773309E+03  0.93356773309E+03  0.25500000920E-02 0.  1.
        2   -1    0    0  501    0  0.00000000000E+00  0.00000000000E+00 -0.15445199492E+04  0.15445199492E+04  0.25500000920E-02 0. -1.
    10030    2    1    2    0    0  0.00000000000E+00  0.00000000000E+00 -0.61095221612E+03  0.24780876823E+04  0.24015944601E+04 0.  0.
        3    1    3    3  502    0 -0.68908972950E+03 -0.71381598758E+03 -0.10034347018E+04  0.14111198144E+04  0.10100000352E+00 0. -1.
       -3    1    3    3    0  502  0.68908972950E+03  0.71381598758E+03  0.39248248571E+03  0.10669678679E+04  0.10100000352E+00 0.  1.
</event>
<event>
 5   0  0.5440503E-06  0.2415579E+04  0.7818609E-02  0.8433694E-01
        2   -1    0    0  501    0  0.00000000000E+00  0.00000000000E+00  0.15318564129E+04  0.15318564129E+04  0.25500000920E-02 0.  1.
       -2   -1    0    0    0  501  0.00000000000E+00  0.00000000000E+00 -0.95227919155E+03  0.95227919155E+03  0.25500000920E-02 0. -1.
    10030    2    1    2    0    0  0.00000000000E+00  0.00000000000E+00  0.57957722139E+03  0.24841356045E+04  0.24155785944E+04 0.  0.
        3    1    3    3  502    0  0.50006235093E+03  0.16893244040E+03  0.14069696379E+04  0.15027189013E+04  0.10100000352E+00 0.  1.
       -3    1    3    3    0  502 -0.50006235093E+03 -0.16893244040E+03 -0.82739241648E+03  0.98141670319E+03  0.10100000352E+00 0. -1.
</event>
<event>
 5   0  0.5268358E-06  0.2380171E+04  0.7818609E-02  0.8446965E-01
       -2   -1    0    0    0  501  0.00000000000E+00  0.00000000000E+00  0.79236775359E+03  0.79236775359E+03  0.25500000920E-02 0. -1.
        2   -1    0    0  501    0  0.00000000000E+00  0.00000000000E+00 -0.17874323546E+04  0.17874323546E+04  0.25500000920E-02 0.  1.
    10030    2    1    2    0    0  0.00000000000E+00  0.00000000000E+00 -0.99506460105E+03  0.25798001082E+04  0.23801712203E+04 0.  0.
        2    1    3    3  502    0  0.40284221604E+03 -0.15426688127E+03 -0.16997133860E+04  0.17535979346E+04  0.25500000920E-02 0.  1.
       -2    1    3    3    0  502 -0.40284221604E+03  0.15426688127E+03  0.70464878491E+03  0.82620217366E+03  0.25500000920E-02 0. -1.
</event>
<event>
 5   0  0.2149029E-06  0.2401150E+04  0.7818609E-02  0.8439073E-01
        1   -1    0    0  501    0  0.00000000000E+00  0.00000000000E+00  0.19605009365E+04  0.19605009365E+04  0.50400001928E-02 0.  1.
       -1   -1    0    0    0  501  0.00000000000E+00  0.00000000000E+00 -0.73521000944E+03  0.73521000946E+03  0.50400001928E-02 0. -1.
    10030    2    1    2    0    0  0.00000000000E+00  0.00000000000E+00  0.12252909271E+04  0.26957109460E+04  0.24011496514E+04 0.  0.
        4    1    3    3  502    0 -0.74823274500E+03  0.27673163069E+03 -0.39460476883E+03  0.89002650106E+03  0.12699999809E+01 0. -1.
       -4    1    3    3    0  502  0.74823274500E+03 -0.27673163069E+03  0.16198956959E+04  0.18056844449E+04  0.12699999809E+01 0.  1.
</event>
<event>
 5   0  0.5349036E-06  0.2396456E+04  0.7818609E-02  0.8440832E-01
       -2   -1    0    0    0  501  0.00000000000E+00  0.00000000000E+00  0.96118097839E+03  0.96118097839E+03  0.25500000920E-02 0.  1.
        2   -1    0    0  501    0  0.00000000000E+00  0.00000000000E+00 -0.14937352335E+04  0.14937352335E+04  0.25500000920E-02 0. -1.
    10030    2    1    2    0    0  0.00000000000E+00  0.00000000000E+00 -0.53255425512E+03  0.24549162119E+04  0.23964556271E+04 0.  0.
        1    1    3    3  502    0 -0.83326960121E+03 -0.62311475053E+03  0.34247506289E+03  0.10953991918E+04  0.50400001928E-02 0. -1.
       -1    1    3    3    0  502  0.83326960121E+03  0.62311475053E+03 -0.87502931801E+03  0.13595170201E+04  0.50400001928E-02 0.  1.
</event>
<event>
 5   0  0.5268358E-06  0.2399946E+04  0.7818609E-02  0.8439524E-01
        2   -1    0    0  501    0  0.00000000000E+00  0.00000000000E+00  0.74855979340E+03  0.74855979340E+03  0.25500000920E-02 0. -1.
       -2   -1    0    0    0  501  0.00000000000E+00  0.00000000000E+00 -0.19236080113E+04  0.19236080113E+04  0.25500000920E-02 0.  1.
    10030    2    1    2    0    0  0.00000000000E+00  0.00000000000E+00 -0.11750482179E+04  0.26721678047E+04  0.23999463457E+04 0.  0.
        2    1    3    3  502    0 -0.10744399318E+04  0.66764440539E+02 -0.11778058712E+04  0.15956520072E+04  0.25500000920E-02 0.  1.
       -2    1    3    3    0  502  0.10744399318E+04 -0.66764440539E+02  0.27576533561E+01  0.10765157975E+04  0.25500000920E-02 0. -1.
</event>
<event>
 5   0  0.5349036E-06  0.2399723E+04  0.7818609E-02  0.8439607E-01
       -2   -1    0    0    0  501  0.00000000000E+00  0.00000000000E+00  0.88159522505E+03  0.88159522506E+03  0.25500000920E-02 0.  1.
        2   -1    0    0  501    0  0.00000000000E+00  0.00000000000E+00 -0.16330262158E+04  0.16330262158E+04  0.25500000920E-02 0. -1.
    10030    2    1    2    0    0  0.00000000000E+00  0.00000000000E+00 -0.75143099077E+03  0.25146214409E+04  0.23997234126E+04 0.  0.
        1    1    3    3  502    0 -0.99892168634E+02 -0.74073527624E+02 -0.16262547831E+04  0.16310027445E+04  0.50400001928E-02 0. -1.
       -1    1    3    3    0  502  0.99892168634E+02  0.74073527624E+02  0.87482379238E+03  0.88361869637E+03  0.50400001928E-02 0.  1.
</event>
<event>
 5   0  0.5440503E-06  0.2404685E+04  0.7818609E-02  0.8437752E-01
        2   -1    0    0  501    0  0.00000000000E+00  0.00000000000E+00  0.17381508378E+04  0.17381508378E+04  0.25500000920E-02 0. -1.
       -2   -1    0    0    0  501  0.00000000000E+00  0.00000000000E+00 -0.83170397225E+03  0.83170397226E+03  0.25500000920E-02 0.  1.
    10030    2    1    2    0    0  0.00000000000E+00  0.00000000000E+00  0.90644686555E+03  0.25698548101E+04  0.24046845583E+04 0.  0.
        3    1    3    3  502    0 -0.26164265837E+03  0.82761675683E+03  0.13423687038E+04  0.15985493812E+04  0.10100000352E+00 0. -1.
       -3    1    3    3    0  502  0.26164265837E+03 -0.82761675683E+03 -0.43592183828E+03  0.97130542888E+03  0.10100000352E+00 0.  1.
</event>
<event>
 5   0  0.2254269E-06  0.2411929E+04  0.7818609E-02  0.8435051E-01
        1   -1    0    0  501    0  0.00000000000E+00  0.00000000000E+00  0.24433705857E+04  0.24433705857E+04  0.50400001928E-02 0.  1.
       -1   -1    0    0    0  501  0.00000000000E+00  0.00000000000E+00 -0.59522278940E+03  0.59522278942E+03  0.50400001928E-02 0. -1.
    10030    2    1    2    0    0  0.00000000000E+00  0.00000000000E+00  0.18481477963E+04  0.30385933752E+04  0.24119285691E+04 0.  0.
        2    1    3    3  502    0  0.48009229659E+03 -0.82012007668E+03 -0.11306102356E+02  0.95037538971E+03  0.25500000920E-02 0. -1.
       -2    1    3    3    0  502 -0.48009229659E+03  0.82012007668E+03  0.18594538987E+04  0.20882179855E+04  0.25500000920E-02 0.  1.
</event>
<event>
 5   0  0.5440503E-06  0.2399066E+04  0.7818609E-02  0.8439853E-01
        2   -1    0    0  501    0  0.00000000000E+00  0.00000000000E+00  0.15184630727E+04  0.15184630727E+04  0.25500000920E-02 0. -1.
       -2   -1    0    0    0  501  0.00000000000E+00  0.00000000000E+00 -0.94758965598E+03  0.94758965599E+03  0.25500000920E-02 0.  1.
    10030    2    1    2    0    0  0.00000000000E+00  0.00000000000E+00  0.57087341675E+03  0.24660527287E+04  0.23990664023E+04 0.  0.
        3    1    3    3  502    0  0.57317596260E+02 -0.11856055011E+04  0.10759084496E+03  0.11918563299E+04  0.10100000352E+00 0. -1.
       -3    1    3    3    0  502 -0.57317596260E+02  0.11856055011E+04  0.46328257179E+03  0.12741963988E+04  0.10100000352E+00 0.  1.
</event>
<event>
 5   0  0.5371843E-06  0.2400996E+04  0.7818609E-02  0.8439131E-01
       -2   -1    0    0    0  501  0.00000000000E+00  0.00000000000E+00  0.97582277947E+03  0.97582277948E+03  0.25500000920E-02 0.  1.
        2   -1    0    0  501    0  0.00000000000E+00  0.00000000000E+00 -0.14769033253E+04  0.14769033253E+04  0.25500000920E-02 0. -1.
    10030    2    1    2    0    0  0.00000000000E+00  0.00000000000E+00 -0.50108054585E+03  0.24527261048E+04  0.24009963831E+04 0.  0.
        4    1    3    3  502    0 -0.70334556673E+03 -0.60624811329E+03  0.52674918529E+03  0.10675664280E+04  0.12699999809E+01 0.  1.
       -4    1    3    3    0  502  0.70334556673E+03  0.60624811329E+03 -0.10278297311E+04  0.13851596768E+04  0.12699999809E+01 0. -1.
</event>
<event>
 5   0  0.2297414E-06  0.2405437E+04  0.7818609E-02  0.8437471E-01
        1   -1    0    0  501    0  0.00000000000E+00  0.00000000000E+00  0.93797960322E+03  0.93797960323E+03  0.50400001928E-02 0.  1.
       -1   -1    0    0    0  501  0.00000000000E+00  0.00000000000E+00 -0.15421777149E+04  0.15421777149E+04  0.50400001928E-02 0. -1.
    10030    2    1    2    0    0  0.00000000000E+00  0.00000000000E+00 -0.60419811166E+03  0.24801573181E+04  0.24054365434E+04 0.  0.
        1    1    3    3  502    0  0.10664109798E+04  0.43362660447E+03 -0.66115022011E+03  0.13275481248E+04  0.50400001928E-02 0. -1.
       -1    1    3    3    0  502 -0.10664109798E+04 -0.43362660447E+03  0.56952108452E+02  0.11526091934E+04  0.50400001928E-02 0.  1.
</event>
<event>
 5   0  0.2254269E-06  0.2401382E+04  0.7818609E-02  0.8438986E-01
        1   -1    0    0  501    0  0.00000000000E+00  0.00000000000E+00  0.79658557141E+03  0.79658557143E+03  0.50400001928E-02 0.  1.
       -1   -1    0    0    0  501  0.00000000000E+00  0.00000000000E+00 -0.18097974846E+04  0.18097974846E+04  0.50400001928E-02 0. -1.
    10030    2    1    2    0    0  0.00000000000E+00  0.00000000000E+00 -0.10132119131E+04  0.26063830560E+04  0.24013817384E+04 0.  0.
        2    1    3    3  502    0 -0.10685122718E+04 -0.54754434775E+03 -0.51922965794E+03  0.13080988975E+04  0.25500000920E-02 0.  1.
       -2    1    3    3    0  502  0.10685122718E+04  0.54754434775E+03 -0.49398225521E+03  0.12982841585E+04  0.25500000920E-02 0. -1.
</event>
<event>
 5   0  0.2149417E-06  0.2400810E+04  0.7818609E-02  0.8439200E-01
       -1   -1    0    0    0  501  0.00000000000E+00  0.00000000000E+00  0.79080002757E+03  0.79080002759E+03  0.50400001928E-02 0.  1.
        1   -1    0    0  501    0  0.00000000000E+00  0.00000000000E+00 -0.18221703035E+04  0.18221703035E+04  0.50400001928E-02 0. -1.
    10030    2    1    2    0    0  0.00000000000E+00  0.00000000000E+00 -0.10313702759E+04  0.26129703311E+04  0.24008101351E+04 0.  0.
        5    1    3    3  502    0  0.26415147177E+03  0.59244483091E+03 -0.16149840046E+04  0.17403914223E+04  0.46999998093E+01 0. -1.
       -5    1    3    3    0  502 -0.26415147177E+03 -0.59244483091E+03  0.58361372869E+03  0.87257890877E+03  0.46999998093E+01 0.  1.
</event>
<event>
 5   0  0.2215700E-06  0.2329453E+04  0.7818609E-02  0.8466398E-01
       -1   -1    0    0    0  501  0.00000000000E+00  0.00000000000E+00  0.55739290851E+03  0.55739290853E+03  0.50400001928E-02 0. -1.
        1   -1    0    0  501    0  0.00000000000E+00  0.00000000000E+00 -0.24338097117E+04  0.24338097117E+04  0.50400001928E-02 0.  1.
    10030    2    1    2    0    0  0.00000000000E+00  0.00000000000E+00 -0.18764168032E+04  0.29912026203E+04  0.23294533900E+04 0.  0.
        3    1    3    3  502    0  0.10452120507E+04 -0.28218097858E+03 -0.14897558077E+04  0.18415935253E+04  0.10100000352E+00 0. -1.
       -3    1    3    3    0  502 -0.10452120507E+04  0.28218097858E+03 -0.38666099547E+03  0.11496090949E+04  0.10100000352E+00 0.  1.
</event>
<event>
 5   0  0.5371843E-06  0.2400699E+04  0.7818609E-02  0.8439242E-01
        2   -1    0    0  501    0  0.00000000000E+00  0.00000000000E+00  0.17642221986E+04  0.17642221986E+04  0.25500000920E-02 0.  1.
       -2   -1    0    0    0  501  0.00000000000E+00  0.00000000000E+00 -0.81669924993E+03  0.81669924994E+03  0.25500000920E-02 0. -1.
    10030    2    1    2    0    0  0.00000000000E+00  0.00000000000E+00  0.94752294865E+03  0.25809214485E+04  0.24006990201E+04 0.  0.
        4    1    3    3  502    0 -0.56969192004E+03 -0.14775897682E+03  0.15984601199E+04  0.17033666566E+04  0.12699999809E+01 0.  1.
       -4    1    3    3    0  502  0.56969192004E+03  0.14775897682E+03 -0.65093717126E+03  0.87755479192E+03  0.12699999809E+01 0. -1.
</event>
<event>
 5   0  0.2297414E-06  0.2403478E+04  0.7818609E-02  0.8438202E-01
       -1   -1    0    0    0  501  0.00000000000E+00  0.00000000000E+00  0.12322705903E+04  0.12322705904E+04  0.50400001928E-02 0. -1.
        1   -1    0    0  501    0  0.00000000000E+00  0.00000000000E+00 -0.11719642013E+04  0.11719642013E+04  0.50400001928E-02 0.  1.
    10030    2    1    2    0    0  0.00000000000E+00  0.00000000000E+00  0.60306389063E+02  0.24042347917E+04  0.24034783279E+04 0.  0.
        1    1    3    3  502    0  0.37161289932E+03 -0.73138997144E+03 -0.84827442117E+03  0.11800834423E+04  0.50400001928E-02 0.  1.
       -1    1    3    3    0  502 -0.37161289932E+03  0.73138997144E+03  0.90858081024E+03  0.12241513493E+04  0.50400001928E-02 0. -1.
</event>
<event>
 5   0  0.5379778E-06  0.2399466E+04  0.7818609E-02  0.8439703E-01
        2   -1    0    0  501    0  0.00000000000E+00  0.00000000000E+00  0.18029934922E+04  0.18029934922E+04  0.25500000920E-02 0.  1.
       -2   -1    0    0    0  501  0.00000000000E+00  0.00000000000E+00 -0.79831646967E+03  0.79831646968E+03  0.25500000920E-02 0. -1.
    10030    2    1    2    0    0  0.00000000000E+00  0.00000000000E+00  0.10046770225E+04  0.26013099619E+04  0.23994661069E+04 0.  0.
        5    1    3    3  502    0 -0.11721133108E+04 -0.23520066401E+03  0.61165925978E+03  0.13428768021E+04  0.46999998093E+01 0. -1.
       -5    1    3    3    0  502  0.11721133108E+04  0.23520066401E+03  0.39301776275E+03  0.12584331597E+04  0.46999998093E+01 0.  1.
</event>
<event>
 5   0  0.5379778E-06  0.2397276E+04  0.7818609E-02  0.8440524E-01
        2   -1    0    0  501    0  0.00000000000E+00  0.00000000000E+00  0.10502477348E+04  0.10502477348E+04  0.25500000920E-02 0. -1.
       -2   -1    0    0    0  501  0.00000000000E+00  0.00000000000E+00 -0.13679946328E+04  0.13679946328E+04  0.25500000920E-02 0.  1.
    10030    2    1    2    0    0  0.00000000000E+00  0.00000000000E+00 -0.31774689802E+03  0.24182423677E+04  0.23972761747E+04 0.  0.
        5    1    3    3  502    0 -0.58469765710E+03  0.58543635704E+03 -0.10336975387E+04  0.13240693977E+04  0.46999998093E+01 0.  1.
       -5    1    3    3    0  502  0.58469765710E+03 -0.58543635704E+03  0.71595064068E+03  0.10941729700E+04  0.46999998093E+01 0. -1.
</event>
<event>
 5   0  0.5379778E-06  0.2399010E+04  0.7818609E-02  0.8439874E-01
        2   -1    0    0  501    0  0.00000000000E+00  0.00000000000E+00  0.16535856908E+04  0.16535856908E+04  0.25500000920E-02 0. -1.
       -2   -1    0    0    0  501  0.00000000000E+00  0.00000000000E+00 -0.87011689339E+03  0.87011689339E+03  0.25500000920E-02 0.  1.
    10030    2    1    2    0    0  0.00000000000E+00  0.00000000000E+00  0.78346879744E+03  0.25237025842E+04  0.23990104996E+04 0.  0.
        5    1    3    3  502    0  0.50374114450E+02 -0.19456015743E+02  0.16522966287E+04  0.16531855090E+04  0.46999998093E+01 0. -1.
       -5    1    3    3    0  502 -0.50374114450E+02  0.19456015743E+02 -0.86882783124E+03  0.87051707524E+03  0.46999998093E+01 0.  1.
</event>
<event>
 5   0  0.5268358E-06  0.2398610E+04  0.7818609E-02  0.8440024E-01
        2   -1    0    0  501    0  0.00000000000E+00  0.00000000000E+00  0.17058088836E+04  0.17058088836E+04  0.25500000920E-02 0. -1.
       -2   -1    0    0    0  501  0.00000000000E+00  0.00000000000E+00 -0.84319685644E+03  0.84319685644E+03  0.25500000920E-02 0.  1.
    10030    2    1    2    0    0  0.00000000000E+00  0.00000000000E+00  0.86261202712E+03  0.25490057400E+04  0.23986101712E+04 0.  0.
        2    1    3    3  502    0  0.30681232844E+02 -0.10256791154E+04  0.10910146662E+04  0.14977556502E+04  0.25500000920E-02 0. -1.
       -2    1    3    3    0  502 -0.30681232844E+02  0.10256791154E+04 -0.22840263907E+03  0.10512500898E+04  0.25500000920E-02 0.  1.
</event>
<event>
 5   0  0.2149029E-06  0.2400697E+04  0.7818609E-02  0.8439243E-01
       -1   -1    0    0    0  501  0.00000000000E+00  0.00000000000E+00  0.19097792411E+04  0.19097792411E+04  0.50400001928E-02 0.  1.
        1   -1    0    0  501    0  0.00000000000E+00  0.00000000000E+00 -0.75445156945E+03  0.75445156947E+03  0.50400001928E-02 0. -1.
    10030    2    1    2    0    0  0.00000000000E+00  0.00000000000E+00  0.11553276716E+04  0.26642308106E+04  0.24006965204E+04 0.  0.
        4    1    3    3  502    0 -0.41412872008E+03  0.88375810760E+03  0.13531596042E+04  0.16684044824E+04  0.12699999809E+01 0.  1.
       -4    1    3    3    0  502  0.41412872008E+03 -0.88375810760E+03 -0.19783193251E+03  0.99582632821E+03  0.12699999809E+01 0. -1.
</event>
<event>
 5   0  0.5349036E-06  0.2395022E+04  0.7818609E-02  0.8441370E-01
       -2   -1    0    0    0  501  0.00000000000E+00  0.00000000000E+00  0.73078012007E+03  0.73078012007E+03  0.25500000920E-02 0. -1.
        2   -1    0    0  501    0  0.00000000000E+00  0.00000000000E+00 -0.19623307343E+04  0.19623307343E+04  0.25500000920E-02 0.  1.
    10030    2    1    2    0    0  0.00000000000E+00  0.00000000000E+00 -0.12315506142E+04  0.26931108544E+04  0.23950217449E+04 0.  0.
        1    1    3    3  502    0 -0.70258697847E+03  0.92653048191E+03 -0.29388622482E+03  0.11993566231E+04  0.50400001928E-02 0.  1.
       -1    1    3    3    0  502  0.70258697847E+03 -0.92653048191E+03 -0.93766438939E+03  0.14937542312E+04  0.50400001928E-02 0. -1.
</event>
<event>
 5   0  0.5379778E-06  0.2388637E+04  0.7818609E-02  0.8443770E-01
       -2   -1    0    0    0  501  0.00000000000E+00  0.00000000000E+00  0.69055794468E+03  0.69055794468E+03  0.25500000920E-02 0. -1.
        2   -1    0    0  501    0  0.00000000000E+00  0.00000000000E+00 -0.20655711362E+04  0.20655711362E+04  0.25500000920E-02 0.  1.
    10030    2    1    2    0    0  0.00000000000E+00  0.00000000000E+00 -0.13750131915E+04  0.27561290809E+04  0.23886368987E+04 0.  0.
        5    1    3    3  502    0  0.63208005995E+03  0.79355034504E+03  0.39626961284E+02  0.10153027816E+04  0.46999998093E+01 0. -1.
       -5    1    3    3    0  502 -0.63208005995E+03 -0.79355034504E+03 -0.14146401528E+04  0.17408262993E+04  0.46999998093E+01 0.  1.
</event>
<event>
 5   0  0.5371843E-06  0.2402201E+04  0.7818609E-02  0.8438680E-01
       -2   -1    0    0    0  501  0.00000000000E+00  0.00000000000E+00  0.11214309817E+04  0.11214309817E+04  0.25500000920E-02 0.  1.
        2   -1    0    0  501    0  0.00000000000E+00  0.00000000000E+00 -0.12864304825E+04  0.12864304825E+04  0.25500000920E-02 0. -1.
    10030    2    1    2    0    0  0.00000000000E+00  0.00000000000E+00 -0.16499950078E+03  0.24078614642E+04  0.24022014893E+04 0.  0.
        4    1    3    3  502    0 -0.27737721388E+03  0.11500895727E+04  0.12534658103E+03  0.11896879937E+04  0.12699999809E+01 0. -1.
       -4    1    3    3    0  502  0.27737721388E+03 -0.11500895727E+04 -0.29034608181E+03  0.12181734705E+04  0.12699999809E+01 0.  1.
</event>
<event>
 5   0  0.5379778E-06  0.2397158E+04  0.7818609E-02  0.8440568E-01
       -2   -1    0    0    0  501  0.00000000000E+00  0.00000000000E+00  0.18576320087E+04  0.18576320087E+04  0.25500000920E-02 0. -1.
        2   -1    0    0  501    0  0.00000000000E+00  0.00000000000E+00 -0.77334548703E+03  0.77334548703E+03  0.25500000920E-02 0.  1.
    10030    2    1    2    0    0  0.00000000000E+00  0.00000000000E+00  0.10842865217E+04  0.26309774957E+04  0.23971577591E+04 0.  0.
        5    1    3    3  502    0 -0.89276835672E+03 -0.71316506589E+03  0.14500726195E+03  0.11518198409E+04  0.46999998093E+01 0.  1.
       -5    1    3    3    0  502  0.89276835672E+03  0.71316506589E+03  0.93927925971E+03  0.14791576548E+04  0.46999998093E+01 0. -1.
</event>
<event>
 5   0  0.5379778E-06  0.2451368E+04  0.7818609E-02  0.8420519E-01
        2   -1    0    0  501    0  0.00000000000E+00  0.00000000000E+00  0.10429271645E+04  0.10429271645E+04  0.25500000920E-02 0.  1.
       -2   -1    0    0    0  501  0.00000000000E+00  0.00000000000E+00 -0.14404661616E+04  0.14404661616E+04  0.25500000920E-02 0. -1.
    10030    2    1    2    0    0  0.00000000000E+00  0.00000000000E+00 -0.39753899710E+03  0.24833933260E+04  0.24513680176E+04 0.  0.
        5    1    3    3  502    0 -0.34858479067E+03 -0.31916011597E+03  0.94689137002E+03  0.10583004736E+04  0.46999998093E+01 0.  1.
       -5    1    3    3    0  502  0.34858479067E+03  0.31916011597E+03 -0.13444303671E+04  0.14250928524E+04  0.46999998093E+01 0. -1.
</event>
<event>
 5   0  0.2149029E-06  0.2400424E+04  0.7818609E-02  0.8439345E-01
        1   -1    0    0  501    0  0.00000000000E+00  0.00000000000E+00  0.17006712469E+04  0.17006712469E+04  0.50400001928E-02 0.  1.
       -1   -1    0    0    0  501  0.00000000000E+00  0.00000000000E+00 -0.84702352891E+03  0.84702352893E+03  0.50400001928E-02 0. -1.
    10030    2    1    2    0    0  0.00000000000E+00  0.00000000000E+00  0.85364771801E+03  0.25476947759E+04  0.24004237635E+04 0.  0.
        4    1    3    3  502    0  0.67204029165E+03  0.54677444360E+02 -0.62700800232E+03  0.92074340856E+03  0.12699999809E+01 0. -1.
       -4    1    3    3    0  502 -0.67204029165E+03 -0.54677444360E+02  0.14806557203E+04  0.16269513673E+04  0.12699999809E+01 0.  1.
</event>
<event>
 5   0  0.2215700E-06  0.2399607E+04  0.7818609E-02  0.8439651E-01
        1   -1    0    0  501    0  0.00000000000E+00  0.00000000000E+00  0.51874887950E+03  0.51874887952E+03  0.50400001928E-02 0.  1.
       -1   -1    0    0    0  501  0.00000000000E+00  0.00000000000E+00 -0.27749996022E+04  0.27749996022E+04  0.50400001928E-02 0. -1.
    10030    2    1    2    0    0  0.00000000000E+00  0.00000000000E+00 -0.22562507227E+04  0.32937484818E+04  0.23996065797E+04 0.  0.
        3    1    3    3  502    0 -0.11656100923E+04 -0.27569437853E+03 -0.12239500462E+04  0.17125151104E+04  0.10100000352E+00 0.  1.
       -3    1    3    3    0  502  0.11656100923E+04  0.27569437853E+03 -0.10323006766E+04  0.15812333713E+04  0.10100000352E+00 0. -1.
</event>
<event>
 5   0  0.2149417E-06  0.2394138E+04  0.7818609E-02  0.8441701E-01
       -1   -1    0    0    0  501  0.00000000000E+00  0.00000000000E+00  0.93723828459E+03  0.93723828460E+03  0.50400001928E-02 0. -1.
        1   -1    0    0  501    0  0.00000000000E+00  0.00000000000E+00 -0.15289331709E+04  0.15289331709E+04  0.50400001928E-02 0.  1.
    10030    2    1    2    0    0  0.00000000000E+00  0.00000000000E+00 -0.59169488630E+03  0.24661714555E+04  0.23941384274E+04 0.  0.
        5    1    3    3  502    0  0.34131886431E+03 -0.83368204119E+03 -0.11078726724E+04  0.14279104528E+04  0.46999998093E+01 0.  1.
       -5    1    3    3    0  502 -0.34131886431E+03  0.83368204119E+03  0.51617778609E+03  0.10382610027E+04  0.46999998093E+01 0. -1.
</event>
<event>
 5   0  0.5349036E-06  0.2402257E+04  0.7818609E-02  0.8438659E-01
       -2   -1    0    0    0  501  0.00000000000E+00  0.00000000000E+00  0.16987309202E+04  0.16987309202E+04  0.25500000920E-02 0. -1.
        2   -1    0    0  501    0  0.00000000000E+00  0.00000000000E+00 -0.84928669667E+03  0.84928669668E+03  0.25500000920E-02 0.  1.
    10030    2    1    2    0    0  0.00000000000E+00  0.00000000000E+00  0.84944422350E+03  0.25480176169E+04  0.24022569153E+04 0.  0.
        1    1    3    3  502    0  0.17576051806E+03  0.61008917187E+03 -0.65675664326E+03  0.91347131638E+03  0.50400001928E-02 0.  1.
       -1    1    3    3    0  502 -0.17576051806E+03 -0.61008917187E+03  0.15062008668E+04  0.16345463005E+04  0.50400001928E-02 0. -1.
</event>
<event>
 5   0  0.5379778E-06  0.2417479E+04  0.7818609E-02  0.8432989E-01
        2   -1    0    0  501    0  0.00000000000E+00  0.00000000000E+00  0.13505608067E+04  0.13505608067E+04  0.25500000920E-02 0. -1.
       -2   -1    0    0    0  501  0.00000000000E+00  0.00000000000E+00 -0.10818105351E+04  0.10818105351E+04  0.25500000920E-02 0.  1.
    10030    2    1    2    0    0  0.00000000000E+00  0.00000000000E+00  0.26875027158E+03  0.24323713419E+04  0.24174787768E+04 0.  0.
        5    1    3    3  502    0  0.10832102257E+04  0.45107176241E+03  0.42636747124E+03  0.12484476114E+04  0.46999998093E+01 0. -1.
       -5    1    3    3    0  502 -0.10832102257E+04 -0.45107176241E+03 -0.15761719966E+03  0.11839237304E+04  0.46999998093E+01 0.  1.
</event>
<event>
 5   0  0.2149417E-06  0.2402072E+04  0.7818609E-02  0.8438728E-01
       -1   -1    0    0    0  501  0.00000000000E+00  0.00000000000E+00  0.21267180722E+04  0.21267180722E+04  0.50400001928E-02 0. -1.
        1   -1    0    0  501    0  0.00000000000E+00  0.00000000000E+00 -0.67826908811E+03  0.67826908812E+03  0.50400001928E-02 0.  1.
    10030    2    1    2    0    0  0.00000000000E+00  0.00000000000E+00  0.14484489841E+04  0.28049871603E+04  0.24020717121E+04 0.  0.
        5    1    3    3  502    0  0.46000884436E+03  0.11073548735E+04  0.64483484671E+03  0.13614980802E+04  0.46999998093E+01 0.  1.
       -5    1    3    3    0  502 -0.46000884436E+03 -0.11073548735E+04  0.80361413738E+03  0.14434890802E+04  0.46999998093E+01 0. -1.
</event>
<event>
 5   0  0.2297414E-06  0.2404381E+04  0.7818609E-02  0.8437865E-01
        1   -1    0    0  501    0  0.00000000000E+00  0.00000000000E+00  0.14693977788E+04  0.14693977789E+04  0.50400001928E-02 0. -1.
       -1   -1    0    0    0  501  0.00000000000E+00  0.00000000000E+00 -0.98357450555E+03  0.98357450556E+03  0.50400001928E-02 0.  1.
    10030    2    1    2    0    0  0.00000000000E+00  0.00000000000E+00  0.48582327330E+03  0.24529722844E+04  0.24043811626E+04 0.  0.
        1    1    3    3  502    0  0.69208714825E+03  0.80350319447E+03 -0.33480097295E+03  0.11120673072E+04  0.50400001928E-02 0.  1.
       -1    1    3    3    0  502 -0.69208714825E+03 -0.80350319447E+03  0.82062424625E+03  0.13409049772E+04  0.50400001928E-02 0. -1.
</event>
<event>
 5   0  0.5371843E-06  0.2399823E+04  0.7818609E-02  0.8439570E-01
        2   -1    0    0  501    0  0.00000000000E+00  0.00000000000E+00  0.14091857969E+04  0.14091857969E+04  0.25500000920E-02 0.  1.
       -2   -1    0    0    0  501  0.00000000000E+00  0.00000000000E+00 -0.10217155589E+04  0.10217155589E+04  0.25500000920E-02 0. -1.
    10030    2    1    2    0    0  0.00000000000E+00  0.00000000000E+00  0.38747023797E+03  0.24309013558E+04  0.23998225385E+04 0.  0.
        4    1    3    3  502    0 -0.51767259775E+03  0.10524549945E+04 -0.62801475023E+02  0.11745603740E+04  0.12699999809E+01 0. -1.
       -4    1    3    3    0  502  0.51767259775E+03 -0.10524549945E+04  0.45027171300E+03  0.12563409818E+04  0.12699999809E+01 0.  1.
</event>
<event>
 5   0  0.2297414E-06  0.2432186E+04  0.7818609E-02  0.8427551E-01
       -1   -1    0    0    0  501  0.00000000000E+00  0.00000000000E+00  0.95866024996E+03  0.95866024998E+03  0.50400001928E-02 0.  1.
        1   -1    0    0  501    0  0.00000000000E+00  0.00000000000E+00 -0.15426553781E+04  0.15426553781E+04  0.50400001928E-02 0. -1.
    10030    2    1    2    0    0  0.00000000000E+00  0.00000000000E+00 -0.58399512810E+03  0.25013156280E+04  0.24321861692E+04 0.  0.
        1    1    3    3  502    0 -0.71705069291E+02 -0.31637603338E+03  0.91334154943E+03  0.96924104195E+03  0.50400001928E-02 0.  1.
       -1    1    3    3    0  502  0.71705069291E+02  0.31637603338E+03 -0.14973366775E+04  0.15320745861E+04  0.50400001928E-02 0. -1.
</event>
<event>
 5   0  0.5371843E-06  0.2397413E+04  0.7818609E-02  0.8440473E-01
        2   -1    0    0  501    0  0.00000000000E+00  0.00000000000E+00  0.17091777540E+04  0.17091777540E+04  0.25500000920E-02 0. -1.
       -2   -1    0    0    0  501  0.00000000000E+00  0.00000000000E+00 -0.84069514397E+03  0.84069514397E+03  0.25500000920E-02 0.  1.
    10030    2    1    2    0    0  0.00000000000E+00  0.00000000000E+00  0.86848261007E+03  0.25498728980E+04  0.23974131375E+04 0.  0.
        4    1    3    3  502    0  0.14972547936E+03  0.90497230670E+03  0.12550041965E+04  0.15544869704E+04  0.12699999809E+01 0. -1.
       -4    1    3    3    0  502 -0.14972547936E+03 -0.90497230670E+03 -0.38652158647E+03  0.99538592756E+03  0.12699999809E+01 0.  1.
</event>
<event>
 5   0  0.5349036E-06  0.2399766E+04  0.7818609E-02  0.8439591E-01
       -2   -1    0    0    0  501  0.00000000000E+00  0.00000000000E+00  0.57061044611E+03  0.57061044611E+03  0.25500000920E-02 0. -1.
        2   -1    0    0  501    0  0.00000000000E+00  0.00000000000E+00 -0.25231218415E+04  0.25231218415E+04  0.25500000920E-02 0.  1.
    10030    2    1    2    0    0  0.00000000000E+00  0.00000000000E+00 -0.19525113954E+04  0.30937322876E+04  0.23997663883E+04 0.  0.
        1    1    3    3  502    0  0.40241039189E+03  0.11113356507E+04 -0.70980159659E+03  0.13787020558E+04  0.50400001928E-02 0.  1.
       -1    1    3    3    0  502 -0.40241039189E+03 -0.11113356507E+04 -0.12427097988E+04  0.17150302319E+04  0.50400001928E-02 0. -1.
</event>
<event>
 5   0  0.2254269E-06  0.2395755E+04  0.7818609E-02  0.8441095E-01
        1   -1    0    0  501    0  0.00000000000E+00  0.00000000000E+00  0.94973359937E+03  0.94973359938E+03  0.50400001928E-02 0.  1.
       -1   -1    0    0    0  501  0.00000000000E+00  0.00000000000E+00 -0.15108554528E+04  0.15108554528E+04  0.50400001928E-02 0. -1.
    10030    2    1    2    0    0  0.00000000000E+00  0.00000000000E+00 -0.56112185345E+03  0.24605890522E+04  0.23957547348E+04 0.  0.
        2    1    3    3  502    0 -0.10358755426E+04  0.52200158970E+03  0.26505564476E+02  0.11602699446E+04  0.25500000920E-02 0.  1.
       -2    1    3    3    0  502  0.10358755426E+04 -0.52200158970E+03 -0.58762741793E+03  0.13003191076E+04  0.25500000920E-02 0. -1.
</event>
<event>
 5   0  0.2297414E-06  0.2397088E+04  0.7818609E-02  0.8440595E-01
       -1   -1    0    0    0  501  0.00000000000E+00  0.00000000000E+00  0.93575353737E+03  0.93575353738E+03  0.50400001928E-02 0. -1.
        1   -1    0    0  501    0  0.00000000000E+00  0.00000000000E+00 -0.15351346277E+04  0.15351346277E+04  0.50400001928E-02 0.  1.
    10030    2    1    2    0    0  0.00000000000E+00  0.00000000000E+00 -0.59938109029E+03  0.24708881650E+04  0.23970879485E+04 0.  0.
        1    1    3    3  502    0 -0.35148161038E+03 -0.11425005311E+04 -0.38991166838E+03  0.12573296684E+04  0.50400001928E-02 0. -1.
       -1    1    3    3    0  502  0.35148161038E+03  0.11425005311E+04 -0.20946942192E+03  0.12135584966E+04  0.50400001928E-02 0.  1.
</event>
<event>
 5   0  0.1796750E-06  0.2400978E+04  0.7818609E-02  0.8439138E-01
       -3   -1    0    0    0  501  0.00000000000E+00  0.00000000000E+00  0.15491258626E+04  0.15491258659E+04  0.10100000352E+00 0.  1.
        3   -1    0    0  501    0  0.00000000000E+00  0.00000000000E+00 -0.93031402730E+03  0.93031403278E+03  0.10100000352E+00 0. -1.
    10030    2    1    2    0    0  0.00000000000E+00  0.00000000000E+00  0.61881183533E+03  0.24794398987E+04  0.24009777433E+04 0.  0.
        5    1    3    3  502    0 -0.11142081200E+04  0.16592136847E+03 -0.11907733865E+03  0.11327802690E+04  0.46999998093E+01 0. -1.
       -5    1    3    3    0  502  0.11142081200E+04 -0.16592136847E+03  0.73788917398E+03  0.13466596297E+04  0.46999998093E+01 0.  1.
</event>
<event>
 5   0  0.5371843E-06  0.2400412E+04  0.7818609E-02  0.8439349E-01
       -2   -1    0    0    0  501  0.00000000000E+00  0.00000000000E+00  0.10718023877E+04  0.10718023877E+04  0.25500000920E-02 0.  1.
        2   -1    0    0  501    0  0.00000000000E+00  0.00000000000E+00 -0.13439931253E+04  0.13439931253E+04  0.25500000920E-02 0. -1.
    10030    2    1    2    0    0  0.00000000000E+00  0.00000000000E+00 -0.27219073759E+03  0.24157955130E+04  0.24004124986E+04 0.  0.
        4    1    3    3  502    0 -0.11378500916E+04  0.25958744924E+03  0.14570790908E+03  0.11761466246E+04  0.12699999809E+01 0. -1.
       -4    1    3    3    0  502  0.11378500916E+04 -0.25958744924E+03 -0.41789864667E+03  0.12396488885E+04  0.12699999809E+01 0.  1.
</event>
<event>
 5   0  0.2149029E-06  0.2399312E+04  0.7818609E-02  0.8439761E-01
       -1   -1    0    0    0  501  0.00000000000E+00  0.00000000000E+00  0.81179693366E+03  0.81179693368E+03  0.50400001928E-02 0.  1.
        1   -1    0    0  501    0  0.00000000000E+00  0.00000000000E+00 -0.17728255797E+04  0.17728255797E+04  0.50400001928E-02 0. -1.
    10030    2    1    2    0    0  0.00000000000E+00  0.00000000000E+00 -0.96102864601E+03  0.25846225134E+04  0.23993118760E+04 0.  0.
        4    1    3    3  502    0 -0.99621857826E+03 -0.92663861105E+02 -0.11935549072E+04  0.15574379526E+04  0.12699999809E+01 0. -1.
       -4    1    3    3    0  502  0.99621857826E+03  0.92663861105E+02  0.23252626118E+03  0.10271845608E+04  0.12699999809E+01 0.  1.
</event>
<event>
 5   0  0.5371843E-06  0.2397841E+04  0.7818609E-02  0.8440312E-01
       -2   -1    0    0    0  501  0.00000000000E+00  0.00000000000E+00  0.10357983575E+04  0.10357983575E+04  0.25500000920E-02 0. -1.
        2   -1    0    0  501    0  0.00000000000E+00  0.00000000000E+00 -0.13877319788E+04  0.13877319788E+04  0.25500000920E-02 0.  1.
    10030    2    1    2    0    0  0.00000000000E+00  0.00000000000E+00 -0.35193362129E+03  0.24235303363E+04  0.23978411159E+04 0.  0.
        4    1    3    3  502    0 -0.94668709570E+03  0.64507984929E+03  0.18146643774E+03  0.11598604011E+04  0.12699999809E+01 0. -1.
       -4    1    3    3    0  502  0.94668709570E+03 -0.64507984929E+03 -0.53340005904E+03  0.12636699352E+04  0.12699999809E+01 0.  1.
</event>
<event>
 5   0  0.2254269E-06  0.2397393E+04  0.7818609E-02  0.8440480E-01
        1   -1    0    0  501    0  0.00000000000E+00  0.00000000000E+00  0.19293359937E+04  0.19293359937E+04  0.50400001928E-02 0. -1.
       -1   -1    0    0    0  501  0.00000000000E+00  0.00000000000E+00 -0.74475013095E+03  0.74475013097E+03  0.50400001928E-02 0.  1.
    10030    2    1    2    0    0  0.00000000000E+00  0.00000000000E+00  0.11845858628E+04  0.26740861247E+04  0.23973929457E+04 0.  0.
        2    1    3    3  502    0  0.52863398039E+03  0.91730382376E+03  0.12192837544E+04  0.16147919569E+04  0.25500000920E-02 0. -1.
       -2    1    3    3    0  502 -0.52863398039E+03 -0.91730382376E+03 -0.34697891594E+02  0.10592941678E+04  0.25500000920E-02 0.  1.
</event>
<event>
 5   0  0.5349036E-06  0.2400974E+04  0.7818609E-02  0.8439139E-01
        2   -1    0    0  501    0  0.00000000000E+00  0.00000000000E+00  0.13698960806E+04  0.13698960806E+04  0.25500000920E-02 0. -1.
       -2   -1    0    0    0  501  0.00000000000E+00  0.00000000000E+00 -0.10520283354E+04  0.10520283354E+04  0.25500000920E-02 0.  1.
    10030    2    1    2    0    0  0.00000000000E+00  0.00000000000E+00  0.31786774521E+03  0.24219244160E+04  0.24009743800E+04 0.  0.
        1    1    3    3  502    0  0.14864659903E+03 -0.11756015546E+04  0.35305700026E+03  0.12364400803E+04  0.50400001928E-02 0. -1.
       -1    1    3    3    0  502 -0.14864659903E+03  0.11756015546E+04 -0.35189255051E+02  0.11854843358E+04  0.50400001928E-02 0.  1.
</event>
<event>
 5   0  0.2215700E-06  0.2407078E+04  0.7818609E-02  0.8436859E-01
       -1   -1    0    0    0  501  0.00000000000E+00  0.00000000000E+00  0.11724948000E+04  0.11724948000E+04  0.50400001928E-02 0.  1.
        1   -1    0    0  501    0  0.00000000000E+00  0.00000000000E+00 -0.12354046529E+04  0.12354046529E+04  0.50400001928E-02 0. -1.
    10030    2    1    2    0    0  0.00000000000E+00  0.00000000000E+00 -0.62909852856E+02  0.24078994530E+04  0.24070775073E+04 0.  0.
        3    1    3    3  502    0  0.11840321990E+03 -0.11440698080E+04 -0.38596340117E+03  0.12132117727E+04  0.10100000352E+00 0. -1.
       -3    1    3    3    0  502 -0.11840321990E+03  0.11440698080E+04  0.32305354832E+03  0.11946876803E+04  0.10100000352E+00 0.  1.
</event>
<event>
 5   0  0.2297414E-06  0.2403507E+04  0.7818609E-02  0.8438192E-01
        1   -1    0    0  501    0  0.00000000000E+00  0.00000000000E+00  0.19916158987E+04  0.19916158987E+04  0.50400001928E-02 0.  1.
       -1   -1    0    0    0  501  0.00000000000E+00  0.00000000000E+00 -0.72514530687E+03  0.72514530689E+03  0.50400001928E-02 0. -1.
    10030    2    1    2    0    0  0.00000000000E+00  0.00000000000E+00  0.12664705918E+04  0.27167612056E+04  0.24035065401E+04 0.  0.
        1    1    3    3  502    0 -0.44309380083E+02  0.11757889771E+04  0.35689762513E+03  0.12295604721E+04  0.50400001928E-02 0.  1.
       -1    1    3    3    0  502  0.44309380083E+02 -0.11757889771E+04  0.90957296668E+03  0.14872007334E+04  0.50400001928E-02 0. -1.
</event>
<event>
 5   0  0.2215700E-06  0.2402730E+04  0.7818609E-02  0.8438482E-01
        1   -1    0    0  501    0  0.00000000000E+00  0.00000000000E+00  0.15317900373E+04  0.15317900373E+04  0.50400001928E-02 0.  1.
       -1   -1    0    0    0  501  0.00000000000E+00  0.00000000000E+00 -0.94221649392E+03  0.94221649394E+03  0.50400001928E-02 0. -1.
    10030    2    1    2    0    0  0.00000000000E+00  0.00000000000E+00  0.58957354336E+03  0.24740065312E+04  0.24027299793E+04 0.  0.
        3    1    3    3  502    0  0.90478685799E+02 -0.63319938077E+03 -0.75231197199E+03  0.98747210684E+03  0.10100000352E+00 0. -1.
       -3    1    3    3    0  502 -0.90478685799E+02  0.63319938077E+03  0.13418855153E+04  0.14865344244E+04  0.10100000352E+00 0.  1.
</event>
<event>
 5   0  0.5440503E-06  0.2400504E+04  0.7818609E-02  0.8439315E-01
        2   -1    0    0  501    0  0.00000000000E+00  0.00000000000E+00  0.16040331228E+04  0.16040331228E+04  0.25500000920E-02 0.  1.
       -2   -1    0    0    0  501  0.00000000000E+00  0.00000000000E+00 -0.89811418334E+03  0.89811418334E+03  0.25500000920E-02 0. -1.
    10030    2    1    2    0    0  0.00000000000E+00  0.00000000000E+00  0.70591893951E+03  0.25021473062E+04  0.24005040289E+04 0.  0.
        3    1    3    3  502    0 -0.13656422264E+03  0.32952278742E+03  0.15475084258E+04  0.15880860785E+04  0.10100000352E+00 0.  1.
       -3    1    3    3    0  502  0.13656422264E+03 -0.32952278742E+03 -0.84158948634E+03  0.91406122773E+03  0.10100000352E+00 0. -1.
</event>
<event>
 5   0  0.5268358E-06  0.2418206E+04  0.7818609E-02  0.8432719E-01
       -2   -1    0    0    0  501  0.00000000000E+00  0.00000000000E+00  0.10153897302E+04  0.10153897302E+04  0.25500000920E-02 0.  1.
        2   -1    0    0  501    0  0.00000000000E+00  0.00000000000E+00 -0.14397720807E+04  0.14397720807E+04  0.25500000920E-02 0. -1.
    10030    2    1    2    0    0  0.00000000000E+00  0.00000000000E+00 -0.42438235045E+03  0.24551618109E+04  0.24182057684E+04 0.  0.
        2    1    3    3  502    0 -0.57545258917E+03 -0.87001106397E+03 -0.83298042213E+03  0.13348862564E+04  0.25500000920E-02 0. -1.
       -2    1    3    3    0  502  0.57545258917E+03  0.87001106397E+03  0.40859807168E+03  0.11202755545E+04  0.25500000920E-02 0.  1.
</event>
<event>
 5   0  0.2149029E-06  0.2399476E+04  0.7818609E-02  0.8439700E-01
       -1   -1    0    0    0  501  0.00000000000E+00  0.00000000000E+00  0.12638710773E+04  0.12638710773E+04  0.50400001928E-02 0.  1.
        1   -1    0    0  501    0  0.00000000000E+00  0.00000000000E+00 -0.11388595595E+04  0.11388595595E+04  0.50400001928E-02 0. -1.
    10030    2    1    2    0    0  0.00000000000E+00  0.00000000000E+00  0.12501151786E+03  0.24027306368E+04  0.23994763248E+04 0.  0.
        4    1    3    3  502    0 -0.22055459520E+03 -0.24000620464E+03 -0.10936695349E+04  0.11412107484E+04  0.12699999809E+01 0. -1.
       -4    1    3    3    0  502  0.22055459520E+03  0.24000620464E+03  0.12186810527E+04  0.12615198884E+04  0.12699999809E+01 0.  1.
</event>
<event>
 5   0  0.5349036E-06  0.2398388E+04  0.7818609E-02  0.8440107E-01
        2   -1    0    0  501    0  0.00000000000E+00  0.00000000000E+00  0.17492885379E+04  0.17492885379E+04  0.25500000920E-02 0.  1.
       -2   -1    0    0    0  501  0.00000000000E+00  0.00000000000E+00 -0.82208615566E+03  0.82208615567E+03  0.25500000920E-02 0. -1.
    10030    2    1    2    0    0  0.00000000000E+00  0.00000000000E+00  0.92720238227E+03  0.25713746936E+04  0.23983876995E+04 0.  0.
        1    1    3    3  502    0 -0.75904517469E+03  0.26127997768E+03 -0.49152386301E+03  0.94128237627E+03  0.50400001928E-02 0. -1.
       -1    1    3    3    0  502  0.75904517469E+03 -0.26127997768E+03  0.14187262453E+04  0.16300923173E+04  0.50400001928E-02 0.  1.
</event>
<event>
 5   0  0.1796750E-06  0.2400931E+04  0.7818609E-02  0.8439155E-01
       -4   -1    0    0    0  501  0.00000000000E+00  0.00000000000E+00  0.10713213758E+04  0.10713221286E+04  0.12699999809E+01 0.  1.
        4   -1    0    0  501    0  0.00000000000E+00  0.00000000000E+00 -0.13451756874E+04  0.13451762869E+04  0.12699999809E+01 0. -1.
    10030    2    1    2    0    0  0.00000000000E+00  0.00000000000E+00 -0.27385431159E+03  0.24164984155E+04  0.24009307379E+04 0.  0.
        5    1    3    3  502    0 -0.47260759228E+03 -0.32132959272E+03  0.92560938345E+03  0.10878352192E+04  0.46999998093E+01 0.  1.
       -5    1    3    3    0  502  0.47260759228E+03  0.32132959272E+03 -0.11994636950E+04  0.13286631963E+04  0.46999998093E+01 0. -1.
</event>
<event>
 5   0  0.2149029E-06  0.2398496E+04  0.7818609E-02  0.8440067E-01
       -1   -1    0    0    0  501  0.00000000000E+00  0.00000000000E+00  0.78058982491E+03  0.78058982492E+03  0.50400001928E-02 0.  1.
        1   -1    0    0  501    0  0.00000000000E+00  0.00000000000E+00 -0.18424473204E+04  0.18424473204E+04  0.50400001928E-02 0. -1.
    10030    2    1    2    0    0  0.00000000000E+00  0.00000000000E+00 -0.10618574955E+04  0.26230371453E+04  0.23984958880E+04 0.  0.
        4    1    3    3  502    0 -0.94637856679E+03 -0.64990753052E+03 -0.15180161530E+03  0.11580403850E+04  0.12699999809E+01 0.  1.
       -4    1    3    3    0  502  0.94637856679E+03  0.64990753052E+03 -0.91005588016E+03  0.14649967603E+04  0.12699999809E+01 0. -1.
</event>
<event>
 5   0  0.5349036E-06  0.2408483E+04  0.7818609E-02  0.8436334E-01
        2   -1    0    0  501    0  0.00000000000E+00  0.00000000000E+00  0.80476094378E+03  0.80476094378E+03  0.25500000920E-02 0. -1.
       -2   -1    0    0    0  501  0.00000000000E+00  0.00000000000E+00 -0.18020234245E+04  0.18020234245E+04  0.25500000920E-02 0.  1.
    10030    2    1    2    0    0  0.00000000000E+00  0.00000000000E+00 -0.99726248073E+03  0.26067843683E+04  0.24084833998E+04 0.  0.
        1    1    3    3  502    0 -0.21256681832E+03 -0.24589616071E+03 -0.17536484657E+04  0.17835168951E+04  0.50400001928E-02 0.  1.
       -1    1    3    3    0  502  0.21256681832E+03  0.24589616071E+03  0.75638598494E+03  0.82326747315E+03  0.50400001928E-02 0. -1.
</event>
<event>
 5   0  0.2297414E-06  0.2399734E+04  0.7818609E-02  0.8439603E-01
        1   -1    0    0  501    0  0.00000000000E+00  0.00000000000E+00  0.23172652397E+04  0.23172652397E+04  0.50400001928E-02 0.  1.
       -1   -1    0    0    0  501  0.00000000000E+00  0.00000000000E+00 -0.62128434349E+03  0.62128434352E+03  0.50400001928E-02 0. -1.
    10030    2    1    2    0    0  0.00000000000E+00  0.00000000000E+00  0.16959808962E+04  0.29385495833E+04  0.23997338296E+04 0.  0.
        1    1    3    3  502    0  0.10214606214E+04  0.61007777768E+03  0.65787659493E+03  0.13595507751E+04  0.50400001928E-02 0. -1.
       -1    1    3    3    0  502 -0.10214606214E+04 -0.61007777768E+03  0.10381043013E+04  0.15789988082E+04  0.50400001928E-02 0.  1.
</event>
<event>
 5   0  0.5349036E-06  0.2398841E+04  0.7818609E-02  0.8439938E-01
       -2   -1    0    0    0  501  0.00000000000E+00  0.00000000000E+00  0.43982177786E+03  0.43982177786E+03  0.25500000920E-02 0. -1.
        2   -1    0    0  501    0  0.00000000000E+00  0.00000000000E+00 -0.32708923947E+04  0.32708923947E+04  0.25500000920E-02 0.  1.
    10030    2    1    2    0    0  0.00000000000E+00  0.00000000000E+00 -0.28310706168E+04  0.37107141725E+04  0.23988411437E+04 0.  0.
        1    1    3    3  502    0  0.81622721604E+03 -0.40071400980E+01 -0.56071006887E+02  0.81816067078E+03  0.50400001928E-02 0. -1.
       -1    1    3    3    0  502 -0.81622721604E+03  0.40071400980E+01 -0.27749996099E+04  0.28925535018E+04  0.50400001928E-02 0.  1.
</event>
<event>
 5   0  0.2149029E-06  0.2401068E+04  0.7818609E-02  0.8439104E-01
        1   -1    0    0  501    0  0.00000000000E+00  0.00000000000E+00  0.14979427996E+04  0.14979427996E+04  0.50400001928E-02 0.  1.
       -1   -1    0    0    0  501  0.00000000000E+00  0.00000000000E+00 -0.96217437451E+03  0.96217437452E+03  0.50400001928E-02 0. -1.
    10030    2    1    2    0    0  0.00000000000E+00  0.00000000000E+00  0.53576842512E+03  0.24601171742E+04  0.24010682425E+04 0.  0.
        4    1    3    3  502    0 -0.47598713270E+03 -0.11009169015E+04  0.32111167237E+03  0.12416505521E+04  0.12699999809E+01 0. -1.
       -4    1    3    3    0  502  0.47598713270E+03  0.11009169015E+04  0.21465675275E+03  0.12184666220E+04  0.12699999809E+01 0.  1.
</event>
<event>
 5   0  0.5268358E-06  0.2403000E+04  0.7818609E-02  0.8438381E-01
       -2   -1    0    0    0  501  0.00000000000E+00  0.00000000000E+00  0.87540937884E+03  0.87540937884E+03  0.25500000920E-02 0. -1.
        2   -1    0    0  501    0  0.00000000000E+00  0.00000000000E+00 -0.16490595798E+04  0.16490595798E+04  0.25500000920E-02 0.  1.
    10030    2    1    2    0    0  0.00000000000E+00  0.00000000000E+00 -0.77365020096E+03  0.25244689586E+04  0.24029999771E+04 0.  0.
        2    1    3    3  502    0 -0.26833612419E+03 -0.16485649513E+03 -0.16049274930E+04  0.16355348352E+04  0.25500000920E-02 0.  1.
       -2    1    3    3    0  502  0.26833612419E+03  0.16485649513E+03  0.83127729202E+03  0.88893412341E+03  0.25500000920E-02 0. -1.
</event>
<event>
 5   0  0.5268358E-06  0.2399581E+04  0.7818609E-02  0.8439660E-01
       -2   -1    0    0    0  501  0.00000000000E+00  0.00000000000E+00  0.10695034145E+04  0.10695034145E+04  0.25500000920E-02 0. -1.
        2   -1    0    0  501    0  0.00000000000E+00  0.00000000000E+00 -0.13459495832E+04  0.13459495832E+04  0.25500000920E-02 0.  1.
    10030    2    1    2    0    0  0.00000000000E+00  0.00000000000E+00 -0.27644616867E+03  0.24154529977E+04  0.23995813593E+04 0.  0.
        2    1    3    3  502    0 -0.12284392008E+03  0.85410851278E+03 -0.97734689911E+03  0.13037633764E+04  0.25500000920E-02 0.  1.
       -2    1    3    3    0  502  0.12284392008E+03 -0.85410851278E+03  0.70090073045E+03  0.11116896214E+04  0.25500000920E-02 0. -1.
</event>
<event>
 5   0  0.2149029E-06  0.2396275E+04  0.7818609E-02  0.8440900E-01
       -1   -1    0    0    0  501  0.00000000000E+00  0.00000000000E+00  0.12689030471E+04  0.12689030472E+04  0.50400001928E-02 0. -1.
        1   -1    0    0  501    0  0.00000000000E+00  0.00000000000E+00 -0.11313180369E+04  0.11313180369E+04  0.50400001928E-02 0.  1.
    10030    2    1    2    0    0  0.00000000000E+00  0.00000000000E+00  0.13758501026E+03  0.24002210841E+04  0.23962745288E+04 0.  0.
        4    1    3    3  502    0  0.45144090158E+03  0.56420981681E+03  0.10260859918E+04  0.12549843347E+04  0.12699999809E+01 0. -1.
       -4    1    3    3    0  502 -0.45144090158E+03 -0.56420981681E+03 -0.88850098150E+03  0.11452367493E+04  0.12699999809E+01 0.  1.
</event>
<event>
 5   0  0.2149417E-06  0.2390229E+04  0.7818609E-02  0.8443171E-01
       -1   -1    0    0    0  501  0.00000000000E+00  0.00000000000E+00  0.15118033595E+04  0.15118033595E+04  0.50400001928E-02 0. -1.
        1   -1    0    0  501    0  0.00000000000E+00  0.00000000000E+00 -0.94476485698E+03  0.94476485699E+03  0.50400001928E-02 0.  1.
    10030    2    1    2    0    0  0.00000000000E+00  0.00000000000E+00  0.56703850251E+03  0.24565682165E+04  0.23902290139E+04 0.  0.
        5    1    3    3  502    0  0.26858168313E+03 -0.92052501482E+03  0.10166000470E+04  0.13974978243E+04  0.46999998093E+01 0. -1.
       -5    1    3    3    0  502 -0.26858168313E+03  0.92052501482E+03 -0.44956154444E+03  0.10590703922E+04  0.46999998093E+01 0.  1.
</event>
<event>
 5   0  0.2254269E-06  0.2409951E+04  0.7818609E-02  0.8435787E-01
        1   -1    0    0  501    0  0.00000000000E+00  0.00000000000E+00  0.86063472930E+03  0.86063472932E+03  0.50400001928E-02 0.  1.
       -1   -1    0    0    0  501  0.00000000000E+00  0.00000000000E+00 -0.16870878219E+04  0.16870878219E+04  0.50400001928E-02 0. -1.
    10030    2    1    2    0    0  0.00000000000E+00  0.00000000000E+00 -0.82645309262E+03  0.25477225512E+04  0.24099513447E+04 0.  0.
        2    1    3    3  502    0  0.92185649626E+03 -0.54119790526E+03  0.17466873421E+03  0.10831545315E+04  0.25500000920E-02 0.  1.
       -2    1    3    3    0  502 -0.92185649626E+03  0.54119790526E+03 -0.10011218268E+04  0.14645680198E+04  0.25500000920E-02 0. -1.
</event>
<event>
 5   0  0.5440503E-06  0.2405025E+04  0.7818609E-02  0.8437625E-01
       -2   -1    0    0    0  501  0.00000000000E+00  0.00000000000E+00  0.33544618665E+04  0.33544618665E+04  0.25500000920E-02 0.  1.
        2   -1    0    0  501    0  0.00000000000E+00  0.00000000000E+00 -0.43107850319E+03  0.43107850320E+03  0.25500000920E-02 0. -1.
    10030    2    1    2    0    0  0.00000000000E+00  0.00000000000E+00  0.29233833633E+04  0.37855403697E+04  0.24050250730E+04 0.  0.
        3    1    3    3  502    0  0.70177272436E+03 -0.21054700614E+03  0.29625617483E+04  0.30518170196E+04  0.10100000352E+00 0.  1.
       -3    1    3    3    0  502 -0.70177272436E+03  0.21054700614E+03 -0.39178384972E+02  0.73372335011E+03  0.10100000352E+00 0. -1.
</event>
<event>
 5   0  0.2254269E-06  0.2402933E+04  0.7818609E-02  0.8438406E-01
       -1   -1    0    0    0  501  0.00000000000E+00  0.00000000000E+00  0.91070643619E+03  0.91070643621E+03  0.50400001928E-02 0. -1.
        1   -1    0    0  501    0  0.00000000000E+00  0.00000000000E+00 -0.15850570649E+04  0.15850570649E+04  0.50400001928E-02 0.  1.
    10030    2    1    2    0    0  0.00000000000E+00  0.00000000000E+00 -0.67435062871E+03  0.24957635011E+04  0.24029329335E+04 0.  0.
        2    1    3    3  502    0 -0.74304524452E+03 -0.41940073451E+03  0.54138011259E+03  0.10104977179E+04  0.25500000920E-02 0. -1.
       -2    1    3    3    0  502  0.74304524452E+03  0.41940073451E+03 -0.12157307413E+04  0.14852657832E+04  0.25500000920E-02 0.  1.
</event>
<event>
 5   0  0.2297414E-06  0.2398459E+04  0.7818609E-02  0.8440081E-01
        1   -1    0    0  501    0  0.00000000000E+00  0.00000000000E+00  0.14939666499E+04  0.14939666499E+04  0.50400001928E-02 0. -1.
       -1   -1    0    0    0  501  0.00000000000E+00  0.00000000000E+00 -0.96263962972E+03  0.96263962974E+03  0.50400001928E-02 0.  1.
    10030    2    1    2    0    0  0.00000000000E+00  0.00000000000E+00  0.53132702021E+03  0.24566062797E+04  0.23984590909E+04 0.  0.
        1    1    3    3  502    0 -0.35550357549E+03 -0.82548088070E+03  0.10788574432E+04  0.14041847668E+04  0.50400001928E-02 0. -1.
       -1    1    3    3    0  502  0.35550357549E+03  0.82548088070E+03 -0.54753042300E+03  0.10524215129E+04  0.50400001928E-02 0.  1.
</event>
<event>
 5   0  0.5349036E-06  0.2412142E+04  0.7818609E-02  0.8434972E-01
       -2   -1    0    0    0  501  0.00000000000E+00  0.00000000000E+00  0.13828461878E+04  0.13828461878E+04  0.25500000920E-02 0.  1.
        2   -1    0    0  501    0  0.00000000000E+00  0.00000000000E+00 -0.10518935632E+04  0.10518935632E+04  0.25500000920E-02 0. -1.
    10030    2    1    2    0    0  0.00000000000E+00  0.00000000000E+00  0.33095262458E+03  0.24347397510E+04  0.24121417901E+04 0.  0.
        1    1    3    3  502    0 -0.11947525886E+04 -0.12401178617E+03  0.27509545492E+03  0.12322703358E+04  0.50400001928E-02 0.  1.
       -1    1    3    3    0  502  0.11947525886E+04  0.12401178617E+03  0.55857169665E+02  0.12024694152E+04  0.50400001928E-02 0. -1.
</event>
<event>
 5   0  0.1796750E-06  0.2395438E+04  0.7818609E-02  0.8441214E-01
        3   -1    0    0  501    0  0.00000000000E+00  0.00000000000E+00  0.71752523484E+03  0.71752524195E+03  0.10100000352E+00 0.  1.
       -3   -1    0    0    0  501  0.00000000000E+00  0.00000000000E+00 -0.19992754281E+04  0.19992754307E+04  0.10100000352E+00 0. -1.
    10030    2    1    2    0    0  0.00000000000E+00  0.00000000000E+00 -0.12817501933E+04  0.27168006726E+04  0.23954378173E+04 0.  0.
        4    1    3    3  502    0 -0.22939482325E+03  0.10297005401E+04  0.23262620027E+01  0.10549465445E+04  0.12699999809E+01 0.  1.
       -4    1    3    3    0  502  0.22939482325E+03 -0.10297005401E+04 -0.12840764553E+04  0.16618541281E+04  0.12699999809E+01 0. -1.
</event>
<event>
 5   0  0.2149417E-06  0.2406274E+04  0.7818609E-02  0.8437158E-01
       -1   -1    0    0    0  501  0.00000000000E+00  0.00000000000E+00  0.57055170873E+03  0.57055170875E+03  0.50400001928E-02 0.  1.
        1   -1    0    0  501    0  0.00000000000E+00  0.00000000000E+00 -0.25370860193E+04  0.25370860193E+04  0.50400001928E-02 0. -1.
    10030    2    1    2    0    0  0.00000000000E+00  0.00000000000E+00 -0.19665343106E+04  0.31076377281E+04  0.24062741021E+04 0.  0.
        5    1    3    3  502    0  0.46150996120E+02 -0.22751573663E+03  0.54134014632E+03  0.58903698430E+03  0.46999998093E+01 0.  1.
       -5    1    3    3    0  502 -0.46150996120E+02  0.22751573663E+03 -0.25078744569E+04  0.25186007438E+04  0.46999998093E+01 0. -1.
</event>
<event>
 5   0  0.5268358E-06  0.2390650E+04  0.7818609E-02  0.8443012E-01
       -2   -1    0    0    0  501  0.00000000000E+00  0.00000000000E+00  0.12525716109E+04  0.12525716110E+04  0.25500000920E-02 0.  1.
        2   -1    0    0  501    0  0.00000000000E+00  0.00000000000E+00 -0.11406947104E+04  0.11406947104E+04  0.25500000920E-02 0. -1.
    10030    2    1    2    0    0  0.00000000000E+00  0.00000000000E+00  0.11187690054E+03  0.23932663214E+04  0.23906499627E+04 0.  0.
        2    1    3    3  502    0 -0.11030926187E+04 -0.25601195224E+03 -0.32716347748E+03  0.11787244742E+04  0.25500000920E-02 0. -1.
       -2    1    3    3    0  502  0.11030926187E+04  0.25601195224E+03  0.43904037802E+03  0.12145418472E+04  0.25500000920E-02 0.  1.
</event>
<event>
 5   0  0.5268358E-06  0.2406581E+04  0.7818609E-02  0.8437044E-01
       -2   -1    0    0    0  501  0.00000000000E+00  0.00000000000E+00  0.10609865168E+04  0.10609865168E+04  0.25500000920E-02 0. -1.
        2   -1    0    0  501    0  0.00000000000E+00  0.00000000000E+00 -0.13646808246E+04  0.13646808246E+04  0.25500000920E-02 0.  1.
    10030    2    1    2    0    0  0.00000000000E+00  0.00000000000E+00 -0.30369430782E+03  0.24256673414E+04  0.24065809395E+04 0.  0.
        2    1    3    3  502    0 -0.94141087414E+03  0.60510856515E+03 -0.59750440596E+03  0.12686300977E+04  0.25500000920E-02 0.  1.
       -2    1    3    3    0  502  0.94141087414E+03 -0.60510856515E+03  0.29381009814E+03  0.11570372437E+04  0.25500000920E-02 0. -1.
</event>
<event>
 5   0  0.2215700E-06  0.2388699E+04  0.7818609E-02  0.8443747E-01
       -1   -1    0    0    0  501  0.00000000000E+00  0.00000000000E+00  0.12084702804E+04  0.12084702804E+04  0.50400001928E-02 0.  1.
        1   -1    0    0  501    0  0.00000000000E+00  0.00000000000E+00 -0.11803934348E+04  0.11803934348E+04  0.50400001928E-02 0. -1.
    10030    2    1    2    0    0  0.00000000000E+00  0.00000000000E+00  0.28076845626E+02  0.23888637152E+04  0.23886987128E+04 0.  0.
        3    1    3    3  502    0 -0.66098428399E+03  0.71462478835E+03 -0.67802206885E+03  0.11862979170E+04  0.10100000352E+00 0. -1.
       -3    1    3    3    0  502  0.66098428399E+03 -0.71462478835E+03  0.70609891448E+03  0.12025657982E+04  0.10100000352E+00 0.  1.
</event>
<event>
 5   0  0.5379778E-06  0.2405284E+04  0.7818609E-02  0.8437528E-01
        2   -1    0    0  501    0  0.00000000000E+00  0.00000000000E+00  0.17858266029E+04  0.17858266029E+04  0.25500000920E-02 0. -1.
       -2   -1    0    0    0  501  0.00000000000E+00  0.00000000000E+00 -0.80990350003E+03  0.80990350004E+03  0.25500000920E-02 0.  1.
    10030    2    1    2    0    0  0.00000000000E+00  0.00000000000E+00  0.97592310287E+03  0.25957301029E+04  0.24052835310E+04 0.  0.
        5    1    3    3  502    0 -0.36952111811E+02  0.86781735624E+03 -0.40967406722E+03  0.96037875534E+03  0.46999998093E+01 0.  1.
       -5    1    3    3    0  502  0.36952111811E+02 -0.86781735624E+03  0.13855971701E+04  0.16353513476E+04  0.46999998093E+01 0. -1.
</event>
<event>
 5   0  0.2149029E-06  0.2397703E+04  0.7818609E-02  0.8440364E-01
       -1   -1    0    0    0  501  0.00000000000E+00  0.00000000000E+00  0.82853428455E+03  0.82853428456E+03  0.50400001928E-02 0.  1.
        1   -1    0    0  501    0  0.00000000000E+00  0.00000000000E+00 -0.17346837713E+04  0.17346837714E+04  0.50400001928E-02 0. -1.
    10030    2    1    2    0    0  0.00000000000E+00  0.00000000000E+00 -0.90614948680E+03  0.25632180559E+04  0.23977030487E+04 0.  0.
        4    1    3    3  502    0  0.88394840710E+02 -0.33683112765E+02 -0.17306872108E+04  0.17332709063E+04  0.12699999809E+01 0. -1.
       -4    1    3    3    0  502 -0.88394840710E+02  0.33683112765E+02  0.82453772403E+03  0.82994714964E+03  0.12699999809E+01 0.  1.
</event>
<event>
 5   0  0.5268358E-06  0.2399215E+04  0.7818609E-02  0.8439798E-01
       -2   -1    0    0    0  501  0.00000000000E+00  0.00000000000E+00  0.13703681496E+04  0.13703681496E+04  0.25500000920E-02 0.  1.
        2   -1    0    0  501    0  0.00000000000E+00  0.00000000000E+00 -0.10501251130E+04  0.10501251130E+04  0.25500000920E-02 0. -1.
    10030    2    1    2    0    0  0.00000000000E+00  0.00000000000E+00  0.32024303666E+03  0.24204932626E+04  0.23992148782E+04 0.  0.
        2    1    3    3  502    0 -0.86979996038E+03 -0.23560545403E+03  0.95897504041E+03  0.13159388395E+04  0.25500000920E-02 0.  1.
       -2    1    3    3    0  502  0.86979996038E+03  0.23560545403E+03 -0.63873200375E+03  0.11045544231E+04  0.25500000920E-02 0. -1.
</event>
<event>
 5   0  0.2149417E-06  0.2400933E+04  0.7818609E-02  0.8439154E-01
       -1   -1    0    0    0  501  0.00000000000E+00  0.00000000000E+00  0.10055014358E+04  0.10055014358E+04  0.50400001928E-02 0.  1.
        1   -1    0    0  501    0  0.00000000000E+00  0.00000000000E+00 -0.14332346016E+04  0.14332346016E+04  0.50400001928E-02 0. -1.
    10030    2    1    2    0    0  0.00000000000E+00  0.00000000000E+00 -0.42773316579E+03  0.24387360374E+04  0.24009326936E+04 0.  0.
        5    1    3    3  502    0  0.11682036075E+03  0.73749742609E+03 -0.11686389964E+04  0.13868268256E+04  0.46999998093E+01 0. -1.
       -5    1    3    3    0  502 -0.11682036075E+03 -0.73749742609E+03  0.74090583062E+03  0.10519092119E+04  0.46999998093E+01 0.  1.
</event>
<event>
 5   0  0.1796750E-06  0.2410466E+04  0.7818609E-02  0.8435596E-01
       -3   -1    0    0    0  501  0.00000000000E+00  0.00000000000E+00  0.10528866273E+04  0.10528866321E+04  0.10100000352E+00 0.  1.
        3   -1    0    0  501    0  0.00000000000E+00  0.00000000000E+00 -0.13796227100E+04  0.13796227137E+04  0.10100000352E+00 0. -1.
    10030    2    1    2    0    0  0.00000000000E+00  0.00000000000E+00 -0.32673608267E+03  0.24325093458E+04  0.24104657744E+04 0.  0.
        4    1    3    3  502    0  0.86682882732E+03 -0.75355775908E+02 -0.10049695074E+04  0.13292990757E+04  0.12699999809E+01 0. -1.
       -4    1    3    3    0  502 -0.86682882732E+03  0.75355775908E+02  0.67823342474E+03  0.11032102701E+04  0.12699999809E+01 0.  1.
</event>
<event>
 5   0  0.2254269E-06  0.2394600E+04  0.7818609E-02  0.8441528E-01
       -1   -1    0    0    0  501  0.00000000000E+00  0.00000000000E+00  0.16418343223E+04  0.16418343223E+04  0.50400001928E-02 0. -1.
        1   -1    0    0  501    0  0.00000000000E+00  0.00000000000E+00 -0.87312532773E+03  0.87312532775E+03  0.50400001928E-02 0.  1.
    10030    2    1    2    0    0  0.00000000000E+00  0.00000000000E+00  0.76870899455E+03  0.25149596500E+04  0.23945998670E+04 0.  0.
        2    1    3    3  502    0  0.10680602967E+03  0.10648019271E+04  0.94829434826E+03  0.14298506366E+04  0.25500000920E-02 0. -1.
       -2    1    3    3    0  502 -0.10680602967E+03 -0.10648019271E+04 -0.17958535371E+03  0.10851090135E+04  0.25500000920E-02 0.  1.
</event>
<event>
 5   0  0.2149417E-06  0.2403897E+04  0.7818609E-02  0.8438046E-01
        1   -1    0    0  501    0  0.00000000000E+00  0.00000000000E+00  0.89065596449E+03  0.89065596450E+03  0.50400001928E-02 0. -1.
       -1   -1    0    0    0  501  0.00000000000E+00  0.00000000000E+00 -0.16220412172E+04  0.16220412172E+04  0.50400001928E-02 0.  1.
    10030    2    1    2    0    0  0.00000000000E+00  0.00000000000E+00 -0.73138525266E+03  0.25126971817E+04  0.24038974061E+04 0.  0.
        5    1    3    3  502    0  0.70341561479E+03 -0.44686309437E+03 -0.12710217964E+04  0.15198679710E+04  0.46999998093E+01 0.  1.
       -5    1    3    3    0  502 -0.70341561479E+03  0.44686309437E+03  0.53963654375E+03  0.99282921069E+03  0.46999998093E+01 0. -1.
</event>
<event>
 5   0  0.5268358E-06  0.2396569E+04  0.7818609E-02  0.8440789E-01
       -2   -1    0    0    0  501  0.00000000000E+00  0.00000000000E+00  0.11871696398E+04  0.11871696398E+04  0.25500000920E-02 0. -1.
        2   -1    0    0  501    0  0.00000000000E+00  0.00000000000E+00 -0.12095032549E+04  0.12095032549E+04  0.25500000920E-02 0.  1.
    10030    2    1    2    0    0  0.00000000000E+00  0.00000000000E+00 -0.22333615108E+02  0.23966728947E+04  0.23965688335E+04 0.  0.
        2    1    3    3  502    0 -0.37561326200E+03 -0.46759542574E+03 -0.10485906341E+04  0.12080037759E+04  0.25500000920E-02 0.  1.
       -2    1    3    3    0  502  0.37561326200E+03  0.46759542574E+03  0.10262570190E+04  0.11886691187E+04  0.25500000920E-02 0. -1.
</event>
<event>
 5   0  0.5268358E-06  0.2404158E+04  0.7818609E-02  0.8437949E-01
       -2   -1    0    0    0  501  0.00000000000E+00  0.00000000000E+00  0.10075409431E+04  0.10075409431E+04  0.25500000920E-02 0. -1.
        2   -1    0    0  501    0  0.00000000000E+00  0.00000000000E+00 -0.14341788870E+04  0.14341788870E+04  0.25500000920E-02 0.  1.
    10030    2    1    2    0    0  0.00000000000E+00  0.00000000000E+00 -0.42663794394E+03  0.24417198301E+04  0.24041580217E+04 0.  0.
        2    1    3    3  502    0 -0.47781484733E+03  0.97190183299E+03  0.31645680998E+03  0.11282930089E+04  0.25500000920E-02 0. -1.
       -2    1    3    3    0  502  0.47781484733E+03 -0.97190183299E+03 -0.74309475392E+03  0.13134268212E+04  0.25500000920E-02 0.  1.
</event>
<event>
 5   0  0.2149029E-06  0.2396790E+04  0.7818609E-02  0.8440706E-01
       -1   -1    0    0    0  501  0.00000000000E+00  0.00000000000E+00  0.94197626391E+03  0.94197626393E+03  0.50400001928E-02 0. -1.
        1   -1    0    0  501    0  0.00000000000E+00  0.00000000000E+00 -0.15246140961E+04  0.15246140961E+04  0.50400001928E-02 0.  1.
    10030    2    1    2    0    0  0.00000000000E+00  0.00000000000E+00 -0.58263783215E+03  0.24665903600E+04  0.23967897614E+04 0.  0.
        4    1    3    3  502    0  0.66005419037E+03  0.49957372206E+03  0.60046385550E+03  0.10226455362E+04  0.12699999809E+01 0. -1.
       -4    1    3    3    0  502 -0.66005419037E+03 -0.49957372206E+03 -0.11831016877E+04  0.14439448238E+04  0.12699999809E+01 0.  1.
</event>
<event>
 5   0  0.5371843E-06  0.2396353E+04  0.7818609E-02  0.8440870E-01
        2   -1    0    0  501    0  0.00000000000E+00  0.00000000000E+00  0.19517882219E+04  0.19517882219E+04  0.25500000920E-02 0. -1.
       -2   -1    0    0    0  501  0.00000000000E+00  0.00000000000E+00 -0.73554444322E+03  0.73554444322E+03  0.25500000920E-02 0.  1.
    10030    2    1    2    0    0  0.00000000000E+00  0.00000000000E+00  0.12162437787E+04  0.26873326651E+04  0.23963530466E+04 0.  0.
        4    1    3    3  502    0 -0.13598879281E+03 -0.15358824014E+03 -0.71570386960E+03  0.74452396948E+03  0.12699999809E+01 0.  1.
       -4    1    3    3    0  502  0.13598879281E+03  0.15358824014E+03  0.19319476483E+04  0.19428086956E+04  0.12699999809E+01 0. -1.
</event>
<event>
 5   0  0.1796750E-06  0.2403715E+04  0.7818609E-02  0.8438114E-01
        3   -1    0    0  501    0  0.00000000000E+00  0.00000000000E+00  0.10502754925E+04  0.10502754973E+04  0.10100000352E+00 0.  1.
       -3   -1    0    0    0  501  0.00000000000E+00  0.00000000000E+00 -0.13753164477E+04  0.13753164514E+04  0.10100000352E+00 0. -1.
    10030    2    1    2    0    0  0.00000000000E+00  0.00000000000E+00 -0.32504095523E+03  0.24255919487E+04  0.24037147666E+04 0.  0.
        5    1    3    3  502    0  0.70761761384E+03  0.20477621540E+02 -0.11425948909E+04  0.13441306466E+04  0.46999998093E+01 0. -1.
       -5    1    3    3    0  502 -0.70761761384E+03 -0.20477621540E+02  0.81755393563E+03  0.10814613022E+04  0.46999998093E+01 0.  1.
</event>
<event>
 5   0  0.1796750E-06  0.2396392E+04  0.7818609E-02  0.8440856E-01
       -3   -1    0    0    0  501  0.00000000000E+00  0.00000000000E+00  0.11218717498E+04  0.11218717543E+04  0.10100000352E+00 0. -1.
        3   -1    0    0  501    0  0.00000000000E+00  0.00000000000E+00 -0.12797126301E+04  0.12797126340E+04  0.10100000352E+00 0.  1.
    10030    2    1    2    0    0  0.00000000000E+00  0.00000000000E+00 -0.15784088027E+03  0.24015843884E+04  0.23963918359E+04 0.  0.
        4    1    3    3  502    0  0.32769133127E+03  0.32170336201E+03 -0.11880240271E+04  0.12736865248E+04  0.12699999809E+01 0.  1.
       -4    1    3    3    0  502 -0.32769133127E+03 -0.32170336201E+03  0.10301831468E+04  0.11278978635E+04  0.12699999809E+01 0. -1.
</event>
<event>
 5   0  0.2149417E-06  0.2398459E+04  0.7818609E-02  0.8440081E-01
       -1   -1    0    0    0  501  0.00000000000E+00  0.00000000000E+00  0.11307761888E+04  0.11307761888E+04  0.50400001928E-02 0.  1.
        1   -1    0    0  501    0  0.00000000000E+00  0.00000000000E+00 -0.12718269891E+04  0.12718269891E+04  0.50400001928E-02 0. -1.
    10030    2    1    2    0    0  0.00000000000E+00  0.00000000000E+00 -0.14105080027E+03  0.24026031780E+04  0.23984592351E+04 0.  0.
        5    1    3    3  502    0 -0.87049313366E+03 -0.75094460137E+03 -0.41236783270E+03  0.12213702999E+04  0.46999998093E+01 0. -1.
       -5    1    3    3    0  502  0.87049313366E+03  0.75094460137E+03  0.27131703242E+03  0.11812328780E+04  0.46999998093E+01 0.  1.
</event>
<event>
 5   0  0.5268358E-06  0.2409706E+04  0.7818609E-02  0.8435879E-01
        2   -1    0    0  501    0  0.00000000000E+00  0.00000000000E+00  0.88233593442E+03  0.88233593442E+03  0.25500000920E-02 0. -1.
       -2   -1    0    0    0  501  0.00000000000E+00  0.00000000000E+00 -0.16452578821E+04  0.16452578821E+04  0.25500000920E-02 0.  1.
    10030    2    1    2    0    0  0.00000000000E+00  0.00000000000E+00 -0.76292194771E+03  0.25275938165E+04  0.24097055013E+04 0.  0.
        2    1    3    3  502    0  0.88466722228E+03 -0.48683488852E+03 -0.10709036789E+04  0.14718963932E+04  0.25500000920E-02 0.  1.
       -2    1    3    3    0  502 -0.88466722228E+03  0.48683488852E+03  0.30798173120E+03  0.10556974233E+04  0.25500000920E-02 0. -1.
</event>
<event>
 5   0  0.2297414E-06  0.2402794E+04  0.7818609E-02  0.8438458E-01
       -1   -1    0    0    0  501  0.00000000000E+00  0.00000000000E+00  0.14152178000E+04  0.14152178000E+04  0.50400001928E-02 0. -1.
        1   -1    0    0  501    0  0.00000000000E+00  0.00000000000E+00 -0.10198814967E+04  0.10198814967E+04  0.50400001928E-02 0.  1.
    10030    2    1    2    0    0  0.00000000000E+00  0.00000000000E+00  0.39533630327E+03  0.24350992967E+04  0.24027937473E+04 0.  0.
        1    1    3    3  502    0  0.34736042059E+03  0.90468339532E+03  0.91731624911E+03  0.13343839060E+04  0.50400001928E-02 0. -1.
       -1    1    3    3    0  502 -0.34736042059E+03 -0.90468339532E+03 -0.52197994584E+03  0.11007153908E+04  0.50400001928E-02 0.  1.
</event>
<event>
 5   0  0.5268358E-06  0.2399186E+04  0.7818609E-02  0.8439808E-01
        2   -1    0    0  501    0  0.00000000000E+00  0.00000000000E+00  0.13461091550E+04  0.13461091550E+04  0.25500000920E-02 0. -1.
       -2   -1    0    0    0  501  0.00000000000E+00  0.00000000000E+00 -0.10690241659E+04  0.10690241659E+04  0.25500000920E-02 0.  1.
    10030    2    1    2    0    0  0.00000000000E+00  0.00000000000E+00  0.27708498911E+03  0.24151333208E+04  0.23991858757E+04 0.  0.
        2    1    3    3  502    0 -0.10147140279E+04  0.26488207639E+03  0.72483652210E+03  0.12748313836E+04  0.25500000920E-02 0. -1.
       -2    1    3    3    0  502  0.10147140279E+04 -0.26488207639E+03 -0.44775153299E+03  0.11403019372E+04  0.25500000920E-02 0.  1.
</event>
<event>
 5   0  0.5268358E-06  0.2399231E+04  0.7818609E-02  0.8439791E-01
       -2   -1    0    0    0  501  0.00000000000E+00  0.00000000000E+00  0.10692207076E+04  0.10692207076E+04  0.25500000920E-02 0. -1.
        2   -1    0    0  501    0  0.00000000000E+00  0.00000000000E+00 -0.13459126585E+04  0.13459126585E+04  0.25500000920E-02 0.  1.
    10030    2    1    2    0    0  0.00000000000E+00  0.00000000000E+00 -0.27669195083E+03  0.24151333661E+04  0.23992312811E+04 0.  0.
        2    1    3    3  502    0 -0.56102733815E+03 -0.39492184820E+03  0.85223056662E+03  0.10940803805E+04  0.25500000920E-02 0. -1.
       -2    1    3    3    0  502  0.56102733815E+03  0.39492184820E+03 -0.11289225174E+04  0.13210529856E+04  0.25500000920E-02 0.  1.
</event>
<event>
 5   0  0.2215700E-06  0.2398036E+04  0.7818609E-02  0.8440239E-01
        1   -1    0    0  501    0  0.00000000000E+00  0.00000000000E+00  0.14395011872E+04  0.14395011872E+04  0.50400001928E-02 0. -1.
       -1   -1    0    0    0  501  0.00000000000E+00  0.00000000000E+00 -0.99870962514E+03  0.99870962515E+03  0.50400001928E-02 0.  1.
    10030    2    1    2    0    0  0.00000000000E+00  0.00000000000E+00  0.44079156207E+03  0.24382108124E+04  0.23980356053E+04 0.  0.
        3    1    3    3  502    0 -0.50926716500E+03  0.36147036595E+03 -0.82028982936E+03  0.10309652201E+04  0.10100000352E+00 0.  1.
       -3    1    3    3    0  502  0.50926716500E+03 -0.36147036595E+03  0.12610813914E+04  0.14072455922E+04  0.10100000352E+00 0. -1.
</event>
<event>
 5   0  0.2297414E-06  0.2391848E+04  0.7818609E-02  0.8442562E-01
       -1   -1    0    0    0  501  0.00000000000E+00  0.00000000000E+00  0.61137021725E+03  0.61137021727E+03  0.50400001928E-02 0. -1.
        1   -1    0    0  501    0  0.00000000000E+00  0.00000000000E+00 -0.23393923313E+04  0.23393923313E+04  0.50400001928E-02 0.  1.
    10030    2    1    2    0    0  0.00000000000E+00  0.00000000000E+00 -0.17280221141E+04  0.29507625486E+04  0.23918484884E+04 0.  0.
        1    1    3    3  502    0  0.82665848269E+03 -0.17413562380E+03  0.18028356043E+03  0.86382268126E+03  0.50400001928E-02 0. -1.
       -1    1    3    3    0  502 -0.82665848269E+03  0.17413562380E+03 -0.19083056745E+04  0.20869398673E+04  0.50400001928E-02 0.  1.
</event>
<event>
 5   0  0.2215700E-06  0.2398766E+04  0.7818609E-02  0.8439966E-01
       -1   -1    0    0    0  501  0.00000000000E+00  0.00000000000E+00  0.18941498760E+04  0.18941498760E+04  0.50400001928E-02 0. -1.
        1   -1    0    0  501    0  0.00000000000E+00  0.00000000000E+00 -0.75945373132E+03  0.75945373134E+03  0.50400001928E-02 0.  1.
    10030    2    1    2    0    0  0.00000000000E+00  0.00000000000E+00  0.11346961447E+04  0.26536036074E+04  0.23987656751E+04 0.  0.
        3    1    3    3  502    0  0.99714460114E+03 -0.46280337684E+03  0.10979209559E+04  0.15536778163E+04  0.10100000352E+00 0. -1.
       -3    1    3    3    0  502 -0.99714460114E+03  0.46280337684E+03  0.36775188826E+02  0.10999257911E+04  0.10100000352E+00 0.  1.
</event>
<event>
 5   0  0.1796750E-06  0.2387790E+04  0.7818609E-02  0.8444089E-01
        3   -1    0    0  501    0  0.00000000000E+00  0.00000000000E+00  0.14598619479E+04  0.14598619514E+04  0.10100000352E+00 0.  1.
       -3   -1    0    0    0  501  0.00000000000E+00  0.00000000000E+00 -0.97638341214E+03  0.97638341736E+03  0.10100000352E+00 0. -1.
    10030    2    1    2    0    0  0.00000000000E+00  0.00000000000E+00  0.48347853578E+03  0.24362453688E+04  0.23877897735E+04 0.  0.
        3    1    3    3  502    0 -0.57927372408E+03 -0.10395813777E+04  0.33905566452E+03  0.12374353487E+04  0.10100000352E+00 0. -1.
       -3    1    3    3    0  502  0.57927372408E+03  0.10395813777E+04  0.14442287126E+03  0.11988100201E+04  0.10100000352E+00 0.  1.
</event>
<event>
 5   0  0.2149029E-06  0.2399125E+04  0.7818609E-02  0.8439831E-01
        1   -1    0    0  501    0  0.00000000000E+00  0.00000000000E+00  0.90647001532E+03  0.90647001534E+03  0.50400001928E-02 0. -1.
       -1   -1    0    0    0  501  0.00000000000E+00  0.00000000000E+00 -0.15874220576E+04  0.15874220576E+04  0.50400001928E-02 0.  1.
    10030    2    1    2    0    0  0.00000000000E+00  0.00000000000E+00 -0.68095204225E+03  0.24938920729E+04  0.23991252547E+04 0.  0.
        4    1    3    3  502    0 -0.10969833348E+04  0.59761494965E+02 -0.84117120601E+03  0.13836598151E+04  0.12699999809E+01 0.  1.
       -4    1    3    3    0  502  0.10969833348E+04 -0.59761494965E+02  0.16021916376E+03  0.11102322579E+04  0.12699999809E+01 0. -1.
</event>
<event>
 5   0  0.2149029E-06  0.2400644E+04  0.7818609E-02  0.8439262E-01
       -1   -1    0    0    0  501  0.00000000000E+00  0.00000000000E+00  0.66477582145E+03  0.66477582147E+03  0.50400001928E-02 0. -1.
        1   -1    0    0  501    0  0.00000000000E+00  0.00000000000E+00 -0.21673067448E+04  0.21673067448E+04  0.50400001928E-02 0.  1.
    10030    2    1    2    0    0  0.00000000000E+00  0.00000000000E+00 -0.15025309233E+04  0.28320825663E+04  0.24006441816E+04 0.  0.
        4    1    3    3  502    0  0.73409875933E+03  0.18251537780E+03 -0.18507210541E+04  0.19993456140E+04  0.12699999809E+01 0.  1.
       -4    1    3    3    0  502 -0.73409875933E+03 -0.18251537780E+03  0.34819013071E+03  0.83273695223E+03  0.12699999809E+01 0. -1.
</event>
<event>
 5   0  0.5349036E-06  0.2404257E+04  0.7818609E-02  0.8437912E-01
       -2   -1    0    0    0  501  0.00000000000E+00  0.00000000000E+00  0.11876613755E+04  0.11876613755E+04  0.25500000920E-02 0.  1.
        2   -1    0    0  501    0  0.00000000000E+00  0.00000000000E+00 -0.12167715671E+04  0.12167715671E+04  0.25500000920E-02 0. -1.
    10030    2    1    2    0    0  0.00000000000E+00  0.00000000000E+00 -0.29110191606E+02  0.24044329426E+04  0.24042567193E+04 0.  0.
        1    1    3    3  502    0 -0.79167291814E+03  0.55750110406E+03  0.69792894609E+03  0.11935905094E+04  0.50400001928E-02 0.  1.
       -1    1    3    3    0  502  0.79167291814E+03 -0.55750110406E+03 -0.72703913770E+03  0.12108424332E+04  0.50400001928E-02 0. -1.
</event>
<event>
 5   0  0.5440503E-06  0.2400927E+04  0.7818609E-02  0.8439157E-01
       -2   -1    0    0    0  501  0.00000000000E+00  0.00000000000E+00  0.17627371442E+04  0.17627371442E+04  0.25500000920E-02 0.  1.
        2   -1    0    0  501    0  0.00000000000E+00  0.00000000000E+00 -0.81754243987E+03  0.81754243987E+03  0.25500000920E-02 0. -1.
    10030    2    1    2    0    0  0.00000000000E+00  0.00000000000E+00  0.94519470433E+03  0.25802795841E+04  0.24009268425E+04 0.  0.
        3    1    3    3  502    0 -0.93285440824E+03 -0.53061937767E+03 -0.10548629624E+03  0.10783791726E+04  0.10100000352E+00 0. -1.
       -3    1    3    3    0  502  0.93285440824E+03  0.53061937767E+03  0.10506810006E+04  0.15019004115E+04  0.10100000352E+00 0.  1.
</event>
<event>
 5   0  0.1796750E-06  0.2395860E+04  0.7818609E-02  0.8441055E-01
        3   -1    0    0  501    0  0.00000000000E+00  0.00000000000E+00  0.51327947861E+03  0.51327948855E+03  0.10100000352E+00 0. -1.
       -3   -1    0    0    0  501  0.00000000000E+00  0.00000000000E+00 -0.27958193025E+04  0.27958193043E+04  0.10100000352E+00 0.  1.
    10030    2    1    2    0    0  0.00000000000E+00  0.00000000000E+00 -0.22825398238E+04  0.33090987928E+04  0.23958603409E+04 0.  0.
        4    1    3    3  502    0  0.13699985578E+03 -0.95120560788E+03 -0.21290494384E+04  0.23358968712E+04  0.12699999809E+01 0. -1.
       -4    1    3    3    0  502 -0.13699985578E+03  0.95120560788E+03 -0.15349038548E+03  0.97320192164E+03  0.12699999809E+01 0.  1.
</event>
<event>
 5   0  0.5268358E-06  0.2401966E+04  0.7818609E-02  0.8438768E-01
        2   -1    0    0  501    0  0.00000000000E+00  0.00000000000E+00  0.19948043991E+04  0.19948043991E+04  0.25500000920E-02 0. -1.
       -2   -1    0    0    0  501  0.00000000000E+00  0.00000000000E+00 -0.72305858956E+03  0.72305858956E+03  0.25500000920E-02 0.  1.
    10030    2    1    2    0    0  0.00000000000E+00  0.00000000000E+00  0.12717458095E+04  0.27178629887E+04  0.24019662406E+04 0.  0.
        2    1    3    3  502    0 -0.73911853071E+03 -0.19837450908E+03  0.16831896238E+04  0.18489932282E+04  0.25500000920E-02 0. -1.
       -2    1    3    3    0  502  0.73911853071E+03  0.19837450908E+03 -0.41144381428E+03  0.86886976044E+03  0.25500000920E-02 0.  1.
</event>
<event>
 5   0  0.5371843E-06  0.2396423E+04  0.7818609E-02  0.8440844E-01
       -2   -1    0    0    0  501  0.00000000000E+00  0.00000000000E+00  0.12321735339E+04  0.12321735339E+04  0.25500000920E-02 0. -1.
        2   -1    0    0  501    0  0.00000000000E+00  0.00000000000E+00 -0.11651853213E+04  0.11651853213E+04  0.25500000920E-02 0.  1.
    10030    2    1    2    0    0  0.00000000000E+00  0.00000000000E+00  0.66988212680E+02  0.23973588552E+04  0.23964227632E+04 0.  0.
        4    1    3    3  502    0  0.11339819288E+04 -0.37178932740E+03  0.14108416766E+03  0.12016857635E+04  0.12699999809E+01 0.  1.
       -4    1    3    3    0  502 -0.11339819288E+04  0.37178932740E+03 -0.74095954984E+02  0.11956730917E+04  0.12699999809E+01 0. -1.
</event>
<event>
 5   0  0.2149029E-06  0.2401549E+04  0.7818609E-02  0.8438924E-01
        1   -1    0    0  501    0  0.00000000000E+00  0.00000000000E+00  0.20561117190E+04  0.20561117190E+04  0.50400001928E-02 0.  1.
       -1   -1    0    0    0  501  0.00000000000E+00  0.00000000000E+00 -0.70125552051E+03  0.70125552053E+03  0.50400001928E-02 0. -1.
    10030    2    1    2    0    0  0.00000000000E+00  0.00000000000E+00  0.13548561985E+04  0.27573672396E+04  0.24015492448E+04 0.  0.
        4    1    3    3  502    0  0.94958969750E+03  0.73208995088E+03  0.75167601779E+03  0.14151659756E+04  0.12699999809E+01 0. -1.
       -4    1    3    3    0  502 -0.94958969750E+03 -0.73208995088E+03  0.60318018073E+03  0.13422012640E+04  0.12699999809E+01 0.  1.
</event>
<event>
 5   0  0.5379778E-06  0.2408218E+04  0.7818609E-02  0.8436433E-01
        2   -1    0    0  501    0  0.00000000000E+00  0.00000000000E+00  0.15237343270E+04  0.15237343270E+04  0.25500000920E-02 0. -1.
       -2   -1    0    0    0  501  0.00000000000E+00  0.00000000000E+00 -0.95152941304E+03  0.95152941305E+03  0.25500000920E-02 0.  1.
    10030    2    1    2    0    0  0.00000000000E+00  0.00000000000E+00  0.57220491393E+03  0.24752637400E+04  0.24082176229E+04 0.  0.
        5    1    3    3  502    0  0.50095625221E+03 -0.10755858457E+04  0.75423068102E+02  0.11889292693E+04  0.46999998093E+01 0. -1.
       -5    1    3    3    0  502 -0.50095625221E+03  0.10755858457E+04  0.49678184583E+03  0.12863344707E+04  0.46999998093E+01 0.  1.
</event>
<event>
 5   0  0.5440503E-06  0.2397353E+04  0.7818609E-02  0.8440495E-01
       -2   -1    0    0    0  501  0.00000000000E+00  0.00000000000E+00  0.10235478352E+04  0.10235478352E+04  0.25500000920E-02 0. -1.
        2   -1    0    0  501    0  0.00000000000E+00  0.00000000000E+00 -0.14037701730E+04  0.14037701730E+04  0.25500000920E-02 0.  1.
    10030    2    1    2    0    0  0.00000000000E+00  0.00000000000E+00 -0.38022233783E+03  0.24273180081E+04  0.23973534755E+04 0.  0.
        3    1    3    3  502    0  0.58625044360E+03  0.64252202024E+02 -0.12467100265E+04  0.13791678028E+04  0.10100000352E+00 0.  1.
       -3    1    3    3    0  502 -0.58625044360E+03 -0.64252202024E+02  0.86648768865E+03  0.10481502053E+04  0.10100000352E+00 0. -1.
</event>
<event>
 5   0  0.2149029E-06  0.2399623E+04  0.7818609E-02  0.8439645E-01
       -1   -1    0    0    0  501  0.00000000000E+00  0.00000000000E+00  0.68714528372E+03  0.68714528374E+03  0.50400001928E-02 0. -1.
        1   -1    0    0  501    0  0.00000000000E+00  0.00000000000E+00 -0.20949689987E+04  0.20949689987E+04  0.50400001928E-02 0.  1.
    10030    2    1    2    0    0  0.00000000000E+00  0.00000000000E+00 -0.14078237149E+04  0.27821142824E+04  0.23996233596E+04 0.  0.
        4    1    3    3  502    0  0.34844048895E+03 -0.64545102703E+03  0.39692167860E+03  0.83400613575E+03  0.12699999809E+01 0. -1.
       -4    1    3    3    0  502 -0.34844048895E+03  0.64545102703E+03 -0.18047453935E+04  0.19481081466E+04  0.12699999809E+01 0.  1.
</event>
<event>
 5   0  0.2215700E-06  0.2401103E+04  0.7818609E-02  0.8439091E-01
       -1   -1    0    0    0  501  0.00000000000E+00  0.00000000000E+00  0.67517089079E+03  0.67517089081E+03  0.50400001928E-02 0. -1.
        1   -1    0    0  501    0  0.00000000000E+00  0.00000000000E+00 -0.21347548040E+04  0.21347548040E+04  0.50400001928E-02 0.  1.
    10030    2    1    2    0    0  0.00000000000E+00  0.00000000000E+00 -0.14595839132E+04  0.28099256948E+04  0.24011033319E+04 0.  0.
        3    1    3    3  502    0  0.63322592779E+03  0.73279521507E+03 -0.15600699055E+04  0.18362412758E+04  0.10100000352E+00 0.  1.
       -3    1    3    3    0  502 -0.63322592779E+03 -0.73279521507E+03  0.10048599230E+03  0.97368441895E+03  0.10100000352E+00 0. -1.
</event>
<event>
 5   0  0.5371843E-06  0.2399583E+04  0.7818609E-02  0.8439660E-01
       -2   -1    0    0    0  501  0.00000000000E+00  0.00000000000E+00  0.11111602823E+04  0.11111602823E+04  0.25500000920E-02 0.  1.
        2   -1    0    0  501    0  0.00000000000E+00  0.00000000000E+00 -0.12954927041E+04  0.12954927041E+04  0.25500000920E-02 0. -1.
    10030    2    1    2    0    0  0.00000000000E+00  0.00000000000E+00 -0.18433242180E+03  0.24066529863E+04  0.23995833294E+04 0.  0.
        4    1    3    3  502    0  0.66939643699E+03 -0.11584241252E+03  0.89967982397E+03  0.11273581742E+04  0.12699999809E+01 0.  1.
       -4    1    3    3    0  502 -0.66939643699E+03  0.11584241252E+03 -0.10840122458E+04  0.12792948121E+04  0.12699999809E+01 0. -1.
</event>
<event>
 5   0  0.5379778E-06  0.2403992E+04  0.7818609E-02  0.8438011E-01
        2   -1    0    0  501    0  0.00000000000E+00  0.00000000000E+00  0.69112669750E+03  0.69112669750E+03  0.25500000920E-02 0.  1.
       -2   -1    0    0    0  501  0.00000000000E+00  0.00000000000E+00 -0.20904908346E+04  0.20904908346E+04  0.25500000920E-02 0. -1.
    10030    2    1    2    0    0  0.00000000000E+00  0.00000000000E+00 -0.13993641371E+04  0.27816175321E+04  0.24039917027E+04 0.  0.
        5    1    3    3  502    0  0.10874615806E+04  0.46740532694E+03 -0.94165215277E+03  0.15125380312E+04  0.46999998093E+01 0.  1.
       -5    1    3    3    0  502 -0.10874615806E+04 -0.46740532694E+03 -0.45771198430E+03  0.12690795009E+04  0.46999998093E+01 0. -1.
</event>
<event>
 5   0  0.5268358E-06  0.2398563E+04  0.7818609E-02  0.8440042E-01
        2   -1    0    0  501    0  0.00000000000E+00  0.00000000000E+00  0.12078977413E+04  0.12078977413E+04  0.25500000920E-02 0.  1.
       -2   -1    0    0    0  501  0.00000000000E+00  0.00000000000E+00 -0.11907270875E+04  0.11907270875E+04  0.25500000920E-02 0. -1.
    10030    2    1    2    0    0  0.00000000000E+00  0.00000000000E+00  0.17170653805E+02  0.23986248289E+04  0.23985633697E+04 0.  0.
        2    1    3    3  502    0  0.23663117639E+03 -0.35018860818E+03  0.11309554701E+04  0.12073469469E+04  0.25500000920E-02 0.  1.
       -2    1    3    3    0  502 -0.23663117639E+03  0.35018860818E+03 -0.11137848163E+04  0.11912778819E+04  0.25500000920E-02 0. -1.
</event>
<event>
 5   0  0.5268358E-06  0.2396577E+04  0.7818609E-02  0.8440786E-01
        2   -1    0    0  501    0  0.00000000000E+00  0.00000000000E+00  0.24395440212E+04  0.24395440212E+04  0.25500000920E-02 0.  1.
       -2   -1    0    0    0  501  0.00000000000E+00  0.00000000000E+00 -0.58859191499E+03  0.58859191500E+03  0.25500000920E-02 0. -1.
    10030    2    1    2    0    0  0.00000000000E+00  0.00000000000E+00  0.18509521062E+04  0.30281359362E+04  0.23965774656E+04 0.  0.
        2    1    3    3  502    0 -0.77758678816E+03 -0.55848361505E+03  0.14904104438E+02  0.95747965709E+03  0.25500000920E-02 0. -1.
       -2    1    3    3    0  502  0.77758678816E+03  0.55848361505E+03  0.18360480018E+04  0.20706562791E+04  0.25500000920E-02 0.  1.
</event>
<event>
 5   0  0.5371843E-06  0.2426697E+04  0.7818609E-02  0.8429576E-01
        2   -1    0    0  501    0  0.00000000000E+00  0.00000000000E+00  0.12941858824E+04  0.12941858824E+04  0.25500000920E-02 0. -1.
       -2   -1    0    0    0  501  0.00000000000E+00  0.00000000000E+00 -0.11375600351E+04  0.11375600351E+04  0.25500000920E-02 0.  1.
    10030    2    1    2    0    0  0.00000000000E+00  0.00000000000E+00  0.15662584727E+03  0.24317459176E+04  0.24266966336E+04 0.  0.
        4    1    3    3  502    0  0.10766673205E+04  0.55361393821E+02  0.63618947121E+03  0.12518051202E+04  0.12699999809E+01 0. -1.
       -4    1    3    3    0  502 -0.10766673205E+04 -0.55361393821E+02 -0.47956362393E+03  0.11799407973E+04  0.12699999809E+01 0.  1.
</event>
<event>
 5   0  0.5379778E-06  0.2401139E+04  0.7818609E-02  0.8439077E-01
       -2   -1    0    0    0  501  0.00000000000E+00  0.00000000000E+00  0.13538421232E+04  0.13538421232E+04  0.25500000920E-02 0. -1.
        2   -1    0    0  501    0  0.00000000000E+00  0.00000000000E+00 -0.10646496858E+04  0.10646496858E+04  0.25500000920E-02 0.  1.
    10030    2    1    2    0    0  0.00000000000E+00  0.00000000000E+00  0.28919243741E+03  0.24184918089E+04  0.24011393887E+04 0.  0.
        5    1    3    3  502    0 -0.90569295205E+03  0.37648914308E+03 -0.55273770879E+03  0.11258618312E+04  0.46999998093E+01 0.  1.
       -5    1    3    3    0  502  0.90569295205E+03 -0.37648914308E+03  0.84193014620E+03  0.12926299777E+04  0.46999998093E+01 0. -1.
</event>
<event>
 5   0  0.1796750E-06  0.2384417E+04  0.7818609E-02  0.8445361E-01
       -4   -1    0    0    0  501  0.00000000000E+00  0.00000000000E+00  0.76633533580E+03  0.76633638815E+03  0.12699999809E+01 0.  1.
        4   -1    0    0  501    0  0.00000000000E+00  0.00000000000E+00 -0.18547483506E+04  0.18547487854E+04  0.12699999809E+01 0. -1.
    10030    2    1    2    0    0  0.00000000000E+00  0.00000000000E+00 -0.10884130148E+04  0.26210851735E+04  0.23844170348E+04 0.  0.
        2    1    3    3  502    0  0.87520862900E+03 -0.12888619094E+03  0.33434566023E+03  0.94572131996E+03  0.25500000920E-02 0.  1.
       -2    1    3    3    0  502 -0.87520862900E+03  0.12888619094E+03 -0.14227586750E+04  0.16753638535E+04  0.25500000920E-02 0. -1.
</event>
<event>
 5   0  0.5440503E-06  0.2348047E+04  0.7818609E-02  0.8459214E-01
       -2   -1    0    0    0  501  0.00000000000E+00  0.00000000000E+00  0.64522197479E+03  0.64522197479E+03  0.25500000920E-02 0. -1.
        2   -1    0    0  501    0  0.00000000000E+00  0.00000000000E+00 -0.21362121460E+04  0.21362121460E+04  0.25500000920E-02 0.  1.
    10030    2    1    2    0    0  0.00000000000E+00  0.00000000000E+00 -0.14909901712E+04  0.27814341208E+04  0.23480468644E+04 0.  0.
        3    1    3    3  502    0  0.23543600283E+03 -0.11344933229E+04 -0.52128251704E+03  0.12705277187E+04  0.10100000352E+00 0. -1.
       -3    1    3    3    0  502 -0.23543600283E+03  0.11344933229E+04 -0.96970765415E+03  0.15109064021E+04  0.10100000352E+00 0.  1.
</event>
<event>
 5   0  0.2297414E-06  0.2393981E+04  0.7818609E-02  0.8441760E-01
        1   -1    0    0  501    0  0.00000000000E+00  0.00000000000E+00  0.15489930105E+04  0.15489930105E+04  0.50400001928E-02 0. -1.
       -1   -1    0    0    0  501  0.00000000000E+00  0.00000000000E+00 -0.92497941354E+03  0.92497941355E+03  0.50400001928E-02 0.  1.
    10030    2    1    2    0    0  0.00000000000E+00  0.00000000000E+00  0.62401359699E+03  0.24739724241E+04  0.23939813253E+04 0.  0.
        1    1    3    3  502    0  0.15781502651E+03  0.51889314827E+03 -0.79071406432E+03  0.95884535429E+03  0.50400001928E-02 0.  1.
       -1    1    3    3    0  502 -0.15781502651E+03 -0.51889314827E+03  0.14147276613E+04  0.15151270698E+04  0.50400001928E-02 0. -1.
</event>
<event>
 5   0  0.2297414E-06  0.2398751E+04  0.7818609E-02  0.8439971E-01
        1   -1    0    0  501    0  0.00000000000E+00  0.00000000000E+00  0.23926185493E+04  0.23926185493E+04  0.50400001928E-02 0. -1.
       -1   -1    0    0    0  501  0.00000000000E+00  0.00000000000E+00 -0.60122469984E+03  0.60122469986E+03  0.50400001928E-02 0.  1.
    10030    2    1    2    0    0  0.00000000000E+00  0.00000000000E+00  0.17913938495E+04  0.29938432492E+04  0.23987508159E+04 0.  0.
        1    1    3    3  502    0 -0.63741548286E+03 -0.26834912318E+03  0.21186868461E+04  0.22287089764E+04  0.50400001928E-02 0. -1.
       -1    1    3    3    0  502  0.63741548286E+03  0.26834912318E+03 -0.32729299662E+03  0.76513427277E+03  0.50400001928E-02 0.  1.
</event>
<event>
 5   0  0.5268358E-06  0.2396481E+04  0.7818609E-02  0.8440822E-01
       -2   -1    0    0    0  501  0.00000000000E+00  0.00000000000E+00  0.10477018755E+04  0.10477018755E+04  0.25500000920E-02 0.  1.
        2   -1    0    0  501    0  0.00000000000E+00  0.00000000000E+00 -0.13704093667E+04  0.13704093668E+04  0.25500000920E-02 0. -1.
    10030    2    1    2    0    0  0.00000000000E+00  0.00000000000E+00 -0.32270749127E+03  0.24181112422E+04  0.23964811401E+04 0.  0.
        2    1    3    3  502    0 -0.61706939021E+03  0.16571447861E+03  0.86147420930E+03  0.10725547697E+04  0.25500000920E-02 0.  1.
       -2    1    3    3    0  502  0.61706939021E+03 -0.16571447861E+03 -0.11841817006E+04  0.13455564725E+04  0.25500000920E-02 0. -1.
</event>
<event>
 5   0  0.5371843E-06  0.2401899E+04  0.7818609E-02  0.8438793E-01
       -2   -1    0    0    0  501  0.00000000000E+00  0.00000000000E+00  0.97484123226E+03  0.97484123226E+03  0.25500000920E-02 0. -1.
        2   -1    0    0  501    0  0.00000000000E+00  0.00000000000E+00 -0.14795025436E+04  0.14795025436E+04  0.25500000920E-02 0.  1.
    10030    2    1    2    0    0  0.00000000000E+00  0.00000000000E+00 -0.50466131136E+03  0.24543437759E+04  0.24018993174E+04 0.  0.
        4    1    3    3  502    0  0.10067818313E+03  0.83048099397E+03 -0.11327961807E+04  0.14082129022E+04  0.12699999809E+01 0.  1.
       -4    1    3    3    0  502 -0.10067818313E+03 -0.83048099397E+03  0.62813486936E+03  0.10461308737E+04  0.12699999809E+01 0. -1.
</event>
<event>
 5   0  0.2149417E-06  0.2400576E+04  0.7818609E-02  0.8439288E-01
       -1   -1    0    0    0  501  0.00000000000E+00  0.00000000000E+00  0.70004824965E+03  0.70004824967E+03  0.50400001928E-02 0.  1.
        1   -1    0    0  501    0  0.00000000000E+00  0.00000000000E+00 -0.20579889792E+04  0.20579889792E+04  0.50400001928E-02 0. -1.
    10030    2    1    2    0    0  0.00000000000E+00  0.00000000000E+00 -0.13579407295E+04  0.27580372288E+04  0.24005762497E+04 0.  0.
        5    1    3    3  502    0  0.10535921914E+04  0.18731472372E+03 -0.13035424932E+04  0.16865314801E+04  0.46999998093E+01 0. -1.
       -5    1    3    3    0  502 -0.10535921914E+04 -0.18731472372E+03 -0.54398236299E+02  0.10715057488E+04  0.46999998093E+01 0.  1.
</event>
<event>
 5   0  0.5349036E-06  0.2405107E+04  0.7818609E-02  0.8437594E-01
       -2   -1    0    0    0  501  0.00000000000E+00  0.00000000000E+00  0.13232338327E+04  0.13232338327E+04  0.25500000920E-02 0.  1.
        2   -1    0    0  501    0  0.00000000000E+00  0.00000000000E+00 -0.10928790357E+04  0.10928790357E+04  0.25500000920E-02 0. -1.
    10030    2    1    2    0    0  0.00000000000E+00  0.00000000000E+00  0.23035479702E+03  0.24161128684E+04  0.24051066630E+04 0.  0.
        1    1    3    3  502    0 -0.68513773985E+03  0.98086740951E+03 -0.62887712730E+01  0.11964757190E+04  0.50400001928E-02 0. -1.
       -1    1    3    3    0  502  0.68513773985E+03 -0.98086740951E+03  0.23664356829E+03  0.12196371493E+04  0.50400001928E-02 0.  1.
</event>
<event>
 5   0  0.2149417E-06  0.2400762E+04  0.7818609E-02  0.8439218E-01
        1   -1    0    0  501    0  0.00000000000E+00  0.00000000000E+00  0.15474422001E+04  0.15474422001E+04  0.50400001928E-02 0.  1.
       -1   -1    0    0    0  501  0.00000000000E+00  0.00000000000E+00 -0.93115896578E+03  0.93115896580E+03  0.50400001928E-02 0. -1.
    10030    2    1    2    0    0  0.00000000000E+00  0.00000000000E+00  0.61628323427E+03  0.24786011659E+04  0.24007621112E+04 0.  0.
        5    1    3    3  502    0  0.24064674776E+03  0.11154498973E+04 -0.76431671437E+02  0.11436796846E+04  0.46999998093E+01 0.  1.
       -5    1    3    3    0  502 -0.24064674776E+03 -0.11154498973E+04  0.69271490571E+03  0.13349214813E+04  0.46999998093E+01 0. -1.
</event>
<event>
 5   0  0.2149029E-06  0.2406347E+04  0.7818609E-02  0.8437131E-01
       -1   -1    0    0    0  501  0.00000000000E+00  0.00000000000E+00  0.16594140156E+04  0.16594140156E+04  0.50400001928E-02 0. -1.
        1   -1    0    0  501    0  0.00000000000E+00  0.00000000000E+00 -0.87237193126E+03  0.87237193128E+03  0.50400001928E-02 0.  1.
    10030    2    1    2    0    0  0.00000000000E+00  0.00000000000E+00  0.78704208429E+03  0.25317859468E+04  0.24063467826E+04 0.  0.
        4    1    3    3  502    0  0.51737603590E+03 -0.79045784339E+03  0.11774259685E+04  0.15095810972E+04  0.12699999809E+01 0. -1.
       -4    1    3    3    0  502 -0.51737603590E+03  0.79045784339E+03 -0.39038388424E+03  0.10222048497E+04  0.12699999809E+01 0.  1.
</event>
<event>
 5   0  0.2297414E-06  0.2401902E+04  0.7818609E-02  0.8438792E-01
        1   -1    0    0  501    0  0.00000000000E+00  0.00000000000E+00  0.13309390431E+04  0.13309390431E+04  0.50400001928E-02 0.  1.
       -1   -1    0    0    0  501  0.00000000000E+00  0.00000000000E+00 -0.10836582970E+04  0.10836582970E+04  0.50400001928E-02 0. -1.
    10030    2    1    2    0    0  0.00000000000E+00  0.00000000000E+00  0.24728074608E+03  0.24145973401E+04  0.24019018605E+04 0.  0.
        1    1    3    3  502    0  0.22026576814E+03 -0.19028834547E+03  0.12949410974E+04  0.13272524661E+04  0.50400001928E-02 0.  1.
       -1    1    3    3    0  502 -0.22026576814E+03  0.19028834547E+03 -0.10476603514E+04  0.10873448739E+04  0.50400001928E-02 0. -1.
</event>
<event>
 5   0  0.2297414E-06  0.2384769E+04  0.7818609E-02  0.8445228E-01
       -1   -1    0    0    0  501  0.00000000000E+00  0.00000000000E+00  0.11611633534E+04  0.11611633534E+04  0.50400001928E-02 0. -1.
        1   -1    0    0  501    0  0.00000000000E+00  0.00000000000E+00 -0.12244452554E+04  0.12244452554E+04  0.50400001928E-02 0.  1.
    10030    2    1    2    0    0  0.00000000000E+00  0.00000000000E+00 -0.63281902080E+02  0.23856086088E+04  0.23847691367E+04 0.  0.
        1    1    3    3  502    0  0.78659856953E+03  0.88744262432E+03  0.92858625327E+02  0.11895017635E+04  0.50400001928E-02 0. -1.
       -1    1    3    3    0  502 -0.78659856953E+03 -0.88744262432E+03 -0.15614052741E+03  0.11961068453E+04  0.50400001928E-02 0.  1.
</event>
<event>
 5   0  0.2297414E-06  0.2402115E+04  0.7818609E-02  0.8438712E-01
       -1   -1    0    0    0  501  0.00000000000E+00  0.00000000000E+00  0.11733184255E+04  0.11733184255E+04  0.50400001928E-02 0. -1.
        1   -1    0    0  501    0  0.00000000000E+00  0.00000000000E+00 -0.12294524801E+04  0.12294524801E+04  0.50400001928E-02 0.  1.
    10030    2    1    2    0    0  0.00000000000E+00  0.00000000000E+00 -0.56134054574E+02  0.24027709056E+04  0.24021151081E+04 0.  0.
        1    1    3    3  502    0  0.11662436854E+04  0.22468616170E+03 -0.20680840587E+03  0.12055612476E+04  0.50400001928E-02 0.  1.
       -1    1    3    3    0  502 -0.11662436854E+04 -0.22468616170E+03  0.15067435130E+03  0.11972096580E+04  0.50400001928E-02 0. -1.
</event>
<event>
 5   0  0.2254269E-06  0.2398193E+04  0.7818609E-02  0.8440180E-01
        1   -1    0    0  501    0  0.00000000000E+00  0.00000000000E+00  0.11784782895E+04  0.11784782895E+04  0.50400001928E-02 0. -1.
       -1   -1    0    0    0  501  0.00000000000E+00  0.00000000000E+00 -0.12200752102E+04  0.12200752103E+04  0.50400001928E-02 0.  1.
    10030    2    1    2    0    0  0.00000000000E+00  0.00000000000E+00 -0.41596920738E+02  0.23985534998E+04  0.23981927753E+04 0.  0.
        2    1    3    3  502    0  0.61105986825E+03 -0.94069507302E+03  0.40297597987E+03  0.11919274405E+04  0.25500000920E-02 0. -1.
       -2    1    3    3    0  502 -0.61105986825E+03  0.94069507302E+03 -0.44457290061E+03  0.12066260593E+04  0.25500000920E-02 0.  1.
</event>
<event>
 5   0  0.2149417E-06  0.2400641E+04  0.7818609E-02  0.8439264E-01
        1   -1    0    0  501    0  0.00000000000E+00  0.00000000000E+00  0.10884437625E+04  0.10884437625E+04  0.50400001928E-02 0. -1.
       -1   -1    0    0    0  501  0.00000000000E+00  0.00000000000E+00 -0.13236967524E+04  0.13236967524E+04  0.50400001928E-02 0.  1.
    10030    2    1    2    0    0  0.00000000000E+00  0.00000000000E+00 -0.23525298988E+03  0.24121405149E+04  0.24006411423E+04 0.  0.
        5    1    3    3  502    0 -0.67306008647E+03 -0.84080189229E+03  0.41480768876E+03  0.11541426301E+04  0.46999998093E+01 0. -1.
       -5    1    3    3    0  502  0.67306008647E+03  0.84080189229E+03 -0.65006067864E+03  0.12579978847E+04  0.46999998093E+01 0.  1.
</event>
<event>
 5   0  0.5440503E-06  0.2392767E+04  0.7818609E-02  0.8442217E-01
       -2   -1    0    0    0  501  0.00000000000E+00  0.00000000000E+00  0.91749283698E+03  0.91749283698E+03  0.25500000920E-02 0. -1.
        2   -1    0    0  501    0  0.00000000000E+00  0.00000000000E+00 -0.15600480389E+04  0.15600480389E+04  0.25500000920E-02 0.  1.
    10030    2    1    2    0    0  0.00000000000E+00  0.00000000000E+00 -0.64255520187E+03  0.24775408758E+04  0.23927665168E+04 0.  0.
        3    1    3    3  502    0  0.11299200844E+04  0.12176309634E+03  0.65850122908E+02  0.11383680853E+04  0.10100000352E+00 0. -1.
       -3    1    3    3    0  502 -0.11299200844E+04 -0.12176309634E+03 -0.70840532478E+03  0.13391727906E+04  0.10100000352E+00 0.  1.
</event>
<event>
 5   0  0.2215700E-06  0.2399933E+04  0.7818609E-02  0.8439529E-01
       -1   -1    0    0    0  501  0.00000000000E+00  0.00000000000E+00  0.12353425327E+04  0.12353425327E+04  0.50400001928E-02 0.  1.
        1   -1    0    0  501    0  0.00000000000E+00  0.00000000000E+00 -0.11656038025E+04  0.11656038025E+04  0.50400001928E-02 0. -1.
    10030    2    1    2    0    0  0.00000000000E+00  0.00000000000E+00  0.69738730264E+02  0.24009463352E+04  0.23999332937E+04 0.  0.
        3    1    3    3  502    0 -0.71375075234E+03 -0.45574719459E+03 -0.81565083699E+03  0.11757686592E+04  0.10100000352E+00 0. -1.
       -3    1    3    3    0  502  0.71375075234E+03  0.45574719459E+03  0.88538956726E+03  0.12251776760E+04  0.10100000352E+00 0.  1.
</event>
<event>
 5   0  0.2254269E-06  0.2405589E+04  0.7818609E-02  0.8437414E-01
        1   -1    0    0  501    0  0.00000000000E+00  0.00000000000E+00  0.13588860389E+04  0.13588860389E+04  0.50400001928E-02 0.  1.
       -1   -1    0    0    0  501  0.00000000000E+00  0.00000000000E+00 -0.10646329618E+04  0.10646329618E+04  0.50400001928E-02 0. -1.
    10030    2    1    2    0    0  0.00000000000E+00  0.00000000000E+00  0.29425307710E+03  0.24235190008E+04  0.24055892155E+04 0.  0.
        2    1    3    3  502    0 -0.24932383730E+03  0.11761748308E+04  0.18151687221E+03  0.12159350243E+04  0.25500000920E-02 0. -1.
       -2    1    3    3    0  502  0.24932383730E+03 -0.11761748308E+04  0.11273620489E+03  0.12075839765E+04  0.25500000920E-02 0.  1.
</event>
<event>
 5   0  0.5379778E-06  0.2399283E+04  0.7818609E-02  0.8439772E-01
       -2   -1    0    0    0  501  0.00000000000E+00  0.00000000000E+00  0.15649986275E+04  0.15649986275E+04  0.25500000920E-02 0.  1.
        2   -1    0    0  501    0  0.00000000000E+00  0.00000000000E+00 -0.91957905651E+03  0.91957905651E+03  0.25500000920E-02 0. -1.
    10030    2    1    2    0    0  0.00000000000E+00  0.00000000000E+00  0.64541957101E+03  0.24845776840E+04  0.23992831941E+04 0.  0.
        5    1    3    3  502    0  0.91624004725E+03  0.15402013305E+03  0.11085686372E+04  0.14464316572E+04  0.46999998093E+01 0.  1.
       -5    1    3    3    0  502 -0.91624004725E+03 -0.15402013305E+03 -0.46314906617E+03  0.10381460268E+04  0.46999998093E+01 0. -1.
</event>
<event>
 5   0  0.5440503E-06  0.2361718E+04  0.7818609E-02  0.8453976E-01
       -2   -1    0    0    0  501  0.00000000000E+00  0.00000000000E+00  0.12243485329E+04  0.12243485329E+04  0.25500000920E-02 0. -1.
        2   -1    0    0  501    0  0.00000000000E+00  0.00000000000E+00 -0.11389141194E+04  0.11389141194E+04  0.25500000920E-02 0.  1.
    10030    2    1    2    0    0  0.00000000000E+00  0.00000000000E+00  0.85434413483E+02  0.23632626523E+04  0.23617178757E+04 0.  0.
        3    1    3    3  502    0 -0.25800066502E+03 -0.88376826475E+02  0.11924043149E+04  0.12231937160E+04  0.10100000352E+00 0. -1.
       -3    1    3    3    0  502  0.25800066502E+03  0.88376826475E+02 -0.11069699014E+04  0.11400689362E+04  0.10100000352E+00 0.  1.
</event>
<event>
 5   0  0.2297414E-06  0.2399438E+04  0.7818609E-02  0.8439714E-01
       -1   -1    0    0    0  501  0.00000000000E+00  0.00000000000E+00  0.12775978076E+04  0.12775978076E+04  0.50400001928E-02 0.  1.
        1   -1    0    0  501    0  0.00000000000E+00  0.00000000000E+00 -0.11265878652E+04  0.11265878652E+04  0.50400001928E-02 0. -1.
    10030    2    1    2    0    0  0.00000000000E+00  0.00000000000E+00  0.15100994235E+03  0.24041856728E+04  0.23994384232E+04 0.  0.
        1    1    3    3  502    0 -0.41212750539E+03 -0.54233798827E+02 -0.10521263513E+04  0.11312648871E+04  0.50400001928E-02 0. -1.
       -1    1    3    3    0  502  0.41212750539E+03  0.54233798827E+02  0.12031362936E+04  0.12729207857E+04  0.50400001928E-02 0.  1.
</event>
<event>
 5   0  0.5371843E-06  0.2400029E+04  0.7818609E-02  0.8439493E-01
        2   -1    0    0  501    0  0.00000000000E+00  0.00000000000E+00  0.13667977781E+04  0.13667977781E+04  0.25500000920E-02 0.  1.
       -2   -1    0    0    0  501  0.00000000000E+00  0.00000000000E+00 -0.10535830831E+04  0.10535830831E+04  0.25500000920E-02 0. -1.
    10030    2    1    2    0    0  0.00000000000E+00  0.00000000000E+00  0.31321469496E+03  0.24203808612E+04  0.24000291807E+04 0.  0.
        4    1    3    3  502    0  0.58882954733E+03 -0.99066064304E+03 -0.18075085305E+03  0.11665338526E+04  0.12699999809E+01 0.  1.
       -4    1    3    3    0  502 -0.58882954733E+03  0.99066064304E+03  0.49396554802E+03  0.12538470086E+04  0.12699999809E+01 0. -1.
</event>
<event>
 5   0  0.5349036E-06  0.2393483E+04  0.7818609E-02  0.8441948E-01
       -2   -1    0    0    0  501  0.00000000000E+00  0.00000000000E+00  0.98541216031E+03  0.98541216032E+03  0.25500000920E-02 0.  1.
        2   -1    0    0  501    0  0.00000000000E+00  0.00000000000E+00 -0.14533918441E+04  0.14533918441E+04  0.25500000920E-02 0. -1.
    10030    2    1    2    0    0  0.00000000000E+00  0.00000000000E+00 -0.46797968379E+03  0.24388040044E+04  0.23934828154E+04 0.  0.
        1    1    3    3  502    0 -0.80897845636E+03 -0.80259810432E+03  0.13841689422E+03  0.11479412426E+04  0.50400001928E-02 0. -1.
       -1    1    3    3    0  502  0.80897845636E+03  0.80259810432E+03 -0.60639657801E+03  0.12908627618E+04  0.50400001928E-02 0.  1.
</event>
<event>
 5   0  0.5440503E-06  0.2396527E+04  0.7818609E-02  0.8440805E-01
        2   -1    0    0  501    0  0.00000000000E+00  0.00000000000E+00  0.10228630404E+04  0.10228630404E+04  0.25500000920E-02 0. -1.
       -2   -1    0    0    0  501  0.00000000000E+00  0.00000000000E+00 -0.14037418368E+04  0.14037418368E+04  0.25500000920E-02 0.  1.
    10030    2    1    2    0    0  0.00000000000E+00  0.00000000000E+00 -0.38087879640E+03  0.24266048773E+04  0.23965271901E+04 0.  0.
        3    1    3    3  502    0 -0.38017731978E+03  0.10869012361E+04 -0.52618280421E+03  0.12660005707E+04  0.10100000352E+00 0.  1.
       -3    1    3    3    0  502  0.38017731978E+03 -0.10869012361E+04  0.14530400781E+03  0.11606043065E+04  0.10100000352E+00 0. -1.
</event>
<event>
 5   0  0.2149417E-06  0.2401994E+04  0.7818609E-02  0.8438758E-01
       -1   -1    0    0    0  501  0.00000000000E+00  0.00000000000E+00  0.83051854490E+03  0.83051854492E+03  0.50400001928E-02 0. -1.
        1   -1    0    0  501    0  0.00000000000E+00  0.00000000000E+00 -0.17367382586E+04  0.17367382586E+04  0.50400001928E-02 0.  1.
    10030    2    1    2    0    0  0.00000000000E+00  0.00000000000E+00 -0.90621971371E+03  0.25672568035E+04  0.24019936149E+04 0.  0.
        5    1    3    3  502    0  0.70320647192E+03  0.89396276419E+03 -0.40958661130E+02  0.11381425516E+04  0.46999998093E+01 0. -1.
       -5    1    3    3    0  502 -0.70320647192E+03 -0.89396276419E+03 -0.86526105258E+03  0.14291142519E+04  0.46999998093E+01 0.  1.
</event>
<event>
 5   0  0.2254269E-06  0.2407654E+04  0.7818609E-02  0.8436643E-01
        1   -1    0    0  501    0  0.00000000000E+00  0.00000000000E+00  0.80450605661E+03  0.80450605663E+03  0.50400001928E-02 0.  1.
       -1   -1    0    0    0  501  0.00000000000E+00  0.00000000000E+00 -0.18013537663E+04  0.18013537663E+04  0.50400001928E-02 0. -1.
    10030    2    1    2    0    0  0.00000000000E+00  0.00000000000E+00 -0.99684770971E+03  0.26058598230E+04  0.24076544728E+04 0.  0.
        2    1    3    3  502    0  0.47664717970E+01 -0.95667477738E+03  0.29245043179E+03  0.10003882266E+04  0.25500000920E-02 0.  1.
       -2    1    3    3    0  502 -0.47664717970E+01  0.95667477738E+03 -0.12892981415E+04  0.16054715963E+04  0.25500000920E-02 0. -1.
</event>
<event>
 5   0  0.2215700E-06  0.2383925E+04  0.7818609E-02  0.8445546E-01
       -1   -1    0    0    0  501  0.00000000000E+00  0.00000000000E+00  0.97382947998E+03  0.97382948000E+03  0.50400001928E-02 0. -1.
        1   -1    0    0  501    0  0.00000000000E+00  0.00000000000E+00 -0.14589568230E+04  0.14589568230E+04  0.50400001928E-02 0.  1.
    10030    2    1    2    0    0  0.00000000000E+00  0.00000000000E+00 -0.48512734305E+03  0.24327863030E+04  0.23839254723E+04 0.  0.
        3    1    3    3  502    0 -0.23722647772E+03  0.64697360002E+03 -0.12350839535E+04  0.14143138348E+04  0.10100000352E+00 0.  1.
       -3    1    3    3    0  502  0.23722647772E+03 -0.64697360002E+03  0.74995661045E+03  0.10184724683E+04  0.10100000352E+00 0. -1.
</event>
<event>
 5   0  0.5268358E-06  0.2417441E+04  0.7818609E-02  0.8433003E-01
       -2   -1    0    0    0  501  0.00000000000E+00  0.00000000000E+00  0.79877863473E+03  0.79877863473E+03  0.25500000920E-02 0.  1.
        2   -1    0    0  501    0  0.00000000000E+00  0.00000000000E+00 -0.18290491898E+04  0.18290491898E+04  0.25500000920E-02 0. -1.
    10030    2    1    2    0    0  0.00000000000E+00  0.00000000000E+00 -0.10302705551E+04  0.26278278245E+04  0.24174411386E+04 0.  0.
        2    1    3    3  502    0 -0.81217666692E+03  0.38954089011E+03 -0.13912779382E+04  0.16574158635E+04  0.25500000920E-02 0. -1.
       -2    1    3    3    0  502  0.81217666692E+03 -0.38954089011E+03  0.36100738313E+03  0.97041196099E+03  0.25500000920E-02 0.  1.
</event>
<event>
 5   0  0.5371843E-06  0.2395557E+04  0.7818609E-02  0.8441169E-01
        2   -1    0    0  501    0  0.00000000000E+00  0.00000000000E+00  0.17015535472E+04  0.17015535472E+04  0.25500000920E-02 0. -1.
       -2   -1    0    0    0  501  0.00000000000E+00  0.00000000000E+00 -0.84315502686E+03  0.84315502686E+03  0.25500000920E-02 0.  1.
    10030    2    1    2    0    0  0.00000000000E+00  0.00000000000E+00  0.85839852036E+03  0.25447085741E+04  0.23955570766E+04 0.  0.
        4    1    3    3  502    0 -0.10455066181E+04  0.19012895989E+03  0.10162742301E+04  0.14703904357E+04  0.12699999809E+01 0.  1.
       -4    1    3    3    0  502  0.10455066181E+04 -0.19012895989E+03 -0.15787570971E+03  0.10743181384E+04  0.12699999809E+01 0. -1.
</event>
<event>
 5   0  0.2254269E-06  0.2399704E+04  0.7818609E-02  0.8439614E-01
       -1   -1    0    0    0  501  0.00000000000E+00  0.00000000000E+00  0.12276270553E+04  0.12276270553E+04  0.50400001928E-02 0. -1.
        1   -1    0    0  501    0  0.00000000000E+00  0.00000000000E+00 -0.11727054976E+04  0.11727054976E+04  0.50400001928E-02 0.  1.
    10030    2    1    2    0    0  0.00000000000E+00  0.00000000000E+00  0.54921557764E+02  0.24003325529E+04  0.23997041457E+04 0.  0.
        2    1    3    3  502    0  0.55901317756E+02 -0.28024349425E+03 -0.11381699272E+04  0.11734956995E+04  0.25500000920E-02 0.  1.
       -2    1    3    3    0  502 -0.55901317756E+02  0.28024349425E+03  0.11930914850E+04  0.12268368534E+04  0.25500000920E-02 0. -1.
</event>
<event>
 5   0  0.2149417E-06  0.2395600E+04  0.7818609E-02  0.8441153E-01
       -1   -1    0    0    0  501  0.00000000000E+00  0.00000000000E+00  0.11401154153E+04  0.11401154153E+04  0.50400001928E-02 0.  1.
        1   -1    0    0  501    0  0.00000000000E+00  0.00000000000E+00 -0.12584036409E+04  0.12584036409E+04  0.50400001928E-02 0. -1.
    10030    2    1    2    0    0  0.00000000000E+00  0.00000000000E+00 -0.11828822554E+03  0.23985190562E+04  0.23956004589E+04 0.  0.
        5    1    3    3  502    0 -0.21893230616E+03 -0.11735744021E+04 -0.15670546718E+03  0.12040709802E+04  0.46999998093E+01 0.  1.
       -5    1    3    3    0  502  0.21893230616E+03  0.11735744021E+04  0.38417241641E+02  0.11944480760E+04  0.46999998093E+01 0. -1.
</event>
<event>
 5   0  0.2254269E-06  0.2401497E+04  0.7818609E-02  0.8438943E-01
       -1   -1    0    0    0  501  0.00000000000E+00  0.00000000000E+00  0.74471686717E+03  0.74471686718E+03  0.50400001928E-02 0. -1.
        1   -1    0    0  501    0  0.00000000000E+00  0.00000000000E+00 -0.19360337303E+04  0.19360337303E+04  0.50400001928E-02 0.  1.
    10030    2    1    2    0    0  0.00000000000E+00  0.00000000000E+00 -0.11913168631E+04  0.26807505975E+04  0.24014970118E+04 0.  0.
        2    1    3    3  502    0 -0.18535505146E+03  0.10413653385E+04  0.38758485967E+02  0.10584424801E+04  0.25500000920E-02 0. -1.
       -2    1    3    3    0  502  0.18535505146E+03 -0.10413653385E+04 -0.12300753491E+04  0.16223081174E+04  0.25500000920E-02 0.  1.
</event>
<event>
 5   0  0.5268358E-06  0.2400281E+04  0.7818609E-02  0.8439399E-01
       -2   -1    0    0    0  501  0.00000000000E+00  0.00000000000E+00  0.91975159514E+03  0.91975159514E+03  0.25500000920E-02 0. -1.
        2   -1    0    0  501    0  0.00000000000E+00  0.00000000000E+00 -0.15660062923E+04  0.15660062923E+04  0.25500000920E-02 0.  1.
    10030    2    1    2    0    0  0.00000000000E+00  0.00000000000E+00 -0.64625469721E+03  0.24857578875E+04  0.24002806381E+04 0.  0.
        2    1    3    3  502    0 -0.44808614191E+03  0.71614501964E+03 -0.12059469466E+04  0.14723969973E+04  0.25500000920E-02 0.  1.
       -2    1    3    3    0  502  0.44808614191E+03 -0.71614501964E+03  0.55969224936E+03  0.10133608902E+04  0.25500000920E-02 0. -1.
</event>
<event>
 5   0  0.5440503E-06  0.2399486E+04  0.7818609E-02  0.8439696E-01
       -2   -1    0    0    0  501  0.00000000000E+00  0.00000000000E+00  0.12428646283E+04  0.12428646283E+04  0.25500000920E-02 0. -1.
        2   -1    0    0  501    0  0.00000000000E+00  0.00000000000E+00 -0.11581171241E+04  0.11581171241E+04  0.25500000920E-02 0.  1.
    10030    2    1    2    0    0  0.00000000000E+00  0.00000000000E+00  0.84747504210E+02  0.24009817524E+04  0.23994856190E+04 0.  0.
        3    1    3    3  502    0  0.83612824900E+03 -0.32246557675E+02 -0.81794866022E+03  0.11701240576E+04  0.10100000352E+00 0. -1.
       -3    1    3    3    0  502 -0.83612824900E+03  0.32246557675E+02  0.90269616443E+03  0.12308576948E+04  0.10100000352E+00 0.  1.
</event>
<event>
 5   0  0.5268358E-06  0.2401980E+04  0.7818609E-02  0.8438763E-01
       -2   -1    0    0    0  501  0.00000000000E+00  0.00000000000E+00  0.14472934373E+04  0.14472934373E+04  0.25500000920E-02 0.  1.
        2   -1    0    0  501    0  0.00000000000E+00  0.00000000000E+00 -0.99660324133E+03  0.99660324133E+03  0.25500000920E-02 0. -1.
    10030    2    1    2    0    0  0.00000000000E+00  0.00000000000E+00  0.45069019602E+03  0.24438966787E+04  0.24019802920E+04 0.  0.
        2    1    3    3  502    0 -0.72692264985E+03  0.19272729954E+02 -0.74715334894E+03  0.10426054401E+04  0.25500000920E-02 0. -1.
       -2    1    3    3    0  502  0.72692264985E+03 -0.19272729954E+02  0.11978435450E+04  0.14012912385E+04  0.25500000920E-02 0.  1.
</event>
<event>
 5   0  0.2215700E-06  0.2396951E+04  0.7818609E-02  0.8440646E-01
       -1   -1    0    0    0  501  0.00000000000E+00  0.00000000000E+00  0.10060964836E+04  0.10060964836E+04  0.50400001928E-02 0. -1.
        1   -1    0    0  501    0  0.00000000000E+00  0.00000000000E+00 -0.14276395267E+04  0.14276395267E+04  0.50400001928E-02 0.  1.
    10030    2    1    2    0    0  0.00000000000E+00  0.00000000000E+00 -0.42154304315E+03  0.24337360103E+04  0.23969506525E+04 0.  0.
        3    1    3    3  502    0 -0.93264677037E+03 -0.27024195755E+03 -0.92403535265E+03  0.13404111522E+04  0.10100000352E+00 0.  1.
       -3    1    3    3    0  502  0.93264677037E+03  0.27024195755E+03  0.50249230950E+03  0.10933248580E+04  0.10100000352E+00 0. -1.
</event>
<event>
 5   0  0.2149417E-06  0.2399639E+04  0.7818609E-02  0.8439639E-01
        1   -1    0    0  501    0  0.00000000000E+00  0.00000000000E+00  0.18028890664E+04  0.18028890664E+04  0.50400001928E-02 0.  1.
       -1   -1    0    0    0  501  0.00000000000E+00  0.00000000000E+00 -0.79847764941E+03  0.79847764943E+03  0.50400001928E-02 0. -1.
    10030    2    1    2    0    0  0.00000000000E+00  0.00000000000E+00  0.10044114170E+04  0.26013667159E+04  0.23996388261E+04 0.  0.
        5    1    3    3  502    0 -0.97258064674E+03 -0.68094964665E+03  0.31463097785E+03  0.12282590435E+04  0.46999998093E+01 0. -1.
       -5    1    3    3    0  502  0.97258064674E+03  0.68094964665E+03  0.68978043918E+03  0.13731076724E+04  0.46999998093E+01 0.  1.
</event>
<event>
 5   0  0.5379778E-06  0.2398237E+04  0.7818609E-02  0.8440164E-01
       -2   -1    0    0    0  501  0.00000000000E+00  0.00000000000E+00  0.16090975814E+04  0.16090975814E+04  0.25500000920E-02 0. -1.
        2   -1    0    0  501    0  0.00000000000E+00  0.00000000000E+00 -0.89359725501E+03  0.89359725502E+03  0.25500000920E-02 0.  1.
    10030    2    1    2    0    0  0.00000000000E+00  0.00000000000E+00  0.71550032640E+03  0.25026948364E+04  0.23982370040E+04 0.  0.
        5    1    3    3  502    0 -0.68599577038E+03  0.64245729265E+03  0.11348467495E+04  0.14735130826E+04  0.46999998093E+01 0. -1.
       -5    1    3    3    0  502  0.68599577038E+03 -0.64245729265E+03 -0.41934642306E+03  0.10291817538E+04  0.46999998093E+01 0.  1.
</event>
<event>
 5   0  0.2149417E-06  0.2398656E+04  0.7818609E-02  0.8440007E-01
       -1   -1    0    0    0  501  0.00000000000E+00  0.00000000000E+00  0.84131777806E+03  0.84131777808E+03  0.50400001928E-02 0.  1.
        1   -1    0    0  501    0  0.00000000000E+00  0.00000000000E+00 -0.17096846718E+04  0.17096846718E+04  0.50400001928E-02 0. -1.
    10030    2    1    2    0    0  0.00000000000E+00  0.00000000000E+00 -0.86836689370E+03  0.25510024499E+04  0.23986563816E+04 0.  0.
        5    1    3    3  502    0  0.61183631866E+03 -0.69546296239E+03  0.37601084986E+03  0.99970928879E+03  0.46999998093E+01 0.  1.
       -5    1    3    3    0  502 -0.61183631866E+03  0.69546296239E+03 -0.12443777436E+04  0.15512931611E+04  0.46999998093E+01 0. -1.
</event>
<event>
 5   0  0.2254269E-06  0.2399773E+04  0.7818609E-02  0.8439589E-01
       -1   -1    0    0    0  501  0.00000000000E+00  0.00000000000E+00  0.70429334267E+03  0.70429334268E+03  0.50400001928E-02 0. -1.
        1   -1    0    0  501    0  0.00000000000E+00  0.00000000000E+00 -0.20442155222E+04  0.20442155222E+04  0.50400001928E-02 0.  1.
    10030    2    1    2    0    0  0.00000000000E+00  0.00000000000E+00 -0.13399221796E+04  0.27485088649E+04  0.23997728087E+04 0.  0.
        2    1    3    3  502    0  0.68155175610E+03 -0.31200889375E+03  0.40314062856E+03  0.85110793230E+03  0.25500000920E-02 0. -1.
       -2    1    3    3    0  502 -0.68155175610E+03  0.31200889375E+03 -0.17430628081E+04  0.18974009326E+04  0.25500000920E-02 0.  1.
</event>
<event>
 5   0  0.5379778E-06  0.2402567E+04  0.7818609E-02  0.8438543E-01
        2   -1    0    0  501    0  0.00000000000E+00  0.00000000000E+00  0.22604254917E+04  0.22604254917E+04  0.25500000920E-02 0. -1.
       -2   -1    0    0    0  501  0.00000000000E+00  0.00000000000E+00 -0.63841145449E+03  0.63841145450E+03  0.25500000920E-02 0.  1.
    10030    2    1    2    0    0  0.00000000000E+00  0.00000000000E+00  0.16220140372E+04  0.28988369462E+04  0.24025665659E+04 0.  0.
        5    1    3    3  502    0 -0.77521402886E+03  0.73046753024E+02  0.19147058519E+04  0.20669816661E+04  0.46999998093E+01 0. -1.
       -5    1    3    3    0  502  0.77521402886E+03 -0.73046753024E+02 -0.29269181469E+03  0.83185528011E+03  0.46999998093E+01 0.  1.
</event>
<event>
 5   0  0.2297414E-06  0.2399633E+04  0.7818609E-02  0.8439641E-01
        1   -1    0    0  501    0  0.00000000000E+00  0.00000000000E+00  0.92839633966E+03  0.92839633967E+03  0.50400001928E-02 0.  1.
       -1   -1    0    0    0  501  0.00000000000E+00  0.00000000000E+00 -0.15505874619E+04  0.15505874619E+04  0.50400001928E-02 0. -1.
    10030    2    1    2    0    0  0.00000000000E+00  0.00000000000E+00 -0.62219112224E+03  0.24789838016E+04  0.23996330753E+04 0.  0.
        1    1    3    3  502    0 -0.42867812575E+03  0.26818283988E+03  0.81294339307E+03  0.95737345455E+03  0.50400001928E-02 0.  1.
       -1    1    3    3    0  502  0.42867812575E+03 -0.26818283988E+03 -0.14351345153E+04  0.15216103470E+04  0.50400001928E-02 0. -1.
</event>
<event>
 5   0  0.5440503E-06  0.2400178E+04  0.7818609E-02  0.8439437E-01
       -2   -1    0    0    0  501  0.00000000000E+00  0.00000000000E+00  0.10367639428E+04  0.10367639428E+04  0.25500000920E-02 0.  1.
        2   -1    0    0  501    0  0.00000000000E+00  0.00000000000E+00 -0.13891432144E+04  0.13891432144E+04  0.25500000920E-02 0. -1.
    10030    2    1    2    0    0  0.00000000000E+00  0.00000000000E+00 -0.35237927162E+03  0.24259071572E+04  0.24001779902E+04 0.  0.
        3    1    3    3  502    0  0.23726536187E+02  0.69947186235E+03 -0.11615193936E+04  0.13560793291E+04  0.10100000352E+00 0. -1.
       -3    1    3    3    0  502 -0.23726536187E+02 -0.69947186235E+03  0.80914012200E+03  0.10698278282E+04  0.10100000352E+00 0.  1.
</event>
<event>
 5   0  0.5349036E-06  0.2398439E+04  0.7818609E-02  0.8440088E-01
        2   -1    0    0  501    0  0.00000000000E+00  0.00000000000E+00  0.23142204945E+04  0.23142204945E+04  0.25500000920E-02 0. -1.
       -2   -1    0    0    0  501  0.00000000000E+00  0.00000000000E+00 -0.62143079848E+03  0.62143079848E+03  0.25500000920E-02 0.  1.
    10030    2    1    2    0    0  0.00000000000E+00  0.00000000000E+00  0.16927896960E+04  0.29356512929E+04  0.23984394007E+04 0.  0.
        1    1    3    3  502    0  0.38799394597E+03 -0.77768498317E+03 -0.16500008496E+03  0.88462323235E+03  0.50400001928E-02 0.  1.
       -1    1    3    3    0  502 -0.38799394597E+03  0.77768498317E+03  0.18577897809E+04  0.20510280606E+04  0.50400001928E-02 0. -1.
</event>
<event>
 5   0  0.5440503E-06  0.2399207E+04  0.7818609E-02  0.8439801E-01
        2   -1    0    0  501    0  0.00000000000E+00  0.00000000000E+00  0.20121432543E+04  0.20121432543E+04  0.25500000920E-02 0. -1.
       -2   -1    0    0    0  501  0.00000000000E+00  0.00000000000E+00 -0.71518167010E+03  0.71518167010E+03  0.25500000920E-02 0.  1.
    10030    2    1    2    0    0  0.00000000000E+00  0.00000000000E+00  0.12969615842E+04  0.27273249244E+04  0.23992065131E+04 0.  0.
        3    1    3    3  502    0  0.43189714544E+03 -0.21476952417E+03  0.18970498000E+04  0.19574113125E+04  0.10100000352E+00 0. -1.
       -3    1    3    3    0  502 -0.43189714544E+03  0.21476952417E+03 -0.60008821579E+03  0.76991361183E+03  0.10100000352E+00 0.  1.
</event>
<event>
 5   0  0.2254269E-06  0.2395372E+04  0.7818609E-02  0.8441238E-01
       -1   -1    0    0    0  501  0.00000000000E+00  0.00000000000E+00  0.11638559109E+04  0.11638559109E+04  0.50400001928E-02 0. -1.
        1   -1    0    0  501    0  0.00000000000E+00  0.00000000000E+00 -0.12324996447E+04  0.12324996448E+04  0.50400001928E-02 0.  1.
    10030    2    1    2    0    0  0.00000000000E+00  0.00000000000E+00 -0.68643733828E+02  0.23963555557E+04  0.23953722022E+04 0.  0.
        2    1    3    3  502    0 -0.79477279457E+03  0.87385151700E+03  0.16367787129E+03  0.11925060647E+04  0.25500000920E-02 0. -1.
       -2    1    3    3    0  502  0.79477279457E+03 -0.87385151700E+03 -0.23232160512E+03  0.12038494910E+04  0.25500000920E-02 0.  1.
</event>
<event>
 5   0  0.5371843E-06  0.2399828E+04  0.7818609E-02  0.8439568E-01
       -2   -1    0    0    0  501  0.00000000000E+00  0.00000000000E+00  0.95779223094E+03  0.95779223094E+03  0.25500000920E-02 0. -1.
        2   -1    0    0  501    0  0.00000000000E+00  0.00000000000E+00 -0.15032415047E+04  0.15032415047E+04  0.25500000920E-02 0.  1.
    10030    2    1    2    0    0  0.00000000000E+00  0.00000000000E+00 -0.54544927380E+03  0.24610337357E+04  0.23998275225E+04 0.  0.
        4    1    3    3  502    0 -0.33728414099E+03 -0.40794369929E+01  0.90817128479E+03  0.96878993026E+03  0.12699999809E+01 0. -1.
       -4    1    3    3    0  502  0.33728414099E+03  0.40794369929E+01 -0.14536205586E+04  0.14922438054E+04  0.12699999809E+01 0.  1.
</event>
<event>
 5   0  0.2149417E-06  0.2391325E+04  0.7818609E-02  0.8442759E-01
       -1   -1    0    0    0  501  0.00000000000E+00  0.00000000000E+00  0.12532285149E+04  0.12532285149E+04  0.50400001928E-02 0. -1.
        1   -1    0    0  501    0  0.00000000000E+00  0.00000000000E+00 -0.11407407043E+04  0.11407407044E+04  0.50400001928E-02 0.  1.
    10030    2    1    2    0    0  0.00000000000E+00  0.00000000000E+00  0.11248781059E+03  0.23939692193E+04  0.23913249707E+04 0.  0.
        5    1    3    3  502    0 -0.62586108191E+03 -0.82715820248E+03  0.65162323122E+03  0.12249602897E+04  0.46999998093E+01 0. -1.
       -5    1    3    3    0  502  0.62586108191E+03  0.82715820248E+03 -0.53913542063E+03  0.11690089296E+04  0.46999998093E+01 0.  1.
</event>
<event>
 5   0  0.2254269E-06  0.2398345E+04  0.7818609E-02  0.8440123E-01
        1   -1    0    0  501    0  0.00000000000E+00  0.00000000000E+00  0.15702655977E+04  0.15702655977E+04  0.50400001928E-02 0. -1.
       -1   -1    0    0    0  501  0.00000000000E+00  0.00000000000E+00 -0.91577833979E+03  0.91577833980E+03  0.50400001928E-02 0.  1.
    10030    2    1    2    0    0  0.00000000000E+00  0.00000000000E+00  0.65448725788E+03  0.24860439375E+04  0.23983454481E+04 0.  0.
        2    1    3    3  502    0  0.34012734540E+03  0.11732413763E+03  0.15129973329E+04  0.15551888933E+04  0.25500000920E-02 0. -1.
       -2    1    3    3    0  502 -0.34012734540E+03 -0.11732413763E+03 -0.85851007504E+03  0.93085504420E+03  0.25500000920E-02 0.  1.
</event>
<event>
 5   0  0.2254269E-06  0.2400287E+04  0.7818609E-02  0.8439396E-01
       -1   -1    0    0    0  501  0.00000000000E+00  0.00000000000E+00  0.10996206288E+04  0.10996206288E+04  0.50400001928E-02 0.  1.
        1   -1    0    0  501    0  0.00000000000E+00  0.00000000000E+00 -0.13098554262E+04  0.13098554262E+04  0.50400001928E-02 0. -1.
    10030    2    1    2    0    0  0.00000000000E+00  0.00000000000E+00 -0.21023479745E+03  0.24094760550E+04  0.24002866890E+04 0.  0.
        2    1    3    3  502    0  0.30012252251E+03 -0.11500209586E+04  0.62020229376E+02  0.11901547137E+04  0.25500000920E-02 0.  1.
       -2    1    3    3    0  502 -0.30012252251E+03  0.11500209586E+04 -0.27225502682E+03  0.12193213413E+04  0.25500000920E-02 0. -1.
</event>
<event>
 5   0  0.2215700E-06  0.2405540E+04  0.7818609E-02  0.8437432E-01
        1   -1    0    0  501    0  0.00000000000E+00  0.00000000000E+00  0.10826314412E+04  0.10826314412E+04  0.50400001928E-02 0. -1.
       -1   -1    0    0    0  501  0.00000000000E+00  0.00000000000E+00 -0.13362401001E+04  0.13362401001E+04  0.50400001928E-02 0.  1.
    10030    2    1    2    0    0  0.00000000000E+00  0.00000000000E+00 -0.25360865889E+03  0.24188715414E+04  0.24055398940E+04 0.  0.
        3    1    3    3  502    0  0.97250674271E+02 -0.82492657111E+03 -0.10015068634E+04  0.13011447072E+04  0.10100000352E+00 0.  1.
       -3    1    3    3    0  502 -0.97250674271E+02  0.82492657111E+03  0.74789820451E+03  0.11177268342E+04  0.10100000352E+00 0. -1.
</event>
<event>
 5   0  0.2149417E-06  0.2395771E+04  0.7818609E-02  0.8441088E-01
       -1   -1    0    0    0  501  0.00000000000E+00  0.00000000000E+00  0.97792919501E+03  0.97792919502E+03  0.50400001928E-02 0.  1.
        1   -1    0    0  501    0  0.00000000000E+00  0.00000000000E+00 -0.14673146440E+04  0.14673146440E+04  0.50400001928E-02 0. -1.
    10030    2    1    2    0    0  0.00000000000E+00  0.00000000000E+00 -0.48938544903E+03  0.24452438391E+04  0.23957711316E+04 0.  0.
        5    1    3    3  502    0  0.11021901696E+04 -0.35048511292E+03  0.73587706768E+02  0.11589220098E+04  0.46999998093E+01 0.  1.
       -5    1    3    3    0  502 -0.11021901696E+04  0.35048511292E+03 -0.56297315580E+03  0.12863218292E+04  0.46999998093E+01 0. -1.
</event>
<event>
 5   0  0.5379778E-06  0.2406314E+04  0.7818609E-02  0.8437144E-01
       -2   -1    0    0    0  501  0.00000000000E+00  0.00000000000E+00  0.10376714024E+04  0.10376714024E+04  0.25500000920E-02 0. -1.
        2   -1    0    0  501    0  0.00000000000E+00  0.00000000000E+00 -0.13950336932E+04  0.13950336932E+04  0.25500000920E-02 0.  1.
    10030    2    1    2    0    0  0.00000000000E+00  0.00000000000E+00 -0.35736229081E+03  0.24327050956E+04  0.24063138356E+04 0.  0.
        5    1    3    3  502    0  0.72221547658E+02 -0.11621662682E+04  0.12749031283E+03  0.11713762234E+04  0.46999998093E+01 0.  1.
       -5    1    3    3    0  502 -0.72221547658E+02  0.11621662682E+04 -0.48485260363E+03  0.12613288723E+04  0.46999998093E+01 0. -1.
</event>
<event>
 5   0  0.2215700E-06  0.2399624E+04  0.7818609E-02  0.8439644E-01
        1   -1    0    0  501    0  0.00000000000E+00  0.00000000000E+00  0.12746707540E+04  0.12746707541E+04  0.50400001928E-02 0.  1.
       -1   -1    0    0    0  501  0.00000000000E+00  0.00000000000E+00 -0.11293493785E+04  0.11293493785E+04  0.50400001928E-02 0. -1.
    10030    2    1    2    0    0  0.00000000000E+00  0.00000000000E+00  0.14532137557E+03  0.24040201325E+04  0.23996238237E+04 0.  0.
        3    1    3    3  502    0 -0.11429601438E+04  0.35037792333E+03 -0.29634336372E+02  0.11958264019E+04  0.10100000352E+00 0.  1.
       -3    1    3    3    0  502  0.11429601438E+04 -0.35037792333E+03  0.17495571194E+03  0.12081937306E+04  0.10100000352E+00 0. -1.
</event>
<event>
 5   0  0.2149417E-06  0.2393745E+04  0.7818609E-02  0.8441849E-01
       -1   -1    0    0    0  501  0.00000000000E+00  0.00000000000E+00  0.13601544328E+04  0.13601544328E+04  0.50400001928E-02 0. -1.
        1   -1    0    0  501    0  0.00000000000E+00  0.00000000000E+00 -0.10531922529E+04  0.10531922530E+04  0.50400001928E-02 0.  1.
    10030    2    1    2    0    0  0.00000000000E+00  0.00000000000E+00  0.30696217986E+03  0.24133466858E+04  0.23937452759E+04 0.  0.
        5    1    3    3  502    0 -0.39831452640E+03  0.49356730544E+03 -0.86982729149E+03  0.10765150970E+04  0.46999998093E+01 0.  1.
       -5    1    3    3    0  502  0.39831452640E+03 -0.49356730544E+03  0.11767894714E+04  0.13368315888E+04  0.46999998093E+01 0. -1.
</event>
<event>
 5   0  0.2149029E-06  0.2401212E+04  0.7818609E-02  0.8439050E-01
        1   -1    0    0  501    0  0.00000000000E+00  0.00000000000E+00  0.15568442039E+04  0.15568442039E+04  0.50400001928E-02 0. -1.
       -1   -1    0    0    0  501  0.00000000000E+00  0.00000000000E+00 -0.92588280657E+03  0.92588280658E+03  0.50400001928E-02 0.  1.
    10030    2    1    2    0    0  0.00000000000E+00  0.00000000000E+00  0.63096139733E+03  0.24827270105E+04  0.24012124279E+04 0.  0.
        4    1    3    3  502    0  0.52591610336E+03 -0.40631179017E+03 -0.71835108854E+03  0.97862501394E+03  0.12699999809E+01 0.  1.
       -4    1    3    3    0  502 -0.52591610336E+03  0.40631179017E+03  0.13493124859E+04  0.15041019966E+04  0.12699999809E+01 0. -1.
</event>
<event>
 5   0  0.2254269E-06  0.2401197E+04  0.7818609E-02  0.8439056E-01
        1   -1    0    0  501    0  0.00000000000E+00  0.00000000000E+00  0.16192643317E+04  0.16192643317E+04  0.50400001928E-02 0.  1.
       -1   -1    0    0    0  501  0.00000000000E+00  0.00000000000E+00 -0.89017972846E+03  0.89017972848E+03  0.50400001928E-02 0. -1.
    10030    2    1    2    0    0  0.00000000000E+00  0.00000000000E+00  0.72908460326E+03  0.25094440602E+04  0.24011966043E+04 0.  0.
        2    1    3    3  502    0  0.21844485417E+03  0.27692261398E+03  0.15638978847E+04  0.16031783688E+04  0.25500000920E-02 0.  1.
       -2    1    3    3    0  502 -0.21844485417E+03 -0.27692261398E+03 -0.83481328146E+03  0.90626569137E+03  0.25500000920E-02 0. -1.
</event>
<event>
 5   0  0.5268358E-06  0.2405837E+04  0.7818609E-02  0.8437322E-01
       -2   -1    0    0    0  501  0.00000000000E+00  0.00000000000E+00  0.65048324372E+03  0.65048324373E+03  0.25500000920E-02 0.  1.
        2   -1    0    0  501    0  0.00000000000E+00  0.00000000000E+00 -0.22245196726E+04  0.22245196726E+04  0.25500000920E-02 0. -1.
    10030    2    1    2    0    0  0.00000000000E+00  0.00000000000E+00 -0.15740364289E+04  0.28750029164E+04  0.24058368793E+04 0.  0.
        2    1    3    3  502    0  0.20566499452E+03 -0.12713986835E+01 -0.22033530032E+04  0.22129311248E+04  0.25500000920E-02 0. -1.
       -2    1    3    3    0  502 -0.20566499452E+03  0.12713986835E+01  0.62931657432E+03  0.66207179153E+03  0.25500000920E-02 0.  1.
</event>
<event>
 5   0  0.5440503E-06  0.2403687E+04  0.7818609E-02  0.8438124E-01
       -2   -1    0    0    0  501  0.00000000000E+00  0.00000000000E+00  0.79538882775E+03  0.79538882776E+03  0.25500000920E-02 0. -1.
        2   -1    0    0  501    0  0.00000000000E+00  0.00000000000E+00 -0.18160021501E+04  0.18160021501E+04  0.25500000920E-02 0.  1.
    10030    2    1    2    0    0  0.00000000000E+00  0.00000000000E+00 -0.10206133223E+04  0.26113909778E+04  0.24036870190E+04 0.  0.
        3    1    3    3  502    0  0.35681438503E+02  0.66019748876E+03 -0.16006721268E+04  0.17318444378E+04  0.10100000352E+00 0.  1.
       -3    1    3    3    0  502 -0.35681438503E+02 -0.66019748876E+03  0.58005880445E+03  0.87954654001E+03  0.10100000352E+00 0. -1.
</event>
<event>
 5   0  0.5371843E-06  0.2397702E+04  0.7818609E-02  0.8440365E-01
        2   -1    0    0  501    0  0.00000000000E+00  0.00000000000E+00  0.11908700453E+04  0.11908700453E+04  0.25500000920E-02 0. -1.
       -2   -1    0    0    0  501  0.00000000000E+00  0.00000000000E+00 -0.12068850268E+04  0.12068850268E+04  0.25500000920E-02 0.  1.
    10030    2    1    2    0    0  0.00000000000E+00  0.00000000000E+00 -0.16014981538E+02  0.23977550721E+04  0.23977015882E+04 0.  0.
        4    1    3    3  502    0  0.22685990902E+03  0.13958686408E+00 -0.11852236985E+04  0.12067403474E+04  0.12699999809E+01 0.  1.
       -4    1    3    3    0  502 -0.22685990902E+03 -0.13958686408E+00  0.11692087169E+04  0.11910147247E+04  0.12699999809E+01 0. -1.
</event>
<event>
 5   0  0.2149417E-06  0.2384021E+04  0.7818609E-02  0.8445510E-01
       -1   -1    0    0    0  501  0.00000000000E+00  0.00000000000E+00  0.92612589387E+03  0.92612589389E+03  0.50400001928E-02 0.  1.
        1   -1    0    0  501    0  0.00000000000E+00  0.00000000000E+00 -0.15342292658E+04  0.15342292658E+04  0.50400001928E-02 0. -1.
    10030    2    1    2    0    0  0.00000000000E+00  0.00000000000E+00 -0.60810337196E+03  0.24603551597E+04  0.23840213508E+04 0.  0.
        5    1    3    3  502    0  0.81314262006E+03 -0.55895321617E+03  0.38611959834E+03  0.10595942868E+04  0.46999998093E+01 0. -1.
       -5    1    3    3    0  502 -0.81314262006E+03  0.55895321617E+03 -0.99422297030E+03  0.14007608729E+04  0.46999998093E+01 0.  1.
</event>
<event>
 5   0  0.5349036E-06  0.2401019E+04  0.7818609E-02  0.8439122E-01
       -2   -1    0    0    0  501  0.00000000000E+00  0.00000000000E+00  0.68275372802E+03  0.68275372803E+03  0.25500000920E-02 0. -1.
        2   -1    0    0  501    0  0.00000000000E+00  0.00000000000E+00 -0.21108976358E+04  0.21108976358E+04  0.25500000920E-02 0.  1.
    10030    2    1    2    0    0  0.00000000000E+00  0.00000000000E+00 -0.14281439077E+04  0.27936513638E+04  0.24010191422E+04 0.  0.
        1    1    3    3  502    0  0.92603913867E+03 -0.37245786237E+03  0.62053869840E+02  0.10000620123E+04  0.50400001928E-02 0. -1.
       -1    1    3    3    0  502 -0.92603913867E+03  0.37245786237E+03 -0.14901977776E+04  0.17935893515E+04  0.50400001928E-02 0.  1.
</event>
<event>
 5   0  0.5379778E-06  0.2385756E+04  0.7818609E-02  0.8444856E-01
       -2   -1    0    0    0  501  0.00000000000E+00  0.00000000000E+00  0.95363982505E+03  0.95363982505E+03  0.25500000920E-02 0. -1.
        2   -1    0    0  501    0  0.00000000000E+00  0.00000000000E+00 -0.14921335501E+04  0.14921335501E+04  0.25500000920E-02 0.  1.
    10030    2    1    2    0    0  0.00000000000E+00  0.00000000000E+00 -0.53849372503E+03  0.24457733751E+04  0.23857560459E+04 0.  0.
        5    1    3    3  502    0 -0.27507508307E+03  0.11555750214E+04 -0.38115318602E+03  0.12475254597E+04  0.46999998093E+01 0. -1.
       -5    1    3    3    0  502  0.27507508307E+03 -0.11555750214E+04 -0.15734053901E+03  0.11982479154E+04  0.46999998093E+01 0.  1.
</event>
<event>
 5   0  0.2149029E-06  0.2397406E+04  0.7818609E-02  0.8440475E-01
       -1   -1    0    0    0  501  0.00000000000E+00  0.00000000000E+00  0.13974841456E+04  0.13974841456E+04  0.50400001928E-02 0.  1.
        1   -1    0    0  501    0  0.00000000000E+00  0.00000000000E+00 -0.10281969899E+04  0.10281969899E+04  0.50400001928E-02 0. -1.
    10030    2    1    2    0    0  0.00000000000E+00  0.00000000000E+00  0.36928715575E+03  0.24256811355E+04  0.23974060915E+04 0.  0.
        4    1    3    3  502    0  0.38923591910E+03 -0.10097484299E+04 -0.33698592802E+03  0.11334273779E+04  0.12699999809E+01 0.  1.
       -4    1    3    3    0  502 -0.38923591910E+03  0.10097484299E+04  0.70627308377E+03  0.12922537576E+04  0.12699999809E+01 0. -1.
</event>
<event>
 5   0  0.2254269E-06  0.2437491E+04  0.7818609E-02  0.8425599E-01
        1   -1    0    0  501    0  0.00000000000E+00  0.00000000000E+00  0.12871320792E+04  0.12871320792E+04  0.50400001928E-02 0.  1.
       -1   -1    0    0    0  501  0.00000000000E+00  0.00000000000E+00 -0.11539927041E+04  0.11539927042E+04  0.50400001928E-02 0. -1.
    10030    2    1    2    0    0  0.00000000000E+00  0.00000000000E+00  0.13313937503E+03  0.24411247833E+04  0.24374913568E+04 0.  0.
        2    1    3    3  502    0 -0.34941843443E+03 -0.39469969422E+03  0.11670524912E+04  0.12805829173E+04  0.25500000920E-02 0.  1.
       -2    1    3    3    0  502  0.34941843443E+03  0.39469969422E+03 -0.10339131162E+04  0.11605418660E+04  0.25500000920E-02 0. -1.
</event>
<event>
 5   0  0.2254269E-06  0.2398020E+04  0.7818609E-02  0.8440245E-01
        1   -1    0    0  501    0  0.00000000000E+00  0.00000000000E+00  0.10580082884E+04  0.10580082884E+04  0.50400001928E-02 0. -1.
       -1   -1    0    0    0  501  0.00000000000E+00  0.00000000000E+00 -0.13588028588E+04  0.13588028588E+04  0.50400001928E-02 0.  1.
    10030    2    1    2    0    0  0.00000000000E+00  0.00000000000E+00 -0.30079457038E+03  0.24168111472E+04  0.23980197555E+04 0.  0.
        2    1    3    3  502    0  0.99517938115E+03  0.27114484447E+03  0.46572222959E+03  0.11317237837E+04  0.25500000920E-02 0. -1.
       -2    1    3    3    0  502 -0.99517938115E+03 -0.27114484447E+03 -0.76651679998E+03  0.12850873636E+04  0.25500000920E-02 0.  1.
</event>
<event>
 5   0  0.2149417E-06  0.2397785E+04  0.7818609E-02  0.8440333E-01
       -1   -1    0    0    0  501  0.00000000000E+00  0.00000000000E+00  0.69032723474E+03  0.69032723476E+03  0.50400001928E-02 0. -1.
        1   -1    0    0  501    0  0.00000000000E+00  0.00000000000E+00 -0.20821194177E+04  0.20821194177E+04  0.50400001928E-02 0.  1.
    10030    2    1    2    0    0  0.00000000000E+00  0.00000000000E+00 -0.13917921830E+04  0.27724466525E+04  0.23977854283E+04 0.  0.
        5    1    3    3  502    0  0.90935957675E+03  0.63016392986E+03 -0.12298800169E+04  0.16542878723E+04  0.46999998093E+01 0. -1.
       -5    1    3    3    0  502 -0.90935957675E+03 -0.63016392986E+03 -0.16191216610E+03  0.11181587802E+04  0.46999998093E+01 0.  1.
</event>
<event>
 5   0  0.2149029E-06  0.2407997E+04  0.7818609E-02  0.8436516E-01
        1   -1    0    0  501    0  0.00000000000E+00  0.00000000000E+00  0.11485131965E+04  0.11485131965E+04  0.50400001928E-02 0.  1.
       -1   -1    0    0    0  501  0.00000000000E+00  0.00000000000E+00 -0.12621646091E+04  0.12621646091E+04  0.50400001928E-02 0. -1.
    10030    2    1    2    0    0  0.00000000000E+00  0.00000000000E+00 -0.11365141263E+03  0.24106778056E+04  0.24079972672E+04 0.  0.
        4    1    3    3  502    0 -0.11397540553E+04 -0.96775096478E+02 -0.43301837317E+03  0.12230745072E+04  0.12699999809E+01 0.  1.
       -4    1    3    3    0  502  0.11397540553E+04  0.96775096478E+02  0.31936696054E+03  0.11876032983E+04  0.12699999809E+01 0. -1.
</event>
<event>
 5   0  0.5268358E-06  0.2402027E+04  0.7818609E-02  0.8438745E-01
       -2   -1    0    0    0  501  0.00000000000E+00  0.00000000000E+00  0.58148381409E+03  0.58148381410E+03  0.25500000920E-02 0.  1.
        2   -1    0    0  501    0  0.00000000000E+00  0.00000000000E+00 -0.24806071614E+04  0.24806071614E+04  0.25500000920E-02 0. -1.
    10030    2    1    2    0    0  0.00000000000E+00  0.00000000000E+00 -0.18991233473E+04  0.30620909755E+04  0.24020265723E+04 0.  0.
        2    1    3    3  502    0 -0.10609332628E+04  0.29309088743E+03 -0.15621947591E+04  0.19110034332E+04  0.25500000920E-02 0. -1.
       -2    1    3    3    0  502  0.10609332628E+04 -0.29309088743E+03 -0.33692858822E+03  0.11510875423E+04  0.25500000920E-02 0.  1.
</event>
<event>
 5   0  0.5268358E-06  0.2396943E+04  0.7818609E-02  0.8440649E-01
        2   -1    0    0  501    0  0.00000000000E+00  0.00000000000E+00  0.15140350701E+04  0.15140350701E+04  0.25500000920E-02 0.  1.
       -2   -1    0    0    0  501  0.00000000000E+00  0.00000000000E+00 -0.94867947843E+03  0.94867947844E+03  0.25500000920E-02 0. -1.
    10030    2    1    2    0    0  0.00000000000E+00  0.00000000000E+00  0.56535559170E+03  0.24627145486E+04  0.23969430537E+04 0.  0.
        2    1    3    3  502    0 -0.85046630512E+03 -0.48363426691E+03 -0.42851459741E+03  0.10680916630E+04  0.25500000920E-02 0. -1.
       -2    1    3    3    0  502  0.85046630512E+03  0.48363426691E+03  0.99387018911E+03  0.13946228856E+04  0.25500000920E-02 0.  1.
</event>
<event>
 5   0  0.5440503E-06  0.2395713E+04  0.7818609E-02  0.8441110E-01
        2   -1    0    0  501    0  0.00000000000E+00  0.00000000000E+00  0.26661536628E+04  0.26661536628E+04  0.25500000920E-02 0.  1.
       -2   -1    0    0    0  501  0.00000000000E+00  0.00000000000E+00 -0.53817593919E+03  0.53817593919E+03  0.25500000920E-02 0. -1.
    10030    2    1    2    0    0  0.00000000000E+00  0.00000000000E+00  0.21279777236E+04  0.32043296020E+04  0.23957126301E+04 0.  0.
        3    1    3    3  502    0  0.85243402990E+03  0.31588072486E+03  0.21072899800E+04  0.22950153546E+04  0.10100000352E+00 0.  1.
       -3    1    3    3    0  502 -0.85243402990E+03 -0.31588072486E+03  0.20687743637E+02  0.90931424745E+03  0.10100000352E+00 0. -1.
</event>
<event>
 5   0  0.2297414E-06  0.2396472E+04  0.7818609E-02  0.8440825E-01
        1   -1    0    0  501    0  0.00000000000E+00  0.00000000000E+00  0.12709241075E+04  0.12709241075E+04  0.50400001928E-02 0.  1.
       -1   -1    0    0    0  501  0.00000000000E+00  0.00000000000E+00 -0.11297053892E+04  0.11297053892E+04  0.50400001928E-02 0. -1.
    10030    2    1    2    0    0  0.00000000000E+00  0.00000000000E+00  0.14121871826E+03  0.24006294967E+04  0.23964722519E+04 0.  0.
        1    1    3    3  502    0  0.95532787366E+03  0.68726486761E+03 -0.15513789023E+03  0.11870350077E+04  0.50400001928E-02 0.  1.
       -1    1    3    3    0  502 -0.95532787366E+03 -0.68726486761E+03  0.29635660850E+03  0.12135944891E+04  0.50400001928E-02 0. -1.
</event>
<event>
 5   0  0.2254269E-06  0.2401691E+04  0.7818609E-02  0.8438871E-01
       -1   -1    0    0    0  501  0.00000000000E+00  0.00000000000E+00  0.13018106733E+04  0.13018106733E+04  0.50400001928E-02 0. -1.
        1   -1    0    0  501    0  0.00000000000E+00  0.00000000000E+00 -0.11077110755E+04  0.11077110755E+04  0.50400001928E-02 0.  1.
    10030    2    1    2    0    0  0.00000000000E+00  0.00000000000E+00  0.19409959777E+03  0.24095217488E+04  0.24016911550E+04 0.  0.
        2    1    3    3  502    0 -0.27268998919E+03  0.10301495991E+04  0.65244492005E+03  0.12495008605E+04  0.25500000920E-02 0. -1.
       -2    1    3    3    0  502  0.27268998919E+03 -0.10301495991E+04 -0.45834532227E+03  0.11600208882E+04  0.25500000920E-02 0.  1.
</event>
<event>
 5   0  0.2254269E-06  0.2403663E+04  0.7818609E-02  0.8438133E-01
       -1   -1    0    0    0  501  0.00000000000E+00  0.00000000000E+00  0.78428965786E+03  0.78428965788E+03  0.50400001928E-02 0.  1.
        1   -1    0    0  501    0  0.00000000000E+00  0.00000000000E+00 -0.18416657826E+04  0.18416657826E+04  0.50400001928E-02 0. -1.
    10030    2    1    2    0    0  0.00000000000E+00  0.00000000000E+00 -0.10573761248E+04  0.26259554405E+04  0.24036633929E+04 0.  0.
        2    1    3    3  502    0 -0.75008325067E+03 -0.30202433233E+03 -0.15000475364E+04  0.17041086208E+04  0.25500000920E-02 0. -1.
       -2    1    3    3    0  502  0.75008325067E+03  0.30202433233E+03  0.44267141161E+03  0.92184681966E+03  0.25500000920E-02 0.  1.
</event>
<event>
 5   0  0.5440503E-06  0.2389267E+04  0.7818609E-02  0.8443533E-01
       -2   -1    0    0    0  501  0.00000000000E+00  0.00000000000E+00  0.84997808497E+03  0.84997808497E+03  0.25500000920E-02 0. -1.
        2   -1    0    0  501    0  0.00000000000E+00  0.00000000000E+00 -0.16790418195E+04  0.16790418195E+04  0.25500000920E-02 0.  1.
    10030    2    1    2    0    0  0.00000000000E+00  0.00000000000E+00 -0.82906373453E+03  0.25290199045E+04  0.23892666242E+04 0.  0.
        3    1    3    3  502    0  0.96081458468E+03  0.52590166904E+03  0.90238498766E+02  0.10990360451E+04  0.10100000352E+00 0.  1.
       -3    1    3    3    0  502 -0.96081458468E+03 -0.52590166904E+03 -0.91930223329E+03  0.14299838593E+04  0.10100000352E+00 0. -1.
</event>
<event>
 5   0  0.5268358E-06  0.2394977E+04  0.7818609E-02  0.8441386E-01
       -2   -1    0    0    0  501  0.00000000000E+00  0.00000000000E+00  0.10652401169E+04  0.10652401169E+04  0.25500000920E-02 0. -1.
        2   -1    0    0  501    0  0.00000000000E+00  0.00000000000E+00 -0.13461557494E+04  0.13461557494E+04  0.25500000920E-02 0.  1.
    10030    2    1    2    0    0  0.00000000000E+00  0.00000000000E+00 -0.28091563249E+03  0.24113958664E+04  0.23949773343E+04 0.  0.
        2    1    3    3  502    0  0.44869550688E+02 -0.11414828091E+04  0.22114603859E+03  0.11635728815E+04  0.25500000920E-02 0. -1.
       -2    1    3    3    0  502 -0.44869550688E+02  0.11414828091E+04 -0.50206167108E+03  0.12478229849E+04  0.25500000920E-02 0.  1.
</event>
<event>
 5   0  0.5268358E-06  0.2401973E+04  0.7818609E-02  0.8438765E-01
        2   -1    0    0  501    0  0.00000000000E+00  0.00000000000E+00  0.15986521349E+04  0.15986521349E+04  0.25500000920E-02 0. -1.
       -2   -1    0    0    0  501  0.00000000000E+00  0.00000000000E+00 -0.90224026157E+03  0.90224026158E+03  0.25500000920E-02 0.  1.
    10030    2    1    2    0    0  0.00000000000E+00  0.00000000000E+00  0.69641187338E+03  0.25008923965E+04  0.24019727895E+04 0.  0.
        2    1    3    3  502    0  0.26741846554E+03 -0.34147079954E+03  0.15142623517E+04  0.15751525045E+04  0.25500000920E-02 0. -1.
       -2    1    3    3    0  502 -0.26741846554E+03  0.34147079954E+03 -0.81785047836E+03  0.92573989199E+03  0.25500000920E-02 0.  1.
</event>
<event>
 5   0  0.2149029E-06  0.2403123E+04  0.7818609E-02  0.8438335E-01
       -1   -1    0    0    0  501  0.00000000000E+00  0.00000000000E+00  0.13164482209E+04  0.13164482209E+04  0.50400001928E-02 0. -1.
        1   -1    0    0  501    0  0.00000000000E+00  0.00000000000E+00 -0.10967009332E+04  0.10967009332E+04  0.50400001928E-02 0.  1.
    10030    2    1    2    0    0  0.00000000000E+00  0.00000000000E+00  0.21974728763E+03  0.24131491541E+04  0.24031229618E+04 0.  0.
        4    1    3    3  502    0  0.81475821574E+03 -0.85368475883E+03  0.33695816053E+03  0.12272534508E+04  0.12699999809E+01 0.  1.
       -4    1    3    3    0  502 -0.81475821574E+03  0.85368475883E+03 -0.11721087290E+03  0.11858957033E+04  0.12699999809E+01 0. -1.
</event>
<event>
 5   0  0.1796750E-06  0.2403171E+04  0.7818609E-02  0.8438317E-01
        3   -1    0    0  501    0  0.00000000000E+00  0.00000000000E+00  0.15256443656E+04  0.15256443689E+04  0.10100000352E+00 0.  1.
       -3   -1    0    0    0  501  0.00000000000E+00  0.00000000000E+00 -0.94635913582E+03  0.94635914121E+03  0.10100000352E+00 0. -1.
    10030    2    1    2    0    0  0.00000000000E+00  0.00000000000E+00  0.57928522975E+03  0.24720035101E+04  0.24031708172E+04 0.  0.
        3    1    3    3  502    0 -0.61321343759E+03 -0.10317089183E+04  0.23007478620E+03  0.12220427282E+04  0.10100000352E+00 0. -1.
       -3    1    3    3    0  502  0.61321343759E+03  0.10317089183E+04  0.34921044355E+03  0.12499607819E+04  0.10100000352E+00 0.  1.
</event>
<event>
 5   0  0.5349036E-06  0.2396306E+04  0.7818609E-02  0.8440888E-01
        2   -1    0    0  501    0  0.00000000000E+00  0.00000000000E+00  0.13874674664E+04  0.13874674664E+04  0.25500000920E-02 0. -1.
       -2   -1    0    0    0  501  0.00000000000E+00  0.00000000000E+00 -0.10346698283E+04  0.10346698284E+04  0.25500000920E-02 0.  1.
    10030    2    1    2    0    0  0.00000000000E+00  0.00000000000E+00  0.35279763808E+03  0.24221372948E+04  0.23963060951E+04 0.  0.
        1    1    3    3  502    0  0.46930086814E+02 -0.97599028038E+03 -0.52448136511E+03  0.11089815881E+04  0.50400001928E-02 0.  1.
       -1    1    3    3    0  502 -0.46930086814E+02  0.97599028038E+03  0.87727900319E+03  0.13131557067E+04  0.50400001928E-02 0. -1.
</event>
<event>
 5   0  0.5440503E-06  0.2407033E+04  0.7818609E-02  0.8436875E-01
       -2   -1    0    0    0  501  0.00000000000E+00  0.00000000000E+00  0.13046532957E+04  0.13046532957E+04  0.25500000920E-02 0.  1.
        2   -1    0    0  501    0  0.00000000000E+00  0.00000000000E+00 -0.11102198101E+04  0.11102198101E+04  0.25500000920E-02 0. -1.
    10030    2    1    2    0    0  0.00000000000E+00  0.00000000000E+00  0.19443348557E+03  0.24148731059E+04  0.24070329738E+04 0.  0.
        3    1    3    3  502    0  0.64767595176E+03 -0.44624821844E+02  0.11139160070E+04  0.12892960847E+04  0.10100000352E+00 0.  1.
       -3    1    3    3    0  502 -0.64767595176E+03  0.44624821844E+02 -0.91948252141E+03  0.11255770212E+04  0.10100000352E+00 0. -1.
</event>
<event>
 5   0  0.2254269E-06  0.2392253E+04  0.7818609E-02  0.8442410E-01
       -1   -1    0    0    0  501  0.00000000000E+00  0.00000000000E+00  0.94555019870E+03  0.94555019872E+03  0.50400001928E-02 0.  1.
        1   -1    0    0  501    0  0.00000000000E+00  0.00000000000E+00 -0.15131065083E+04  0.15131065083E+04  0.50400001928E-02 0. -1.
    10030    2    1    2    0    0  0.00000000000E+00  0.00000000000E+00 -0.56755630960E+03  0.24586567070E+04  0.23922526285E+04 0.  0.
        2    1    3    3  502    0 -0.73390344672E+03  0.35441961155E+03  0.61601830177E+03  0.10216193412E+04  0.25500000920E-02 0.  1.
       -2    1    3    3    0  502  0.73390344672E+03 -0.35441961155E+03 -0.11835746114E+04  0.14370373659E+04  0.25500000920E-02 0. -1.
</event>
<event>
 5   0  0.5440503E-06  0.2403548E+04  0.7818609E-02  0.8438177E-01
        2   -1    0    0  501    0  0.00000000000E+00  0.00000000000E+00  0.16342903838E+04  0.16342903838E+04  0.25500000920E-02 0. -1.
       -2   -1    0    0    0  501  0.00000000000E+00  0.00000000000E+00 -0.88372333779E+03  0.88372333780E+03  0.25500000920E-02 0.  1.
    10030    2    1    2    0    0  0.00000000000E+00  0.00000000000E+00  0.75056704597E+03  0.25180137216E+04  0.24035478384E+04 0.  0.
        3    1    3    3  502    0  0.77725012683E+03 -0.51695372866E+03 -0.41766564764E+03  0.10226453543E+04  0.10100000352E+00 0.  1.
       -3    1    3    3    0  502 -0.77725012683E+03  0.51695372866E+03  0.11682326936E+04  0.14953683673E+04  0.10100000352E+00 0. -1.
</event>
<event>
 5   0  0.5268358E-06  0.2402960E+04  0.7818609E-02  0.8438396E-01
       -2   -1    0    0    0  501  0.00000000000E+00  0.00000000000E+00  0.66912780500E+03  0.66912780501E+03  0.25500000920E-02 0. -1.
        2   -1    0    0  501    0  0.00000000000E+00  0.00000000000E+00 -0.21573662953E+04  0.21573662953E+04  0.25500000920E-02 0.  1.
    10030    2    1    2    0    0  0.00000000000E+00  0.00000000000E+00 -0.14882384903E+04  0.28264941003E+04  0.24029596532E+04 0.  0.
        2    1    3    3  502    0 -0.38920757121E+03 -0.11140024435E+04 -0.10099368046E+04  0.15532083978E+04  0.25500000920E-02 0.  1.
       -2    1    3    3    0  502  0.38920757121E+03  0.11140024435E+04 -0.47830168574E+03  0.12732857025E+04  0.25500000920E-02 0. -1.
</event>
<event>
 5   0  0.5379778E-06  0.2376246E+04  0.7818609E-02  0.8448451E-01
        2   -1    0    0  501    0  0.00000000000E+00  0.00000000000E+00  0.11561164855E+04  0.11561164855E+04  0.25500000920E-02 0.  1.
       -2   -1    0    0    0  501  0.00000000000E+00  0.00000000000E+00 -0.12210157815E+04  0.12210157815E+04  0.25500000920E-02 0. -1.
    10030    2    1    2    0    0  0.00000000000E+00  0.00000000000E+00 -0.64899296046E+02  0.23771322670E+04  0.23762461776E+04 0.  0.
        5    1    3    3  502    0  0.10624772067E+04  0.49709058750E+03  0.15645274796E+03  0.11834088132E+04  0.46999998093E+01 0.  1.
       -5    1    3    3    0  502 -0.10624772067E+04 -0.49709058750E+03 -0.22135204401E+03  0.11937234538E+04  0.46999998093E+01 0. -1.
</event>
<event>
 5   0  0.2149417E-06  0.2400142E+04  0.7818609E-02  0.8439451E-01
        1   -1    0    0  501    0  0.00000000000E+00  0.00000000000E+00  0.14985917636E+04  0.14985917636E+04  0.50400001928E-02 0. -1.
       -1   -1    0    0    0  501  0.00000000000E+00  0.00000000000E+00 -0.96101552597E+03  0.96101552599E+03  0.50400001928E-02 0.  1.
    10030    2    1    2    0    0  0.00000000000E+00  0.00000000000E+00  0.53757623761E+03  0.24596072896E+04  0.24001416224E+04 0.  0.
        5    1    3    3  502    0  0.10434840106E+04  0.52791277381E+03 -0.73259233179E+01  0.11694556581E+04  0.46999998093E+01 0.  1.
       -5    1    3    3    0  502 -0.10434840106E+04 -0.52791277381E+03  0.54490216093E+03  0.12901516315E+04  0.46999998093E+01 0. -1.
</event>
<event>
 5   0  0.2149417E-06  0.2404369E+04  0.7818609E-02  0.8437870E-01
        1   -1    0    0  501    0  0.00000000000E+00  0.00000000000E+00  0.24907962814E+04  0.24907962814E+04  0.50400001928E-02 0.  1.
       -1   -1    0    0    0  501  0.00000000000E+00  0.00000000000E+00 -0.58023527976E+03  0.58023527978E+03  0.50400001928E-02 0. -1.
    10030    2    1    2    0    0  0.00000000000E+00  0.00000000000E+00  0.19105610016E+04  0.30710315612E+04  0.24043692538E+04 0.  0.
        5    1    3    3  502    0  0.69285951854E+03 -0.84081585041E+03  0.30625556225E+03  0.11317420935E+04  0.46999998093E+01 0. -1.
       -5    1    3    3    0  502 -0.69285951854E+03  0.84081585041E+03  0.16043054394E+04  0.19392894677E+04  0.46999998093E+01 0.  1.
</event>
<event>
 5   0  0.5349036E-06  0.2403268E+04  0.7818609E-02  0.8438281E-01
        2   -1    0    0  501    0  0.00000000000E+00  0.00000000000E+00  0.19149116597E+04  0.19149116597E+04  0.25500000920E-02 0.  1.
       -2   -1    0    0    0  501  0.00000000000E+00  0.00000000000E+00 -0.75404242414E+03  0.75404242414E+03  0.25500000920E-02 0. -1.
    10030    2    1    2    0    0  0.00000000000E+00  0.00000000000E+00  0.11608692356E+04  0.26689540838E+04  0.24032682995E+04 0.  0.
        1    1    3    3  502    0  0.99646863903E+03  0.50676066373E+03  0.91074869021E+02  0.11216286153E+04  0.50400001928E-02 0. -1.
       -1    1    3    3    0  502 -0.99646863903E+03 -0.50676066373E+03  0.10697943665E+04  0.15473254685E+04  0.50400001928E-02 0.  1.
</event>
<event>
 5   0  0.2149029E-06  0.2408768E+04  0.7818609E-02  0.8436228E-01
        1   -1    0    0  501    0  0.00000000000E+00  0.00000000000E+00  0.12495924034E+04  0.12495924034E+04  0.50400001928E-02 0.  1.
       -1   -1    0    0    0  501  0.00000000000E+00  0.00000000000E+00 -0.11608108974E+04  0.11608108974E+04  0.50400001928E-02 0. -1.
    10030    2    1    2    0    0  0.00000000000E+00  0.00000000000E+00  0.88781505998E+02  0.24104033008E+04  0.24087677175E+04 0.  0.
        4    1    3    3  502    0  0.86947860215E+03 -0.58219214937E+03  0.64111615299E+03  0.12271806195E+04  0.12699999809E+01 0.  1.
       -4    1    3    3    0  502 -0.86947860215E+03  0.58219214937E+03 -0.55233464699E+03  0.11832226813E+04  0.12699999809E+01 0. -1.
</event>
<event>
 5   0  0.5268358E-06  0.2396649E+04  0.7818609E-02  0.8440759E-01
       -2   -1    0    0    0  501  0.00000000000E+00  0.00000000000E+00  0.68731219284E+03  0.68731219284E+03  0.25500000920E-02 0. -1.
        2   -1    0    0  501    0  0.00000000000E+00  0.00000000000E+00 -0.20892716205E+04  0.20892716205E+04  0.25500000920E-02 0.  1.
    10030    2    1    2    0    0  0.00000000000E+00  0.00000000000E+00 -0.14019594277E+04  0.27765838134E+04  0.23966492100E+04 0.  0.
        2    1    3    3  502    0 -0.10354947883E+04  0.60310153770E+03 -0.70210145188E+03  0.13888582974E+04  0.25500000920E-02 0.  1.
       -2    1    3    3    0  502  0.10354947883E+04 -0.60310153770E+03 -0.69985797581E+03  0.13877255160E+04  0.25500000920E-02 0. -1.
</event>
<event>
 5   0  0.2297414E-06  0.2405583E+04  0.7818609E-02  0.8437416E-01
       -1   -1    0    0    0  501  0.00000000000E+00  0.00000000000E+00  0.60466632628E+03  0.60466632630E+03  0.50400001928E-02 0. -1.
        1   -1    0    0  501    0  0.00000000000E+00  0.00000000000E+00 -0.23925717746E+04  0.23925717746E+04  0.50400001928E-02 0.  1.
    10030    2    1    2    0    0  0.00000000000E+00  0.00000000000E+00 -0.17879054483E+04  0.29972381009E+04  0.24055831603E+04 0.  0.
        1    1    3    3  502    0  0.66630733670E+03  0.48324354121E+03  0.19880914417E+03  0.84676730150E+03  0.50400001928E-02 0. -1.
       -1    1    3    3    0  502 -0.66630733670E+03 -0.48324354121E+03 -0.19867145925E+04  0.21504707994E+04  0.50400001928E-02 0.  1.
</event>
<event>
 5   0  0.5371843E-06  0.2407979E+04  0.7818609E-02  0.8436522E-01
        2   -1    0    0  501    0  0.00000000000E+00  0.00000000000E+00  0.76634263461E+03  0.76634263461E+03  0.25500000920E-02 0.  1.
       -2   -1    0    0    0  501  0.00000000000E+00  0.00000000000E+00 -0.18915701194E+04  0.18915701194E+04  0.25500000920E-02 0. -1.
    10030    2    1    2    0    0  0.00000000000E+00  0.00000000000E+00 -0.11252274848E+04  0.26579127540E+04  0.24079790936E+04 0.  0.
        4    1    3    3  502    0  0.52716987076E+03  0.90833000123E+02 -0.17531927844E+04  0.18329880684E+04  0.12699999809E+01 0. -1.
       -4    1    3    3    0  502 -0.52716987076E+03 -0.90833000123E+02  0.62796529963E+03  0.82492468565E+03  0.12699999809E+01 0.  1.
</event>
<event>
 5   0  0.2149029E-06  0.2387827E+04  0.7818609E-02  0.8444075E-01
        1   -1    0    0  501    0  0.00000000000E+00  0.00000000000E+00  0.15732728059E+04  0.15732728059E+04  0.50400001928E-02 0. -1.
       -1   -1    0    0    0  501  0.00000000000E+00  0.00000000000E+00 -0.90602801872E+03  0.90602801874E+03  0.50400001928E-02 0.  1.
    10030    2    1    2    0    0  0.00000000000E+00  0.00000000000E+00  0.66724478719E+03  0.24793008247E+04  0.23878268306E+04 0.  0.
        4    1    3    3  502    0  0.22818832775E+03 -0.43816172423E+03  0.14621696195E+04  0.15433720286E+04  0.12699999809E+01 0. -1.
       -4    1    3    3    0  502 -0.22818832775E+03  0.43816172423E+03 -0.79492483229E+03  0.93592879611E+03  0.12699999809E+01 0.  1.
</event>
<event>
 5   0  0.2254269E-06  0.2393708E+04  0.7818609E-02  0.8441863E-01
        1   -1    0    0  501    0  0.00000000000E+00  0.00000000000E+00  0.12876533044E+04  0.12876533044E+04  0.50400001928E-02 0. -1.
       -1   -1    0    0    0  501  0.00000000000E+00  0.00000000000E+00 -0.11124577623E+04  0.11124577624E+04  0.50400001928E-02 0.  1.
    10030    2    1    2    0    0  0.00000000000E+00  0.00000000000E+00  0.17519554201E+03  0.24001110667E+04  0.23937083479E+04 0.  0.
        2    1    3    3  502    0  0.63570583956E+03  0.54891174069E+03  0.94254131254E+03  0.12624619358E+04  0.25500000920E-02 0. -1.
       -2    1    3    3    0  502 -0.63570583956E+03 -0.54891174069E+03 -0.76734577053E+03  0.11376491309E+04  0.25500000920E-02 0.  1.
</event>
<event>
 5   0  0.2149029E-06  0.2350819E+04  0.7818609E-02  0.8458149E-01
       -1   -1    0    0    0  501  0.00000000000E+00  0.00000000000E+00  0.78545097993E+03  0.78545097994E+03  0.50400001928E-02 0.  1.
        1   -1    0    0  501    0  0.00000000000E+00  0.00000000000E+00 -0.17589741504E+04  0.17589741504E+04  0.50400001928E-02 0. -1.
    10030    2    1    2    0    0  0.00000000000E+00  0.00000000000E+00 -0.97352317051E+03  0.25444251304E+04  0.23508194062E+04 0.  0.
        4    1    3    3  502    0 -0.85375598148E+03 -0.79040830324E+03 -0.66768616148E+03  0.13414361650E+04  0.12699999809E+01 0. -1.
       -4    1    3    3    0  502  0.85375598148E+03  0.79040830324E+03 -0.30583700903E+03  0.12029889653E+04  0.12699999809E+01 0.  1.
</event>
<event>
 5   0  0.2149417E-06  0.2402025E+04  0.7818609E-02  0.8438746E-01
       -1   -1    0    0    0  501  0.00000000000E+00  0.00000000000E+00  0.11924102421E+04  0.11924102421E+04  0.50400001928E-02 0.  1.
        1   -1    0    0  501    0  0.00000000000E+00  0.00000000000E+00 -0.12096767991E+04  0.12096767991E+04  0.50400001928E-02 0. -1.
    10030    2    1    2    0    0  0.00000000000E+00  0.00000000000E+00 -0.17266557020E+02  0.24020870412E+04  0.24020249831E+04 0.  0.
        5    1    3    3  502    0  0.64634900093E+03 -0.45200817117E+03 -0.91437766040E+03  0.12075541452E+04  0.46999998093E+01 0. -1.
       -5    1    3    3    0  502 -0.64634900093E+03  0.45200817117E+03  0.89711110338E+03  0.11945328960E+04  0.46999998093E+01 0.  1.
</event>
<event>
 5   0  0.5349036E-06  0.2414061E+04  0.7818609E-02  0.8434258E-01
        2   -1    0    0  501    0  0.00000000000E+00  0.00000000000E+00  0.11650238177E+04  0.11650238177E+04  0.25500000920E-02 0. -1.
       -2   -1    0    0    0  501  0.00000000000E+00  0.00000000000E+00 -0.12505514417E+04  0.12505514418E+04  0.25500000920E-02 0.  1.
    10030    2    1    2    0    0  0.00000000000E+00  0.00000000000E+00 -0.85527624004E+02  0.24155752595E+04  0.24140606579E+04 0.  0.
        1    1    3    3  502    0  0.46274917063E+03 -0.10473429909E+04  0.33938951073E+03  0.11942568298E+04  0.50400001928E-02 0.  1.
       -1    1    3    3    0  502 -0.46274917063E+03  0.10473429909E+04 -0.42491713474E+03  0.12213184297E+04  0.50400001928E-02 0. -1.
</event>
<event>
 5   0  0.2149417E-06  0.2401281E+04  0.7818609E-02  0.8439024E-01
       -1   -1    0    0    0  501  0.00000000000E+00  0.00000000000E+00  0.73438492996E+03  0.73438492997E+03  0.50400001928E-02 0.  1.
        1   -1    0    0  501    0  0.00000000000E+00  0.00000000000E+00 -0.19629185609E+04  0.19629185609E+04  0.50400001928E-02 0. -1.
    10030    2    1    2    0    0  0.00000000000E+00  0.00000000000E+00 -0.12285336309E+04  0.26973034908E+04  0.24012811663E+04 0.  0.
        5    1    3    3  502    0 -0.77653798213E+03  0.70562410515E+03  0.41287303766E+02  0.10500682582E+04  0.46999998093E+01 0.  1.
       -5    1    3    3    0  502  0.77653798213E+03 -0.70562410515E+03 -0.12698209347E+04  0.16472352326E+04  0.46999998093E+01 0. -1.
</event>
<event>
 5   0  0.5349036E-06  0.2379827E+04  0.7818609E-02  0.8447095E-01
        2   -1    0    0  501    0  0.00000000000E+00  0.00000000000E+00  0.22785427688E+04  0.22785427688E+04  0.25500000920E-02 0.  1.
       -2   -1    0    0    0  501  0.00000000000E+00  0.00000000000E+00 -0.62140333117E+03  0.62140333118E+03  0.25500000920E-02 0. -1.
    10030    2    1    2    0    0  0.00000000000E+00  0.00000000000E+00  0.16571394376E+04  0.28999460999E+04  0.23798269406E+04 0.  0.
        1    1    3    3  502    0 -0.28737397636E+03  0.11321218509E+04  0.11053996685E+04  0.16081642064E+04  0.50400001928E-02 0.  1.
       -1    1    3    3    0  502  0.28737397636E+03 -0.11321218509E+04  0.55173976908E+03  0.12917818935E+04  0.50400001928E-02 0. -1.
</event>
<event>
 5   0  0.2215700E-06  0.2397817E+04  0.7818609E-02  0.8440321E-01
        1   -1    0    0  501    0  0.00000000000E+00  0.00000000000E+00  0.18958934646E+04  0.18958934646E+04  0.50400001928E-02 0.  1.
       -1   -1    0    0    0  501  0.00000000000E+00  0.00000000000E+00 -0.75815517285E+03  0.75815517287E+03  0.50400001928E-02 0. -1.
    10030    2    1    2    0    0  0.00000000000E+00  0.00000000000E+00  0.11377382917E+04  0.26540486374E+04  0.23978168715E+04 0.  0.
        3    1    3    3  502    0  0.10178902474E+04 -0.57949482224E+03  0.28566289603E+03  0.12056193865E+04  0.10100000352E+00 0. -1.
       -3    1    3    3    0  502 -0.10178902474E+04  0.57949482224E+03  0.85207539569E+03  0.14484292509E+04  0.10100000352E+00 0.  1.
</event>
<event>
 5   0  0.2149417E-06  0.2396876E+04  0.7818609E-02  0.8440674E-01
       -1   -1    0    0    0  501  0.00000000000E+00  0.00000000000E+00  0.82961294655E+03  0.82961294657E+03  0.50400001928E-02 0.  1.
        1   -1    0    0  501    0  0.00000000000E+00  0.00000000000E+00 -0.17312328369E+04  0.17312328369E+04  0.50400001928E-02 0. -1.
    10030    2    1    2    0    0  0.00000000000E+00  0.00000000000E+00 -0.90161989033E+03  0.25608457835E+04  0.23968756121E+04 0.  0.
        5    1    3    3  502    0  0.58466071784E+02  0.27395320089E+03  0.79413408078E+03  0.84210430832E+03  0.46999998093E+01 0.  1.
       -5    1    3    3    0  502 -0.58466071784E+02 -0.27395320089E+03 -0.16957539711E+04  0.17187414751E+04  0.46999998093E+01 0. -1.
</event>
<event>
 5   0  0.5371843E-06  0.2403904E+04  0.7818609E-02  0.8438043E-01
        2   -1    0    0  501    0  0.00000000000E+00  0.00000000000E+00  0.10769340346E+04  0.10769340346E+04  0.25500000920E-02 0.  1.
       -2   -1    0    0    0  501  0.00000000000E+00  0.00000000000E+00 -0.13414828557E+04  0.13414828557E+04  0.25500000920E-02 0. -1.
    10030    2    1    2    0    0  0.00000000000E+00  0.00000000000E+00 -0.26454882103E+03  0.24184168903E+04  0.24039039449E+04 0.  0.
        4    1    3    3  502    0 -0.85511909918E+03 -0.81280863963E+03 -0.36344498463E+03  0.12344960219E+04  0.12699999809E+01 0. -1.
       -4    1    3    3    0  502  0.85511909918E+03  0.81280863963E+03  0.98896163597E+02  0.11839208683E+04  0.12699999809E+01 0.  1.
</event>
<event>
 5   0  0.5268358E-06  0.2406763E+04  0.7818609E-02  0.8436976E-01
        2   -1    0    0  501    0  0.00000000000E+00  0.00000000000E+00  0.17065110897E+04  0.17065110897E+04  0.25500000920E-02 0.  1.
       -2   -1    0    0    0  501  0.00000000000E+00  0.00000000000E+00 -0.84858945511E+03  0.84858945512E+03  0.25500000920E-02 0. -1.
    10030    2    1    2    0    0  0.00000000000E+00  0.00000000000E+00  0.85792163461E+03  0.25551005448E+04  0.24067632337E+04 0.  0.
        2    1    3    3  502    0 -0.18211561166E+03 -0.47077947152E+03 -0.73076286278E+03  0.88815188365E+03  0.25500000920E-02 0. -1.
       -2    1    3    3    0  502  0.18211561166E+03  0.47077947152E+03  0.15886844974E+04  0.16669486612E+04  0.25500000920E-02 0.  1.
</event>
<event>
 5   0  0.2297414E-06  0.2430311E+04  0.7818609E-02  0.8428242E-01
        1   -1    0    0  501    0  0.00000000000E+00  0.00000000000E+00  0.18944194987E+04  0.18944194987E+04  0.50400001928E-02 0. -1.
       -1   -1    0    0    0  501  0.00000000000E+00  0.00000000000E+00 -0.77944860939E+03  0.77944860941E+03  0.50400001928E-02 0.  1.
    10030    2    1    2    0    0  0.00000000000E+00  0.00000000000E+00  0.11149708893E+04  0.26738681081E+04  0.24303107982E+04 0.  0.
        1    1    3    3  502    0 -0.84110570306E+03  0.85131852378E+03  0.32565384110E+03  0.12402630596E+04  0.50400001928E-02 0.  1.
       -1    1    3    3    0  502  0.84110570306E+03 -0.85131852378E+03  0.78931704821E+03  0.14336050486E+04  0.50400001928E-02 0. -1.
</event>
<event>
 5   0  0.5379778E-06  0.2408603E+04  0.7818609E-02  0.8436290E-01
        2   -1    0    0  501    0  0.00000000000E+00  0.00000000000E+00  0.11421664162E+04  0.11421664162E+04  0.25500000920E-02 0.  1.
       -2   -1    0    0    0  501  0.00000000000E+00  0.00000000000E+00 -0.12698166924E+04  0.12698166924E+04  0.25500000920E-02 0. -1.
    10030    2    1    2    0    0  0.00000000000E+00  0.00000000000E+00 -0.12765027618E+03  0.24119831086E+04  0.24086028986E+04 0.  0.
        5    1    3    3  502    0 -0.81876410431E+03  0.59227753029E+03 -0.71984186178E+03  0.12407101706E+04  0.46999998093E+01 0.  1.
       -5    1    3    3    0  502  0.81876410431E+03 -0.59227753029E+03  0.59219158560E+03  0.11712729381E+04  0.46999998093E+01 0. -1.
</event>
<event>
 5   0  0.2297414E-06  0.2396761E+04  0.7818609E-02  0.8440717E-01
        1   -1    0    0  501    0  0.00000000000E+00  0.00000000000E+00  0.15827800018E+04  0.15827800018E+04  0.50400001928E-02 0. -1.
       -1   -1    0    0    0  501  0.00000000000E+00  0.00000000000E+00 -0.90733760391E+03  0.90733760392E+03  0.50400001928E-02 0.  1.
    10030    2    1    2    0    0  0.00000000000E+00  0.00000000000E+00  0.67544239791E+03  0.24901176057E+04  0.23967609930E+04 0.  0.
        1    1    3    3  502    0  0.36499120592E+00  0.11003082713E+04 -0.15557538046E+03  0.11112525024E+04  0.50400001928E-02 0. -1.
       -1    1    3    3    0  502 -0.36499120592E+00 -0.11003082713E+04  0.83101777837E+03  0.13788651033E+04  0.50400001928E-02 0.  1.
</event>
<event>
 5   0  0.5371843E-06  0.2398731E+04  0.7818609E-02  0.8439979E-01
       -2   -1    0    0    0  501  0.00000000000E+00  0.00000000000E+00  0.11503073695E+04  0.11503073695E+04  0.25500000920E-02 0.  1.
        2   -1    0    0  501    0  0.00000000000E+00  0.00000000000E+00 -0.12505157614E+04  0.12505157614E+04  0.25500000920E-02 0. -1.
    10030    2    1    2    0    0  0.00000000000E+00  0.00000000000E+00 -0.10020839190E+03  0.24008231309E+04  0.23987309111E+04 0.  0.
        4    1    3    3  502    0  0.30500499275E+03  0.11558153162E+04  0.47647731654E+02  0.11963314800E+04  0.12699999809E+01 0. -1.
       -4    1    3    3    0  502 -0.30500499275E+03 -0.11558153162E+04 -0.14785612356E+03  0.12044916509E+04  0.12699999809E+01 0.  1.
</event>
<event>
 5   0  0.2149029E-06  0.2400100E+04  0.7818609E-02  0.8439466E-01
       -1   -1    0    0    0  501  0.00000000000E+00  0.00000000000E+00  0.15258820440E+04  0.15258820440E+04  0.50400001928E-02 0. -1.
        1   -1    0    0  501    0  0.00000000000E+00  0.00000000000E+00 -0.94379507767E+03  0.94379507769E+03  0.50400001928E-02 0.  1.
    10030    2    1    2    0    0  0.00000000000E+00  0.00000000000E+00  0.58208696630E+03  0.24696771217E+04  0.24000999665E+04 0.  0.
        4    1    3    3  502    0 -0.11166978536E+04 -0.42445332907E+03  0.40811164551E+03  0.12624307715E+04  0.12699999809E+01 0.  1.
       -4    1    3    3    0  502  0.11166978536E+04  0.42445332907E+03  0.17397532079E+03  0.12072463501E+04  0.12699999809E+01 0. -1.
</event>
<event>
 5   0  0.2254269E-06  0.2397377E+04  0.7818609E-02  0.8440486E-01
        1   -1    0    0  501    0  0.00000000000E+00  0.00000000000E+00  0.98608280386E+03  0.98608280387E+03  0.50400001928E-02 0.  1.
       -1   -1    0    0    0  501  0.00000000000E+00  0.00000000000E+00 -0.14571333315E+04  0.14571333315E+04  0.50400001928E-02 0. -1.
    10030    2    1    2    0    0  0.00000000000E+00  0.00000000000E+00 -0.47105052761E+03  0.24432161353E+04  0.23973770009E+04 0.  0.
        2    1    3    3  502    0  0.59174716366E+03  0.68020951678E+03 -0.10405688405E+04  0.13768199607E+04  0.25500000920E-02 0. -1.
       -2    1    3    3    0  502 -0.59174716366E+03 -0.68020951678E+03  0.56951831292E+03  0.10663961746E+04  0.25500000920E-02 0.  1.
</event>
<event>
 5   0  0.5268358E-06  0.2399058E+04  0.7818609E-02  0.8439856E-01
        2   -1    0    0  501    0  0.00000000000E+00  0.00000000000E+00  0.73845197032E+03  0.73845197032E+03  0.25500000920E-02 0. -1.
       -2   -1    0    0    0  501  0.00000000000E+00  0.00000000000E+00 -0.19484943784E+04  0.19484943784E+04  0.25500000920E-02 0.  1.
    10030    2    1    2    0    0  0.00000000000E+00  0.00000000000E+00 -0.12100424081E+04  0.26869463487E+04  0.23990577424E+04 0.  0.
        2    1    3    3  502    0  0.70725478422E+03 -0.30343406836E+03  0.42549383675E+03  0.87938988438E+03  0.25500000920E-02 0. -1.
       -2    1    3    3    0  502 -0.70725478422E+03  0.30343406836E+03 -0.16355362448E+04  0.18075564644E+04  0.25500000920E-02 0.  1.
</event>
<event>
 5   0  0.2149417E-06  0.2397285E+04  0.7818609E-02  0.8440521E-01
        1   -1    0    0  501    0  0.00000000000E+00  0.00000000000E+00  0.16790099808E+04  0.16790099808E+04  0.50400001928E-02 0. -1.
       -1   -1    0    0    0  501  0.00000000000E+00  0.00000000000E+00 -0.85570876090E+03  0.85570876092E+03  0.50400001928E-02 0.  1.
    10030    2    1    2    0    0  0.00000000000E+00  0.00000000000E+00  0.82330121994E+03  0.25347187418E+04  0.23972847559E+04 0.  0.
        5    1    3    3  502    0  0.66846935161E+03 -0.22563709488E+03 -0.61289962153E+03  0.93457552327E+03  0.46999998093E+01 0.  1.
       -5    1    3    3    0  502 -0.66846935161E+03  0.22563709488E+03  0.14362008415E+04  0.16001432185E+04  0.46999998093E+01 0. -1.
</event>
<event>
 5   0  0.2297414E-06  0.2400899E+04  0.7818609E-02  0.8439167E-01
        1   -1    0    0  501    0  0.00000000000E+00  0.00000000000E+00  0.11162499243E+04  0.11162499243E+04  0.50400001928E-02 0. -1.
       -1   -1    0    0    0  501  0.00000000000E+00  0.00000000000E+00 -0.12909997841E+04  0.12909997841E+04  0.50400001928E-02 0.  1.
    10030    2    1    2    0    0  0.00000000000E+00  0.00000000000E+00 -0.17474985986E+03  0.24072497084E+04  0.24008985079E+04 0.  0.
        1    1    3    3  502    0  0.11126764444E+04  0.44951450303E+03 -0.56208090143E+02  0.12013623549E+04  0.50400001928E-02 0.  1.
       -1    1    3    3    0  502 -0.11126764444E+04 -0.44951450303E+03 -0.11854176972E+03  0.12058873536E+04  0.50400001928E-02 0. -1.
</event>
<event>
 5   0  0.2149417E-06  0.2403492E+04  0.7818609E-02  0.8438197E-01
       -1   -1    0    0    0  501  0.00000000000E+00  0.00000000000E+00  0.15014202346E+04  0.15014202346E+04  0.50400001928E-02 0.  1.
        1   -1    0    0  501    0  0.00000000000E+00  0.00000000000E+00 -0.96188477996E+03  0.96188477997E+03  0.50400001928E-02 0. -1.
    10030    2    1    2    0    0  0.00000000000E+00  0.00000000000E+00  0.53953545467E+03  0.24633050146E+04  0.24034918532E+04 0.  0.
        5    1    3    3  502    0 -0.32487845799E+03  0.28833955588E+02  0.14551819171E+04  0.14912926980E+04  0.46999998093E+01 0.  1.
       -5    1    3    3    0  502  0.32487845799E+03 -0.28833955588E+02 -0.91564646240E+03  0.97201231657E+03  0.46999998093E+01 0. -1.
</event>
<event>
 5   0  0.5268358E-06  0.2405639E+04  0.7818609E-02  0.8437395E-01
       -2   -1    0    0    0  501  0.00000000000E+00  0.00000000000E+00  0.93144643109E+03  0.93144643109E+03  0.25500000920E-02 0. -1.
        2   -1    0    0  501    0  0.00000000000E+00  0.00000000000E+00 -0.15532563415E+04  0.15532563415E+04  0.25500000920E-02 0.  1.
    10030    2    1    2    0    0  0.00000000000E+00  0.00000000000E+00 -0.62180991039E+03  0.24847027726E+04  0.24056392713E+04 0.  0.
        2    1    3    3  502    0 -0.22643216028E+02 -0.10829436172E+04  0.22925081326E+03  0.11071745701E+04  0.25500000920E-02 0. -1.
       -2    1    3    3    0  502  0.22643216028E+02  0.10829436172E+04 -0.85106072365E+03  0.13775282025E+04  0.25500000920E-02 0.  1.
</event>
<event>
 5   0  0.5268358E-06  0.2400068E+04  0.7818609E-02  0.8439478E-01
       -2   -1    0    0    0  501  0.00000000000E+00  0.00000000000E+00  0.84130841230E+03  0.84130841231E+03  0.25500000920E-02 0.  1.
        2   -1    0    0  501    0  0.00000000000E+00  0.00000000000E+00 -0.17117161859E+04  0.17117161859E+04  0.25500000920E-02 0. -1.
    10030    2    1    2    0    0  0.00000000000E+00  0.00000000000E+00 -0.87040777361E+03  0.25530245982E+04  0.24000676880E+04 0.  0.
        2    1    3    3  502    0  0.41117061901E+01  0.82697979942E+03  0.48979426853E+03  0.96115083117E+03  0.25500000920E-02 0.  1.
       -2    1    3    3    0  502 -0.41117061901E+01 -0.82697979942E+03 -0.13602020421E+04  0.15918737671E+04  0.25500000920E-02 0. -1.
</event>
<event>
 5   0  0.2297414E-06  0.2409220E+04  0.7818609E-02  0.8436060E-01
       -1   -1    0    0    0  501  0.00000000000E+00  0.00000000000E+00  0.82197681303E+03  0.82197681305E+03  0.50400001928E-02 0.  1.
        1   -1    0    0  501    0  0.00000000000E+00  0.00000000000E+00 -0.17653602196E+04  0.17653602196E+04  0.50400001928E-02 0. -1.
    10030    2    1    2    0    0  0.00000000000E+00  0.00000000000E+00 -0.94338340660E+03  0.25873370327E+04  0.24092199295E+04 0.  0.
        1    1    3    3  502    0  0.87327580127E+03  0.44638451033E+03  0.27945821150E+03  0.10197875505E+04  0.50400001928E-02 0.  1.
       -1    1    3    3    0  502 -0.87327580127E+03 -0.44638451033E+03 -0.12228416181E+04  0.15675494822E+04  0.50400001928E-02 0. -1.
</event>
<event>
 5   0  0.5440503E-06  0.2396608E+04  0.7818609E-02  0.8440774E-01
       -2   -1    0    0    0  501  0.00000000000E+00  0.00000000000E+00  0.11813373558E+04  0.11813373558E+04  0.25500000920E-02 0.  1.
        2   -1    0    0  501    0  0.00000000000E+00  0.00000000000E+00 -0.12155147913E+04  0.12155147913E+04  0.25500000920E-02 0. -1.
    10030    2    1    2    0    0  0.00000000000E+00  0.00000000000E+00 -0.34177435531E+02  0.23968521471E+04  0.23966084616E+04 0.  0.
        3    1    3    3  502    0 -0.31243752132E+03  0.11598105320E+03  0.11340557763E+04  0.11820115581E+04  0.10100000352E+00 0.  1.
       -3    1    3    3    0  502  0.31243752132E+03 -0.11598105320E+03 -0.11682332118E+04  0.12148405891E+04  0.10100000352E+00 0. -1.
</event>
<event>
 5   0  0.5440503E-06  0.2397432E+04  0.7818609E-02  0.8440466E-01
        2   -1    0    0  501    0  0.00000000000E+00  0.00000000000E+00  0.14731499124E+04  0.14731499124E+04  0.25500000920E-02 0.  1.
       -2   -1    0    0    0  501  0.00000000000E+00  0.00000000000E+00 -0.97540614331E+03  0.97540614332E+03  0.25500000920E-02 0. -1.
    10030    2    1    2    0    0  0.00000000000E+00  0.00000000000E+00  0.49774376910E+03  0.24485560557E+04  0.23974315211E+04 0.  0.
        3    1    3    3  502    0 -0.96875649709E+02  0.11027351932E+04 -0.22083718953E+03  0.11287953190E+04  0.10100000352E+00 0. -1.
       -3    1    3    3    0  502  0.96875649709E+02 -0.11027351932E+04  0.71858095864E+03  0.13197607367E+04  0.10100000352E+00 0.  1.
</event>
<event>
 5   0  0.5371843E-06  0.2395116E+04  0.7818609E-02  0.8441334E-01
       -2   -1    0    0    0  501  0.00000000000E+00  0.00000000000E+00  0.91978093187E+03  0.91978093188E+03  0.25500000920E-02 0.  1.
        2   -1    0    0  501    0  0.00000000000E+00  0.00000000000E+00 -0.15592248419E+04  0.15592248419E+04  0.25500000920E-02 0. -1.
    10030    2    1    2    0    0  0.00000000000E+00  0.00000000000E+00 -0.63944391003E+03  0.24790057738E+04  0.23951160958E+04 0.  0.
        4    1    3    3  502    0 -0.12041500240E+03 -0.53002179287E+03  0.78476246516E+03  0.95460809412E+03  0.12699999809E+01 0.  1.
       -4    1    3    3    0  502  0.12041500240E+03  0.53002179287E+03 -0.14242063752E+04  0.15243976797E+04  0.12699999809E+01 0. -1.
</event>
<event>
 5   0  0.2149029E-06  0.2413177E+04  0.7818609E-02  0.8434587E-01
        1   -1    0    0  501    0  0.00000000000E+00  0.00000000000E+00  0.20817476224E+04  0.20817476224E+04  0.50400001928E-02 0. -1.
       -1   -1    0    0    0  501  0.00000000000E+00  0.00000000000E+00 -0.69934321122E+03  0.69934321124E+03  0.50400001928E-02 0.  1.
    10030    2    1    2    0    0  0.00000000000E+00  0.00000000000E+00  0.13824044112E+04  0.27810908336E+04  0.24131772146E+04 0.  0.
        4    1    3    3  502    0  0.15231903882E+03  0.63098918046E+03 -0.48097283211E+03  0.80788917159E+03  0.12699999809E+01 0.  1.
       -4    1    3    3    0  502 -0.15231903882E+03 -0.63098918046E+03  0.18633772433E+04  0.19732016620E+04  0.12699999809E+01 0. -1.
</event>
<event>
 5   0  0.2149029E-06  0.2400320E+04  0.7818609E-02  0.8439384E-01
        1   -1    0    0  501    0  0.00000000000E+00  0.00000000000E+00  0.11730355808E+04  0.11730355808E+04  0.50400001928E-02 0.  1.
       -1   -1    0    0    0  501  0.00000000000E+00  0.00000000000E+00 -0.12279118511E+04  0.12279118511E+04  0.50400001928E-02 0. -1.
    10030    2    1    2    0    0  0.00000000000E+00  0.00000000000E+00 -0.54876270324E+02  0.24009474320E+04  0.24003202216E+04 0.  0.
        4    1    3    3  502    0 -0.27064543666E+03  0.92416369360E+03 -0.74390401306E+03  0.12168493245E+04  0.12699999809E+01 0. -1.
       -4    1    3    3    0  502  0.27064543666E+03 -0.92416369360E+03  0.68902774274E+03  0.11840981075E+04  0.12699999809E+01 0.  1.
</event>
<event>
 5   0  0.5379778E-06  0.2395989E+04  0.7818609E-02  0.8441007E-01
        2   -1    0    0  501    0  0.00000000000E+00  0.00000000000E+00  0.12032092724E+04  0.12032092724E+04  0.25500000920E-02 0. -1.
       -2   -1    0    0    0  501  0.00000000000E+00  0.00000000000E+00 -0.11928023715E+04  0.11928023715E+04  0.25500000920E-02 0.  1.
    10030    2    1    2    0    0  0.00000000000E+00  0.00000000000E+00  0.10406900829E+02  0.23960116439E+04  0.23959890430E+04 0.  0.
        5    1    3    3  502    0 -0.70050451171E+03 -0.78496534213E+03 -0.56776933927E+03  0.11955171567E+04  0.46999998093E+01 0. -1.
       -5    1    3    3    0  502  0.70050451171E+03  0.78496534213E+03  0.57817624010E+03  0.12004944872E+04  0.46999998093E+01 0.  1.
</event>
<event>
 5   0  0.2149029E-06  0.2397654E+04  0.7818609E-02  0.8440382E-01
       -1   -1    0    0    0  501  0.00000000000E+00  0.00000000000E+00  0.89039218436E+03  0.89039218438E+03  0.50400001928E-02 0. -1.
        1   -1    0    0  501    0  0.00000000000E+00  0.00000000000E+00 -0.16141049330E+04  0.16141049330E+04  0.50400001928E-02 0.  1.
    10030    2    1    2    0    0  0.00000000000E+00  0.00000000000E+00 -0.72371274861E+03  0.25044971174E+04  0.23976542012E+04 0.  0.
        4    1    3    3  502    0  0.90971930731E+03  0.60632006537E+03 -0.87568246722E+03  0.14007264673E+04  0.12699999809E+01 0.  1.
       -4    1    3    3    0  502 -0.90971930731E+03 -0.60632006537E+03  0.15196971861E+03  0.11037706501E+04  0.12699999809E+01 0. -1.
</event>
<event>
 5   0  0.5440503E-06  0.2403549E+04  0.7818609E-02  0.8438176E-01
       -2   -1    0    0    0  501  0.00000000000E+00  0.00000000000E+00  0.58778279577E+03  0.58778279578E+03  0.25500000920E-02 0. -1.
        2   -1    0    0  501    0  0.00000000000E+00  0.00000000000E+00 -0.24571355994E+04  0.24571355994E+04  0.25500000920E-02 0.  1.
    10030    2    1    2    0    0  0.00000000000E+00  0.00000000000E+00 -0.18693528036E+04  0.30449183952E+04  0.24035490694E+04 0.  0.
        3    1    3    3  502    0  0.58458808901E+03  0.10495772194E+04 -0.89653520574E+03  0.14990433478E+04  0.10100000352E+00 0.  1.
       -3    1    3    3    0  502 -0.58458808901E+03 -0.10495772194E+04 -0.97281759788E+03  0.15458750474E+04  0.10100000352E+00 0. -1.
</event>
<event>
 5   0  0.5379778E-06  0.2402218E+04  0.7818609E-02  0.8438673E-01
       -2   -1    0    0    0  501  0.00000000000E+00  0.00000000000E+00  0.11048643573E+04  0.11048643573E+04  0.25500000920E-02 0.  1.
        2   -1    0    0  501    0  0.00000000000E+00  0.00000000000E+00 -0.13057380327E+04  0.13057380327E+04  0.25500000920E-02 0. -1.
    10030    2    1    2    0    0  0.00000000000E+00  0.00000000000E+00 -0.20087367545E+03  0.24106023900E+04  0.24022184849E+04 0.  0.
        5    1    3    3  502    0 -0.28315688967E+03 -0.99053965515E+03 -0.72008256123E+03  0.12569358049E+04  0.46999998093E+01 0. -1.
       -5    1    3    3    0  502  0.28315688967E+03  0.99053965515E+03  0.51920888578E+03  0.11536665851E+04  0.46999998093E+01 0.  1.
</event>
<event>
 5   0  0.2149029E-06  0.2396356E+04  0.7818609E-02  0.8440869E-01
       -1   -1    0    0    0  501  0.00000000000E+00  0.00000000000E+00  0.13328701346E+04  0.13328701346E+04  0.50400001928E-02 0. -1.
        1   -1    0    0  501    0  0.00000000000E+00  0.00000000000E+00 -0.10770967123E+04  0.10770967123E+04  0.50400001928E-02 0.  1.
    10030    2    1    2    0    0  0.00000000000E+00  0.00000000000E+00  0.25577342230E+03  0.24099668469E+04  0.23963555996E+04 0.  0.
        4    1    3    3  502    0  0.10638634623E+03 -0.92329911365E+02  0.13245130096E+04  0.13319831803E+04  0.12699999809E+01 0. -1.
       -4    1    3    3    0  502 -0.10638634623E+03  0.92329911365E+02 -0.10687395873E+04  0.10779836666E+04  0.12699999809E+01 0.  1.
</event>
<event>
 5   0  0.2215700E-06  0.2404636E+04  0.7818609E-02  0.8437770E-01
        1   -1    0    0  501    0  0.00000000000E+00  0.00000000000E+00  0.12714628865E+04  0.12714628865E+04  0.50400001928E-02 0. -1.
       -1   -1    0    0    0  501  0.00000000000E+00  0.00000000000E+00 -0.11369336330E+04  0.11369336330E+04  0.50400001928E-02 0.  1.
    10030    2    1    2    0    0  0.00000000000E+00  0.00000000000E+00  0.13452925349E+03  0.24083965195E+04  0.24046362874E+04 0.  0.
        3    1    3    3  502    0 -0.30670688225E+03 -0.98221089992E+03 -0.55560942286E+03  0.11694054919E+04  0.10100000352E+00 0.  1.
       -3    1    3    3    0  502  0.30670688225E+03  0.98221089992E+03  0.69013867635E+03  0.12389910275E+04  0.10100000352E+00 0. -1.
</event>
<event>
 5   0  0.2149029E-06  0.2344876E+04  0.7818609E-02  0.8460434E-01
       -1   -1    0    0    0  501  0.00000000000E+00  0.00000000000E+00  0.56063254042E+03  0.56063254044E+03  0.50400001928E-02 0.  1.
        1   -1    0    0  501    0  0.00000000000E+00  0.00000000000E+00 -0.24518937236E+04  0.24518937236E+04  0.50400001928E-02 0. -1.
    10030    2    1    2    0    0  0.00000000000E+00  0.00000000000E+00 -0.18912611832E+04  0.30125262640E+04  0.23448764634E+04 0.  0.
        4    1    3    3  502    0 -0.11405192464E+04 -0.63693143192E+02 -0.60628549127E+03  0.12932225940E+04  0.12699999809E+01 0. -1.
       -4    1    3    3    0  502  0.11405192464E+04  0.63693143192E+02 -0.12849756919E+04  0.17193036700E+04  0.12699999809E+01 0.  1.
</event>
<event>
 5   0  0.5379778E-06  0.2400454E+04  0.7818609E-02  0.8439334E-01
       -2   -1    0    0    0  501  0.00000000000E+00  0.00000000000E+00  0.85680066855E+03  0.85680066856E+03  0.25500000920E-02 0. -1.
        2   -1    0    0  501    0  0.00000000000E+00  0.00000000000E+00 -0.16813062464E+04  0.16813062464E+04  0.25500000920E-02 0.  1.
    10030    2    1    2    0    0  0.00000000000E+00  0.00000000000E+00 -0.82450557784E+03  0.25381069150E+04  0.24004535538E+04 0.  0.
        5    1    3    3  502    0 -0.11476807540E+04  0.24682236088E+02 -0.78268865239E+03  0.13893897734E+04  0.46999998093E+01 0.  1.
       -5    1    3    3    0  502  0.11476807540E+04 -0.24682236088E+02 -0.41816925452E+02  0.11487171415E+04  0.46999998093E+01 0. -1.
</event>
<event>
 5   0  0.2149029E-06  0.2393507E+04  0.7818609E-02  0.8441938E-01
       -1   -1    0    0    0  501  0.00000000000E+00  0.00000000000E+00  0.18205274481E+04  0.18205274481E+04  0.50400001928E-02 0.  1.
        1   -1    0    0  501    0  0.00000000000E+00  0.00000000000E+00 -0.78670580896E+03  0.78670580897E+03  0.50400001928E-02 0. -1.
    10030    2    1    2    0    0  0.00000000000E+00  0.00000000000E+00  0.10338216391E+04  0.26072332570E+04  0.23935074838E+04 0.  0.
        4    1    3    3  502    0  0.91652433111E+03  0.67129125595E+03  0.10705666443E+03  0.11411010219E+04  0.12699999809E+01 0. -1.
       -4    1    3    3    0  502 -0.91652433111E+03 -0.67129125595E+03  0.92676497468E+03  0.14661322352E+04  0.12699999809E+01 0.  1.
</event>
<event>
 5   0  0.2254269E-06  0.2400795E+04  0.7818609E-02  0.8439206E-01
       -1   -1    0    0    0  501  0.00000000000E+00  0.00000000000E+00  0.14461161621E+04  0.14461161621E+04  0.50400001928E-02 0.  1.
        1   -1    0    0  501    0  0.00000000000E+00  0.00000000000E+00 -0.99643005812E+03  0.99643005814E+03  0.50400001928E-02 0. -1.
    10030    2    1    2    0    0  0.00000000000E+00  0.00000000000E+00  0.44968610398E+03  0.24425462202E+04  0.24007945447E+04 0.  0.
        2    1    3    3  502    0 -0.80697694116E+03 -0.61996862083E+02  0.11267691354E+04  0.13873226297E+04  0.25500000920E-02 0.  1.
       -2    1    3    3    0  502  0.80697694116E+03  0.61996862083E+02 -0.67708303144E+03  0.10552235905E+04  0.25500000920E-02 0. -1.
</event>
<event>
 5   0  0.2149417E-06  0.2397852E+04  0.7818609E-02  0.8440308E-01
       -1   -1    0    0    0  501  0.00000000000E+00  0.00000000000E+00  0.94219852803E+03  0.94219852804E+03  0.50400001928E-02 0. -1.
        1   -1    0    0  501    0  0.00000000000E+00  0.00000000000E+00 -0.15256052636E+04  0.15256052636E+04  0.50400001928E-02 0.  1.
    10030    2    1    2    0    0  0.00000000000E+00  0.00000000000E+00 -0.58340673558E+03  0.24678037917E+04  0.23978515665E+04 0.  0.
        5    1    3    3  502    0  0.52280521780E+03 -0.10032915599E+04 -0.70011995338E+03  0.13304545423E+04  0.46999998093E+01 0. -1.
       -5    1    3    3    0  502 -0.52280521780E+03  0.10032915599E+04  0.11671321780E+03  0.11373492494E+04  0.46999998093E+01 0.  1.
</event>
<event>
 5   0  0.5268358E-06  0.2389252E+04  0.7818609E-02  0.8443539E-01
        2   -1    0    0  501    0  0.00000000000E+00  0.00000000000E+00  0.13628323400E+04  0.13628323400E+04  0.25500000920E-02 0. -1.
       -2   -1    0    0    0  501  0.00000000000E+00  0.00000000000E+00 -0.10471801685E+04  0.10471801685E+04  0.25500000920E-02 0.  1.
    10030    2    1    2    0    0  0.00000000000E+00  0.00000000000E+00  0.31565217149E+03  0.24100125086E+04  0.23892517653E+04 0.  0.
        2    1    3    3  502    0 -0.14651362870E+03  0.97510546884E+03 -0.52244792678E+03  0.11159071444E+04  0.25500000920E-02 0.  1.
       -2    1    3    3    0  502  0.14651362870E+03 -0.97510546884E+03  0.83810009827E+03  0.12941053641E+04  0.25500000920E-02 0. -1.
</event>
<event>
 5   0  0.5371843E-06  0.2400371E+04  0.7818609E-02  0.8439365E-01
       -2   -1    0    0    0  501  0.00000000000E+00  0.00000000000E+00  0.87815381720E+03  0.87815381720E+03  0.25500000920E-02 0. -1.
        2   -1    0    0  501    0  0.00000000000E+00  0.00000000000E+00 -0.16403112531E+04  0.16403112531E+04  0.25500000920E-02 0.  1.
    10030    2    1    2    0    0  0.00000000000E+00  0.00000000000E+00 -0.76215743586E+03  0.25184650703E+04  0.24003712948E+04 0.  0.
        4    1    3    3  502    0 -0.95958387632E+03 -0.24552675620E+03  0.33002638931E+03  0.10440323914E+04  0.12699999809E+01 0. -1.
       -4    1    3    3    0  502  0.95958387632E+03  0.24552675620E+03 -0.10921838252E+04  0.14744326789E+04  0.12699999809E+01 0.  1.
</event>
<event>
 5   0  0.5440503E-06  0.2399176E+04  0.7818609E-02  0.8439812E-01
       -2   -1    0    0    0  501  0.00000000000E+00  0.00000000000E+00  0.10133485865E+04  0.10133485865E+04  0.25500000920E-02 0. -1.
        2   -1    0    0  501    0  0.00000000000E+00  0.00000000000E+00 -0.14200555359E+04  0.14200555359E+04  0.25500000920E-02 0.  1.
    10030    2    1    2    0    0  0.00000000000E+00  0.00000000000E+00 -0.40670694944E+03  0.24334041224E+04  0.23991759169E+04 0.  0.
        3    1    3    3  502    0  0.83983326236E+03  0.59911920694E+03  0.41754634545E+03  0.11129279822E+04  0.10100000352E+00 0. -1.
       -3    1    3    3    0  502 -0.83983326236E+03 -0.59911920694E+03 -0.82425329489E+03  0.13204761403E+04  0.10100000352E+00 0.  1.
</event>
<event>
 5   0  0.2297414E-06  0.2403451E+04  0.7818609E-02  0.8438213E-01
       -1   -1    0    0    0  501  0.00000000000E+00  0.00000000000E+00  0.11569768005E+04  0.11569768005E+04  0.50400001928E-02 0.  1.
        1   -1    0    0  501    0  0.00000000000E+00  0.00000000000E+00 -0.12482047827E+04  0.12482047828E+04  0.50400001928E-02 0. -1.
    10030    2    1    2    0    0  0.00000000000E+00  0.00000000000E+00 -0.91227982263E+02  0.24051815833E+04  0.24034508324E+04 0.  0.
        1    1    3    3  502    0 -0.67596506219E+02  0.68679411390E+03 -0.10301357071E+04  0.12399334731E+04  0.50400001928E-02 0. -1.
       -1    1    3    3    0  502  0.67596506219E+02 -0.68679411390E+03  0.93890772483E+03  0.11652481102E+04  0.50400001928E-02 0.  1.
</event>
<event>
 5   0  0.2215700E-06  0.2406371E+04  0.7818609E-02  0.8437122E-01
       -1   -1    0    0    0  501  0.00000000000E+00  0.00000000000E+00  0.10366207344E+04  0.10366207344E+04  0.50400001928E-02 0. -1.
        1   -1    0    0  501    0  0.00000000000E+00  0.00000000000E+00 -0.13965144314E+04  0.13965144314E+04  0.50400001928E-02 0.  1.
    10030    2    1    2    0    0  0.00000000000E+00  0.00000000000E+00 -0.35989369705E+03  0.24331351658E+04  0.24063713890E+04 0.  0.
        3    1    3    3  502    0 -0.21492228908E+03 -0.96609363471E+03 -0.87175482721E+03  0.13188953675E+04  0.10100000352E+00 0.  1.
       -3    1    3    3    0  502  0.21492228908E+03  0.96609363471E+03  0.51186113017E+03  0.11142397983E+04  0.10100000352E+00 0. -1.
</event>
<event>
 5   0  0.2149417E-06  0.2400380E+04  0.7818609E-02  0.8439361E-01
        1   -1    0    0  501    0  0.00000000000E+00  0.00000000000E+00  0.16438071790E+04  0.16438071790E+04  0.50400001928E-02 0.  1.
       -1   -1    0    0    0  501  0.00000000000E+00  0.00000000000E+00 -0.87629261033E+03  0.87629261035E+03  0.50400001928E-02 0. -1.
    10030    2    1    2    0    0  0.00000000000E+00  0.00000000000E+00  0.76751456867E+03  0.25200997894E+04  0.24003800397E+04 0.  0.
        5    1    3    3  502    0  0.79247742411E+03  0.65000508130E+03  0.10393259737E+04  0.14597080677E+04  0.46999998093E+01 0. -1.
       -5    1    3    3    0  502 -0.79247742411E+03 -0.65000508130E+03 -0.27181140499E+03  0.10603917216E+04  0.46999998093E+01 0.  1.
</event>
<event>
 5   0  0.2149417E-06  0.2399763E+04  0.7818609E-02  0.8439592E-01
       -1   -1    0    0    0  501  0.00000000000E+00  0.00000000000E+00  0.62558790426E+03  0.62558790428E+03  0.50400001928E-02 0.  1.
        1   -1    0    0  501    0  0.00000000000E+00  0.00000000000E+00 -0.23013805574E+04  0.23013805574E+04  0.50400001928E-02 0. -1.
    10030    2    1    2    0    0  0.00000000000E+00  0.00000000000E+00 -0.16757926531E+04  0.29269684617E+04  0.23997631882E+04 0.  0.
        5    1    3    3  502    0 -0.19438048428E+03  0.60686202928E+03  0.40213279369E+03  0.75352383440E+03  0.46999998093E+01 0.  1.
       -5    1    3    3    0  502  0.19438048428E+03 -0.60686202928E+03 -0.20779254468E+04  0.21734446273E+04  0.46999998093E+01 0. -1.
</event>
<event>
 5   0  0.5268358E-06  0.2401634E+04  0.7818609E-02  0.8438892E-01
       -2   -1    0    0    0  501  0.00000000000E+00  0.00000000000E+00  0.12639460658E+04  0.12639460658E+04  0.25500000920E-02 0. -1.
        2   -1    0    0  501    0  0.00000000000E+00  0.00000000000E+00 -0.11408410353E+04  0.11408410353E+04  0.25500000920E-02 0.  1.
    10030    2    1    2    0    0  0.00000000000E+00  0.00000000000E+00  0.12310503052E+03  0.24047871012E+04  0.24016340590E+04 0.  0.
        2    1    3    3  502    0  0.44536294468E+03  0.13167831481E+03  0.11703790153E+04  0.12591562137E+04  0.25500000920E-02 0. -1.
       -2    1    3    3    0  502 -0.44536294468E+03 -0.13167831481E+03 -0.10472739848E+04  0.11456308875E+04  0.25500000920E-02 0.  1.
</event>
<event>
 5   0  0.5268358E-06  0.2397951E+04  0.7818609E-02  0.8440271E-01
        2   -1    0    0  501    0  0.00000000000E+00  0.00000000000E+00  0.15996675227E+04  0.15996675227E+04  0.25500000920E-02 0. -1.
       -2   -1    0    0    0  501  0.00000000000E+00  0.00000000000E+00 -0.89865063547E+03  0.89865063547E+03  0.25500000920E-02 0.  1.
    10030    2    1    2    0    0  0.00000000000E+00  0.00000000000E+00  0.70101688720E+03  0.24983181581E+04  0.23979509885E+04 0.  0.
        2    1    3    3  502    0  0.11316408062E+04 -0.30040574394E+03  0.61955680180E+03  0.13246528435E+04  0.25500000920E-02 0. -1.
       -2    1    3    3    0  502 -0.11316408062E+04  0.30040574394E+03  0.81460085392E+02  0.11736653146E+04  0.25500000920E-02 0.  1.
</event>
<event>
 5   0  0.2215700E-06  0.2399030E+04  0.7818609E-02  0.8439867E-01
        1   -1    0    0  501    0  0.00000000000E+00  0.00000000000E+00  0.27408610299E+04  0.27408610299E+04  0.50400001928E-02 0.  1.
       -1   -1    0    0    0  501  0.00000000000E+00  0.00000000000E+00 -0.52495754062E+03  0.52495754065E+03  0.50400001928E-02 0. -1.
    10030    2    1    2    0    0  0.00000000000E+00  0.00000000000E+00  0.22159034893E+04  0.32658185706E+04  0.23990295250E+04 0.  0.
        3    1    3    3  502    0  0.54112182582E+03  0.48662929407E+03  0.24059965959E+04  0.25136508369E+04  0.10100000352E+00 0.  1.
       -3    1    3    3    0  502 -0.54112182582E+03 -0.48662929407E+03 -0.19009310658E+03  0.75216773368E+03  0.10100000352E+00 0. -1.
</event>
<event>
 5   0  0.2297414E-06  0.2386587E+04  0.7818609E-02  0.8444542E-01
       -1   -1    0    0    0  501  0.00000000000E+00  0.00000000000E+00  0.12300076953E+04  0.12300076954E+04  0.50400001928E-02 0.  1.
        1   -1    0    0  501    0  0.00000000000E+00  0.00000000000E+00 -0.11576755388E+04  0.11576755388E+04  0.50400001928E-02 0. -1.
    10030    2    1    2    0    0  0.00000000000E+00  0.00000000000E+00  0.72332156547E+02  0.23876832342E+04  0.23865873724E+04 0.  0.
        1    1    3    3  502    0 -0.23278403902E+03 -0.43287983941E+03  0.11240367243E+04  0.12267974249E+04  0.50400001928E-02 0.  1.
       -1    1    3    3    0  502  0.23278403902E+03  0.43287983941E+03 -0.10517045678E+04  0.11608858092E+04  0.50400001928E-02 0. -1.
</event>
<event>
 5   0  0.5440503E-06  0.2395888E+04  0.7818609E-02  0.8441045E-01
       -2   -1    0    0    0  501  0.00000000000E+00  0.00000000000E+00  0.96795900081E+03  0.96795900081E+03  0.25500000920E-02 0. -1.
        2   -1    0    0  501    0  0.00000000000E+00  0.00000000000E+00 -0.14825729582E+04  0.14825729582E+04  0.25500000920E-02 0.  1.
    10030    2    1    2    0    0  0.00000000000E+00  0.00000000000E+00 -0.51461395739E+03  0.24505319590E+04  0.23958880101E+04 0.  0.
        3    1    3    3  502    0  0.62931813015E+03  0.87455520201E+03 -0.79287310887E+03  0.13377353577E+04  0.10100000352E+00 0.  1.
       -3    1    3    3    0  502 -0.62931813015E+03 -0.87455520201E+03  0.27825915148E+03  0.11127966013E+04  0.10100000352E+00 0. -1.
</event>
<event>
 5   0  0.5379778E-06  0.2412346E+04  0.7818609E-02  0.8434896E-01
       -2   -1    0    0    0  501  0.00000000000E+00  0.00000000000E+00  0.69742086800E+03  0.69742086800E+03  0.25500000920E-02 0.  1.
        2   -1    0    0  501    0  0.00000000000E+00  0.00000000000E+00 -0.20860484856E+04  0.20860484856E+04  0.25500000920E-02 0. -1.
    10030    2    1    2    0    0  0.00000000000E+00  0.00000000000E+00 -0.13886276176E+04  0.27834693536E+04  0.24123463644E+04 0.  0.
        5    1    3    3  502    0  0.77995097872E+03 -0.60810453787E+03  0.10235368770E+03  0.99429021195E+03  0.46999998093E+01 0.  1.
       -5    1    3    3    0  502 -0.77995097872E+03  0.60810453787E+03 -0.14909813053E+04  0.17891791416E+04  0.46999998093E+01 0. -1.
</event>
<event>
 5   0  0.2254269E-06  0.2398988E+04  0.7818609E-02  0.8439882E-01
        1   -1    0    0  501    0  0.00000000000E+00  0.00000000000E+00  0.18625375798E+04  0.18625375798E+04  0.50400001928E-02 0.  1.
       -1   -1    0    0    0  501  0.00000000000E+00  0.00000000000E+00 -0.77248699004E+03  0.77248699006E+03  0.50400001928E-02 0. -1.
    10030    2    1    2    0    0  0.00000000000E+00  0.00000000000E+00  0.10900505898E+04  0.26350245699E+04  0.23989881608E+04 0.  0.
        2    1    3    3  502    0 -0.29262514413E+03 -0.11595988883E+04  0.44383625722E+03  0.12756526486E+04  0.25500000920E-02 0. -1.
       -2    1    3    3    0  502  0.29262514413E+03  0.11595988883E+04  0.64621433257E+03  0.13593719213E+04  0.25500000920E-02 0.  1.
</event>
<event>
 5   0  0.2254269E-06  0.2426650E+04  0.7818609E-02  0.8429593E-01
       -1   -1    0    0    0  501  0.00000000000E+00  0.00000000000E+00  0.92377127320E+03  0.92377127321E+03  0.50400001928E-02 0.  1.
        1   -1    0    0  501    0  0.00000000000E+00  0.00000000000E+00 -0.15936384881E+04  0.15936384881E+04  0.50400001928E-02 0. -1.
    10030    2    1    2    0    0  0.00000000000E+00  0.00000000000E+00 -0.66986721494E+03  0.25174097614E+04  0.24266499173E+04 0.  0.
        2    1    3    3  502    0 -0.94679843273E+03  0.56601367408E+03  0.18929669049E+03  0.11192104308E+04  0.25500000920E-02 0.  1.
       -2    1    3    3    0  502  0.94679843273E+03 -0.56601367408E+03 -0.85916390542E+03  0.13981993305E+04  0.25500000920E-02 0. -1.
</event>
<event>
 5   0  0.2215700E-06  0.2402351E+04  0.7818609E-02  0.8438624E-01
       -1   -1    0    0    0  501  0.00000000000E+00  0.00000000000E+00  0.15959359479E+04  0.15959359479E+04  0.50400001928E-02 0.  1.
        1   -1    0    0  501    0  0.00000000000E+00  0.00000000000E+00 -0.90406036941E+03  0.90406036943E+03  0.50400001928E-02 0. -1.
    10030    2    1    2    0    0  0.00000000000E+00  0.00000000000E+00  0.69187557844E+03  0.24999963173E+04  0.24023508841E+04 0.  0.
        3    1    3    3  502    0  0.76714792799E+03 -0.36999040046E+03  0.12273675888E+04  0.14939344190E+04  0.10100000352E+00 0.  1.
       -3    1    3    3    0  502 -0.76714792799E+03  0.36999040046E+03 -0.53549201040E+03  0.10060618983E+04  0.10100000352E+00 0. -1.
</event>
<event>
 5   0  0.5440503E-06  0.2398422E+04  0.7818609E-02  0.8440095E-01
       -2   -1    0    0    0  501  0.00000000000E+00  0.00000000000E+00  0.96453907270E+03  0.96453907270E+03  0.25500000920E-02 0.  1.
        2   -1    0    0  501    0  0.00000000000E+00  0.00000000000E+00 -0.14909780985E+04  0.14909780985E+04  0.25500000920E-02 0. -1.
    10030    2    1    2    0    0  0.00000000000E+00  0.00000000000E+00 -0.52643902585E+03  0.24555171712E+04  0.23984216748E+04 0.  0.
        3    1    3    3  502    0  0.88973281975E+03  0.22209984382E+03  0.52793358342E+03  0.10581430479E+04  0.10100000352E+00 0.  1.
       -3    1    3    3    0  502 -0.88973281975E+03 -0.22209984382E+03 -0.10543726093E+04  0.13973741233E+04  0.10100000352E+00 0. -1.
</event>
<event>
 5   0  0.2149417E-06  0.2398795E+04  0.7818609E-02  0.8439955E-01
       -1   -1    0    0    0  501  0.00000000000E+00  0.00000000000E+00  0.12131167804E+04  0.12131167804E+04  0.50400001928E-02 0. -1.
        1   -1    0    0  501    0  0.00000000000E+00  0.00000000000E+00 -0.11858338274E+04  0.11858338275E+04  0.50400001928E-02 0.  1.
    10030    2    1    2    0    0  0.00000000000E+00  0.00000000000E+00  0.27282952948E+02  0.23989506079E+04  0.23987954601E+04 0.  0.
        5    1    3    3  502    0 -0.10381844514E+04  0.54008279811E+03  0.27636827147E+03  0.12024632616E+04  0.46999998093E+01 0.  1.
       -5    1    3    3    0  502  0.10381844514E+04 -0.54008279811E+03 -0.24908531852E+03  0.11964873463E+04  0.46999998093E+01 0. -1.
</event>
<event>
 5   0  0.2149029E-06  0.2398943E+04  0.7818609E-02  0.8439899E-01
        1   -1    0    0  501    0  0.00000000000E+00  0.00000000000E+00  0.10427127062E+04  0.10427127063E+04  0.50400001928E-02 0.  1.
       -1   -1    0    0    0  501  0.00000000000E+00  0.00000000000E+00 -0.13797967194E+04  0.13797967194E+04  0.50400001928E-02 0. -1.
    10030    2    1    2    0    0  0.00000000000E+00  0.00000000000E+00 -0.33708401317E+03  0.24225094257E+04  0.23989427433E+04 0.  0.
        4    1    3    3  502    0  0.11538136147E+04  0.27431788763E+03 -0.34973095207E+03  0.12364665433E+04  0.12699999809E+01 0. -1.
       -4    1    3    3    0  502 -0.11538136147E+04 -0.27431788763E+03  0.12646938900E+02  0.11860428824E+04  0.12699999809E+01 0.  1.
</event>
<event>
 5   0  0.5440503E-06  0.2400392E+04  0.7818609E-02  0.8439357E-01
        2   -1    0    0  501    0  0.00000000000E+00  0.00000000000E+00  0.13377526403E+04  0.13377526403E+04  0.25500000920E-02 0.  1.
       -2   -1    0    0    0  501  0.00000000000E+00  0.00000000000E+00 -0.10767836231E+04  0.10767836231E+04  0.25500000920E-02 0. -1.
    10030    2    1    2    0    0  0.00000000000E+00  0.00000000000E+00  0.26096901716E+03  0.24145362634E+04  0.24003917471E+04 0.  0.
        3    1    3    3  502    0 -0.64868146783E+03  0.81196662415E+03 -0.47338011461E+03  0.11420009582E+04  0.10100000352E+00 0. -1.
       -3    1    3    3    0  502  0.64868146783E+03 -0.81196662415E+03  0.73434913177E+03  0.12725353052E+04  0.10100000352E+00 0.  1.
</event>
<event>
 5   0  0.5379778E-06  0.2396298E+04  0.7818609E-02  0.8440891E-01
       -2   -1    0    0    0  501  0.00000000000E+00  0.00000000000E+00  0.49565554087E+03  0.49565554088E+03  0.25500000920E-02 0.  1.
        2   -1    0    0  501    0  0.00000000000E+00  0.00000000000E+00 -0.28962888346E+04  0.28962888346E+04  0.25500000920E-02 0. -1.
    10030    2    1    2    0    0  0.00000000000E+00  0.00000000000E+00 -0.24006332937E+04  0.33919443755E+04  0.23962984863E+04 0.  0.
        5    1    3    3  502    0 -0.10343315834E+03 -0.61017010780E+03 -0.26525144661E+04  0.27237586276E+04  0.46999998093E+01 0. -1.
       -5    1    3    3    0  502  0.10343315834E+03  0.61017010780E+03  0.25188117234E+03  0.66818574788E+03  0.46999998093E+01 0.  1.
</event>
<event>
 5   0  0.5379778E-06  0.2399577E+04  0.7818609E-02  0.8439662E-01
        2   -1    0    0  501    0  0.00000000000E+00  0.00000000000E+00  0.13992730179E+04  0.13992730179E+04  0.25500000920E-02 0. -1.
       -2   -1    0    0    0  501  0.00000000000E+00  0.00000000000E+00 -0.10287430028E+04  0.10287430029E+04  0.25500000920E-02 0.  1.
    10030    2    1    2    0    0  0.00000000000E+00  0.00000000000E+00  0.37053001503E+03  0.24280160207E+04  0.23995769012E+04 0.  0.
        5    1    3    3  502    0 -0.11766037361E+04  0.16372094765E+03  0.35539256925E+03  0.12399705112E+04  0.46999998093E+01 0.  1.
       -5    1    3    3    0  502  0.11766037361E+04 -0.16372094765E+03  0.15137445777E+02  0.11880455095E+04  0.46999998093E+01 0. -1.
</event>
<event>
 5   0  0.5379778E-06  0.2392055E+04  0.7818609E-02  0.8442484E-01
        2   -1    0    0  501    0  0.00000000000E+00  0.00000000000E+00  0.17385592866E+04  0.17385592866E+04  0.25500000920E-02 0. -1.
       -2   -1    0    0    0  501  0.00000000000E+00  0.00000000000E+00 -0.82279705163E+03  0.82279705163E+03  0.25500000920E-02 0.  1.
    10030    2    1    2    0    0  0.00000000000E+00  0.00000000000E+00  0.91576223500E+03  0.25613563383E+04  0.23920547277E+04 0.  0.
        5    1    3    3  502    0  0.10963253590E+04 -0.26623494643E+03  0.32728814410E+02  0.11286733827E+04  0.46999998093E+01 0.  1.
       -5    1    3    3    0  502 -0.10963253590E+04  0.26623494643E+03  0.88303342059E+03  0.14326829556E+04  0.46999998093E+01 0. -1.
</event>
<event>
 5   0  0.5268358E-06  0.2398786E+04  0.7818609E-02  0.8439958E-01
       -2   -1    0    0    0  501  0.00000000000E+00  0.00000000000E+00  0.70645764303E+03  0.70645764304E+03  0.25500000920E-02 0.  1.
        2   -1    0    0  501    0  0.00000000000E+00  0.00000000000E+00 -0.20362768002E+04  0.20362768002E+04  0.25500000920E-02 0. -1.
    10030    2    1    2    0    0  0.00000000000E+00  0.00000000000E+00 -0.13298191572E+04  0.27427344433E+04  0.23987857836E+04 0.  0.
        2    1    3    3  502    0  0.11501744521E+04  0.33890316188E+03 -0.69697912583E+03  0.13869161926E+04  0.25500000920E-02 0.  1.
       -2    1    3    3    0  502 -0.11501744521E+04 -0.33890316188E+03 -0.63284003137E+03  0.13558182507E+04  0.25500000920E-02 0. -1.
</event>
<event>
 5   0  0.5371843E-06  0.2399343E+04  0.7818609E-02  0.8439750E-01
        2   -1    0    0  501    0  0.00000000000E+00  0.00000000000E+00  0.17869141123E+04  0.17869141123E+04  0.25500000920E-02 0.  1.
       -2   -1    0    0    0  501  0.00000000000E+00  0.00000000000E+00 -0.80541735837E+03  0.80541735838E+03  0.25500000920E-02 0. -1.
    10030    2    1    2    0    0  0.00000000000E+00  0.00000000000E+00  0.98149675397E+03  0.25923314707E+04  0.23993429467E+04 0.  0.
        4    1    3    3  502    0 -0.57736677735E+03  0.42613170540E+03  0.15294659838E+04  0.16894402726E+04  0.12699999809E+01 0.  1.
       -4    1    3    3    0  502  0.57736677735E+03 -0.42613170540E+03 -0.54796922986E+03  0.90289119816E+03  0.12699999809E+01 0. -1.
</event>
<event>
 5   0  0.5379778E-06  0.2401500E+04  0.7818609E-02  0.8438942E-01
        2   -1    0    0  501    0  0.00000000000E+00  0.00000000000E+00  0.22282552554E+04  0.22282552554E+04  0.25500000920E-02 0.  1.
       -2   -1    0    0    0  501  0.00000000000E+00  0.00000000000E+00 -0.64705340968E+03  0.64705340969E+03  0.25500000920E-02 0. -1.
    10030    2    1    2    0    0  0.00000000000E+00  0.00000000000E+00  0.15812018458E+04  0.28753086651E+04  0.24014996654E+04 0.  0.
        5    1    3    3  502    0 -0.23997476328E+02 -0.33899395996E+03  0.21694617023E+04  0.21959232572E+04  0.46999998093E+01 0.  1.
       -5    1    3    3    0  502  0.23997476328E+02  0.33899395996E+03 -0.58825985652E+03  0.67938540796E+03  0.46999998093E+01 0. -1.
</event>
<event>
 5   0  0.5379778E-06  0.2402571E+04  0.7818609E-02  0.8438542E-01
       -2   -1    0    0    0  501  0.00000000000E+00  0.00000000000E+00  0.11344714760E+04  0.11344714760E+04  0.25500000920E-02 0. -1.
        2   -1    0    0  501    0  0.00000000000E+00  0.00000000000E+00 -0.12720344494E+04  0.12720344494E+04  0.25500000920E-02 0.  1.
    10030    2    1    2    0    0  0.00000000000E+00  0.00000000000E+00 -0.13756297341E+03  0.24065059254E+04  0.24025709557E+04 0.  0.
        5    1    3    3  502    0 -0.10483427193E+04  0.23390796188E+03  0.46999289117E+03  0.11724550309E+04  0.46999998093E+01 0. -1.
       -5    1    3    3    0  502  0.10483427193E+04 -0.23390796188E+03 -0.60755586458E+03  0.12340508945E+04  0.46999998093E+01 0.  1.
</event>
<event>
 5   0  0.5349036E-06  0.2404958E+04  0.7818609E-02  0.8437650E-01
       -2   -1    0    0    0  501  0.00000000000E+00  0.00000000000E+00  0.78921695292E+03  0.78921695293E+03  0.25500000920E-02 0. -1.
        2   -1    0    0  501    0  0.00000000000E+00  0.00000000000E+00 -0.18321396451E+04  0.18321396451E+04  0.25500000920E-02 0.  1.
    10030    2    1    2    0    0  0.00000000000E+00  0.00000000000E+00 -0.10429226922E+04  0.26213565981E+04  0.24049579357E+04 0.  0.
        1    1    3    3  502    0 -0.24748034538E+03  0.10816888430E+04 -0.10264627174E+04  0.15115961711E+04  0.50400001928E-02 0.  1.
       -1    1    3    3    0  502  0.24748034538E+03 -0.10816888430E+04 -0.16459974784E+02  0.11097604269E+04  0.50400001928E-02 0. -1.
</event>
<event>
 5   0  0.5349036E-06  0.2396864E+04  0.7818609E-02  0.8440679E-01
       -2   -1    0    0    0  501  0.00000000000E+00  0.00000000000E+00  0.92941514445E+03  0.92941514445E+03  0.25500000920E-02 0.  1.
        2   -1    0    0  501    0  0.00000000000E+00  0.00000000000E+00 -0.15453148765E+04  0.15453148765E+04  0.25500000920E-02 0. -1.
    10030    2    1    2    0    0  0.00000000000E+00  0.00000000000E+00 -0.61589973210E+03  0.24747300210E+04  0.23968638253E+04 0.  0.
        1    1    3    3  502    0  0.63780397185E+03 -0.86322439552E+03  0.24255901570E+03  0.11003568238E+04  0.50400001928E-02 0.  1.
       -1    1    3    3    0  502 -0.63780397185E+03  0.86322439552E+03 -0.85845874780E+03  0.13743731972E+04  0.50400001928E-02 0. -1.
</event>
<event>
 5   0  0.2254269E-06  0.2409419E+04  0.7818609E-02  0.8435985E-01
       -1   -1    0    0    0  501  0.00000000000E+00  0.00000000000E+00  0.11771350520E+04  0.11771350520E+04  0.50400001928E-02 0. -1.
        1   -1    0    0  501    0  0.00000000000E+00  0.00000000000E+00 -0.12329303757E+04  0.12329303757E+04  0.50400001928E-02 0.  1.
    10030    2    1    2    0    0  0.00000000000E+00  0.00000000000E+00 -0.55795323754E+02  0.24100654277E+04  0.24094194835E+04 0.  0.
        2    1    3    3  502    0  0.52706899237E+03 -0.10772470017E+04  0.86425308420E+02  0.12023860275E+04  0.25500000920E-02 0. -1.
       -2    1    3    3    0  502 -0.52706899237E+03  0.10772470017E+04 -0.14222063217E+03  0.12076794001E+04  0.25500000920E-02 0.  1.
</event>
<event>
 5   0  0.5440503E-06  0.2404419E+04  0.7818609E-02  0.8437851E-01
        2   -1    0    0  501    0  0.00000000000E+00  0.00000000000E+00  0.17260527619E+04  0.17260527619E+04  0.25500000920E-02 0.  1.
       -2   -1    0    0    0  501  0.00000000000E+00  0.00000000000E+00 -0.83734837580E+03  0.83734837580E+03  0.25500000920E-02 0. -1.
    10030    2    1    2    0    0  0.00000000000E+00  0.00000000000E+00  0.88870438610E+03  0.25634011377E+04  0.24044188293E+04 0.  0.
        3    1    3    3  502    0 -0.48431316490E+03 -0.15216853342E+03 -0.71747158360E+03  0.87890840691E+03  0.10100000352E+00 0. -1.
       -3    1    3    3    0  502  0.48431316490E+03  0.15216853342E+03  0.16061759697E+04  0.16844927308E+04  0.10100000352E+00 0.  1.
</event>
<event>
 5   0  0.2149029E-06  0.2400935E+04  0.7818609E-02  0.8439154E-01
       -1   -1    0    0    0  501  0.00000000000E+00  0.00000000000E+00  0.92358622955E+03  0.92358622957E+03  0.50400001928E-02 0.  1.
        1   -1    0    0  501    0  0.00000000000E+00  0.00000000000E+00 -0.15603547695E+04  0.15603547695E+04  0.50400001928E-02 0. -1.
    10030    2    1    2    0    0  0.00000000000E+00  0.00000000000E+00 -0.63676853991E+03  0.24839409990E+04  0.24009349665E+04 0.  0.
        4    1    3    3  502    0 -0.24251673975E+03  0.44474831511E+03  0.80759229786E+03  0.95332175330E+03  0.12699999809E+01 0.  1.
       -4    1    3    3    0  502  0.24251673975E+03 -0.44474831511E+03 -0.14443608378E+04  0.15306192457E+04  0.12699999809E+01 0. -1.
</event>
<event>
 5   0  0.2297414E-06  0.2397488E+04  0.7818609E-02  0.8440445E-01
        1   -1    0    0  501    0  0.00000000000E+00  0.00000000000E+00  0.15810829248E+04  0.15810829248E+04  0.50400001928E-02 0.  1.
       -1   -1    0    0    0  501  0.00000000000E+00  0.00000000000E+00 -0.90886273841E+03  0.90886273842E+03  0.50400001928E-02 0. -1.
    10030    2    1    2    0    0  0.00000000000E+00  0.00000000000E+00  0.67222018637E+03  0.24899456632E+04  0.23974881494E+04 0.  0.
        1    1    3    3  502    0 -0.28852014668E+03  0.16586360159E+03 -0.85992321460E+03  0.92207512948E+03  0.50400001928E-02 0. -1.
       -1    1    3    3    0  502  0.28852014668E+03 -0.16586360159E+03  0.15321434010E+04  0.15678705337E+04  0.50400001928E-02 0.  1.
</event>
<event>
 5   0  0.2149417E-06  0.2385883E+04  0.7818609E-02  0.8444808E-01
        1   -1    0    0  501    0  0.00000000000E+00  0.00000000000E+00  0.14298503244E+04  0.14298503244E+04  0.50400001928E-02 0.  1.
       -1   -1    0    0    0  501  0.00000000000E+00  0.00000000000E+00 -0.99528591621E+03  0.99528591622E+03  0.50400001928E-02 0. -1.
    10030    2    1    2    0    0  0.00000000000E+00  0.00000000000E+00  0.43456440822E+03  0.24251362407E+04  0.23858833921E+04 0.  0.
        5    1    3    3  502    0  0.23709807904E+02  0.82673769778E+03 -0.65652996062E+03  0.10559881889E+04  0.46999998093E+01 0. -1.
       -5    1    3    3    0  502 -0.23709807904E+02 -0.82673769778E+03  0.10910943688E+04  0.13691480518E+04  0.46999998093E+01 0.  1.
</event>
<event>
 5   0  0.5371843E-06  0.2396728E+04  0.7818609E-02  0.8440730E-01
       -2   -1    0    0    0  501  0.00000000000E+00  0.00000000000E+00  0.11360283390E+04  0.11360283390E+04  0.25500000920E-02 0. -1.
        2   -1    0    0  501    0  0.00000000000E+00  0.00000000000E+00 -0.12641198460E+04  0.12641198460E+04  0.25500000920E-02 0.  1.
    10030    2    1    2    0    0  0.00000000000E+00  0.00000000000E+00 -0.12809150706E+03  0.24001481850E+04  0.23967277433E+04 0.  0.
        4    1    3    3  502    0  0.61923322469E+03  0.68039399503E+03 -0.83305349492E+03  0.12411146254E+04  0.12699999809E+01 0.  1.
       -4    1    3    3    0  502 -0.61923322469E+03 -0.68039399503E+03  0.70496198786E+03  0.11590335596E+04  0.12699999809E+01 0. -1.
</event>
<event>
 5   0  0.2149029E-06  0.2403757E+04  0.7818609E-02  0.8438098E-01
       -1   -1    0    0    0  501  0.00000000000E+00  0.00000000000E+00  0.99418866840E+03  0.99418866842E+03  0.50400001928E-02 0. -1.
        1   -1    0    0  501    0  0.00000000000E+00  0.00000000000E+00 -0.14529550605E+04  0.14529550605E+04  0.50400001928E-02 0.  1.
    10030    2    1    2    0    0  0.00000000000E+00  0.00000000000E+00 -0.45876639207E+03  0.24471437289E+04  0.24037566074E+04 0.  0.
        4    1    3    3  502    0  0.89021861292E+03  0.35334521561E+03  0.50978527517E+03  0.10849998433E+04  0.12699999809E+01 0. -1.
       -4    1    3    3    0  502 -0.89021861292E+03 -0.35334521561E+03 -0.96855166724E+03  0.13621438856E+04  0.12699999809E+01 0.  1.
</event>
<event>
 5   0  0.5268358E-06  0.2399909E+04  0.7818609E-02  0.8439537E-01
        2   -1    0    0  501    0  0.00000000000E+00  0.00000000000E+00  0.13049392374E+04  0.13049392374E+04  0.25500000920E-02 0.  1.
       -2   -1    0    0    0  501  0.00000000000E+00  0.00000000000E+00 -0.11034164335E+04  0.11034164335E+04  0.25500000920E-02 0. -1.
    10030    2    1    2    0    0  0.00000000000E+00  0.00000000000E+00  0.20152280385E+03  0.24083556709E+04  0.23999094977E+04 0.  0.
        2    1    3    3  502    0 -0.62230832405E+03 -0.10238783277E+04  0.16654299017E+03  0.12096822094E+04  0.25500000920E-02 0.  1.
       -2    1    3    3    0  502  0.62230832405E+03  0.10238783277E+04  0.34979813680E+02  0.11986734615E+04  0.25500000920E-02 0. -1.
</event>
<event>
 5   0  0.5349036E-06  0.2399036E+04  0.7818609E-02  0.8439864E-01
       -2   -1    0    0    0  501  0.00000000000E+00  0.00000000000E+00  0.89498235673E+03  0.89498235673E+03  0.25500000920E-02 0.  1.
        2   -1    0    0  501    0  0.00000000000E+00  0.00000000000E+00 -0.16076782445E+04  0.16076782445E+04  0.25500000920E-02 0. -1.
    10030    2    1    2    0    0  0.00000000000E+00  0.00000000000E+00 -0.71269588775E+03  0.25026606012E+04  0.23990361932E+04 0.  0.
        1    1    3    3  502    0  0.10400648265E+04 -0.52847722293E+03 -0.65334822244E+02  0.11684569557E+04  0.50400001928E-02 0. -1.
       -1    1    3    3    0  502 -0.10400648265E+04  0.52847722293E+03 -0.64736106551E+03  0.13342036455E+04  0.50400001928E-02 0.  1.
</event>
<event>
 5   0  0.5379778E-06  0.2431441E+04  0.7818609E-02  0.8427826E-01
        2   -1    0    0  501    0  0.00000000000E+00  0.00000000000E+00  0.20438557785E+04  0.20438557785E+04  0.25500000920E-02 0.  1.
       -2   -1    0    0    0  501  0.00000000000E+00  0.00000000000E+00 -0.72313135232E+03  0.72313135232E+03  0.25500000920E-02 0. -1.
    10030    2    1    2    0    0  0.00000000000E+00  0.00000000000E+00  0.13207244262E+04  0.27669871309E+04  0.24314408840E+04 0.  0.
        5    1    3    3  502    0 -0.11213201183E+04  0.33444639574E+03  0.10356287966E+04  0.15626139298E+04  0.46999998093E+01 0.  1.
       -5    1    3    3    0  502  0.11213201183E+04 -0.33444639574E+03  0.28509562962E+03  0.12043732010E+04  0.46999998093E+01 0. -1.
</event>
<event>
 5   0  0.2254269E-06  0.2396497E+04  0.7818609E-02  0.8440816E-01
       -1   -1    0    0    0  501  0.00000000000E+00  0.00000000000E+00  0.13765053385E+04  0.13765053385E+04  0.50400001928E-02 0. -1.
        1   -1    0    0  501    0  0.00000000000E+00  0.00000000000E+00 -0.10430756652E+04  0.10430756652E+04  0.50400001928E-02 0.  1.
    10030    2    1    2    0    0  0.00000000000E+00  0.00000000000E+00  0.33342967329E+03  0.24195810037E+04  0.23964967946E+04 0.  0.
        2    1    3    3  502    0 -0.50173940611E+03 -0.10029964430E+04 -0.25931528821E+03  0.11510815415E+04  0.25500000920E-02 0.  1.
       -2    1    3    3    0  502  0.50173940611E+03  0.10029964430E+04  0.59274496151E+03  0.12684994623E+04  0.25500000920E-02 0. -1.
</event>
<event>
 5   0  0.2149029E-06  0.2400601E+04  0.7818609E-02  0.8439279E-01
       -1   -1    0    0    0  501  0.00000000000E+00  0.00000000000E+00  0.79546598432E+03  0.79546598433E+03  0.50400001928E-02 0. -1.
        1   -1    0    0  501    0  0.00000000000E+00  0.00000000000E+00 -0.18111661742E+04  0.18111661742E+04  0.50400001928E-02 0.  1.
    10030    2    1    2    0    0  0.00000000000E+00  0.00000000000E+00 -0.10157001898E+04  0.26066321585E+04  0.24006008277E+04 0.  0.
        4    1    3    3  502    0  0.17763954261E+02 -0.10185359259E+04 -0.11971466582E+04  0.15719073524E+04  0.12699999809E+01 0.  1.
       -4    1    3    3    0  502 -0.17763954261E+02  0.10185359259E+04  0.18144646834E+03  0.10347248061E+04  0.12699999809E+01 0. -1.
</event>
<event>
 5   0  0.5371843E-06  0.2396645E+04  0.7818609E-02  0.8440761E-01
        2   -1    0    0  501    0  0.00000000000E+00  0.00000000000E+00  0.18782389494E+04  0.18782389494E+04  0.25500000920E-02 0. -1.
       -2   -1    0    0    0  501  0.00000000000E+00  0.00000000000E+00 -0.76453341781E+03  0.76453341781E+03  0.25500000920E-02 0.  1.
    10030    2    1    2    0    0  0.00000000000E+00  0.00000000000E+00  0.11137055316E+04  0.26427723672E+04  0.23966446908E+04 0.  0.
        4    1    3    3  502    0 -0.43768377880E+02 -0.87606169468E+03  0.14571390550E+04  0.17007808802E+04  0.12699999809E+01 0. -1.
       -4    1    3    3    0  502  0.43768377880E+02  0.87606169468E+03 -0.34343352342E+03  0.94199148706E+03  0.12699999809E+01 0.  1.
</event>
<event>
 5   0  0.5440503E-06  0.2403323E+04  0.7818609E-02  0.8438261E-01
        2   -1    0    0  501    0  0.00000000000E+00  0.00000000000E+00  0.15521219801E+04  0.15521219801E+04  0.25500000920E-02 0. -1.
       -2   -1    0    0    0  501  0.00000000000E+00  0.00000000000E+00 -0.93033297245E+03  0.93033297246E+03  0.25500000920E-02 0.  1.
    10030    2    1    2    0    0  0.00000000000E+00  0.00000000000E+00  0.62178900765E+03  0.24824549526E+04  0.24033229124E+04 0.  0.
        3    1    3    3  502    0  0.42781376678E+03 -0.97703797869E+03  0.88261925110E+03  0.13844293349E+04  0.10100000352E+00 0. -1.
       -3    1    3    3    0  502 -0.42781376678E+03  0.97703797869E+03 -0.26083024345E+03  0.10980256176E+04  0.10100000352E+00 0.  1.
</event>
<event>
 5   0  0.2297414E-06  0.2402964E+04  0.7818609E-02  0.8438395E-01
       -1   -1    0    0    0  501  0.00000000000E+00  0.00000000000E+00  0.91313147713E+03  0.91313147715E+03  0.50400001928E-02 0. -1.
        1   -1    0    0  501    0  0.00000000000E+00  0.00000000000E+00 -0.15808883013E+04  0.15808883013E+04  0.50400001928E-02 0.  1.
    10030    2    1    2    0    0  0.00000000000E+00  0.00000000000E+00 -0.66775682419E+03  0.24940197785E+04  0.24029638947E+04 0.  0.
        1    1    3    3  502    0 -0.61724225318E+03  0.81751845874E+03 -0.98555171345E+03  0.14214909811E+04  0.50400001928E-02 0.  1.
       -1    1    3    3    0  502  0.61724225318E+03 -0.81751845874E+03  0.31779488926E+03  0.10725287974E+04  0.50400001928E-02 0. -1.
</event>
<event>
 5   0  0.2215700E-06  0.2400375E+04  0.7818609E-02  0.8439363E-01
        1   -1    0    0  501    0  0.00000000000E+00  0.00000000000E+00  0.92707894862E+03  0.92707894863E+03  0.50400001928E-02 0.  1.
       -1   -1    0    0    0  501  0.00000000000E+00  0.00000000000E+00 -0.15537517169E+04  0.15537517170E+04  0.50400001928E-02 0. -1.
    10030    2    1    2    0    0  0.00000000000E+00  0.00000000000E+00 -0.62667276833E+03  0.24808306656E+04  0.24003753941E+04 0.  0.
        3    1    3    3  502    0  0.79531969303E+03  0.62466075242E+03  0.35463602682E+03  0.10716814785E+04  0.10100000352E+00 0.  1.
       -3    1    3    3    0  502 -0.79531969303E+03 -0.62466075242E+03 -0.98130879514E+03  0.14091491870E+04  0.10100000352E+00 0. -1.
</event>
<event>
 5   0  0.2254269E-06  0.2396376E+04  0.7818609E-02  0.8440861E-01
        1   -1    0    0  501    0  0.00000000000E+00  0.00000000000E+00  0.13720380630E+04  0.13720380630E+04  0.50400001928E-02 0. -1.
       -1   -1    0    0    0  501  0.00000000000E+00  0.00000000000E+00 -0.10463666474E+04  0.10463666475E+04  0.50400001928E-02 0.  1.
    10030    2    1    2    0    0  0.00000000000E+00  0.00000000000E+00  0.32567141557E+03  0.24184047105E+04  0.23963763212E+04 0.  0.
        2    1    3    3  502    0  0.79587432374E+03  0.51166357513E+03  0.90473922128E+03  0.13091098548E+04  0.25500000920E-02 0. -1.
       -2    1    3    3    0  502 -0.79587432374E+03 -0.51166357513E+03 -0.57906780571E+03  0.11092948557E+04  0.25500000920E-02 0.  1.
</event>
<event>
 5   0  0.2254269E-06  0.2411049E+04  0.7818609E-02  0.8435378E-01
        1   -1    0    0  501    0  0.00000000000E+00  0.00000000000E+00  0.13977810062E+04  0.13977810062E+04  0.50400001928E-02 0. -1.
       -1   -1    0    0    0  501  0.00000000000E+00  0.00000000000E+00 -0.10397120660E+04  0.10397120660E+04  0.50400001928E-02 0.  1.
    10030    2    1    2    0    0  0.00000000000E+00  0.00000000000E+00  0.35806894021E+03  0.24374930722E+04  0.24110493797E+04 0.  0.
        2    1    3    3  502    0  0.39818946842E+02  0.32283964778E+03 -0.99450649462E+03  0.10463527869E+04  0.25500000920E-02 0.  1.
       -2    1    3    3    0  502 -0.39818946842E+02 -0.32283964778E+03  0.13525754348E+04  0.13911402854E+04  0.25500000920E-02 0. -1.
</event>
<event>
 5   0  0.5379778E-06  0.2402086E+04  0.7818609E-02  0.8438723E-01
       -2   -1    0    0    0  501  0.00000000000E+00  0.00000000000E+00  0.64157512042E+03  0.64157512043E+03  0.25500000920E-02 0. -1.
        2   -1    0    0  501    0  0.00000000000E+00  0.00000000000E+00 -0.22483791091E+04  0.22483791091E+04  0.25500000920E-02 0.  1.
    10030    2    1    2    0    0  0.00000000000E+00  0.00000000000E+00 -0.16068039887E+04  0.28899542296E+04  0.24020858417E+04 0.  0.
        5    1    3    3  502    0 -0.28748808239E+03  0.88538072343E+03  0.10963556512E+03  0.93733156891E+03  0.46999998093E+01 0. -1.
       -5    1    3    3    0  502  0.28748808239E+03 -0.88538072343E+03 -0.17164395538E+04  0.19526226607E+04  0.46999998093E+01 0.  1.
</event>
<event>
 5   0  0.2149417E-06  0.2398210E+04  0.7818609E-02  0.8440174E-01
       -1   -1    0    0    0  501  0.00000000000E+00  0.00000000000E+00  0.80474886759E+03  0.80474886761E+03  0.50400001928E-02 0. -1.
        1   -1    0    0  501    0  0.00000000000E+00  0.00000000000E+00 -0.17867100355E+04  0.17867100355E+04  0.50400001928E-02 0.  1.
    10030    2    1    2    0    0  0.00000000000E+00  0.00000000000E+00 -0.98196116794E+03  0.25914589032E+04  0.23982100641E+04 0.  0.
        5    1    3    3  502    0  0.57196975354E+02 -0.28117741256E+03  0.76709471208E+03  0.81901686101E+03  0.46999998093E+01 0. -1.
       -5    1    3    3    0  502 -0.57196975354E+02  0.28117741256E+03 -0.17490558800E+04  0.17724420421E+04  0.46999998093E+01 0.  1.
</event>
<event>
 5   0  0.2215700E-06  0.2389840E+04  0.7818609E-02  0.8443317E-01
       -1   -1    0    0    0  501  0.00000000000E+00  0.00000000000E+00  0.13274087697E+04  0.13274087698E+04  0.50400001928E-02 0. -1.
        1   -1    0    0  501    0  0.00000000000E+00  0.00000000000E+00 -0.10756550273E+04  0.10756550273E+04  0.50400001928E-02 0.  1.
    10030    2    1    2    0    0  0.00000000000E+00  0.00000000000E+00  0.25175374247E+03  0.24030637970E+04  0.23898400921E+04 0.  0.
        3    1    3    3  502    0  0.34452698459E+03  0.11036895757E+04 -0.17746168434E+03  0.11697530433E+04  0.10100000352E+00 0.  1.
       -3    1    3    3    0  502 -0.34452698459E+03 -0.11036895757E+04  0.42921542681E+03  0.12333107538E+04  0.10100000352E+00 0. -1.
</event>
<event>
 5   0  0.2149417E-06  0.2437755E+04  0.7818609E-02  0.8425502E-01
       -1   -1    0    0    0  501  0.00000000000E+00  0.00000000000E+00  0.24943334261E+04  0.24943334261E+04  0.50400001928E-02 0.  1.
        1   -1    0    0  501    0  0.00000000000E+00  0.00000000000E+00 -0.59561490960E+03  0.59561490962E+03  0.50400001928E-02 0. -1.
    10030    2    1    2    0    0  0.00000000000E+00  0.00000000000E+00  0.18987185165E+04  0.30899483357E+04  0.24377548508E+04 0.  0.
        5    1    3    3  502    0  0.76902927112E+03 -0.72069455871E+02 -0.24578919708E+03  0.81057661310E+03  0.46999998093E+01 0. -1.
       -5    1    3    3    0  502 -0.76902927112E+03  0.72069455871E+02  0.21445077136E+04  0.22793717226E+04  0.46999998093E+01 0.  1.
</event>
<event>
 5   0  0.2297414E-06  0.2386859E+04  0.7818609E-02  0.8444440E-01
        1   -1    0    0  501    0  0.00000000000E+00  0.00000000000E+00  0.13618489946E+04  0.13618489946E+04  0.50400001928E-02 0.  1.
       -1   -1    0    0    0  501  0.00000000000E+00  0.00000000000E+00 -0.10458382053E+04  0.10458382053E+04  0.50400001928E-02 0. -1.
    10030    2    1    2    0    0  0.00000000000E+00  0.00000000000E+00  0.31601078933E+03  0.24076872000E+04  0.23868587796E+04 0.  0.
        1    1    3    3  502    0  0.42797642871E+03  0.75987260744E+03  0.97979452991E+03  0.13117040535E+04  0.50400001928E-02 0.  1.
       -1    1    3    3    0  502 -0.42797642871E+03 -0.75987260744E+03 -0.66378374058E+03  0.10959831465E+04  0.50400001928E-02 0. -1.
</event>
<event>
 5   0  0.5268358E-06  0.2391279E+04  0.7818609E-02  0.8442776E-01
       -2   -1    0    0    0  501  0.00000000000E+00  0.00000000000E+00  0.11446890106E+04  0.11446890106E+04  0.25500000920E-02 0. -1.
        2   -1    0    0  501    0  0.00000000000E+00  0.00000000000E+00 -0.12488580909E+04  0.12488580910E+04  0.25500000920E-02 0.  1.
    10030    2    1    2    0    0  0.00000000000E+00  0.00000000000E+00 -0.10416908035E+03  0.23935471016E+04  0.23912792664E+04 0.  0.
        2    1    3    3  502    0 -0.62832847857E+03 -0.34666657183E+03 -0.10093281348E+04  0.12384335561E+04  0.25500000920E-02 0.  1.
       -2    1    3    3    0  502  0.62832847857E+03  0.34666657183E+03  0.90515905449E+03  0.11551135455E+04  0.25500000920E-02 0. -1.
</event>
<event>
 5   0  0.5349036E-06  0.2395712E+04  0.7818609E-02  0.8441111E-01
       -2   -1    0    0    0  501  0.00000000000E+00  0.00000000000E+00  0.10503003054E+04  0.10503003054E+04  0.25500000920E-02 0.  1.
        2   -1    0    0  501    0  0.00000000000E+00  0.00000000000E+00 -0.13661418028E+04  0.13661418028E+04  0.25500000920E-02 0. -1.
    10030    2    1    2    0    0  0.00000000000E+00  0.00000000000E+00 -0.31584149740E+03  0.24164421082E+04  0.23957121302E+04 0.  0.
        1    1    3    3  502    0 -0.36606113690E+03 -0.86019750646E+03 -0.91334635518E+03  0.13069590929E+04  0.50400001928E-02 0.  1.
       -1    1    3    3    0  502  0.36606113690E+03  0.86019750646E+03  0.59750485777E+03  0.11094830153E+04  0.50400001928E-02 0. -1.
</event>
<event>
 5   0  0.1796750E-06  0.2365653E+04  0.7818609E-02  0.8452476E-01
        3   -1    0    0  501    0  0.00000000000E+00  0.00000000000E+00  0.21076389880E+04  0.21076389905E+04  0.10100000352E+00 0.  1.
       -3   -1    0    0    0  501  0.00000000000E+00  0.00000000000E+00 -0.66381308628E+03  0.66381309397E+03  0.10100000352E+00 0. -1.
    10030    2    1    2    0    0  0.00000000000E+00  0.00000000000E+00  0.14438259018E+04  0.27714520844E+04  0.23656528532E+04 0.  0.
        4    1    3    3  502    0 -0.91926960825E+02  0.10752458046E+04  0.15462645830E+03  0.10901903783E+04  0.12699999809E+01 0. -1.
       -4    1    3    3    0  502  0.91926960825E+02 -0.10752458046E+04  0.12891994435E+04  0.16812617061E+04  0.12699999809E+01 0.  1.
</event>
<event>
 5   0  0.2254269E-06  0.2408935E+04  0.7818609E-02  0.8436166E-01
       -1   -1    0    0    0  501  0.00000000000E+00  0.00000000000E+00  0.88216615591E+03  0.88216615592E+03  0.50400001928E-02 0.  1.
        1   -1    0    0  501    0  0.00000000000E+00  0.00000000000E+00 -0.16445220681E+04  0.16445220681E+04  0.50400001928E-02 0. -1.
    10030    2    1    2    0    0  0.00000000000E+00  0.00000000000E+00 -0.76235591218E+03  0.25266882240E+04  0.24089347946E+04 0.  0.
        2    1    3    3  502    0  0.41138405734E+02 -0.41118211245E+03 -0.15678425051E+04  0.16213862029E+04  0.25500000920E-02 0. -1.
       -2    1    3    3    0  502 -0.41138405734E+02  0.41118211245E+03  0.80548659295E+03  0.90530202112E+03  0.25500000920E-02 0.  1.
</event>
<event>
 5   0  0.2215700E-06  0.2399273E+04  0.7818609E-02  0.8439776E-01
        1   -1    0    0  501    0  0.00000000000E+00  0.00000000000E+00  0.14816314595E+04  0.14816314595E+04  0.50400001928E-02 0.  1.
       -1   -1    0    0    0  501  0.00000000000E+00  0.00000000000E+00 -0.97131290591E+03  0.97131290593E+03  0.50400001928E-02 0. -1.
    10030    2    1    2    0    0  0.00000000000E+00  0.00000000000E+00  0.51031855361E+03  0.24529443655E+04  0.23992730220E+04 0.  0.
        3    1    3    3  502    0  0.93886928584E+03 -0.39732966011E+03  0.90158598915E+03  0.13609569063E+04  0.10100000352E+00 0.  1.
       -3    1    3    3    0  502 -0.93886928584E+03  0.39732966011E+03 -0.39126743554E+03  0.10919874592E+04  0.10100000352E+00 0. -1.
</event>
<event>
 5   0  0.5268358E-06  0.2424724E+04  0.7818609E-02  0.8430305E-01
       -2   -1    0    0    0  501  0.00000000000E+00  0.00000000000E+00  0.17331964377E+04  0.17331964377E+04  0.25500000920E-02 0.  1.
        2   -1    0    0  501    0  0.00000000000E+00  0.00000000000E+00 -0.84804069209E+03  0.84804069210E+03  0.25500000920E-02 0. -1.
    10030    2    1    2    0    0  0.00000000000E+00  0.00000000000E+00  0.88515574563E+03  0.25812371298E+04  0.24247235773E+04 0.  0.
        2    1    3    3  502    0 -0.40464699194E+03  0.11277635303E+04  0.63953767868E+03  0.13581598620E+04  0.25500000920E-02 0. -1.
       -2    1    3    3    0  502  0.40464699194E+03 -0.11277635303E+04  0.24561806696E+03  0.12230772678E+04  0.25500000920E-02 0.  1.
</event>
<event>
 5   0  0.5440503E-06  0.2398789E+04  0.7818609E-02  0.8439957E-01
        2   -1    0    0  501    0  0.00000000000E+00  0.00000000000E+00  0.12189365399E+04  0.12189365399E+04  0.25500000920E-02 0.  1.
       -2   -1    0    0    0  501  0.00000000000E+00  0.00000000000E+00 -0.11801659295E+04  0.11801659295E+04  0.25500000920E-02 0. -1.
    10030    2    1    2    0    0  0.00000000000E+00  0.00000000000E+00  0.38770610478E+02  0.23991024694E+04  0.23987891734E+04 0.  0.
        3    1    3    3  502    0  0.30733693545E+03 -0.13555435463E+03 -0.11321626550E+04  0.11809416847E+04  0.10100000352E+00 0. -1.
       -3    1    3    3    0  502 -0.30733693545E+03  0.13555435463E+03  0.11709332655E+04  0.12181607847E+04  0.10100000352E+00 0.  1.
</event>
<event>
 5   0  0.2297414E-06  0.2340099E+04  0.7818609E-02  0.8462276E-01
        1   -1    0    0  501    0  0.00000000000E+00  0.00000000000E+00  0.15077105895E+04  0.15077105895E+04  0.50400001928E-02 0. -1.
       -1   -1    0    0    0  501  0.00000000000E+00  0.00000000000E+00 -0.90800955656E+03  0.90800955658E+03  0.50400001928E-02 0.  1.
    10030    2    1    2    0    0  0.00000000000E+00  0.00000000000E+00  0.59970103289E+03  0.24157201460E+04  0.23400988217E+04 0.  0.
        1    1    3    3  502    0  0.14991094135E+02  0.38547323433E+03  0.14401742430E+04  0.14909447332E+04  0.50400001928E-02 0. -1.
       -1    1    3    3    0  502 -0.14991094135E+02 -0.38547323433E+03 -0.84047321009E+03  0.92477541284E+03  0.50400001928E-02 0.  1.
</event>
<event>
 5   0  0.5268358E-06  0.2388269E+04  0.7818609E-02  0.8443909E-01
        2   -1    0    0  501    0  0.00000000000E+00  0.00000000000E+00  0.16493921285E+04  0.16493921285E+04  0.25500000920E-02 0. -1.
       -2   -1    0    0    0  501  0.00000000000E+00  0.00000000000E+00 -0.86453503495E+03  0.86453503495E+03  0.25500000920E-02 0.  1.
    10030    2    1    2    0    0  0.00000000000E+00  0.00000000000E+00  0.78485709357E+03  0.25139271635E+04  0.23882690648E+04 0.  0.
        2    1    3    3  502    0  0.42709220377E+03 -0.19045521569E+03  0.15490008354E+04  0.16180496061E+04  0.25500000920E-02 0. -1.
       -2    1    3    3    0  502 -0.42709220377E+03  0.19045521569E+03 -0.76414374181E+03  0.89587755740E+03  0.25500000920E-02 0.  1.
</event>
<event>
 5   0  0.2149029E-06  0.2398770E+04  0.7818609E-02  0.8439964E-01
        1   -1    0    0  501    0  0.00000000000E+00  0.00000000000E+00  0.21843339379E+04  0.21843339379E+04  0.50400001928E-02 0.  1.
       -1   -1    0    0    0  501  0.00000000000E+00  0.00000000000E+00 -0.65856449827E+03  0.65856449829E+03  0.50400001928E-02 0. -1.
    10030    2    1    2    0    0  0.00000000000E+00  0.00000000000E+00  0.15257694396E+04  0.28428984362E+04  0.23987703383E+04 0.  0.
        4    1    3    3  502    0 -0.44791036000E+03 -0.42121865005E+03 -0.45757304462E+03  0.76643561100E+03  0.12699999809E+01 0. -1.
       -4    1    3    3    0  502  0.44791036000E+03  0.42121865005E+03  0.19833424843E+04  0.20764628252E+04  0.12699999809E+01 0.  1.
</event>
<event>
 5   0  0.2215700E-06  0.2403930E+04  0.7818609E-02  0.8438034E-01
       -1   -1    0    0    0  501  0.00000000000E+00  0.00000000000E+00  0.90291014730E+03  0.90291014731E+03  0.50400001928E-02 0. -1.
        1   -1    0    0  501    0  0.00000000000E+00  0.00000000000E+00 -0.16000705886E+04  0.16000705887E+04  0.50400001928E-02 0.  1.
    10030    2    1    2    0    0  0.00000000000E+00  0.00000000000E+00 -0.69716044135E+03  0.25029807360E+04  0.24039300913E+04 0.  0.
        3    1    3    3  502    0 -0.70353595091E+03 -0.30694978994E+03 -0.13116451483E+04  0.15197348496E+04  0.10100000352E+00 0.  1.
       -3    1    3    3    0  502  0.70353595091E+03  0.30694978994E+03  0.61448470697E+03  0.98324588637E+03  0.10100000352E+00 0. -1.
</event>
<event>
 5   0  0.5379778E-06  0.2403363E+04  0.7818609E-02  0.8438245E-01
        2   -1    0    0  501    0  0.00000000000E+00  0.00000000000E+00  0.19659703017E+04  0.19659703017E+04  0.25500000920E-02 0.  1.
       -2   -1    0    0    0  501  0.00000000000E+00  0.00000000000E+00 -0.73451714312E+03  0.73451714312E+03  0.25500000920E-02 0. -1.
    10030    2    1    2    0    0  0.00000000000E+00  0.00000000000E+00  0.12314531586E+04  0.27004874448E+04  0.24033633845E+04 0.  0.
        5    1    3    3  502    0 -0.54424723716E+03  0.43244206476E+03  0.17171149488E+04  0.18524894148E+04  0.46999998093E+01 0.  1.
       -5    1    3    3    0  502  0.54424723716E+03 -0.43244206476E+03 -0.48566179019E+03  0.84799803006E+03  0.46999998093E+01 0. -1.
</event>
<event>
 5   0  0.5268358E-06  0.2401259E+04  0.7818609E-02  0.8439032E-01
        2   -1    0    0  501    0  0.00000000000E+00  0.00000000000E+00  0.28930728301E+04  0.28930728301E+04  0.25500000920E-02 0. -1.
       -2   -1    0    0    0  501  0.00000000000E+00  0.00000000000E+00 -0.49826308210E+03  0.49826308211E+03  0.25500000920E-02 0.  1.
    10030    2    1    2    0    0  0.00000000000E+00  0.00000000000E+00  0.23948097480E+04  0.33913359122E+04  0.24012591573E+04 0.  0.
        2    1    3    3  502    0  0.72996888896E+03  0.21512644557E+03 -0.11413187142E+03  0.76951936331E+03  0.25500000920E-02 0.  1.
       -2    1    3    3    0  502 -0.72996888896E+03 -0.21512644557E+03  0.25089416194E+04  0.26218165489E+04  0.25500000920E-02 0. -1.
</event>
<event>
 5   0  0.1796750E-06  0.2408022E+04  0.7818609E-02  0.8436506E-01
        3   -1    0    0  501    0  0.00000000000E+00  0.00000000000E+00  0.14012309736E+04  0.14012309772E+04  0.10100000352E+00 0.  1.
       -3   -1    0    0    0  501  0.00000000000E+00  0.00000000000E+00 -0.10345490044E+04  0.10345490093E+04  0.10100000352E+00 0. -1.
    10030    2    1    2    0    0  0.00000000000E+00  0.00000000000E+00  0.36668196916E+03  0.24357799865E+04  0.24080216935E+04 0.  0.
        5    1    3    3  502    0  0.80889718295E+03 -0.22176894278E+03  0.10570828433E+04  0.13494229671E+04  0.46999998093E+01 0.  1.
       -5    1    3    3    0  502 -0.80889718295E+03  0.22176894278E+03 -0.69040087416E+03  0.10863570194E+04  0.46999998093E+01 0. -1.
</event>
<event>
 5   0  0.1796750E-06  0.2398872E+04  0.7818609E-02  0.8439926E-01
       -3   -1    0    0    0  501  0.00000000000E+00  0.00000000000E+00  0.13816184905E+04  0.13816184942E+04  0.10100000352E+00 0.  1.
        3   -1    0    0  501    0  0.00000000000E+00  0.00000000000E+00 -0.10412763929E+04  0.10412763978E+04  0.10100000352E+00 0. -1.
    10030    2    1    2    0    0  0.00000000000E+00  0.00000000000E+00  0.34034209757E+03  0.24228948921E+04  0.23988720088E+04 0.  0.
        2    1    3    3  502    0  0.47166247287E+02 -0.98112928596E+03 -0.52505881035E+03  0.11137890667E+04  0.25500000920E-02 0. -1.
       -2    1    3    3    0  502 -0.47166247287E+02  0.98112928596E+03  0.86540090792E+03  0.13091058254E+04  0.25500000920E-02 0.  1.
</event>
<event>
 5   0  0.2254269E-06  0.2396393E+04  0.7818609E-02  0.8440855E-01
        1   -1    0    0  501    0  0.00000000000E+00  0.00000000000E+00  0.11705630237E+04  0.11705630237E+04  0.50400001928E-02 0.  1.
       -1   -1    0    0    0  501  0.00000000000E+00  0.00000000000E+00 -0.12264825136E+04  0.12264825136E+04  0.50400001928E-02 0. -1.
    10030    2    1    2    0    0  0.00000000000E+00  0.00000000000E+00 -0.55919489927E+02  0.23970455374E+04  0.23963931895E+04 0.  0.
        2    1    3    3  502    0  0.90046121857E+03  0.54164135450E+03 -0.60385019187E+03  0.12119574321E+04  0.25500000920E-02 0.  1.
       -2    1    3    3    0  502 -0.90046121857E+03 -0.54164135450E+03  0.54793070195E+03  0.11850881052E+04  0.25500000920E-02 0. -1.
</event>
<event>
 5   0  0.2297414E-06  0.2404343E+04  0.7818609E-02  0.8437879E-01
       -1   -1    0    0    0  501  0.00000000000E+00  0.00000000000E+00  0.12949132362E+04  0.12949132362E+04  0.50400001928E-02 0.  1.
        1   -1    0    0  501    0  0.00000000000E+00  0.00000000000E+00 -0.11160721232E+04  0.11160721233E+04  0.50400001928E-02 0. -1.
    10030    2    1    2    0    0  0.00000000000E+00  0.00000000000E+00  0.17884111292E+03  0.24109853594E+04  0.24043432076E+04 0.  0.
        1    1    3    3  502    0  0.75183092922E+03 -0.73864911206E+03  0.66926041831E+03  0.12485038103E+04  0.50400001928E-02 0.  1.
       -1    1    3    3    0  502 -0.75183092922E+03  0.73864911206E+03 -0.49041930539E+03  0.11624815491E+04  0.50400001928E-02 0. -1.
</event>
<event>
 5   0  0.5268358E-06  0.2399598E+04  0.7818609E-02  0.8439654E-01
       -2   -1    0    0    0  501  0.00000000000E+00  0.00000000000E+00  0.14606560390E+04  0.14606560390E+04  0.25500000920E-02 0.  1.
        2   -1    0    0  501    0  0.00000000000E+00  0.00000000000E+00 -0.98552816094E+03  0.98552816094E+03  0.25500000920E-02 0. -1.
    10030    2    1    2    0    0  0.00000000000E+00  0.00000000000E+00  0.47512787804E+03  0.24461841999E+04  0.23995980162E+04 0.  0.
        2    1    3    3  502    0  0.77652062228E+03 -0.43850725760E+03  0.10557952842E+04  0.13820190208E+04  0.25500000920E-02 0.  1.
       -2    1    3    3    0  502 -0.77652062228E+03  0.43850725760E+03 -0.58066740616E+03  0.10641651791E+04  0.25500000920E-02 0. -1.
</event>
<event>
 5   0  0.2297414E-06  0.2400506E+04  0.7818609E-02  0.8439314E-01
        1   -1    0    0  501    0  0.00000000000E+00  0.00000000000E+00  0.94560254997E+03  0.94560254999E+03  0.50400001928E-02 0. -1.
       -1   -1    0    0    0  501  0.00000000000E+00  0.00000000000E+00 -0.15234813116E+04  0.15234813117E+04  0.50400001928E-02 0.  1.
    10030    2    1    2    0    0  0.00000000000E+00  0.00000000000E+00 -0.57787876167E+03  0.24690838616E+04  0.24005064575E+04 0.  0.
        1    1    3    3  502    0  0.10684046462E+04 -0.41932006132E+03 -0.65009710573E+03  0.13190693874E+04  0.50400001928E-02 0. -1.
       -1    1    3    3    0  502 -0.10684046462E+04  0.41932006132E+03  0.72218344056E+02  0.11500144743E+04  0.50400001928E-02 0.  1.
</event>
<event>
 5   0  0.2254269E-06  0.2415369E+04  0.7818609E-02  0.8433772E-01
        1   -1    0    0  501    0  0.00000000000E+00  0.00000000000E+00  0.12575669254E+04  0.12575669254E+04  0.50400001928E-02 0.  1.
       -1   -1    0    0    0  501  0.00000000000E+00  0.00000000000E+00 -0.11597803935E+04  0.11597803935E+04  0.50400001928E-02 0. -1.
    10030    2    1    2    0    0  0.00000000000E+00  0.00000000000E+00  0.97786531866E+02  0.24173473190E+04  0.24153686788E+04 0.  0.
        2    1    3    3  502    0 -0.95932832322E+03 -0.12268781277E+03  0.77276879423E+03  0.12379558718E+04  0.25500000920E-02 0.  1.
       -2    1    3    3    0  502  0.95932832322E+03  0.12268781277E+03 -0.67498226237E+03  0.11793914472E+04  0.25500000920E-02 0. -1.
</event>
<event>
 5   0  0.2215700E-06  0.2400909E+04  0.7818609E-02  0.8439163E-01
       -1   -1    0    0    0  501  0.00000000000E+00  0.00000000000E+00  0.83396200208E+03  0.83396200210E+03  0.50400001928E-02 0. -1.
        1   -1    0    0  501    0  0.00000000000E+00  0.00000000000E+00 -0.17280052545E+04  0.17280052545E+04  0.50400001928E-02 0.  1.
    10030    2    1    2    0    0  0.00000000000E+00  0.00000000000E+00 -0.89404325237E+03  0.25619672566E+04  0.24009087626E+04 0.  0.
        3    1    3    3  502    0  0.28861493228E+03  0.12863410878E+03 -0.16828325811E+04  0.17122414606E+04  0.10100000352E+00 0.  1.
       -3    1    3    3    0  502 -0.28861493228E+03 -0.12863410878E+03  0.78878932872E+03  0.84972579600E+03  0.10100000352E+00 0. -1.
</event>
<event>
 5   0  0.1796750E-06  0.2399909E+04  0.7818609E-02  0.8439538E-01
        3   -1    0    0  501    0  0.00000000000E+00  0.00000000000E+00  0.13906881677E+04  0.13906881714E+04  0.10100000352E+00 0.  1.
       -3   -1    0    0    0  501  0.00000000000E+00  0.00000000000E+00 -0.10353796733E+04  0.10353796782E+04  0.10100000352E+00 0. -1.
    10030    2    1    2    0    0  0.00000000000E+00  0.00000000000E+00  0.35530849445E+03  0.24260678496E+04  0.23999085575E+04 0.  0.
        3    1    3    3  502    0  0.98282320008E+03  0.66765856725E+03  0.34735561305E+03  0.12378874493E+04  0.10100000352E+00 0. -1.
       -3    1    3    3    0  502 -0.98282320008E+03 -0.66765856725E+03  0.79528814001E+01  0.11881804003E+04  0.10100000352E+00 0.  1.
</event>
<event>
 5   0  0.2149417E-06  0.2381615E+04  0.7818609E-02  0.8446419E-01
        1   -1    0    0  501    0  0.00000000000E+00  0.00000000000E+00  0.24703740466E+04  0.24703740467E+04  0.50400001928E-02 0.  1.
       -1   -1    0    0    0  501  0.00000000000E+00  0.00000000000E+00 -0.57401111016E+03  0.57401111018E+03  0.50400001928E-02 0. -1.
    10030    2    1    2    0    0  0.00000000000E+00  0.00000000000E+00  0.18963629365E+04  0.30443851568E+04  0.23816147036E+04 0.  0.
        5    1    3    3  502    0  0.45814483589E+03  0.47106226293E+03 -0.32125628330E+03  0.73145337224E+03  0.46999998093E+01 0. -1.
       -5    1    3    3    0  502 -0.45814483589E+03 -0.47106226293E+03  0.22176192198E+04  0.23129317846E+04  0.46999998093E+01 0.  1.
</event>
<event>
 5   0  0.5268358E-06  0.2399407E+04  0.7818609E-02  0.8439726E-01
        2   -1    0    0  501    0  0.00000000000E+00  0.00000000000E+00  0.18975728094E+04  0.18975728094E+04  0.25500000920E-02 0.  1.
       -2   -1    0    0    0  501  0.00000000000E+00  0.00000000000E+00 -0.75848897226E+03  0.75848897226E+03  0.25500000920E-02 0. -1.
    10030    2    1    2    0    0  0.00000000000E+00  0.00000000000E+00  0.11390838372E+04  0.26560617817E+04  0.23994066350E+04 0.  0.
        2    1    3    3  502    0  0.10254199989E+04  0.62151442023E+03  0.61272354743E+03  0.13465498484E+04  0.25500000920E-02 0.  1.
       -2    1    3    3    0  502 -0.10254199989E+04 -0.62151442023E+03  0.52636028974E+03  0.13095119333E+04  0.25500000920E-02 0. -1.
</event>
<event>
 5   0  0.1796750E-06  0.2408067E+04  0.7818609E-02  0.8436489E-01
       -3   -1    0    0    0  501  0.00000000000E+00  0.00000000000E+00  0.21186292061E+04  0.21186292085E+04  0.10100000352E+00 0.  1.
        3   -1    0    0  501    0  0.00000000000E+00  0.00000000000E+00 -0.68426181282E+03  0.68426182027E+03  0.10100000352E+00 0. -1.
    10030    2    1    2    0    0  0.00000000000E+00  0.00000000000E+00  0.14343673933E+04  0.28028910288E+04  0.24080673372E+04 0.  0.
        5    1    3    3  502    0  0.11489535680E+04  0.31401997900E+03  0.51233973387E+03  0.12966175001E+04  0.46999998093E+01 0. -1.
       -5    1    3    3    0  502 -0.11489535680E+04 -0.31401997900E+03  0.92202765945E+03  0.15062735287E+04  0.46999998093E+01 0.  1.
</event>
<event>
 5   0  0.2297414E-06  0.2406120E+04  0.7818609E-02  0.8437216E-01
       -1   -1    0    0    0  501  0.00000000000E+00  0.00000000000E+00  0.15377765865E+04  0.15377765865E+04  0.50400001928E-02 0. -1.
        1   -1    0    0  501    0  0.00000000000E+00  0.00000000000E+00 -0.94119842422E+03  0.94119842423E+03  0.50400001928E-02 0.  1.
    10030    2    1    2    0    0  0.00000000000E+00  0.00000000000E+00  0.59657816231E+03  0.24789750108E+04  0.24061196147E+04 0.  0.
        1    1    3    3  502    0  0.33663792792E+03  0.20749105202E+03  0.14689035742E+04  0.15212019398E+04  0.50400001928E-02 0. -1.
       -1    1    3    3    0  502 -0.33663792792E+03 -0.20749105202E+03 -0.87232541193E+03  0.95777307098E+03  0.50400001928E-02 0.  1.
</event>
<event>
 5   0  0.5268358E-06  0.2398454E+04  0.7818609E-02  0.8440082E-01
        2   -1    0    0  501    0  0.00000000000E+00  0.00000000000E+00  0.14689421311E+04  0.14689421311E+04  0.25500000920E-02 0.  1.
       -2   -1    0    0    0  501  0.00000000000E+00  0.00000000000E+00 -0.97903504530E+03  0.97903504531E+03  0.25500000920E-02 0. -1.
    10030    2    1    2    0    0  0.00000000000E+00  0.00000000000E+00  0.48990708582E+03  0.24479771764E+04  0.23984543572E+04 0.  0.
        2    1    3    3  502    0 -0.48477226141E+03 -0.10804481449E+04  0.51909439240E+02  0.11853551912E+04  0.25500000920E-02 0. -1.
       -2    1    3    3    0  502  0.48477226141E+03  0.10804481449E+04  0.43799764658E+03  0.12626219853E+04  0.25500000920E-02 0.  1.
</event>
<event>
 5   0  0.2254269E-06  0.2400560E+04  0.7818609E-02  0.8439294E-01
       -1   -1    0    0    0  501  0.00000000000E+00  0.00000000000E+00  0.83626989619E+03  0.83626989620E+03  0.50400001928E-02 0.  1.
        1   -1    0    0  501    0  0.00000000000E+00  0.00000000000E+00 -0.17227364795E+04  0.17227364795E+04  0.50400001928E-02 0. -1.
    10030    2    1    2    0    0  0.00000000000E+00  0.00000000000E+00 -0.88646658329E+03  0.25590063757E+04  0.24005604820E+04 0.  0.
        2    1    3    3  502    0 -0.15585783634E+03 -0.10319348379E+04  0.18876531080E+03  0.10605722594E+04  0.25500000920E-02 0.  1.
       -2    1    3    3    0  502  0.15585783634E+03  0.10319348379E+04 -0.10752318941E+04  0.14984341163E+04  0.25500000920E-02 0. -1.
</event>
<event>
 5   0  0.2254269E-06  0.2406177E+04  0.7818609E-02  0.8437195E-01
        1   -1    0    0  501    0  0.00000000000E+00  0.00000000000E+00  0.24164942091E+04  0.24164942091E+04  0.50400001928E-02 0.  1.
       -1   -1    0    0    0  501  0.00000000000E+00  0.00000000000E+00 -0.59897605221E+03  0.59897605223E+03  0.50400001928E-02 0. -1.
    10030    2    1    2    0    0  0.00000000000E+00  0.00000000000E+00  0.18175181569E+04  0.30154702613E+04  0.24061771852E+04 0.  0.
        2    1    3    3  502    0  0.45872693551E+03 -0.27300760432E+03 -0.44243021135E+03  0.69333112241E+03  0.25500000920E-02 0. -1.
       -2    1    3    3    0  502 -0.45872693551E+03  0.27300760432E+03  0.22599483682E+04  0.23221391389E+04  0.25500000920E-02 0.  1.
</event>
<event>
 5   0  0.2149029E-06  0.2401998E+04  0.7818609E-02  0.8438756E-01
        1   -1    0    0  501    0  0.00000000000E+00  0.00000000000E+00  0.10855710678E+04  0.10855710678E+04  0.50400001928E-02 0.  1.
       -1   -1    0    0    0  501  0.00000000000E+00  0.00000000000E+00 -0.13287004709E+04  0.13287004709E+04  0.50400001928E-02 0. -1.
    10030    2    1    2    0    0  0.00000000000E+00  0.00000000000E+00 -0.24312940313E+03  0.24142715388E+04  0.24019981591E+04 0.  0.
        4    1    3    3  502    0  0.55764696754E+03  0.66395468019E+03 -0.95682909874E+03  0.12912511355E+04  0.12699999809E+01 0. -1.
       -4    1    3    3    0  502 -0.55764696754E+03 -0.66395468019E+03  0.71369969562E+03  0.11230204033E+04  0.12699999809E+01 0.  1.
</event>
<event>
 5   0  0.2149029E-06  0.2401844E+04  0.7818609E-02  0.8438813E-01
       -1   -1    0    0    0  501  0.00000000000E+00  0.00000000000E+00  0.15559933110E+04  0.15559933110E+04  0.50400001928E-02 0.  1.
        1   -1    0    0  501    0  0.00000000000E+00  0.00000000000E+00 -0.92687664909E+03  0.92687664910E+03  0.50400001928E-02 0. -1.
    10030    2    1    2    0    0  0.00000000000E+00  0.00000000000E+00  0.62911666193E+03  0.24828699601E+04  0.24018441799E+04 0.  0.
        4    1    3    3  502    0  0.90251042152E+03 -0.74347171634E+03  0.59753934230E+03  0.13131375147E+04  0.12699999809E+01 0.  1.
       -4    1    3    3    0  502 -0.90251042152E+03  0.74347171634E+03  0.31577319635E+02  0.11697324455E+04  0.12699999809E+01 0. -1.
</event>
<event>
 5   0  0.2149417E-06  0.2403590E+04  0.7818609E-02  0.8438161E-01
       -1   -1    0    0    0  501  0.00000000000E+00  0.00000000000E+00  0.11780246172E+04  0.11780246172E+04  0.50400001928E-02 0.  1.
        1   -1    0    0  501    0  0.00000000000E+00  0.00000000000E+00 -0.12260450217E+04  0.12260450217E+04  0.50400001928E-02 0. -1.
    10030    2    1    2    0    0  0.00000000000E+00  0.00000000000E+00 -0.48020404457E+02  0.24040696389E+04  0.24035899961E+04 0.  0.
        5    1    3    3  502    0  0.66642664915E+03 -0.27656229344E+03 -0.98528364306E+03  0.12212359019E+04  0.46999998093E+01 0. -1.
       -5    1    3    3    0  502 -0.66642664915E+03  0.27656229344E+03  0.93726323861E+03  0.11828337370E+04  0.46999998093E+01 0.  1.
</event>
<event>
 5   0  0.2215700E-06  0.2400063E+04  0.7818609E-02  0.8439480E-01
       -1   -1    0    0    0  501  0.00000000000E+00  0.00000000000E+00  0.73552101825E+03  0.73552101827E+03  0.50400001928E-02 0. -1.
        1   -1    0    0  501    0  0.00000000000E+00  0.00000000000E+00 -0.19578994264E+04  0.19578994264E+04  0.50400001928E-02 0.  1.
    10030    2    1    2    0    0  0.00000000000E+00  0.00000000000E+00 -0.12223784082E+04  0.26934204447E+04  0.24000634823E+04 0.  0.
        3    1    3    3  502    0 -0.47087674709E+03 -0.76038505715E+03 -0.15090885717E+04  0.17542116957E+04  0.10100000352E+00 0.  1.
       -3    1    3    3    0  502  0.47087674709E+03  0.76038505715E+03  0.28671016350E+03  0.93920874897E+03  0.10100000352E+00 0. -1.
</event>
<event>
 5   0  0.5379778E-06  0.2396674E+04  0.7818609E-02  0.8440750E-01
       -2   -1    0    0    0  501  0.00000000000E+00  0.00000000000E+00  0.93283423240E+03  0.93283423241E+03  0.25500000920E-02 0.  1.
        2   -1    0    0  501    0  0.00000000000E+00  0.00000000000E+00 -0.15394069351E+04  0.15394069351E+04  0.25500000920E-02 0. -1.
    10030    2    1    2    0    0  0.00000000000E+00  0.00000000000E+00 -0.60657270266E+03  0.24722411675E+04  0.23966739341E+04 0.  0.
        5    1    3    3  502    0 -0.45927025711E+03 -0.78304963258E+03 -0.11101865111E+04  0.14340962574E+04  0.46999998093E+01 0. -1.
       -5    1    3    3    0  502  0.45927025711E+03  0.78304963258E+03  0.50361380846E+03  0.10381449100E+04  0.46999998093E+01 0.  1.
</event>
<event>
 5   0  0.2149417E-06  0.2401385E+04  0.7818609E-02  0.8438985E-01
       -1   -1    0    0    0  501  0.00000000000E+00  0.00000000000E+00  0.15725220374E+04  0.15725220374E+04  0.50400001928E-02 0.  1.
        1   -1    0    0  501    0  0.00000000000E+00  0.00000000000E+00 -0.91678385856E+03  0.91678385858E+03  0.50400001928E-02 0. -1.
    10030    2    1    2    0    0  0.00000000000E+00  0.00000000000E+00  0.65573817884E+03  0.24893058960E+04  0.24013852845E+04 0.  0.
        5    1    3    3  502    0  0.18922786232E+03  0.43093048782E+03  0.14729071262E+04  0.15462812686E+04  0.46999998093E+01 0.  1.
       -5    1    3    3    0  502 -0.18922786232E+03 -0.43093048782E+03 -0.81716894740E+03  0.94302462735E+03  0.46999998093E+01 0. -1.
</event>
<event>
 5   0  0.5349036E-06  0.2401263E+04  0.7818609E-02  0.8439031E-01
       -2   -1    0    0    0  501  0.00000000000E+00  0.00000000000E+00  0.74457232343E+03  0.74457232343E+03  0.25500000920E-02 0.  1.
        2   -1    0    0  501    0  0.00000000000E+00  0.00000000000E+00 -0.19360318840E+04  0.19360318840E+04  0.25500000920E-02 0. -1.
    10030    2    1    2    0    0  0.00000000000E+00  0.00000000000E+00 -0.11914595606E+04  0.26806042074E+04  0.24012627995E+04 0.  0.
        1    1    3    3  502    0 -0.22275829919E+03 -0.11743144350E+04 -0.72242280998E+03  0.13966138938E+04  0.50400001928E-02 0. -1.
       -1    1    3    3    0  502  0.22275829919E+03  0.11743144350E+04 -0.46903675060E+03  0.12839903136E+04  0.50400001928E-02 0.  1.
</event>
<event>
 5   0  0.2215700E-06  0.2400059E+04  0.7818609E-02  0.8439482E-01
       -1   -1    0    0    0  501  0.00000000000E+00  0.00000000000E+00  0.73558732995E+03  0.73558732997E+03  0.50400001928E-02 0. -1.
        1   -1    0    0  501    0  0.00000000000E+00  0.00000000000E+00 -0.19577150190E+04  0.19577150190E+04  0.50400001928E-02 0.  1.
    10030    2    1    2    0    0  0.00000000000E+00  0.00000000000E+00 -0.12221276891E+04  0.26933023490E+04  0.24000586357E+04 0.  0.
        3    1    3    3  502    0  0.64584861916E+03  0.10031022960E+04 -0.75623661885E+03  0.14125255711E+04  0.10100000352E+00 0. -1.
       -3    1    3    3    0  502 -0.64584861916E+03 -0.10031022960E+04 -0.46589107020E+03  0.12807767779E+04  0.10100000352E+00 0.  1.
</event>
<event>
 5   0  0.2149029E-06  0.2391359E+04  0.7818609E-02  0.8442746E-01
        1   -1    0    0  501    0  0.00000000000E+00  0.00000000000E+00  0.14421521653E+04  0.14421521653E+04  0.50400001928E-02 0. -1.
       -1   -1    0    0    0  501  0.00000000000E+00  0.00000000000E+00 -0.99133012945E+03  0.99133012946E+03  0.50400001928E-02 0.  1.
    10030    2    1    2    0    0  0.00000000000E+00  0.00000000000E+00  0.45082203584E+03  0.24334822948E+04  0.23913585199E+04 0.  0.
        4    1    3    3  502    0 -0.75720042111E+03  0.15191234506E+02 -0.71612431694E+03  0.10423142048E+04  0.12699999809E+01 0.  1.
       -4    1    3    3    0  502  0.75720042111E+03 -0.15191234506E+02  0.11669463528E+04  0.13911680900E+04  0.12699999809E+01 0. -1.
</event>
<event>
 5   0  0.5349036E-06  0.2399131E+04  0.7818609E-02  0.8439829E-01
        2   -1    0    0  501    0  0.00000000000E+00  0.00000000000E+00  0.94027178359E+03  0.94027178360E+03  0.25500000920E-02 0.  1.
       -2   -1    0    0    0  501  0.00000000000E+00  0.00000000000E+00 -0.15303631584E+04  0.15303631584E+04  0.25500000920E-02 0. -1.
    10030    2    1    2    0    0  0.00000000000E+00  0.00000000000E+00 -0.59009137477E+03  0.24706349420E+04  0.23991309230E+04 0.  0.
        1    1    3    3  502    0 -0.58454612849E+03  0.23530883162E+03  0.75610787051E+03  0.98425785973E+03  0.50400001928E-02 0.  1.
       -1    1    3    3    0  502  0.58454612849E+03 -0.23530883162E+03 -0.13461992453E+04  0.14863770822E+04  0.50400001928E-02 0. -1.
</event>
<event>
 5   0  0.5379778E-06  0.2400453E+04  0.7818609E-02  0.8439334E-01
       -2   -1    0    0    0  501  0.00000000000E+00  0.00000000000E+00  0.10553879185E+04  0.10553879185E+04  0.25500000920E-02 0.  1.
        2   -1    0    0  501    0  0.00000000000E+00  0.00000000000E+00 -0.13649418576E+04  0.13649418576E+04  0.25500000920E-02 0. -1.
    10030    2    1    2    0    0  0.00000000000E+00  0.00000000000E+00 -0.30955393910E+03  0.24203297760E+04  0.24004525789E+04 0.  0.
        5    1    3    3  502    0  0.64866108442E+03 -0.79756931536E+03 -0.77929513469E+03  0.12900391514E+04  0.46999998093E+01 0. -1.
       -5    1    3    3    0  502 -0.64866108442E+03  0.79756931536E+03  0.46974119559E+03  0.11302906246E+04  0.46999998093E+01 0.  1.
</event>
<event>
 5   0  0.5349036E-06  0.2401492E+04  0.7818609E-02  0.8438945E-01
       -2   -1    0    0    0  501  0.00000000000E+00  0.00000000000E+00  0.90447896550E+03  0.90447896550E+03  0.25500000920E-02 0.  1.
        2   -1    0    0  501    0  0.00000000000E+00  0.00000000000E+00 -0.15940570375E+04  0.15940570375E+04  0.25500000920E-02 0. -1.
    10030    2    1    2    0    0  0.00000000000E+00  0.00000000000E+00 -0.68957807197E+03  0.24985360030E+04  0.24014920864E+04 0.  0.
        1    1    3    3  502    0 -0.69601516092E+03 -0.53629026760E+03  0.50666213044E+03  0.10142735675E+04  0.50400001928E-02 0.  1.
       -1    1    3    3    0  502  0.69601516092E+03  0.53629026760E+03 -0.11962402024E+04  0.14842624354E+04  0.50400001928E-02 0. -1.
</event>
<event>
 5   0  0.5440503E-06  0.2395861E+04  0.7818609E-02  0.8441055E-01
       -2   -1    0    0    0  501  0.00000000000E+00  0.00000000000E+00  0.86208635728E+03  0.86208635729E+03  0.25500000920E-02 0. -1.
        2   -1    0    0  501    0  0.00000000000E+00  0.00000000000E+00 -0.16646104292E+04  0.16646104292E+04  0.25500000920E-02 0.  1.
    10030    2    1    2    0    0  0.00000000000E+00  0.00000000000E+00 -0.80252407188E+03  0.25266967864E+04  0.23958613826E+04 0.  0.
        3    1    3    3  502    0  0.11564480967E+04 -0.21889852676E+02 -0.72490238127E+02  0.11589245924E+04  0.10100000352E+00 0. -1.
       -3    1    3    3    0  502 -0.11564480967E+04  0.21889852676E+02 -0.73003383375E+03  0.13677721940E+04  0.10100000352E+00 0.  1.
</event>
<event>
 5   0  0.5268358E-06  0.2401696E+04  0.7818609E-02  0.8438869E-01
       -2   -1    0    0    0  501  0.00000000000E+00  0.00000000000E+00  0.68567298634E+03  0.68567298635E+03  0.25500000920E-02 0. -1.
        2   -1    0    0  501    0  0.00000000000E+00  0.00000000000E+00 -0.21030956058E+04  0.21030956058E+04  0.25500000920E-02 0.  1.
    10030    2    1    2    0    0  0.00000000000E+00  0.00000000000E+00 -0.14174226194E+04  0.27887685921E+04  0.24016959379E+04 0.  0.
        2    1    3    3  502    0  0.77235184153E+03 -0.91794245187E+03 -0.64628705976E+03  0.13626564775E+04  0.25500000920E-02 0.  1.
       -2    1    3    3    0  502 -0.77235184153E+03  0.91794245187E+03 -0.77113555967E+03  0.14261121146E+04  0.25500000920E-02 0. -1.
</event>
<event>
 5   0  0.5349036E-06  0.2404505E+04  0.7818609E-02  0.8437819E-01
       -2   -1    0    0    0  501  0.00000000000E+00  0.00000000000E+00  0.87285930765E+03  0.87285930765E+03  0.25500000920E-02 0.  1.
        2   -1    0    0  501    0  0.00000000000E+00  0.00000000000E+00 -0.16559503473E+04  0.16559503473E+04  0.25500000920E-02 0. -1.
    10030    2    1    2    0    0  0.00000000000E+00  0.00000000000E+00 -0.78309103965E+03  0.25288096550E+04  0.24045054990E+04 0.  0.
        1    1    3    3  502    0  0.29534005673E+03  0.94453259711E+03 -0.11095115100E+04  0.14867358094E+04  0.50400001928E-02 0. -1.
       -1    1    3    3    0  502 -0.29534005673E+03 -0.94453259711E+03  0.32642047035E+03  0.10420738456E+04  0.50400001928E-02 0.  1.
</event>
<event>
 5   0  0.2149417E-06  0.2394028E+04  0.7818609E-02  0.8441743E-01
       -1   -1    0    0    0  501  0.00000000000E+00  0.00000000000E+00  0.74138897441E+03  0.74138897442E+03  0.50400001928E-02 0. -1.
        1   -1    0    0  501    0  0.00000000000E+00  0.00000000000E+00 -0.19326467613E+04  0.19326467613E+04  0.50400001928E-02 0.  1.
    10030    2    1    2    0    0  0.00000000000E+00  0.00000000000E+00 -0.11912577869E+04  0.26740357358E+04  0.23940284044E+04 0.  0.
        5    1    3    3  502    0 -0.57493230998E+03  0.92185563192E+03 -0.11568457508E+04  0.15870347029E+04  0.46999998093E+01 0.  1.
       -5    1    3    3    0  502  0.57493230998E+03 -0.92185563192E+03 -0.34412036127E+02  0.10870010328E+04  0.46999998093E+01 0. -1.
</event>
<event>
 5   0  0.2149417E-06  0.2401164E+04  0.7818609E-02  0.8439068E-01
       -1   -1    0    0    0  501  0.00000000000E+00  0.00000000000E+00  0.82550579385E+03  0.82550579386E+03  0.50400001928E-02 0.  1.
        1   -1    0    0  501    0  0.00000000000E+00  0.00000000000E+00 -0.17460781519E+04  0.17460781520E+04  0.50400001928E-02 0. -1.
    10030    2    1    2    0    0  0.00000000000E+00  0.00000000000E+00 -0.92057235810E+03  0.25715839458E+04  0.24011644100E+04 0.  0.
        5    1    3    3  502    0 -0.29442997992E+03  0.30326692595E+03 -0.16637460080E+04  0.17166049955E+04  0.46999998093E+01 0. -1.
       -5    1    3    3    0  502  0.29442997992E+03 -0.30326692595E+03  0.74317364994E+03  0.85497895028E+03  0.46999998093E+01 0.  1.
</event>
<event>
 5   0  0.5268358E-06  0.2403899E+04  0.7818609E-02  0.8438045E-01
        2   -1    0    0  501    0  0.00000000000E+00  0.00000000000E+00  0.12206112153E+04  0.12206112153E+04  0.25500000920E-02 0.  1.
       -2   -1    0    0    0  501  0.00000000000E+00  0.00000000000E+00 -0.11835727528E+04  0.11835727528E+04  0.25500000920E-02 0. -1.
    10030    2    1    2    0    0  0.00000000000E+00  0.00000000000E+00  0.37038462458E+02  0.24041839680E+04  0.24038986469E+04 0.  0.
        2    1    3    3  502    0  0.94469610774E+03  0.56211095289E+03  0.50464555701E+03  0.12095811662E+04  0.25500000920E-02 0.  1.
       -2    1    3    3    0  502 -0.94469610774E+03 -0.56211095289E+03 -0.46760709456E+03  0.11946028019E+04  0.25500000920E-02 0. -1.
</event>
<event>
 5   0  0.2215700E-06  0.2399807E+04  0.7818609E-02  0.8439576E-01
       -1   -1    0    0    0  501  0.00000000000E+00  0.00000000000E+00  0.85078772766E+03  0.85078772768E+03  0.50400001928E-02 0.  1.
        1   -1    0    0  501    0  0.00000000000E+00  0.00000000000E+00 -0.16922774693E+04  0.16922774693E+04  0.50400001928E-02 0. -1.
    10030    2    1    2    0    0  0.00000000000E+00  0.00000000000E+00 -0.84148974164E+03  0.25430651970E+04  0.23998074112E+04 0.  0.
        3    1    3    3  502    0  0.45010065274E+03  0.72608080901E+03  0.47216099647E+03  0.97607374496E+03  0.10100000352E+00 0.  1.
       -3    1    3    3    0  502 -0.45010065274E+03 -0.72608080901E+03 -0.13136507381E+04  0.15669914520E+04  0.10100000352E+00 0. -1.
</event>
<event>
 5   0  0.2149417E-06  0.2410224E+04  0.7818609E-02  0.8435686E-01
        1   -1    0    0  501    0  0.00000000000E+00  0.00000000000E+00  0.95494294826E+03  0.95494294828E+03  0.50400001928E-02 0.  1.
       -1   -1    0    0    0  501  0.00000000000E+00  0.00000000000E+00 -0.15208183400E+04  0.15208183400E+04  0.50400001928E-02 0. -1.
    10030    2    1    2    0    0  0.00000000000E+00  0.00000000000E+00 -0.56587539174E+03  0.24757612883E+04  0.24102238480E+04 0.  0.
        5    1    3    3  502    0  0.99362157263E+03 -0.49173111230E+03 -0.76821291628E+03  0.13487981655E+04  0.46999998093E+01 0. -1.
       -5    1    3    3    0  502 -0.99362157263E+03  0.49173111230E+03  0.20233752454E+03  0.11269631228E+04  0.46999998093E+01 0.  1.
</event>
<event>
 5   0  0.2254269E-06  0.2399174E+04  0.7818609E-02  0.8439813E-01
        1   -1    0    0  501    0  0.00000000000E+00  0.00000000000E+00  0.78747200247E+03  0.78747200249E+03  0.50400001928E-02 0.  1.
       -1   -1    0    0    0  501  0.00000000000E+00  0.00000000000E+00 -0.18273779803E+04  0.18273779804E+04  0.50400001928E-02 0. -1.
    10030    2    1    2    0    0  0.00000000000E+00  0.00000000000E+00 -0.10399059779E+04  0.26148499828E+04  0.23991740224E+04 0.  0.
        2    1    3    3  502    0  0.69303577091E+03  0.41047577928E+03  0.44890260372E+03  0.92211848087E+03  0.25500000920E-02 0.  1.
       -2    1    3    3    0  502 -0.69303577091E+03 -0.41047577928E+03 -0.14888085816E+04  0.16927315020E+04  0.25500000920E-02 0. -1.
</event>
<event>
 5   0  0.5440503E-06  0.2400508E+04  0.7818609E-02  0.8439313E-01
        2   -1    0    0  501    0  0.00000000000E+00  0.00000000000E+00  0.20472730575E+04  0.20472730575E+04  0.25500000920E-02 0. -1.
       -2   -1    0    0    0  501  0.00000000000E+00  0.00000000000E+00 -0.70367260299E+03  0.70367260300E+03  0.25500000920E-02 0.  1.
    10030    2    1    2    0    0  0.00000000000E+00  0.00000000000E+00  0.13436004546E+04  0.27509456605E+04  0.24005082474E+04 0.  0.
        3    1    3    3  502    0 -0.55379636789E+03  0.62666810312E+03 -0.31481645613E+03  0.89359540051E+03  0.10100000352E+00 0.  1.
       -3    1    3    3    0  502  0.55379636789E+03 -0.62666810312E+03  0.16584169107E+04  0.18573502600E+04  0.10100000352E+00 0. -1.
</event>
<event>
 5   0  0.1796750E-06  0.2402115E+04  0.7818609E-02  0.8438712E-01
       -3   -1    0    0    0  501  0.00000000000E+00  0.00000000000E+00  0.64520267811E+03  0.64520268601E+03  0.10100000352E+00 0.  1.
        3   -1    0    0  501    0  0.00000000000E+00  0.00000000000E+00 -0.22357925551E+04  0.22357925574E+04  0.10100000352E+00 0. -1.
    10030    2    1    2    0    0  0.00000000000E+00  0.00000000000E+00 -0.15905898770E+04  0.28809952434E+04  0.24021152003E+04 0.  0.
        2    1    3    3  502    0 -0.64070693629E+03 -0.85751211533E+03 -0.14485948081E+04  0.18011827570E+04  0.25500000920E-02 0. -1.
       -2    1    3    3    0  502  0.64070693629E+03  0.85751211533E+03 -0.14199506891E+03  0.10798124864E+04  0.25500000920E-02 0.  1.
</event>
<event>
 5   0  0.5268358E-06  0.2415638E+04  0.7818609E-02  0.8433672E-01
        2   -1    0    0  501    0  0.00000000000E+00  0.00000000000E+00  0.23570142028E+04  0.23570142028E+04  0.25500000920E-02 0.  1.
       -2   -1    0    0    0  501  0.00000000000E+00  0.00000000000E+00 -0.61892987983E+03  0.61892987983E+03  0.25500000920E-02 0. -1.
    10030    2    1    2    0    0  0.00000000000E+00  0.00000000000E+00  0.17380843230E+04  0.29759440826E+04  0.24156378183E+04 0.  0.
        2    1    3    3  502    0  0.40393779189E+03  0.52155467330E+03 -0.37738495552E+03  0.76000290896E+03  0.25500000920E-02 0. -1.
       -2    1    3    3    0  502 -0.40393779189E+03 -0.52155467330E+03  0.21154692785E+04  0.22159411737E+04  0.25500000920E-02 0.  1.
</event>
<event>
 5   0  0.2215700E-06  0.2395899E+04  0.7818609E-02  0.8441040E-01
        1   -1    0    0  501    0  0.00000000000E+00  0.00000000000E+00  0.13930769765E+04  0.13930769765E+04  0.50400001928E-02 0. -1.
       -1   -1    0    0    0  501  0.00000000000E+00  0.00000000000E+00 -0.10301535331E+04  0.10301535331E+04  0.50400001928E-02 0.  1.
    10030    2    1    2    0    0  0.00000000000E+00  0.00000000000E+00  0.36292344337E+03  0.24232305096E+04  0.23958991374E+04 0.  0.
        3    1    3    3  502    0 -0.65112468620E+03 -0.55496890594E+03  0.10295553488E+04  0.13386329109E+04  0.10100000352E+00 0. -1.
       -3    1    3    3    0  502  0.65112468620E+03  0.55496890594E+03 -0.66663190546E+03  0.10845975987E+04  0.10100000352E+00 0.  1.
</event>
<event>
 5   0  0.5440503E-06  0.2399775E+04  0.7818609E-02  0.8439588E-01
        2   -1    0    0  501    0  0.00000000000E+00  0.00000000000E+00  0.19419066443E+04  0.19419066443E+04  0.25500000920E-02 0.  1.
       -2   -1    0    0    0  501  0.00000000000E+00  0.00000000000E+00 -0.74140041471E+03  0.74140041471E+03  0.25500000920E-02 0. -1.
    10030    2    1    2    0    0  0.00000000000E+00  0.00000000000E+00  0.12005062296E+04  0.26833070590E+04  0.23997753156E+04 0.  0.
        3    1    3    3  502    0 -0.66469727604E+03 -0.91998777934E+03  0.16499219674E+03  0.11469186624E+04  0.10100000352E+00 0. -1.
       -3    1    3    3    0  502  0.66469727604E+03  0.91998777934E+03  0.10355140328E+04  0.15363883966E+04  0.10100000352E+00 0.  1.
</event>
<event>
 5   0  0.2254269E-06  0.2398356E+04  0.7818609E-02  0.8440119E-01
       -1   -1    0    0    0  501  0.00000000000E+00  0.00000000000E+00  0.13271736459E+04  0.13271736459E+04  0.50400001928E-02 0. -1.
        1   -1    0    0  501    0  0.00000000000E+00  0.00000000000E+00 -0.10835262824E+04  0.10835262825E+04  0.50400001928E-02 0.  1.
    10030    2    1    2    0    0  0.00000000000E+00  0.00000000000E+00  0.24364736342E+03  0.24106999283E+04  0.23983557090E+04 0.  0.
        2    1    3    3  502    0 -0.13650717320E+03 -0.11481639218E+04 -0.19779554822E+03  0.11730463242E+04  0.25500000920E-02 0.  1.
       -2    1    3    3    0  502  0.13650717320E+03  0.11481639218E+04  0.44144291164E+03  0.12376536042E+04  0.25500000920E-02 0. -1.
</event>
<event>
 5   0  0.2149417E-06  0.2400187E+04  0.7818609E-02  0.8439434E-01
       -1   -1    0    0    0  501  0.00000000000E+00  0.00000000000E+00  0.66589863573E+03  0.66589863575E+03  0.50400001928E-02 0.  1.
        1   -1    0    0  501    0  0.00000000000E+00  0.00000000000E+00 -0.21628280858E+04  0.21628280858E+04  0.50400001928E-02 0. -1.
    10030    2    1    2    0    0  0.00000000000E+00  0.00000000000E+00 -0.14969294501E+04  0.28287267216E+04  0.24001868858E+04 0.  0.
        5    1    3    3  502    0  0.39001763832E+03  0.74612555535E+03  0.25943884292E+03  0.88099245499E+03  0.46999998093E+01 0.  1.
       -5    1    3    3    0  502 -0.39001763832E+03 -0.74612555535E+03 -0.17563682930E+04  0.19477342666E+04  0.46999998093E+01 0. -1.
</event>
<event>
 5   0  0.2149417E-06  0.2393381E+04  0.7818609E-02  0.8441986E-01
        1   -1    0    0  501    0  0.00000000000E+00  0.00000000000E+00  0.13647668483E+04  0.13647668483E+04  0.50400001928E-02 0.  1.
       -1   -1    0    0    0  501  0.00000000000E+00  0.00000000000E+00 -0.10493138338E+04  0.10493138338E+04  0.50400001928E-02 0. -1.
    10030    2    1    2    0    0  0.00000000000E+00  0.00000000000E+00  0.31545301443E+03  0.24140806821E+04  0.23933814856E+04 0.  0.
        5    1    3    3  502    0  0.75771380933E+03 -0.35513156539E+02 -0.77583490472E+03  0.10850499023E+04  0.46999998093E+01 0. -1.
       -5    1    3    3    0  502 -0.75771380933E+03  0.35513156539E+02  0.10912879191E+04  0.13290307798E+04  0.46999998093E+01 0.  1.
</event>
<event>
 5   0  0.2254269E-06  0.2405403E+04  0.7818609E-02  0.8437483E-01
        1   -1    0    0  501    0  0.00000000000E+00  0.00000000000E+00  0.11011024851E+04  0.11011024851E+04  0.50400001928E-02 0. -1.
       -1   -1    0    0    0  501  0.00000000000E+00  0.00000000000E+00 -0.13136755688E+04  0.13136755689E+04  0.50400001928E-02 0.  1.
    10030    2    1    2    0    0  0.00000000000E+00  0.00000000000E+00 -0.21257308374E+03  0.24147780540E+04  0.24054034452E+04 0.  0.
        2    1    3    3  502    0  0.20433609208E+02 -0.75390975457E+03  0.83421790246E+03  0.11245963539E+04  0.25500000920E-02 0. -1.
       -2    1    3    3    0  502 -0.20433609208E+02  0.75390975457E+03 -0.10467909862E+04  0.12901817001E+04  0.25500000920E-02 0.  1.
</event>
<event>
 5   0  0.5371843E-06  0.2394257E+04  0.7818609E-02  0.8441657E-01
       -2   -1    0    0    0  501  0.00000000000E+00  0.00000000000E+00  0.86565577426E+03  0.86565577426E+03  0.25500000920E-02 0. -1.
        2   -1    0    0  501    0  0.00000000000E+00  0.00000000000E+00 -0.16555268396E+04  0.16555268396E+04  0.25500000920E-02 0.  1.
    10030    2    1    2    0    0  0.00000000000E+00  0.00000000000E+00 -0.78987106535E+03  0.25211826139E+04  0.23942567683E+04 0.  0.
        4    1    3    3  502    0  0.11264124181E+04 -0.29112554492E+03 -0.97926723287E+02  0.11675402668E+04  0.12699999809E+01 0. -1.
       -4    1    3    3    0  502 -0.11264124181E+04  0.29112554492E+03 -0.69194434207E+03  0.13536423471E+04  0.12699999809E+01 0.  1.
</event>
<event>
 5   0  0.2149029E-06  0.2398085E+04  0.7818609E-02  0.8440221E-01
        1   -1    0    0  501    0  0.00000000000E+00  0.00000000000E+00  0.14166174933E+04  0.14166174933E+04  0.50400001928E-02 0. -1.
       -1   -1    0    0    0  501  0.00000000000E+00  0.00000000000E+00 -0.10148844299E+04  0.10148844299E+04  0.50400001928E-02 0.  1.
    10030    2    1    2    0    0  0.00000000000E+00  0.00000000000E+00  0.40173306343E+03  0.24315019232E+04  0.23980851003E+04 0.  0.
        4    1    3    3  502    0  0.44946681923E+03 -0.92021067276E+03  0.83316956982E+03  0.13202201516E+04  0.12699999809E+01 0. -1.
       -4    1    3    3    0  502 -0.44946681923E+03  0.92021067276E+03 -0.43143650639E+03  0.11112817716E+04  0.12699999809E+01 0.  1.
</event>
<event>
 5   0  0.2149417E-06  0.2400696E+04  0.7818609E-02  0.8439243E-01
       -1   -1    0    0    0  501  0.00000000000E+00  0.00000000000E+00  0.75773694359E+03  0.75773694360E+03  0.50400001928E-02 0. -1.
        1   -1    0    0  501    0  0.00000000000E+00  0.00000000000E+00 -0.19014975186E+04  0.19014975186E+04  0.50400001928E-02 0.  1.
    10030    2    1    2    0    0  0.00000000000E+00  0.00000000000E+00 -0.11437605750E+04  0.26592344622E+04  0.24006956642E+04 0.  0.
        5    1    3    3  502    0 -0.29055256149E+03 -0.60689823795E+03  0.52918386680E+03  0.85603967029E+03  0.46999998093E+01 0. -1.
       -5    1    3    3    0  502  0.29055256149E+03  0.60689823795E+03 -0.16729444418E+04  0.18031947919E+04  0.46999998093E+01 0.  1.
</event>
<event>
 5   0  0.2254269E-06  0.2401249E+04  0.7818609E-02  0.8439036E-01
       -1   -1    0    0    0  501  0.00000000000E+00  0.00000000000E+00  0.10923648717E+04  0.10923648717E+04  0.50400001928E-02 0.  1.
        1   -1    0    0  501    0  0.00000000000E+00  0.00000000000E+00 -0.13196136802E+04  0.13196136802E+04  0.50400001928E-02 0. -1.
    10030    2    1    2    0    0  0.00000000000E+00  0.00000000000E+00 -0.22724880853E+03  0.24119785519E+04  0.24012493652E+04 0.  0.
        2    1    3    3  502    0  0.19270264905E+03 -0.16064484078E+03  0.10657420946E+04  0.10948731835E+04  0.25500000920E-02 0.  1.
       -2    1    3    3    0  502 -0.19270264905E+03  0.16064484078E+03 -0.12929909031E+04  0.13171053684E+04  0.25500000920E-02 0. -1.
</event>
<event>
 5   0  0.5349036E-06  0.2398121E+04  0.7818609E-02  0.8440207E-01
       -2   -1    0    0    0  501  0.00000000000E+00  0.00000000000E+00  0.11178541711E+04  0.11178541711E+04  0.25500000920E-02 0.  1.
        2   -1    0    0  501    0  0.00000000000E+00  0.00000000000E+00 -0.12861661998E+04  0.12861661998E+04  0.25500000920E-02 0. -1.
    10030    2    1    2    0    0  0.00000000000E+00  0.00000000000E+00 -0.16831202869E+03  0.24040203709E+04  0.23981211405E+04 0.  0.
        1    1    3    3  502    0  0.32062864674E+03  0.44663468618E+03  0.98404536102E+03  0.11272224912E+04  0.50400001928E-02 0.  1.
       -1    1    3    3    0  502 -0.32062864674E+03 -0.44663468618E+03 -0.11523573897E+04  0.12767978797E+04  0.50400001928E-02 0. -1.
</event>
<event>
 5   0  0.5440503E-06  0.2409937E+04  0.7818609E-02  0.8435793E-01
       -2   -1    0    0    0  501  0.00000000000E+00  0.00000000000E+00  0.13119517243E+04  0.13119517243E+04  0.25500000920E-02 0.  1.
        2   -1    0    0  501    0  0.00000000000E+00  0.00000000000E+00 -0.11067092434E+04  0.11067092434E+04  0.25500000920E-02 0. -1.
    10030    2    1    2    0    0  0.00000000000E+00  0.00000000000E+00  0.20524248090E+03  0.24186609677E+04  0.24099370117E+04 0.  0.
        3    1    3    3  502    0 -0.10631826008E+04  0.54106193195E+03  0.27307076396E+03  0.12237944718E+04  0.10100000352E+00 0.  1.
       -3    1    3    3    0  502  0.10631826008E+04 -0.54106193195E+03 -0.67828283062E+02  0.11948664959E+04  0.10100000352E+00 0. -1.
</event>
<event>
 5   0  0.5440503E-06  0.2399492E+04  0.7818609E-02  0.8439694E-01
       -2   -1    0    0    0  501  0.00000000000E+00  0.00000000000E+00  0.63990011722E+03  0.63990011722E+03  0.25500000920E-02 0. -1.
        2   -1    0    0  501    0  0.00000000000E+00  0.00000000000E+00 -0.22493978060E+04  0.22493978060E+04  0.25500000920E-02 0.  1.
    10030    2    1    2    0    0  0.00000000000E+00  0.00000000000E+00 -0.16094976888E+04  0.28892979233E+04  0.23994915459E+04 0.  0.
        3    1    3    3  502    0  0.79974547480E+03  0.96828780055E+02  0.26578995302E+03  0.84830003327E+03  0.10100000352E+00 0. -1.
       -3    1    3    3    0  502 -0.79974547480E+03 -0.96828780055E+02 -0.18752876418E+04  0.20409978900E+04  0.10100000352E+00 0.  1.
</event>
<event>
 5   0  0.2149029E-06  0.2400748E+04  0.7818609E-02  0.8439223E-01
        1   -1    0    0  501    0  0.00000000000E+00  0.00000000000E+00  0.15555154480E+04  0.15555154480E+04  0.50400001928E-02 0.  1.
       -1   -1    0    0    0  501  0.00000000000E+00  0.00000000000E+00 -0.92631544699E+03  0.92631544700E+03  0.50400001928E-02 0. -1.
    10030    2    1    2    0    0  0.00000000000E+00  0.00000000000E+00  0.62920000097E+03  0.24818308950E+04  0.24007482063E+04 0.  0.
        4    1    3    3  502    0 -0.60084733351E+03 -0.67715338846E+03  0.11294749735E+04  0.14475045970E+04  0.12699999809E+01 0.  1.
       -4    1    3    3    0  502  0.60084733351E+03  0.67715338846E+03 -0.50027497250E+03  0.10343262980E+04  0.12699999809E+01 0. -1.
</event>
<event>
 5   0  0.5349036E-06  0.2399584E+04  0.7818609E-02  0.8439659E-01
       -2   -1    0    0    0  501  0.00000000000E+00  0.00000000000E+00  0.94046930775E+03  0.94046930775E+03  0.25500000920E-02 0. -1.
        2   -1    0    0  501    0  0.00000000000E+00  0.00000000000E+00 -0.15306199823E+04  0.15306199823E+04  0.25500000920E-02 0.  1.
    10030    2    1    2    0    0  0.00000000000E+00  0.00000000000E+00 -0.59015067456E+03  0.24710892901E+04  0.23995842266E+04 0.  0.
        1    1    3    3  502    0 -0.71691293386E+02  0.91644959646E+03 -0.10890774398E+04  0.14251698756E+04  0.50400001928E-02 0.  1.
       -1    1    3    3    0  502  0.71691293386E+02 -0.91644959646E+03  0.49892676526E+03  0.10459194144E+04  0.50400001928E-02 0. -1.
</event>
<event>
 5   0  0.2254269E-06  0.2352116E+04  0.7818609E-02  0.8457651E-01
        1   -1    0    0  501    0  0.00000000000E+00  0.00000000000E+00  0.76376024934E+03  0.76376024936E+03  0.50400001928E-02 0.  1.
       -1   -1    0    0    0  501  0.00000000000E+00  0.00000000000E+00 -0.18109252105E+04  0.18109252105E+04  0.50400001928E-02 0. -1.
    10030    2    1    2    0    0  0.00000000000E+00  0.00000000000E+00 -0.10471649612E+04  0.25746854599E+04  0.23521162304E+04 0.  0.
        2    1    3    3  502    0 -0.39972875226E+03 -0.10162815953E+04 -0.10013475699E+04  0.14816572857E+04  0.25500000920E-02 0. -1.
       -2    1    3    3    0  502  0.39972875226E+03  0.10162815953E+04 -0.45817391219E+02  0.10930281742E+04  0.25500000920E-02 0.  1.
</event>
<event>
 5   0  0.2215700E-06  0.2368105E+04  0.7818609E-02  0.8451542E-01
        1   -1    0    0  501    0  0.00000000000E+00  0.00000000000E+00  0.16411188783E+04  0.16411188783E+04  0.50400001928E-02 0.  1.
       -1   -1    0    0    0  501  0.00000000000E+00  0.00000000000E+00 -0.85428351859E+03  0.85428351861E+03  0.50400001928E-02 0. -1.
    10030    2    1    2    0    0  0.00000000000E+00  0.00000000000E+00  0.78683535967E+03  0.24954023969E+04  0.23681054113E+04 0.  0.
        3    1    3    3  502    0  0.80949769943E+02  0.84331591717E+03  0.12650749448E+04  0.15225469542E+04  0.10100000352E+00 0.  1.
       -3    1    3    3    0  502 -0.80949769943E+02 -0.84331591717E+03 -0.47823958516E+03  0.97285544271E+03  0.10100000352E+00 0. -1.
</event>
<event>
 5   0  0.2149417E-06  0.2399888E+04  0.7818609E-02  0.8439545E-01
       -1   -1    0    0    0  501  0.00000000000E+00  0.00000000000E+00  0.88246693123E+03  0.88246693125E+03  0.50400001928E-02 0. -1.
        1   -1    0    0  501    0  0.00000000000E+00  0.00000000000E+00 -0.16316374842E+04  0.16316374842E+04  0.50400001928E-02 0.  1.
    10030    2    1    2    0    0  0.00000000000E+00  0.00000000000E+00 -0.74917055292E+03  0.25141044154E+04  0.23998884337E+04 0.  0.
        5    1    3    3  502    0 -0.28230555756E+03  0.76921431065E+03 -0.12929221644E+04  0.15307047060E+04  0.46999998093E+01 0.  1.
       -5    1    3    3    0  502  0.28230555756E+03 -0.76921431065E+03  0.54375161152E+03  0.98339970946E+03  0.46999998093E+01 0. -1.
</event>
<event>
 5   0  0.5268358E-06  0.2417533E+04  0.7818609E-02  0.8432968E-01
        2   -1    0    0  501    0  0.00000000000E+00  0.00000000000E+00  0.80374691404E+03  0.80374691404E+03  0.25500000920E-02 0. -1.
       -2   -1    0    0    0  501  0.00000000000E+00  0.00000000000E+00 -0.18178814561E+04  0.18178814561E+04  0.25500000920E-02 0.  1.
    10030    2    1    2    0    0  0.00000000000E+00  0.00000000000E+00 -0.10141345421E+04  0.26216283701E+04  0.24175331315E+04 0.  0.
        2    1    3    3  502    0  0.53245322593E+03  0.82816233485E+03  0.25338876259E+03  0.10166440654E+04  0.25500000920E-02 0. -1.
       -2    1    3    3    0  502 -0.53245322593E+03 -0.82816233485E+03 -0.12675233046E+04  0.16049843048E+04  0.25500000920E-02 0.  1.
</event>
<event>
 5   0  0.5349036E-06  0.2406329E+04  0.7818609E-02  0.8437138E-01
       -2   -1    0    0    0  501  0.00000000000E+00  0.00000000000E+00  0.11527073933E+04  0.11527073934E+04  0.25500000920E-02 0.  1.
        2   -1    0    0  501    0  0.00000000000E+00  0.00000000000E+00 -0.12558306384E+04  0.12558306384E+04  0.25500000920E-02 0. -1.
    10030    2    1    2    0    0  0.00000000000E+00  0.00000000000E+00 -0.10312324503E+03  0.24085380317E+04  0.24063293720E+04 0.  0.
        1    1    3    3  502    0 -0.51582715214E+03 -0.26214921788E+03 -0.11074257815E+04  0.12494765803E+04  0.50400001928E-02 0. -1.
       -1    1    3    3    0  502  0.51582715214E+03  0.26214921788E+03  0.10043025365E+04  0.11590614514E+04  0.50400001928E-02 0.  1.
</event>
<event>
 5   0  0.5379778E-06  0.2401812E+04  0.7818609E-02  0.8438826E-01
       -2   -1    0    0    0  501  0.00000000000E+00  0.00000000000E+00  0.85783606120E+03  0.85783606121E+03  0.25500000920E-02 0.  1.
        2   -1    0    0  501    0  0.00000000000E+00  0.00000000000E+00 -0.16811775675E+04  0.16811775675E+04  0.25500000920E-02 0. -1.
    10030    2    1    2    0    0  0.00000000000E+00  0.00000000000E+00 -0.82334150628E+03  0.25390136287E+04  0.24018116018E+04 0.  0.
        5    1    3    3  502    0 -0.11750086371E+04 -0.19728554654E+03 -0.57054135101E+03  0.13210247565E+04  0.46999998093E+01 0. -1.
       -5    1    3    3    0  502  0.11750086371E+04  0.19728554654E+03 -0.25280015527E+03  0.12179888721E+04  0.46999998093E+01 0.  1.
</event>
<event>
 5   0  0.2254269E-06  0.2399811E+04  0.7818609E-02  0.8439574E-01
       -1   -1    0    0    0  501  0.00000000000E+00  0.00000000000E+00  0.53442899570E+03  0.53442899573E+03  0.50400001928E-02 0.  1.
        1   -1    0    0  501    0  0.00000000000E+00  0.00000000000E+00 -0.26940394937E+04  0.26940394937E+04  0.50400001928E-02 0. -1.
    10030    2    1    2    0    0  0.00000000000E+00  0.00000000000E+00 -0.21596104980E+04  0.32284684894E+04  0.23998106767E+04 0.  0.
        2    1    3    3  502    0  0.53098139322E+03  0.19043417744E+03  0.34492310316E+03  0.66119464833E+03  0.25500000920E-02 0.  1.
       -2    1    3    3    0  502 -0.53098139322E+03 -0.19043417744E+03 -0.25045336012E+04  0.25672738411E+04  0.25500000920E-02 0. -1.
</event>
<event>
 5   0  0.5371843E-06  0.2401194E+04  0.7818609E-02  0.8439057E-01
        2   -1    0    0  501    0  0.00000000000E+00  0.00000000000E+00  0.14886378310E+04  0.14886378310E+04  0.25500000920E-02 0. -1.
       -2   -1    0    0    0  501  0.00000000000E+00  0.00000000000E+00 -0.96828968522E+03  0.96828968522E+03  0.25500000920E-02 0.  1.
    10030    2    1    2    0    0  0.00000000000E+00  0.00000000000E+00  0.52034814577E+03  0.24569275162E+04  0.24011935839E+04 0.  0.
        4    1    3    3  502    0  0.72560515918E+03  0.23938227906E+03  0.12077493351E+04  0.14291489747E+04  0.12699999809E+01 0. -1.
       -4    1    3    3    0  502 -0.72560515918E+03 -0.23938227906E+03 -0.68740118928E+03  0.10277785416E+04  0.12699999809E+01 0.  1.
</event>
<event>
 5   0  0.5349036E-06  0.2374567E+04  0.7818609E-02  0.8449087E-01
       -2   -1    0    0    0  501  0.00000000000E+00  0.00000000000E+00  0.11969906712E+04  0.11969906712E+04  0.25500000920E-02 0.  1.
        2   -1    0    0  501    0  0.00000000000E+00  0.00000000000E+00 -0.11776550358E+04  0.11776550358E+04  0.25500000920E-02 0. -1.
    10030    2    1    2    0    0  0.00000000000E+00  0.00000000000E+00  0.19335635391E+02  0.23746457070E+04  0.23745669852E+04 0.  0.
        1    1    3    3  502    0  0.21145311300E+03  0.23138090579E+02 -0.11584438071E+04  0.11778114639E+04  0.50400001928E-02 0. -1.
       -1    1    3    3    0  502 -0.21145311300E+03 -0.23138090579E+02  0.11777794425E+04  0.11968342431E+04  0.50400001928E-02 0.  1.
</event>
<event>
 5   0  0.2297414E-06  0.2403662E+04  0.7818609E-02  0.8438134E-01
        1   -1    0    0  501    0  0.00000000000E+00  0.00000000000E+00  0.90201642787E+03  0.90201642789E+03  0.50400001928E-02 0. -1.
       -1   -1    0    0    0  501  0.00000000000E+00  0.00000000000E+00 -0.16012988874E+04  0.16012988875E+04  0.50400001928E-02 0.  1.
    10030    2    1    2    0    0  0.00000000000E+00  0.00000000000E+00 -0.69928245957E+03  0.25033153153E+04  0.24036621247E+04 0.  0.
        1    1    3    3  502    0  0.79546786830E+03  0.55991964593E+03  0.38539473050E+03  0.10463308452E+04  0.50400001928E-02 0. -1.
       -1    1    3    3    0  502 -0.79546786830E+03 -0.55991964593E+03 -0.10846771901E+04  0.14569844701E+04  0.50400001928E-02 0.  1.
</event>
<event>
 5   0  0.2149417E-06  0.2400290E+04  0.7818609E-02  0.8439395E-01
       -1   -1    0    0    0  501  0.00000000000E+00  0.00000000000E+00  0.61610923641E+03  0.61610923643E+03  0.50400001928E-02 0.  1.
        1   -1    0    0  501    0  0.00000000000E+00  0.00000000000E+00 -0.23378119827E+04  0.23378119827E+04  0.50400001928E-02 0. -1.
    10030    2    1    2    0    0  0.00000000000E+00  0.00000000000E+00 -0.17217027463E+04  0.29539212192E+04  0.24002896122E+04 0.  0.
        5    1    3    3  502    0 -0.69409407307E+03  0.18539313995E+03  0.32223237409E+03  0.78739633700E+03  0.46999998093E+01 0.  1.
       -5    1    3    3    0  502  0.69409407307E+03 -0.18539313995E+03 -0.20439351204E+04  0.21665248822E+04  0.46999998093E+01 0. -1.
</event>
<event>
 5   0  0.5379778E-06  0.2403187E+04  0.7818609E-02  0.8438311E-01
        2   -1    0    0  501    0  0.00000000000E+00  0.00000000000E+00  0.10693798847E+04  0.10693798847E+04  0.25500000920E-02 0.  1.
       -2   -1    0    0    0  501  0.00000000000E+00  0.00000000000E+00 -0.13501532009E+04  0.13501532009E+04  0.25500000920E-02 0. -1.
    10030    2    1    2    0    0  0.00000000000E+00  0.00000000000E+00 -0.28077331620E+03  0.24195330856E+04  0.24031867795E+04 0.  0.
        5    1    3    3  502    0  0.11716456814E+04 -0.10188541130E+03 -0.38837557362E+03  0.12385442729E+04  0.46999998093E+01 0. -1.
       -5    1    3    3    0  502 -0.11716456814E+04  0.10188541130E+03  0.10760225742E+03  0.11809888126E+04  0.46999998093E+01 0.  1.
</event>
<event>
 5   0  0.5379778E-06  0.2389422E+04  0.7818609E-02  0.8443474E-01
       -2   -1    0    0    0  501  0.00000000000E+00  0.00000000000E+00  0.91310556930E+03  0.91310556930E+03  0.25500000920E-02 0.  1.
        2   -1    0    0  501    0  0.00000000000E+00  0.00000000000E+00 -0.15631650670E+04  0.15631650670E+04  0.25500000920E-02 0. -1.
    10030    2    1    2    0    0  0.00000000000E+00  0.00000000000E+00 -0.65005949767E+03  0.24762706363E+04  0.23894222970E+04 0.  0.
        5    1    3    3  502    0  0.36939749977E+03  0.35607518413E+03  0.79310586638E+03  0.94460735487E+03  0.46999998093E+01 0.  1.
       -5    1    3    3    0  502 -0.36939749977E+03 -0.35607518413E+03 -0.14431653640E+04  0.15316632814E+04  0.46999998093E+01 0. -1.
</event>
<event>
 5   0  0.5379778E-06  0.2403158E+04  0.7818609E-02  0.8438322E-01
       -2   -1    0    0    0  501  0.00000000000E+00  0.00000000000E+00  0.63361270135E+03  0.63361270135E+03  0.25500000920E-02 0. -1.
        2   -1    0    0  501    0  0.00000000000E+00  0.00000000000E+00 -0.22786665687E+04  0.22786665687E+04  0.25500000920E-02 0.  1.
    10030    2    1    2    0    0  0.00000000000E+00  0.00000000000E+00 -0.16450538674E+04  0.29122792701E+04  0.24031579891E+04 0.  0.
        5    1    3    3  502    0  0.50572281698E+03  0.98566690810E+03 -0.13863654493E+04  0.17746340666E+04  0.46999998093E+01 0.  1.
       -5    1    3    3    0  502 -0.50572281698E+03 -0.98566690810E+03 -0.25868841807E+03  0.11376452035E+04  0.46999998093E+01 0. -1.
</event>
<event>
 5   0  0.5371843E-06  0.2394206E+04  0.7818609E-02  0.8441676E-01
        2   -1    0    0  501    0  0.00000000000E+00  0.00000000000E+00  0.81846839610E+03  0.81846839610E+03  0.25500000920E-02 0. -1.
       -2   -1    0    0    0  501  0.00000000000E+00  0.00000000000E+00 -0.17508996171E+04  0.17508996171E+04  0.25500000920E-02 0.  1.
    10030    2    1    2    0    0  0.00000000000E+00  0.00000000000E+00 -0.93243122097E+03  0.25693680132E+04  0.23942063414E+04 0.  0.
        4    1    3    3  502    0  0.42048100944E+03 -0.89816972683E+03 -0.11857466132E+04  0.15458039271E+04  0.12699999809E+01 0.  1.
       -4    1    3    3    0  502 -0.42048100944E+03  0.89816972683E+03  0.25331539219E+03  0.10235640861E+04  0.12699999809E+01 0. -1.
</event>
<event>
 5   0  0.5371843E-06  0.2396903E+04  0.7818609E-02  0.8440664E-01
       -2   -1    0    0    0  501  0.00000000000E+00  0.00000000000E+00  0.61577856951E+03  0.61577856952E+03  0.25500000920E-02 0.  1.
        2   -1    0    0  501    0  0.00000000000E+00  0.00000000000E+00 -0.23324717092E+04  0.23324717092E+04  0.25500000920E-02 0. -1.
    10030    2    1    2    0    0  0.00000000000E+00  0.00000000000E+00 -0.17166931397E+04  0.29482502787E+04  0.23969030790E+04 0.  0.
        4    1    3    3  502    0 -0.38386635804E+03  0.52237001804E+03 -0.20982095526E+04  0.21960666557E+04  0.12699999809E+01 0. -1.
       -4    1    3    3    0  502  0.38386635804E+03 -0.52237001804E+03  0.38151641291E+03  0.75218362306E+03  0.12699999809E+01 0.  1.
</event>
<event>
 5   0  0.2149417E-06  0.2400685E+04  0.7818609E-02  0.8439247E-01
        1   -1    0    0  501    0  0.00000000000E+00  0.00000000000E+00  0.10494965415E+04  0.10494965415E+04  0.50400001928E-02 0.  1.
       -1   -1    0    0    0  501  0.00000000000E+00  0.00000000000E+00 -0.13728695865E+04  0.13728695865E+04  0.50400001928E-02 0. -1.
    10030    2    1    2    0    0  0.00000000000E+00  0.00000000000E+00 -0.32337304501E+03  0.24223661281E+04  0.24006848048E+04 0.  0.
        5    1    3    3  502    0  0.93816726944E+03  0.74253972069E+03 -0.64500878056E+02  0.11982092954E+04  0.46999998093E+01 0. -1.
       -5    1    3    3    0  502 -0.93816726944E+03 -0.74253972069E+03 -0.25887216695E+03  0.12241568327E+04  0.46999998093E+01 0.  1.
</event>
<event>
 5   0  0.5440503E-06  0.2374258E+04  0.7818609E-02  0.8449204E-01
        2   -1    0    0  501    0  0.00000000000E+00  0.00000000000E+00  0.56460318474E+03  0.56460318475E+03  0.25500000920E-02 0.  1.
       -2   -1    0    0    0  501  0.00000000000E+00  0.00000000000E+00 -0.24960455862E+04  0.24960455862E+04  0.25500000920E-02 0. -1.
    10030    2    1    2    0    0  0.00000000000E+00  0.00000000000E+00 -0.19314424015E+04  0.30606487709E+04  0.23742580207E+04 0.  0.
        3    1    3    3  502    0  0.34864661218E+03 -0.98399648875E+03 -0.16943423872E+04  0.19901255451E+04  0.10100000352E+00 0.  1.
       -3    1    3    3    0  502 -0.34864661218E+03  0.98399648875E+03 -0.23710001424E+03  0.10705232258E+04  0.10100000352E+00 0. -1.
</event>
<event>
 5   0  0.5268358E-06  0.2399732E+04  0.7818609E-02  0.8439604E-01
        2   -1    0    0  501    0  0.00000000000E+00  0.00000000000E+00  0.20700207705E+04  0.20700207705E+04  0.25500000920E-02 0. -1.
       -2   -1    0    0    0  501  0.00000000000E+00  0.00000000000E+00 -0.69549008944E+03  0.69549008944E+03  0.25500000920E-02 0.  1.
    10030    2    1    2    0    0  0.00000000000E+00  0.00000000000E+00  0.13745306810E+04  0.27655108599E+04  0.23997324274E+04 0.  0.
        2    1    3    3  502    0 -0.11003938346E+04  0.43397515225E+03  0.91912306570E+03  0.14979947376E+04  0.25500000920E-02 0. -1.
       -2    1    3    3    0  502  0.11003938346E+04 -0.43397515225E+03  0.45540761533E+03  0.12675161223E+04  0.25500000920E-02 0.  1.
</event>
<event>
 5   0  0.2215700E-06  0.2399776E+04  0.7818609E-02  0.8439587E-01
        1   -1    0    0  501    0  0.00000000000E+00  0.00000000000E+00  0.14809508881E+04  0.14809508881E+04  0.50400001928E-02 0. -1.
       -1   -1    0    0    0  501  0.00000000000E+00  0.00000000000E+00 -0.97216664325E+03  0.97216664327E+03  0.50400001928E-02 0.  1.
    10030    2    1    2    0    0  0.00000000000E+00  0.00000000000E+00  0.50878424483E+03  0.24531175314E+04  0.23997758676E+04 0.  0.
        3    1    3    3  502    0 -0.12594297405E+03  0.70789897353E+03 -0.72755779427E+03  0.10228992832E+04  0.10100000352E+00 0.  1.
       -3    1    3    3    0  502  0.12594297405E+03 -0.70789897353E+03  0.12363420391E+04  0.14302182481E+04  0.10100000352E+00 0. -1.
</event>
<event>
 5   0  0.5379778E-06  0.2400414E+04  0.7818609E-02  0.8439349E-01
        2   -1    0    0  501    0  0.00000000000E+00  0.00000000000E+00  0.18902656861E+04  0.18902656861E+04  0.25500000920E-02 0. -1.
       -2   -1    0    0    0  501  0.00000000000E+00  0.00000000000E+00 -0.76206043199E+03  0.76206043199E+03  0.25500000920E-02 0.  1.
    10030    2    1    2    0    0  0.00000000000E+00  0.00000000000E+00  0.11282052541E+04  0.26523261181E+04  0.24004138687E+04 0.  0.
        5    1    3    3  502    0  0.47120756045E+03 -0.11031743469E+04  0.52210902483E+03  0.13083004733E+04  0.46999998093E+01 0.  1.
       -5    1    3    3    0  502 -0.47120756045E+03  0.11031743469E+04  0.60609622925E+03  0.13440256448E+04  0.46999998093E+01 0. -1.
</event>
<event>
 5   0  0.5268358E-06  0.2395967E+04  0.7818609E-02  0.8441015E-01
        2   -1    0    0  501    0  0.00000000000E+00  0.00000000000E+00  0.17654554591E+04  0.17654554591E+04  0.25500000920E-02 0. -1.
       -2   -1    0    0    0  501  0.00000000000E+00  0.00000000000E+00 -0.81291461611E+03  0.81291461611E+03  0.25500000920E-02 0.  1.
    10030    2    1    2    0    0  0.00000000000E+00  0.00000000000E+00  0.95254084301E+03  0.25783700752E+04  0.23959670672E+04 0.  0.
        2    1    3    3  502    0  0.33355500601E+03 -0.97101461515E+03  0.11405448569E+04  0.15345914425E+04  0.25500000920E-02 0. -1.
       -2    1    3    3    0  502 -0.33355500601E+03  0.97101461515E+03 -0.18800401388E+03  0.10437786327E+04  0.25500000920E-02 0.  1.
</event>
<event>
 5   0  0.2297414E-06  0.2386983E+04  0.7818609E-02  0.8444393E-01
       -1   -1    0    0    0  501  0.00000000000E+00  0.00000000000E+00  0.11542664067E+04  0.11542664067E+04  0.50400001928E-02 0. -1.
        1   -1    0    0  501    0  0.00000000000E+00  0.00000000000E+00 -0.12340496397E+04  0.12340496397E+04  0.50400001928E-02 0.  1.
    10030    2    1    2    0    0  0.00000000000E+00  0.00000000000E+00 -0.79783233001E+02  0.23883160465E+04  0.23869830694E+04 0.  0.
        1    1    3    3  502    0  0.68971725746E+03 -0.75340495097E+03 -0.65756376177E+03  0.12147917584E+04  0.50400001928E-02 0.  1.
       -1    1    3    3    0  502 -0.68971725746E+03  0.75340495097E+03  0.57778052876E+03  0.11735242881E+04  0.50400001928E-02 0. -1.
</event>
<event>
 5   0  0.5379778E-06  0.2404286E+04  0.7818609E-02  0.8437901E-01
        2   -1    0    0  501    0  0.00000000000E+00  0.00000000000E+00  0.12563685077E+04  0.12563685077E+04  0.25500000920E-02 0.  1.
       -2   -1    0    0    0  501  0.00000000000E+00  0.00000000000E+00 -0.11502574961E+04  0.11502574962E+04  0.25500000920E-02 0. -1.
    10030    2    1    2    0    0  0.00000000000E+00  0.00000000000E+00  0.10611101157E+03  0.24066260039E+04  0.24042855853E+04 0.  0.
        5    1    3    3  502    0 -0.29897333701E+03 -0.39150561470E+03 -0.10445809020E+04  0.11549169033E+04  0.46999998093E+01 0. -1.
       -5    1    3    3    0  502  0.29897333701E+03  0.39150561470E+03  0.11506919136E+04  0.12517091006E+04  0.46999998093E+01 0.  1.
</event>
<event>
 5   0  0.2254269E-06  0.2410217E+04  0.7818609E-02  0.8435688E-01
        1   -1    0    0  501    0  0.00000000000E+00  0.00000000000E+00  0.52752832295E+03  0.52752832297E+03  0.50400001928E-02 0.  1.
       -1   -1    0    0    0  501  0.00000000000E+00  0.00000000000E+00 -0.27530012830E+04  0.27530012830E+04  0.50400001928E-02 0. -1.
    10030    2    1    2    0    0  0.00000000000E+00  0.00000000000E+00 -0.22254729600E+04  0.32805296060E+04  0.24102167122E+04 0.  0.
        2    1    3    3  502    0  0.55239084385E+03  0.71263774091E+03 -0.24459291696E+02  0.90199027217E+03  0.25500000920E-02 0.  1.
       -2    1    3    3    0  502 -0.55239084385E+03 -0.71263774091E+03 -0.22010136684E+04  0.23785393338E+04  0.25500000920E-02 0. -1.
</event>
<event>
 5   0  0.5440503E-06  0.2397317E+04  0.7818609E-02  0.8440509E-01
        2   -1    0    0  501    0  0.00000000000E+00  0.00000000000E+00  0.14769344897E+04  0.14769344897E+04  0.25500000920E-02 0. -1.
       -2   -1    0    0    0  501  0.00000000000E+00  0.00000000000E+00 -0.97281370829E+03  0.97281370830E+03  0.25500000920E-02 0.  1.
    10030    2    1    2    0    0  0.00000000000E+00  0.00000000000E+00  0.50412078136E+03  0.24497481980E+04  0.23973169317E+04 0.  0.
        3    1    3    3  502    0 -0.31732243839E+03  0.11184600294E+04 -0.46101375522E+02  0.11635169592E+04  0.10100000352E+00 0. -1.
       -3    1    3    3    0  502  0.31732243839E+03 -0.11184600294E+04  0.55022215688E+03  0.12862312387E+04  0.10100000352E+00 0.  1.
</event>
<event>
 5   0  0.2254269E-06  0.2403368E+04  0.7818609E-02  0.8438244E-01
       -1   -1    0    0    0  501  0.00000000000E+00  0.00000000000E+00  0.66572444023E+03  0.66572444025E+03  0.50400001928E-02 0.  1.
        1   -1    0    0  501    0  0.00000000000E+00  0.00000000000E+00 -0.21691322054E+04  0.21691322054E+04  0.50400001928E-02 0. -1.
    10030    2    1    2    0    0  0.00000000000E+00  0.00000000000E+00 -0.15034077652E+04  0.28348566457E+04  0.24033679063E+04 0.  0.
        2    1    3    3  502    0 -0.10389808643E+04  0.58919470109E+03 -0.90735197107E+03  0.14999730770E+04  0.25500000920E-02 0. -1.
       -2    1    3    3    0  502  0.10389808643E+04 -0.58919470109E+03 -0.59605579412E+03  0.13348835687E+04  0.25500000920E-02 0.  1.
</event>
<event>
 5   0  0.2149417E-06  0.2400767E+04  0.7818609E-02  0.8439216E-01
        1   -1    0    0  501    0  0.00000000000E+00  0.00000000000E+00  0.68692603495E+03  0.68692603497E+03  0.50400001928E-02 0.  1.
       -1   -1    0    0    0  501  0.00000000000E+00  0.00000000000E+00 -0.20976356329E+04  0.20976356330E+04  0.50400001928E-02 0. -1.
    10030    2    1    2    0    0  0.00000000000E+00  0.00000000000E+00 -0.14107095980E+04  0.27845616679E+04  0.24007669842E+04 0.  0.
        5    1    3    3  502    0  0.87804572572E+03  0.15254158335E+03  0.22735508252E+03  0.91975304004E+03  0.46999998093E+01 0.  1.
       -5    1    3    3    0  502 -0.87804572572E+03 -0.15254158335E+03 -0.16380646805E+04  0.18648086279E+04  0.46999998093E+01 0. -1.
</event>
<event>
 5   0  0.5268358E-06  0.2399947E+04  0.7818609E-02  0.8439523E-01
        2   -1    0    0  501    0  0.00000000000E+00  0.00000000000E+00  0.12296256072E+04  0.12296256072E+04  0.25500000920E-02 0. -1.
       -2   -1    0    0    0  501  0.00000000000E+00  0.00000000000E+00 -0.11710362091E+04  0.11710362091E+04  0.25500000920E-02 0.  1.
    10030    2    1    2    0    0  0.00000000000E+00  0.00000000000E+00  0.58589398087E+02  0.24006618164E+04  0.23999467575E+04 0.  0.
        2    1    3    3  502    0  0.19484632728E+03  0.60329445890E+01 -0.11550912824E+04  0.11714253533E+04  0.25500000920E-02 0.  1.
       -2    1    3    3    0  502 -0.19484632728E+03 -0.60329445890E+01  0.12136806805E+04  0.12292364630E+04  0.25500000920E-02 0. -1.
</event>
<event>
 5   0  0.5349036E-06  0.2379017E+04  0.7818609E-02  0.8447401E-01
       -2   -1    0    0    0  501  0.00000000000E+00  0.00000000000E+00  0.78868300191E+03  0.78868300191E+03  0.25500000920E-02 0.  1.
        2   -1    0    0  501    0  0.00000000000E+00  0.00000000000E+00 -0.17940427016E+04  0.17940427016E+04  0.25500000920E-02 0. -1.
    10030    2    1    2    0    0  0.00000000000E+00  0.00000000000E+00 -0.10053596997E+04  0.25827257035E+04  0.23790174303E+04 0.  0.
        1    1    3    3  502    0  0.49896494926E+03  0.10555784013E+04 -0.25578810636E+03  0.11952570172E+04  0.50400001928E-02 0. -1.
       -1    1    3    3    0  502 -0.49896494926E+03 -0.10555784013E+04 -0.74957159333E+03  0.13874686863E+04  0.50400001928E-02 0.  1.
</event>
<event>
 5   0  0.2149029E-06  0.2411423E+04  0.7818609E-02  0.8435239E-01
       -1   -1    0    0    0  501  0.00000000000E+00  0.00000000000E+00  0.72744753732E+03  0.72744753734E+03  0.50400001928E-02 0. -1.
        1   -1    0    0  501    0  0.00000000000E+00  0.00000000000E+00 -0.19984127769E+04  0.19984127769E+04  0.50400001928E-02 0.  1.
    10030    2    1    2    0    0  0.00000000000E+00  0.00000000000E+00 -0.12709652396E+04  0.27258603142E+04  0.24114231923E+04 0.  0.
        4    1    3    3  502    0 -0.14722635946E+03  0.73714465346E+02  0.71467897613E+03  0.73340103296E+03  0.12699999809E+01 0. -1.
       -4    1    3    3    0  502  0.14722635946E+03 -0.73714465346E+02 -0.19856442157E+04  0.19924592813E+04  0.12699999809E+01 0.  1.
</event>
<event>
 5   0  0.2215700E-06  0.2454680E+04  0.7818609E-02  0.8419311E-01
       -1   -1    0    0    0  501  0.00000000000E+00  0.00000000000E+00  0.80888462225E+03  0.80888462226E+03  0.50400001928E-02 0.  1.
        1   -1    0    0  501    0  0.00000000000E+00  0.00000000000E+00 -0.18622723262E+04  0.18622723263E+04  0.50400001928E-02 0. -1.
    10030    2    1    2    0    0  0.00000000000E+00  0.00000000000E+00 -0.10533877040E+04  0.26711569485E+04  0.24546799768E+04 0.  0.
        3    1    3    3  502    0 -0.37036785936E+03  0.11376753819E+04 -0.82447986533E+03  0.14530122795E+04  0.10100000352E+00 0. -1.
       -3    1    3    3    0  502  0.37036785936E+03 -0.11376753819E+04 -0.22890783867E+03  0.12181446690E+04  0.10100000352E+00 0.  1.
</event>
<event>
 5   0  0.5268358E-06  0.2401795E+04  0.7818609E-02  0.8438832E-01
        2   -1    0    0  501    0  0.00000000000E+00  0.00000000000E+00  0.12086066521E+04  0.12086066521E+04  0.25500000920E-02 0.  1.
       -2   -1    0    0    0  501  0.00000000000E+00  0.00000000000E+00 -0.11932378753E+04  0.11932378753E+04  0.25500000920E-02 0. -1.
    10030    2    1    2    0    0  0.00000000000E+00  0.00000000000E+00  0.15368776727E+02  0.24018445274E+04  0.24017953565E+04 0.  0.
        2    1    3    3  502    0 -0.40914205561E+03  0.83021617968E+03 -0.75751041072E+03  0.11960259817E+04  0.25500000920E-02 0. -1.
       -2    1    3    3    0  502  0.40914205561E+03 -0.83021617968E+03  0.77287918744E+03  0.12058185457E+04  0.25500000920E-02 0.  1.
</event>
<event>
 5   0  0.2215700E-06  0.2399788E+04  0.7818609E-02  0.8439583E-01
        1   -1    0    0  501    0  0.00000000000E+00  0.00000000000E+00  0.11010609600E+04  0.11010609600E+04  0.50400001928E-02 0.  1.
       -1   -1    0    0    0  501  0.00000000000E+00  0.00000000000E+00 -0.13075985203E+04  0.13075985203E+04  0.50400001928E-02 0. -1.
    10030    2    1    2    0    0  0.00000000000E+00  0.00000000000E+00 -0.20653756028E+03  0.24086594803E+04  0.23997880590E+04 0.  0.
        3    1    3    3  502    0  0.30545948002E+03  0.51223144122E+03 -0.11482993724E+04  0.12939389484E+04  0.10100000352E+00 0. -1.
       -3    1    3    3    0  502 -0.30545948002E+03 -0.51223144122E+03  0.94176181211E+03  0.11147205319E+04  0.10100000352E+00 0.  1.
</event>
<event>
 5   0  0.2297414E-06  0.2401477E+04  0.7818609E-02  0.8438951E-01
        1   -1    0    0  501    0  0.00000000000E+00  0.00000000000E+00  0.16328042869E+04  0.16328042869E+04  0.50400001928E-02 0. -1.
       -1   -1    0    0    0  501  0.00000000000E+00  0.00000000000E+00 -0.88300380184E+03  0.88300380186E+03  0.50400001928E-02 0.  1.
    10030    2    1    2    0    0  0.00000000000E+00  0.00000000000E+00  0.74980048505E+03  0.25158080888E+04  0.24014765400E+04 0.  0.
        1    1    3    3  502    0  0.94230706182E+03 -0.40099314763E+03 -0.28187138268E+03  0.10621626898E+04  0.50400001928E-02 0.  1.
       -1    1    3    3    0  502 -0.94230706182E+03  0.40099314763E+03  0.10316718677E+04  0.14536453990E+04  0.50400001928E-02 0. -1.
</event>
<event>
 5   0  0.2254269E-06  0.2397349E+04  0.7818609E-02  0.8440497E-01
        1   -1    0    0  501    0  0.00000000000E+00  0.00000000000E+00  0.12453902380E+04  0.12453902380E+04  0.50400001928E-02 0. -1.
       -1   -1    0    0    0  501  0.00000000000E+00  0.00000000000E+00 -0.11537106737E+04  0.11537106737E+04  0.50400001928E-02 0.  1.
    10030    2    1    2    0    0  0.00000000000E+00  0.00000000000E+00  0.91679564354E+02  0.23991009117E+04  0.23973485441E+04 0.  0.
        2    1    3    3  502    0  0.79180118415E+02 -0.20392908500E+03  0.12252441849E+04  0.12446203740E+04  0.25500000920E-02 0. -1.
       -2    1    3    3    0  502 -0.79180118415E+02  0.20392908500E+03 -0.11335646205E+04  0.11544805376E+04  0.25500000920E-02 0.  1.
</event>
<event>
 5   0  0.5371843E-06  0.2366882E+04  0.7818609E-02  0.8452008E-01
        2   -1    0    0  501    0  0.00000000000E+00  0.00000000000E+00  0.11121586998E+04  0.11121586998E+04  0.25500000920E-02 0. -1.
       -2   -1    0    0    0  501  0.00000000000E+00  0.00000000000E+00 -0.12592918487E+04  0.12592918487E+04  0.25500000920E-02 0.  1.
    10030    2    1    2    0    0  0.00000000000E+00  0.00000000000E+00 -0.14713314881E+03  0.23714505485E+04  0.23668818180E+04 0.  0.
        4    1    3    3  502    0 -0.36562741489E+03 -0.59564709626E+03 -0.10304240982E+04  0.12450920869E+04  0.12699999809E+01 0.  1.
       -4    1    3    3    0  502  0.36562741489E+03  0.59564709626E+03  0.88329094941E+03  0.11263584616E+04  0.12699999809E+01 0. -1.
</event>
<event>
 5   0  0.2254269E-06  0.2399499E+04  0.7818609E-02  0.8439691E-01
       -1   -1    0    0    0  501  0.00000000000E+00  0.00000000000E+00  0.12900429183E+04  0.12900429183E+04  0.50400001928E-02 0.  1.
        1   -1    0    0  501    0  0.00000000000E+00  0.00000000000E+00 -0.11157763026E+04  0.11157763026E+04  0.50400001928E-02 0. -1.
    10030    2    1    2    0    0  0.00000000000E+00  0.00000000000E+00  0.17426661572E+03  0.24058192209E+04  0.23994993791E+04 0.  0.
        2    1    3    3  502    0  0.25388722783E+03 -0.11725772034E+04  0.88953380087E+02  0.12030414482E+04  0.25500000920E-02 0.  1.
       -2    1    3    3    0  502 -0.25388722783E+03  0.11725772034E+04  0.85313235633E+02  0.12027777727E+04  0.25500000920E-02 0. -1.
</event>
<event>
 5   0  0.5371843E-06  0.2409037E+04  0.7818609E-02  0.8436128E-01
        2   -1    0    0  501    0  0.00000000000E+00  0.00000000000E+00  0.10407089720E+04  0.10407089720E+04  0.25500000920E-02 0.  1.
       -2   -1    0    0    0  501  0.00000000000E+00  0.00000000000E+00 -0.13941117092E+04  0.13941117092E+04  0.25500000920E-02 0. -1.
    10030    2    1    2    0    0  0.00000000000E+00  0.00000000000E+00 -0.35340273722E+03  0.24348206811E+04  0.24090367898E+04 0.  0.
        4    1    3    3  502    0  0.75009326298E+03 -0.64579755743E+03  0.51706253891E+03  0.11167137818E+04  0.12699999809E+01 0.  1.
       -4    1    3    3    0  502 -0.75009326298E+03  0.64579755743E+03 -0.87046527612E+03  0.13181068994E+04  0.12699999809E+01 0. -1.
</event>
<event>
 5   0  0.5349036E-06  0.2397139E+04  0.7818609E-02  0.8440575E-01
       -2   -1    0    0    0  501  0.00000000000E+00  0.00000000000E+00  0.69612917664E+03  0.69612917664E+03  0.25500000920E-02 0.  1.
        2   -1    0    0  501    0  0.00000000000E+00  0.00000000000E+00 -0.20636531231E+04  0.20636531231E+04  0.25500000920E-02 0. -1.
    10030    2    1    2    0    0  0.00000000000E+00  0.00000000000E+00 -0.13675239465E+04  0.27597822997E+04  0.23971392529E+04 0.  0.
        1    1    3    3  502    0 -0.60185330762E+03  0.10207775954E+04 -0.47667573870E+03  0.12772760325E+04  0.50400001928E-02 0.  1.
       -1    1    3    3    0  502  0.60185330762E+03 -0.10207775954E+04 -0.89084820776E+03  0.14825062673E+04  0.50400001928E-02 0. -1.
</event>
<event>
 5   0  0.2254269E-06  0.2402859E+04  0.7818609E-02  0.8438434E-01
        1   -1    0    0  501    0  0.00000000000E+00  0.00000000000E+00  0.23439019949E+04  0.23439019949E+04  0.50400001928E-02 0.  1.
       -1   -1    0    0    0  501  0.00000000000E+00  0.00000000000E+00 -0.61582488433E+03  0.61582488435E+03  0.50400001928E-02 0. -1.
    10030    2    1    2    0    0  0.00000000000E+00  0.00000000000E+00  0.17280771106E+04  0.29597268793E+04  0.24028592759E+04 0.  0.
        2    1    3    3  502    0 -0.46249535725E+03 -0.77446500403E+03 -0.11342883244E+03  0.90915570613E+03  0.25500000920E-02 0. -1.
       -2    1    3    3    0  502  0.46249535725E+03  0.77446500403E+03  0.18415059430E+04  0.20505711731E+04  0.25500000920E-02 0.  1.
</event>
<event>
 5   0  0.5440503E-06  0.2404554E+04  0.7818609E-02  0.8437801E-01
       -2   -1    0    0    0  501  0.00000000000E+00  0.00000000000E+00  0.19562596139E+04  0.19562596139E+04  0.25500000920E-02 0.  1.
        2   -1    0    0  501    0  0.00000000000E+00  0.00000000000E+00 -0.73889471907E+03  0.73889471907E+03  0.25500000920E-02 0. -1.
    10030    2    1    2    0    0  0.00000000000E+00  0.00000000000E+00  0.12173648949E+04  0.26951543330E+04  0.24045539278E+04 0.  0.
        3    1    3    3  502    0 -0.18339420299E+02  0.76511793886E+03 -0.43059062970E+03  0.87815152183E+03  0.10100000352E+00 0. -1.
       -3    1    3    3    0  502  0.18339420299E+02 -0.76511793886E+03  0.16479555246E+04  0.18170028112E+04  0.10100000352E+00 0.  1.
</event>
<event>
 5   0  0.5371843E-06  0.2399513E+04  0.7818609E-02  0.8439686E-01
       -2   -1    0    0    0  501  0.00000000000E+00  0.00000000000E+00  0.84268844269E+03  0.84268844270E+03  0.25500000920E-02 0.  1.
        2   -1    0    0  501    0  0.00000000000E+00  0.00000000000E+00 -0.17081233687E+04  0.17081233687E+04  0.25500000920E-02 0. -1.
    10030    2    1    2    0    0  0.00000000000E+00  0.00000000000E+00 -0.86543492596E+03  0.25508118114E+04  0.23995131352E+04 0.  0.
        4    1    3    3  502    0 -0.22926616637E+03  0.63781107784E+02  0.81734678792E+03  0.85128631457E+03  0.12699999809E+01 0.  1.
       -4    1    3    3    0  502  0.22926616637E+03 -0.63781107784E+02 -0.16827817139E+04  0.16995254968E+04  0.12699999809E+01 0. -1.
</event>
<event>
 5   0  0.2215700E-06  0.2400945E+04  0.7818609E-02  0.8439150E-01
       -1   -1    0    0    0  501  0.00000000000E+00  0.00000000000E+00  0.12597883220E+04  0.12597883220E+04  0.50400001928E-02 0.  1.
        1   -1    0    0  501    0  0.00000000000E+00  0.00000000000E+00 -0.11439494391E+04  0.11439494391E+04  0.50400001928E-02 0. -1.
    10030    2    1    2    0    0  0.00000000000E+00  0.00000000000E+00  0.11583888292E+03  0.24037377611E+04  0.24009449343E+04 0.  0.
        3    1    3    3  502    0 -0.92078476455E+03  0.12182780129E+03  0.81936152356E+03  0.12385636489E+04  0.10100000352E+00 0.  1.
       -3    1    3    3    0  502  0.92078476455E+03 -0.12182780129E+03 -0.70352264064E+03  0.11651741123E+04  0.10100000352E+00 0. -1.
</event>
<event>
 5   0  0.2254269E-06  0.2398023E+04  0.7818609E-02  0.8440244E-01
       -1   -1    0    0    0  501  0.00000000000E+00  0.00000000000E+00  0.71314929903E+03  0.71314929905E+03  0.50400001928E-02 0. -1.
        1   -1    0    0  501    0  0.00000000000E+00  0.00000000000E+00 -0.20158870325E+04  0.20158870325E+04  0.50400001928E-02 0.  1.
    10030    2    1    2    0    0  0.00000000000E+00  0.00000000000E+00 -0.13027377335E+04  0.27290363316E+04  0.23980228724E+04 0.  0.
        2    1    3    3  502    0  0.10185809563E+04 -0.52219922931E+03 -0.24512153953E+03  0.11705912048E+04  0.25500000920E-02 0. -1.
       -2    1    3    3    0  502 -0.10185809563E+04  0.52219922931E+03 -0.10576161940E+04  0.15584451268E+04  0.25500000920E-02 0.  1.
</event>
<event>
 5   0  0.2149417E-06  0.2400498E+04  0.7818609E-02  0.8439317E-01
        1   -1    0    0  501    0  0.00000000000E+00  0.00000000000E+00  0.95278148338E+03  0.95278148339E+03  0.50400001928E-02 0.  1.
       -1   -1    0    0    0  501  0.00000000000E+00  0.00000000000E+00 -0.15119921535E+04  0.15119921535E+04  0.50400001928E-02 0. -1.
    10030    2    1    2    0    0  0.00000000000E+00  0.00000000000E+00 -0.55921067010E+03  0.24647736369E+04  0.24004983873E+04 0.  0.
        5    1    3    3  502    0  0.15039343197E+03  0.89922430498E+03  0.52190712333E+03  0.10505387525E+04  0.46999998093E+01 0.  1.
       -5    1    3    3    0  502 -0.15039343197E+03 -0.89922430498E+03 -0.10811177934E+04  0.14142348844E+04  0.46999998093E+01 0. -1.
</event>
<event>
 5   0  0.5371843E-06  0.2404404E+04  0.7818609E-02  0.8437857E-01
       -2   -1    0    0    0  501  0.00000000000E+00  0.00000000000E+00  0.52555432596E+03  0.52555432596E+03  0.25500000920E-02 0. -1.
        2   -1    0    0  501    0  0.00000000000E+00  0.00000000000E+00 -0.27500286294E+04  0.27500286294E+04  0.25500000920E-02 0.  1.
    10030    2    1    2    0    0  0.00000000000E+00  0.00000000000E+00 -0.22244743035E+04  0.32755829554E+04  0.24044038286E+04 0.  0.
        4    1    3    3  502    0 -0.41513258137E+03  0.13203388989E+03  0.41424938591E+03  0.60114239147E+03  0.12699999809E+01 0. -1.
       -4    1    3    3    0  502  0.41513258137E+03 -0.13203388989E+03 -0.26387236894E+04  0.26744405639E+04  0.12699999809E+01 0.  1.
</event>
<event>
 5   0  0.2297414E-06  0.2390407E+04  0.7818609E-02  0.8443104E-01
        1   -1    0    0  501    0  0.00000000000E+00  0.00000000000E+00  0.31526299228E+04  0.31526299228E+04  0.50400001928E-02 0.  1.
       -1   -1    0    0    0  501  0.00000000000E+00  0.00000000000E+00 -0.45311724369E+03  0.45311724372E+03  0.50400001928E-02 0. -1.
    10030    2    1    2    0    0  0.00000000000E+00  0.00000000000E+00  0.26995126791E+04  0.36057471665E+04  0.23904066441E+04 0.  0.
        1    1    3    3  502    0  0.42689704058E+03 -0.10276707485E+04  0.69196797675E+03  0.13104075440E+04  0.50400001928E-02 0. -1.
       -1    1    3    3    0  502 -0.42689704058E+03  0.10276707485E+04  0.20075447023E+04  0.22953396224E+04  0.50400001928E-02 0.  1.
</event>
<event>
 5   0  0.2149417E-06  0.2397445E+04  0.7818609E-02  0.8440461E-01
       -1   -1    0    0    0  501  0.00000000000E+00  0.00000000000E+00  0.15629324435E+04  0.15629324435E+04  0.50400001928E-02 0. -1.
        1   -1    0    0  501    0  0.00000000000E+00  0.00000000000E+00 -0.91938399460E+03  0.91938399462E+03  0.50400001928E-02 0.  1.
    10030    2    1    2    0    0  0.00000000000E+00  0.00000000000E+00  0.64354844890E+03  0.24823164381E+04  0.23974445339E+04 0.  0.
        5    1    3    3  502    0  0.86274176109E+03 -0.67296257711E+03  0.82870955807E+03  0.13725828201E+04  0.46999998093E+01 0. -1.
       -5    1    3    3    0  502 -0.86274176109E+03  0.67296257711E+03 -0.18516110918E+03  0.11097336180E+04  0.46999998093E+01 0.  1.
</event>
<event>
 5   0  0.2297414E-06  0.2401188E+04  0.7818609E-02  0.8439059E-01
        1   -1    0    0  501    0  0.00000000000E+00  0.00000000000E+00  0.10121166586E+04  0.10121166586E+04  0.50400001928E-02 0. -1.
       -1   -1    0    0    0  501  0.00000000000E+00  0.00000000000E+00 -0.14241699942E+04  0.14241699942E+04  0.50400001928E-02 0.  1.
    10030    2    1    2    0    0  0.00000000000E+00  0.00000000000E+00 -0.41205333566E+03  0.24362866528E+04  0.24011881857E+04 0.  0.
        1    1    3    3  502    0  0.13509417940E+03  0.10579244469E+04  0.35336848008E+03  0.11235318666E+04  0.50400001928E-02 0. -1.
       -1    1    3    3    0  502 -0.13509417940E+03 -0.10579244469E+04 -0.76542181573E+03  0.13127547862E+04  0.50400001928E-02 0.  1.
</event>
<event>
 5   0  0.2254269E-06  0.2392567E+04  0.7818609E-02  0.8442292E-01
       -1   -1    0    0    0  501  0.00000000000E+00  0.00000000000E+00  0.83811806502E+03  0.83811806504E+03  0.50400001928E-02 0.  1.
        1   -1    0    0  501    0  0.00000000000E+00  0.00000000000E+00 -0.17075092141E+04  0.17075092141E+04  0.50400001928E-02 0. -1.
    10030    2    1    2    0    0  0.00000000000E+00  0.00000000000E+00 -0.86939114912E+03  0.25456272792E+04  0.23925670888E+04 0.  0.
        2    1    3    3  502    0 -0.87584396338E+02  0.10925035109E+04 -0.94480317975E+03  0.14470272964E+04  0.25500000920E-02 0. -1.
       -2    1    3    3    0  502  0.87584396338E+02 -0.10925035109E+04  0.75412030631E+02  0.10985999828E+04  0.25500000920E-02 0.  1.
</event>
<event>
 5   0  0.5379778E-06  0.2400323E+04  0.7818609E-02  0.8439383E-01
        2   -1    0    0  501    0  0.00000000000E+00  0.00000000000E+00  0.11023083892E+04  0.11023083892E+04  0.25500000920E-02 0.  1.
       -2   -1    0    0    0  501  0.00000000000E+00  0.00000000000E+00 -0.13067008280E+04  0.13067008280E+04  0.25500000920E-02 0. -1.
    10030    2    1    2    0    0  0.00000000000E+00  0.00000000000E+00 -0.20439243880E+03  0.24090092173E+04  0.24003227158E+04 0.  0.
        5    1    3    3  502    0  0.46893806694E+03  0.70355423666E+03  0.75263361117E+03  0.11319765533E+04  0.46999998093E+01 0.  1.
       -5    1    3    3    0  502 -0.46893806694E+03 -0.70355423666E+03 -0.95702604998E+03  0.12770326640E+04  0.46999998093E+01 0. -1.
</event>
<event>
 5   0  0.5371843E-06  0.2395298E+04  0.7818609E-02  0.8441266E-01
        2   -1    0    0  501    0  0.00000000000E+00  0.00000000000E+00  0.14544913548E+04  0.14544913548E+04  0.25500000920E-02 0.  1.
       -2   -1    0    0    0  501  0.00000000000E+00  0.00000000000E+00 -0.98616137627E+03  0.98616137628E+03  0.25500000920E-02 0. -1.
    10030    2    1    2    0    0  0.00000000000E+00  0.00000000000E+00  0.46832997852E+03  0.24406527311E+04  0.23952980576E+04 0.  0.
        4    1    3    3  502    0  0.47423184508E+03 -0.88921938676E+03  0.89353051224E+03  0.13468501587E+04  0.12699999809E+01 0.  1.
       -4    1    3    3    0  502 -0.47423184508E+03  0.88921938676E+03 -0.42520053371E+03  0.10938025724E+04  0.12699999809E+01 0. -1.
</event>
<event>
 5   0  0.2149417E-06  0.2383308E+04  0.7818609E-02  0.8445779E-01
        1   -1    0    0  501    0  0.00000000000E+00  0.00000000000E+00  0.95489539742E+03  0.95489539744E+03  0.50400001928E-02 0.  1.
       -1   -1    0    0    0  501  0.00000000000E+00  0.00000000000E+00 -0.14871149305E+04  0.14871149305E+04  0.50400001928E-02 0. -1.
    10030    2    1    2    0    0  0.00000000000E+00  0.00000000000E+00 -0.53221953305E+03  0.24420103279E+04  0.23833079554E+04 0.  0.
        5    1    3    3  502    0 -0.10378283842E+04 -0.82834520358E+02  0.32788249222E+03  0.10915485933E+04  0.46999998093E+01 0.  1.
       -5    1    3    3    0  502  0.10378283842E+04  0.82834520358E+02 -0.86010202527E+03  0.13504617346E+04  0.46999998093E+01 0. -1.
</event>
<event>
 5   0  0.2254269E-06  0.2404288E+04  0.7818609E-02  0.8437900E-01
        1   -1    0    0  501    0  0.00000000000E+00  0.00000000000E+00  0.13374636222E+04  0.13374636222E+04  0.50400001928E-02 0. -1.
       -1   -1    0    0    0  501  0.00000000000E+00  0.00000000000E+00 -0.10805153470E+04  0.10805153470E+04  0.50400001928E-02 0.  1.
    10030    2    1    2    0    0  0.00000000000E+00  0.00000000000E+00  0.25694827527E+03  0.24179789692E+04  0.24042878112E+04 0.  0.
        2    1    3    3  502    0 -0.74595313600E+03 -0.35010548049E+02 -0.81895099061E+03  0.11083106715E+04  0.25500000920E-02 0.  1.
       -2    1    3    3    0  502  0.74595313600E+03  0.35010548049E+02  0.10758992659E+04  0.13096682977E+04  0.25500000920E-02 0. -1.
</event>
<event>
 5   0  0.5371843E-06  0.2409350E+04  0.7818609E-02  0.8436011E-01
        2   -1    0    0  501    0  0.00000000000E+00  0.00000000000E+00  0.19129754670E+04  0.19129754670E+04  0.25500000920E-02 0. -1.
       -2   -1    0    0    0  501  0.00000000000E+00  0.00000000000E+00 -0.75863090188E+03  0.75863090188E+03  0.25500000920E-02 0.  1.
    10030    2    1    2    0    0  0.00000000000E+00  0.00000000000E+00  0.11543445651E+04  0.26716063689E+04  0.24093503720E+04 0.  0.
        4    1    3    3  502    0  0.11606787591E+04 -0.31173893040E+03  0.48516887203E+03  0.12960504581E+04  0.12699999809E+01 0.  1.
       -4    1    3    3    0  502 -0.11606787591E+04  0.31173893040E+03  0.66917569308E+03  0.13755559108E+04  0.12699999809E+01 0. -1.
</event>
<event>
 5   0  0.2297414E-06  0.2397812E+04  0.7818609E-02  0.8440323E-01
        1   -1    0    0  501    0  0.00000000000E+00  0.00000000000E+00  0.13862661611E+04  0.13862661611E+04  0.50400001928E-02 0. -1.
       -1   -1    0    0    0  501  0.00000000000E+00  0.00000000000E+00 -0.10368687422E+04  0.10368687422E+04  0.50400001928E-02 0.  1.
    10030    2    1    2    0    0  0.00000000000E+00  0.00000000000E+00  0.34939741896E+03  0.24231349033E+04  0.23978123787E+04 0.  0.
        1    1    3    3  502    0  0.32456512118E+03  0.97988980433E+03  0.79093319547E+03  0.13004237256E+04  0.50400001928E-02 0. -1.
       -1    1    3    3    0  502 -0.32456512118E+03 -0.97988980433E+03 -0.44153577651E+03  0.11227111777E+04  0.50400001928E-02 0.  1.
</event>
<event>
 5   0  0.5349036E-06  0.2406809E+04  0.7818609E-02  0.8436959E-01
       -2   -1    0    0    0  501  0.00000000000E+00  0.00000000000E+00  0.12440254111E+04  0.12440254111E+04  0.25500000920E-02 0.  1.
        2   -1    0    0  501    0  0.00000000000E+00  0.00000000000E+00 -0.11641103240E+04  0.11641103240E+04  0.25500000920E-02 0. -1.
    10030    2    1    2    0    0  0.00000000000E+00  0.00000000000E+00  0.79915087174E+02  0.24081357351E+04  0.24068093604E+04 0.  0.
        1    1    3    3  502    0 -0.77673208746E+03 -0.91208256244E+03  0.15393031796E+03  0.12078501063E+04  0.50400001928E-02 0.  1.
       -1    1    3    3    0  502  0.77673208746E+03  0.91208256244E+03 -0.74015230790E+02  0.12002856288E+04  0.50400001928E-02 0. -1.
</event>
<event>
 5   0  0.2297414E-06  0.2401985E+04  0.7818609E-02  0.8438761E-01
        1   -1    0    0  501    0  0.00000000000E+00  0.00000000000E+00  0.89136513508E+03  0.89136513509E+03  0.50400001928E-02 0. -1.
       -1   -1    0    0    0  501  0.00000000000E+00  0.00000000000E+00 -0.16181723279E+04  0.16181723279E+04  0.50400001928E-02 0.  1.
    10030    2    1    2    0    0  0.00000000000E+00  0.00000000000E+00 -0.72680719278E+03  0.25095374630E+04  0.24019845092E+04 0.  0.
        1    1    3    3  502    0 -0.49439300191E+03 -0.61934249691E+03  0.57943014893E+03  0.98170711841E+03  0.50400001928E-02 0. -1.
       -1    1    3    3    0  502  0.49439300191E+03  0.61934249691E+03 -0.13062373417E+04  0.15278303446E+04  0.50400001928E-02 0.  1.
</event>
<event>
 5   0  0.2297414E-06  0.2415684E+04  0.7818609E-02  0.8433655E-01
       -1   -1    0    0    0  501  0.00000000000E+00  0.00000000000E+00  0.17988137686E+04  0.17988137686E+04  0.50400001928E-02 0.  1.
        1   -1    0    0  501    0  0.00000000000E+00  0.00000000000E+00 -0.81102457362E+03  0.81102457363E+03  0.50400001928E-02 0. -1.
    10030    2    1    2    0    0  0.00000000000E+00  0.00000000000E+00  0.98778919499E+03  0.26098383422E+04  0.24156838947E+04 0.  0.
        1    1    3    3  502    0  0.63641314407E+03 -0.96589770882E+03  0.11823852112E+03  0.11627383290E+04  0.50400001928E-02 0. -1.
       -1    1    3    3    0  502 -0.63641314407E+03  0.96589770882E+03  0.86955067387E+03  0.14471000132E+04  0.50400001928E-02 0.  1.
</event>
<event>
 5   0  0.5379778E-06  0.2399451E+04  0.7818609E-02  0.8439709E-01
       -2   -1    0    0    0  501  0.00000000000E+00  0.00000000000E+00  0.97770138990E+03  0.97770138990E+03  0.25500000920E-02 0.  1.
        2   -1    0    0  501    0  0.00000000000E+00  0.00000000000E+00 -0.14721689996E+04  0.14721689997E+04  0.25500000920E-02 0. -1.
    10030    2    1    2    0    0  0.00000000000E+00  0.00000000000E+00 -0.49446760975E+03  0.24498703896E+04  0.23994513349E+04 0.  0.
        5    1    3    3  502    0 -0.40291498933E+02 -0.88954404918E+03 -0.10681226957E+04  0.13906186405E+04  0.46999998093E+01 0. -1.
       -5    1    3    3    0  502  0.40291498933E+02  0.88954404918E+03  0.57365508590E+03  0.10592517491E+04  0.46999998093E+01 0.  1.
</event>
<event>
 5   0  0.1796750E-06  0.2400187E+04  0.7818609E-02  0.8439434E-01
       -3   -1    0    0    0  501  0.00000000000E+00  0.00000000000E+00  0.11197847148E+04  0.11197847193E+04  0.10100000352E+00 0.  1.
        3   -1    0    0  501    0  0.00000000000E+00  0.00000000000E+00 -0.12861615555E+04  0.12861615594E+04  0.10100000352E+00 0. -1.
    10030    2    1    2    0    0  0.00000000000E+00  0.00000000000E+00 -0.16637684068E+03  0.24059462788E+04  0.24001867101E+04 0.  0.
        2    1    3    3  502    0 -0.10777225088E+04  0.33081689215E+03 -0.49563468596E+03  0.12314947682E+04  0.25500000920E-02 0. -1.
       -2    1    3    3    0  502  0.10777225088E+04 -0.33081689215E+03  0.32925784528E+03  0.11744515106E+04  0.25500000920E-02 0.  1.
</event>
<event>
 5   0  0.5440503E-06  0.2401574E+04  0.7818609E-02  0.8438915E-01
        2   -1    0    0  501    0  0.00000000000E+00  0.00000000000E+00  0.24208917171E+04  0.24208917171E+04  0.25500000920E-02 0.  1.
       -2   -1    0    0    0  501  0.00000000000E+00  0.00000000000E+00 -0.59560242164E+03  0.59560242165E+03  0.25500000920E-02 0. -1.
    10030    2    1    2    0    0  0.00000000000E+00  0.00000000000E+00  0.18252892955E+04  0.30164941387E+04  0.24015736251E+04 0.  0.
        3    1    3    3  502    0  0.39660311870E+03 -0.10564433072E+04  0.14282714461E+04  0.18202543308E+04  0.10100000352E+00 0.  1.
       -3    1    3    3    0  502 -0.39660311870E+03  0.10564433072E+04  0.39701784939E+03  0.11962398079E+04  0.10100000352E+00 0. -1.
</event>
<event>
 5   0  0.5371843E-06  0.2398017E+04  0.7818609E-02  0.8440246E-01
        2   -1    0    0  501    0  0.00000000000E+00  0.00000000000E+00  0.11237695333E+04  0.11237695333E+04  0.25500000920E-02 0. -1.
       -2   -1    0    0    0  501  0.00000000000E+00  0.00000000000E+00 -0.12792845307E+04  0.12792845307E+04  0.25500000920E-02 0.  1.
    10030    2    1    2    0    0  0.00000000000E+00  0.00000000000E+00 -0.15551499738E+03  0.24030540640E+04  0.23980166639E+04 0.  0.
        4    1    3    3  502    0  0.13052169451E+03 -0.80279534668E+03 -0.96057523557E+03  0.12586590791E+04  0.12699999809E+01 0.  1.
       -4    1    3    3    0  502 -0.13052169451E+03  0.80279534668E+03  0.80506023819E+03  0.11443949849E+04  0.12699999809E+01 0. -1.
</event>
<event>
 5   0  0.5440503E-06  0.2400068E+04  0.7818609E-02  0.8439478E-01
        2   -1    0    0  501    0  0.00000000000E+00  0.00000000000E+00  0.11351174846E+04  0.11351174846E+04  0.25500000920E-02 0. -1.
       -2   -1    0    0    0  501  0.00000000000E+00  0.00000000000E+00 -0.12686629162E+04  0.12686629162E+04  0.25500000920E-02 0.  1.
    10030    2    1    2    0    0  0.00000000000E+00  0.00000000000E+00 -0.13354543161E+03  0.24037804008E+04  0.24000678809E+04 0.  0.
        3    1    3    3  502    0 -0.11214862593E+03 -0.18087768408E+03  0.11160652947E+04  0.11361759560E+04  0.10100000352E+00 0. -1.
       -3    1    3    3    0  502  0.11214862593E+03  0.18087768408E+03 -0.12496107263E+04  0.12676044447E+04  0.10100000352E+00 0.  1.
</event>
<event>
 5   0  0.5349036E-06  0.2400483E+04  0.7818609E-02  0.8439323E-01
        2   -1    0    0  501    0  0.00000000000E+00  0.00000000000E+00  0.15094635729E+04  0.15094635729E+04  0.25500000920E-02 0. -1.
       -2   -1    0    0    0  501  0.00000000000E+00  0.00000000000E+00 -0.95436524620E+03  0.95436524620E+03  0.25500000920E-02 0.  1.
    10030    2    1    2    0    0  0.00000000000E+00  0.00000000000E+00  0.55509832672E+03  0.24638288191E+04  0.24004829301E+04 0.  0.
        1    1    3    3  502    0 -0.89440355488E+03 -0.79220232766E+03  0.16035494268E+03  0.12055106613E+04  0.50400001928E-02 0.  1.
       -1    1    3    3    0  502  0.89440355488E+03  0.79220232766E+03  0.39474338404E+03  0.12583181578E+04  0.50400001928E-02 0. -1.
</event>
<event>
 5   0  0.2254269E-06  0.2400279E+04  0.7818609E-02  0.8439399E-01
       -1   -1    0    0    0  501  0.00000000000E+00  0.00000000000E+00  0.70802806402E+03  0.70802806404E+03  0.50400001928E-02 0. -1.
        1   -1    0    0  501    0  0.00000000000E+00  0.00000000000E+00 -0.20342898038E+04  0.20342898038E+04  0.50400001928E-02 0.  1.
    10030    2    1    2    0    0  0.00000000000E+00  0.00000000000E+00 -0.13262617398E+04  0.27423178678E+04  0.24002785434E+04 0.  0.
        2    1    3    3  502    0  0.64812345171E+03 -0.67323976082E+03 -0.15234404517E+04  0.17872287470E+04  0.25500000920E-02 0.  1.
       -2    1    3    3    0  502 -0.64812345171E+03  0.67323976082E+03  0.19717871198E+03  0.95508912080E+03  0.25500000920E-02 0. -1.
</event>
<event>
 5   0  0.2149029E-06  0.2400583E+04  0.7818609E-02  0.8439285E-01
       -1   -1    0    0    0  501  0.00000000000E+00  0.00000000000E+00  0.10311469681E+04  0.10311469681E+04  0.50400001928E-02 0. -1.
        1   -1    0    0  501    0  0.00000000000E+00  0.00000000000E+00 -0.13971817800E+04  0.13971817800E+04  0.50400001928E-02 0.  1.
    10030    2    1    2    0    0  0.00000000000E+00  0.00000000000E+00 -0.36603481190E+03  0.24283287480E+04  0.24005830594E+04 0.  0.
        4    1    3    3  502    0 -0.29852588618E+03 -0.96781659221E+03 -0.83459849508E+03  0.13123806314E+04  0.12699999809E+01 0.  1.
       -4    1    3    3    0  502  0.29852588618E+03  0.96781659221E+03  0.46856368317E+03  0.11159481166E+04  0.12699999809E+01 0. -1.
</event>
<event>
 5   0  0.5379778E-06  0.2409964E+04  0.7818609E-02  0.8435783E-01
       -2   -1    0    0    0  501  0.00000000000E+00  0.00000000000E+00  0.99805703721E+03  0.99805703721E+03  0.25500000920E-02 0.  1.
        2   -1    0    0  501    0  0.00000000000E+00  0.00000000000E+00 -0.14548084801E+04  0.14548084801E+04  0.25500000920E-02 0. -1.
    10030    2    1    2    0    0  0.00000000000E+00  0.00000000000E+00 -0.45675144289E+03  0.24528655173E+04  0.24099641834E+04 0.  0.
        5    1    3    3  502    0 -0.75667724007E+03 -0.66400183827E+03  0.44560640060E+03  0.11009296259E+04  0.46999998093E+01 0.  1.
       -5    1    3    3    0  502  0.75667724007E+03  0.66400183827E+03 -0.90235784349E+03  0.13519358914E+04  0.46999998093E+01 0. -1.
</event>
<event>
 5   0  0.2297414E-06  0.2400445E+04  0.7818609E-02  0.8439337E-01
        1   -1    0    0  501    0  0.00000000000E+00  0.00000000000E+00  0.94203174742E+03  0.94203174743E+03  0.50400001928E-02 0. -1.
       -1   -1    0    0    0  501  0.00000000000E+00  0.00000000000E+00 -0.15291774479E+04  0.15291774479E+04  0.50400001928E-02 0.  1.
    10030    2    1    2    0    0  0.00000000000E+00  0.00000000000E+00 -0.58714570051E+03  0.24712091954E+04  0.24004447116E+04 0.  0.
        1    1    3    3  502    0  0.79887985543E+03  0.76586213615E+03 -0.77178792883E+03  0.13492258677E+04  0.50400001928E-02 0.  1.
       -1    1    3    3    0  502 -0.79887985543E+03 -0.76586213615E+03  0.18464222832E+03  0.11219833276E+04  0.50400001928E-02 0. -1.
</event>
<event>
 5   0  0.2149029E-06  0.2390058E+04  0.7818609E-02  0.8443235E-01
       -1   -1    0    0    0  501  0.00000000000E+00  0.00000000000E+00  0.11043797094E+04  0.11043797094E+04  0.50400001928E-02 0. -1.
        1   -1    0    0  501    0  0.00000000000E+00  0.00000000000E+00 -0.12931189255E+04  0.12931189256E+04  0.50400001928E-02 0.  1.
    10030    2    1    2    0    0  0.00000000000E+00  0.00000000000E+00 -0.18873921619E+03  0.23974986349E+04  0.23900579936E+04 0.  0.
        4    1    3    3  502    0  0.30627596610E+03 -0.64002609413E+03 -0.10589526701E+04  0.12746845645E+04  0.12699999809E+01 0.  1.
       -4    1    3    3    0  502 -0.30627596610E+03  0.64002609413E+03  0.87021345388E+03  0.11228140704E+04  0.12699999809E+01 0. -1.
</event>
<event>
 5   0  0.2149417E-06  0.2402176E+04  0.7818609E-02  0.8438689E-01
        1   -1    0    0  501    0  0.00000000000E+00  0.00000000000E+00  0.15956218443E+04  0.15956218443E+04  0.50400001928E-02 0.  1.
       -1   -1    0    0    0  501  0.00000000000E+00  0.00000000000E+00 -0.90410665096E+03  0.90410665097E+03  0.50400001928E-02 0. -1.
    10030    2    1    2    0    0  0.00000000000E+00  0.00000000000E+00  0.69151519338E+03  0.24997284953E+04  0.24021759485E+04 0.  0.
        5    1    3    3  502    0  0.34477759032E+03  0.50910946734E+03 -0.72790099304E+03  0.95285150060E+03  0.46999998093E+01 0. -1.
       -5    1    3    3    0  502 -0.34477759032E+03 -0.50910946734E+03  0.14194161864E+04  0.15468769947E+04  0.46999998093E+01 0.  1.
</event>
<event>
 5   0  0.5371843E-06  0.2400172E+04  0.7818609E-02  0.8439439E-01
       -2   -1    0    0    0  501  0.00000000000E+00  0.00000000000E+00  0.15017079256E+04  0.15017079256E+04  0.25500000920E-02 0. -1.
        2   -1    0    0  501    0  0.00000000000E+00  0.00000000000E+00 -0.95904563423E+03  0.95904563423E+03  0.25500000920E-02 0.  1.
    10030    2    1    2    0    0  0.00000000000E+00  0.00000000000E+00  0.54266229133E+03  0.24607535598E+04  0.24001720188E+04 0.  0.
        4    1    3    3  502    0  0.70434680033E+03  0.96852489571E+03  0.35114154715E+03  0.12479771183E+04  0.12699999809E+01 0. -1.
       -4    1    3    3    0  502 -0.70434680033E+03 -0.96852489571E+03  0.19152074418E+03  0.12127764415E+04  0.12699999809E+01 0.  1.
</event>
<event>
 5   0  0.2297414E-06  0.2400753E+04  0.7818609E-02  0.8439222E-01
       -1   -1    0    0    0  501  0.00000000000E+00  0.00000000000E+00  0.14662988010E+04  0.14662988010E+04  0.50400001928E-02 0. -1.
        1   -1    0    0  501    0  0.00000000000E+00  0.00000000000E+00 -0.98268069596E+03  0.98268069597E+03  0.50400001928E-02 0.  1.
    10030    2    1    2    0    0  0.00000000000E+00  0.00000000000E+00  0.48361810503E+03  0.24489794970E+04  0.24007528205E+04 0.  0.
        1    1    3    3  502    0  0.62468545995E+03  0.59575823468E+03  0.10926773674E+04  0.13925170115E+04  0.50400001928E-02 0.  1.
       -1    1    3    3    0  502 -0.62468545995E+03 -0.59575823468E+03 -0.60905926239E+03  0.10564624855E+04  0.50400001928E-02 0. -1.
</event>
<event>
 5   0  0.5268358E-06  0.2399626E+04  0.7818609E-02  0.8439644E-01
        2   -1    0    0  501    0  0.00000000000E+00  0.00000000000E+00  0.24785561525E+04  0.24785561525E+04  0.25500000920E-02 0. -1.
       -2   -1    0    0    0  501  0.00000000000E+00  0.00000000000E+00 -0.58080220687E+03  0.58080220687E+03  0.25500000920E-02 0.  1.
    10030    2    1    2    0    0  0.00000000000E+00  0.00000000000E+00  0.18977539456E+04  0.30593583593E+04  0.23996257068E+04 0.  0.
        2    1    3    3  502    0 -0.96011493313E+03 -0.70116325616E+03  0.74290435744E+03  0.14019120803E+04  0.25500000920E-02 0. -1.
       -2    1    3    3    0  502  0.96011493313E+03  0.70116325616E+03  0.11548495882E+04  0.16574462790E+04  0.25500000920E-02 0.  1.
</event>
<event>
 5   0  0.5379778E-06  0.2400150E+04  0.7818609E-02  0.8439447E-01
        2   -1    0    0  501    0  0.00000000000E+00  0.00000000000E+00  0.12826298018E+04  0.12826298018E+04  0.25500000920E-02 0. -1.
       -2   -1    0    0    0  501  0.00000000000E+00  0.00000000000E+00 -0.11228338382E+04  0.11228338382E+04  0.25500000920E-02 0.  1.
    10030    2    1    2    0    0  0.00000000000E+00  0.00000000000E+00  0.15979596358E+03  0.24054636400E+04  0.24001501147E+04 0.  0.
        5    1    3    3  502    0 -0.69839637300E+03  0.53150865125E+02 -0.89672098040E+03  0.11378546106E+04  0.46999998093E+01 0.  1.
       -5    1    3    3    0  502  0.69839637300E+03 -0.53150865125E+02  0.10565169440E+04  0.12676090293E+04  0.46999998093E+01 0. -1.
</event>
<event>
 5   0  0.2215700E-06  0.2394196E+04  0.7818609E-02  0.8441680E-01
        1   -1    0    0  501    0  0.00000000000E+00  0.00000000000E+00  0.13663461867E+04  0.13663461867E+04  0.50400001928E-02 0.  1.
       -1   -1    0    0    0  501  0.00000000000E+00  0.00000000000E+00 -0.10488147098E+04  0.10488147098E+04  0.50400001928E-02 0. -1.
    10030    2    1    2    0    0  0.00000000000E+00  0.00000000000E+00  0.31753147688E+03  0.24151608965E+04  0.23941962988E+04 0.  0.
        3    1    3    3  502    0  0.10737353750E+03  0.92419149455E+03 -0.60107964373E+03  0.11076803435E+04  0.10100000352E+00 0. -1.
       -3    1    3    3    0  502 -0.10737353750E+03 -0.92419149455E+03  0.91861112061E+03  0.13074805529E+04  0.10100000352E+00 0.  1.
</event>
<event>
 5   0  0.2149417E-06  0.2404981E+04  0.7818609E-02  0.8437641E-01
       -1   -1    0    0    0  501  0.00000000000E+00  0.00000000000E+00  0.12899016638E+04  0.12899016638E+04  0.50400001928E-02 0.  1.
        1   -1    0    0  501    0  0.00000000000E+00  0.00000000000E+00 -0.11210026451E+04  0.11210026451E+04  0.50400001928E-02 0. -1.
    10030    2    1    2    0    0  0.00000000000E+00  0.00000000000E+00  0.16889901870E+03  0.24109043088E+04  0.24049808124E+04 0.  0.
        5    1    3    3  502    0  0.95374435131E+03 -0.71376155915E+03 -0.79897066377E+02  0.11939386426E+04  0.46999998093E+01 0. -1.
       -5    1    3    3    0  502 -0.95374435131E+03  0.71376155915E+03  0.24879608508E+03  0.12169656663E+04  0.46999998093E+01 0.  1.
</event>
<event>
 5   0  0.5268358E-06  0.2399858E+04  0.7818609E-02  0.8439557E-01
       -2   -1    0    0    0  501  0.00000000000E+00  0.00000000000E+00  0.14458205288E+04  0.14458205288E+04  0.25500000920E-02 0.  1.
        2   -1    0    0  501    0  0.00000000000E+00  0.00000000000E+00 -0.99585643717E+03  0.99585643718E+03  0.25500000920E-02 0. -1.
    10030    2    1    2    0    0  0.00000000000E+00  0.00000000000E+00  0.44996409161E+03  0.24416769660E+04  0.23998580630E+04 0.  0.
        2    1    3    3  502    0 -0.85418559704E+03 -0.83507066348E+03  0.34033151604E+03  0.12420956437E+04  0.25500000920E-02 0.  1.
       -2    1    3    3    0  502  0.85418559704E+03  0.83507066348E+03  0.10963257557E+03  0.11995813223E+04  0.25500000920E-02 0. -1.
</event>
<event>
 5   0  0.2149029E-06  0.2401844E+04  0.7818609E-02  0.8438813E-01
       -1   -1    0    0    0  501  0.00000000000E+00  0.00000000000E+00  0.12670790510E+04  0.12670790511E+04  0.50400001928E-02 0.  1.
        1   -1    0    0  501    0  0.00000000000E+00  0.00000000000E+00 -0.11382194372E+04  0.11382194372E+04  0.50400001928E-02 0. -1.
    10030    2    1    2    0    0  0.00000000000E+00  0.00000000000E+00  0.12885961385E+03  0.24052984883E+04  0.24018442950E+04 0.  0.
        4    1    3    3  502    0 -0.25757472223E+02  0.11453620349E+04 -0.29621969109E+03  0.11833280849E+04  0.12699999809E+01 0. -1.
       -4    1    3    3    0  502  0.25757472223E+02 -0.11453620349E+04  0.42507930493E+03  0.12219704033E+04  0.12699999809E+01 0.  1.
</event>
<event>
 5   0  0.5440503E-06  0.2399370E+04  0.7818609E-02  0.8439740E-01
       -2   -1    0    0    0  501  0.00000000000E+00  0.00000000000E+00  0.92672492084E+03  0.92672492085E+03  0.25500000920E-02 0.  1.
        2   -1    0    0  501    0  0.00000000000E+00  0.00000000000E+00 -0.15530429018E+04  0.15530429018E+04  0.25500000920E-02 0. -1.
    10030    2    1    2    0    0  0.00000000000E+00  0.00000000000E+00 -0.62631798097E+03  0.24797678227E+04  0.23993695507E+04 0.  0.
        3    1    3    3  502    0  0.11605717969E+04  0.17220751354E+03 -0.54448926761E+02  0.11745411953E+04  0.10100000352E+00 0.  1.
       -3    1    3    3    0  502 -0.11605717969E+04 -0.17220751354E+03 -0.57186905421E+03  0.13052266274E+04  0.10100000352E+00 0. -1.
</event>
<event>
 5   0  0.5379778E-06  0.2400377E+04  0.7818609E-02  0.8439362E-01
       -2   -1    0    0    0  501  0.00000000000E+00  0.00000000000E+00  0.62775894163E+03  0.62775894164E+03  0.25500000920E-02 0. -1.
        2   -1    0    0  501    0  0.00000000000E+00  0.00000000000E+00 -0.22945950746E+04  0.22945950746E+04  0.25500000920E-02 0.  1.
    10030    2    1    2    0    0  0.00000000000E+00  0.00000000000E+00 -0.16668361330E+04  0.29223540163E+04  0.24003771166E+04 0.  0.
        5    1    3    3  502    0  0.66710180430E+03 -0.60435494247E+03 -0.17998672641E+04  0.20124149603E+04  0.46999998093E+01 0.  1.
       -5    1    3    3    0  502 -0.66710180430E+03  0.60435494247E+03  0.13303113115E+03  0.90993905600E+03  0.46999998093E+01 0. -1.
</event>
<event>
 5   0  0.5349036E-06  0.2408653E+04  0.7818609E-02  0.8436271E-01
       -2   -1    0    0    0  501  0.00000000000E+00  0.00000000000E+00  0.59784509515E+03  0.59784509516E+03  0.25500000920E-02 0. -1.
        2   -1    0    0  501    0  0.00000000000E+00  0.00000000000E+00 -0.24260498858E+04  0.24260498858E+04  0.25500000920E-02 0.  1.
    10030    2    1    2    0    0  0.00000000000E+00  0.00000000000E+00 -0.18282047907E+04  0.30238949810E+04  0.24086527561E+04 0.  0.
        1    1    3    3  502    0  0.51116536642E+03 -0.10890101187E+04 -0.98477490276E+03  0.15546751042E+04  0.50400001928E-02 0.  1.
       -1    1    3    3    0  502 -0.51116536642E+03  0.10890101187E+04 -0.84342988791E+03  0.14692198768E+04  0.50400001928E-02 0. -1.
</event>
<event>
 5   0  0.2297414E-06  0.2401503E+04  0.7818609E-02  0.8438941E-01
       -1   -1    0    0    0  501  0.00000000000E+00  0.00000000000E+00  0.62047973371E+03  0.62047973373E+03  0.50400001928E-02 0. -1.
        1   -1    0    0  501    0  0.00000000000E+00  0.00000000000E+00 -0.23236930115E+04  0.23236930115E+04  0.50400001928E-02 0.  1.
    10030    2    1    2    0    0  0.00000000000E+00  0.00000000000E+00 -0.17032132777E+04  0.29441727452E+04  0.24015032134E+04 0.  0.
        1    1    3    3  502    0 -0.26698502515E+03  0.88558340925E+03 -0.17903076024E+04  0.20151278594E+04  0.50400001928E-02 0.  1.
       -1    1    3    3    0  502  0.26698502515E+03 -0.88558340925E+03  0.87094324679E+02  0.92904488579E+03  0.50400001928E-02 0. -1.
</event>
<event>
 5   0  0.5349036E-06  0.2426672E+04  0.7818609E-02  0.8429585E-01
        2   -1    0    0  501    0  0.00000000000E+00  0.00000000000E+00  0.87562289543E+03  0.87562289543E+03  0.25500000920E-02 0. -1.
       -2   -1    0    0    0  501  0.00000000000E+00  0.00000000000E+00 -0.16812987259E+04  0.16812987259E+04  0.25500000920E-02 0.  1.
    10030    2    1    2    0    0  0.00000000000E+00  0.00000000000E+00 -0.80567583047E+03  0.25569216213E+04  0.24266715134E+04 0.  0.
        1    1    3    3  502    0 -0.36917172995E+03  0.35770584922E+03  0.75521802763E+03  0.91356199026E+03  0.50400001928E-02 0. -1.
       -1    1    3    3    0  502  0.36917172995E+03 -0.35770584922E+03 -0.15608938581E+04  0.16433596311E+04  0.50400001928E-02 0.  1.
</event>
<event>
 5   0  0.2297414E-06  0.2410250E+04  0.7818609E-02  0.8435676E-01
        1   -1    0    0  501    0  0.00000000000E+00  0.00000000000E+00  0.18688297907E+04  0.18688297907E+04  0.50400001928E-02 0. -1.
       -1   -1    0    0    0  501  0.00000000000E+00  0.00000000000E+00 -0.77713133616E+03  0.77713133617E+03  0.50400001928E-02 0.  1.
    10030    2    1    2    0    0  0.00000000000E+00  0.00000000000E+00  0.10916984545E+04  0.26459611268E+04  0.24102499391E+04 0.  0.
        1    1    3    3  502    0 -0.90816095246E+03  0.44194459900E+03  0.12676067437E+04  0.16207708662E+04  0.50400001928E-02 0. -1.
       -1    1    3    3    0  502  0.90816095246E+03 -0.44194459900E+03 -0.17590828922E+03  0.10251902606E+04  0.50400001928E-02 0.  1.
</event>
<event>
 5   0  0.5371843E-06  0.2398163E+04  0.7818609E-02  0.8440192E-01
       -2   -1    0    0    0  501  0.00000000000E+00  0.00000000000E+00  0.96143447597E+03  0.96143447597E+03  0.25500000920E-02 0.  1.
        2   -1    0    0  501    0  0.00000000000E+00  0.00000000000E+00 -0.14954696928E+04  0.14954696928E+04  0.25500000920E-02 0. -1.
    10030    2    1    2    0    0  0.00000000000E+00  0.00000000000E+00 -0.53403521680E+03  0.24569041687E+04  0.23981627304E+04 0.  0.
        4    1    3    3  502    0  0.30795653349E+03 -0.11443549471E+04 -0.45427610868E+03  0.12691547846E+04  0.12699999809E+01 0. -1.
       -4    1    3    3    0  502 -0.30795653349E+03  0.11443549471E+04 -0.79759108117E+02  0.11877493842E+04  0.12699999809E+01 0.  1.
</event>
<event>
 5   0  0.2297414E-06  0.2401890E+04  0.7818609E-02  0.8438796E-01
        1   -1    0    0  501    0  0.00000000000E+00  0.00000000000E+00  0.10082216087E+04  0.10082216087E+04  0.50400001928E-02 0.  1.
       -1   -1    0    0    0  501  0.00000000000E+00  0.00000000000E+00 -0.14305080104E+04  0.14305080105E+04  0.50400001928E-02 0. -1.
    10030    2    1    2    0    0  0.00000000000E+00  0.00000000000E+00 -0.42228640179E+03  0.24387296191E+04  0.24018901620E+04 0.  0.
        1    1    3    3  502    0 -0.22688242445E+03  0.26693318018E+03  0.95518777775E+03  0.10174048594E+04  0.50400001928E-02 0.  1.
       -1    1    3    3    0  502  0.22688242445E+03 -0.26693318018E+03 -0.13774741795E+04  0.14213247597E+04  0.50400001928E-02 0. -1.
</event>
<event>
 5   0  0.5379778E-06  0.2398526E+04  0.7818609E-02  0.8440056E-01
       -2   -1    0    0    0  501  0.00000000000E+00  0.00000000000E+00  0.11455344291E+04  0.11455344291E+04  0.25500000920E-02 0.  1.
        2   -1    0    0  501    0  0.00000000000E+00  0.00000000000E+00 -0.12555112469E+04  0.12555112469E+04  0.25500000920E-02 0. -1.
    10030    2    1    2    0    0  0.00000000000E+00  0.00000000000E+00 -0.10997681775E+03  0.24010456760E+04  0.23985256801E+04 0.  0.
        5    1    3    3  502    0 -0.55246628956E+03 -0.96180625964E+03  0.40147201039E+03  0.11796152539E+04  0.46999998093E+01 0.  1.
       -5    1    3    3    0  502  0.55246628956E+03  0.96180625964E+03 -0.51144882814E+03  0.12214304221E+04  0.46999998093E+01 0. -1.
</event>
<event>
 5   0  0.1796750E-06  0.2403761E+04  0.7818609E-02  0.8438097E-01
        4   -1    0    0  501    0  0.00000000000E+00  0.00000000000E+00  0.68249648841E+03  0.68249767003E+03  0.12699999809E+01 0.  1.
       -4   -1    0    0    0  501  0.00000000000E+00  0.00000000000E+00 -0.21165154237E+04  0.21165158047E+04  0.12699999809E+01 0. -1.
    10030    2    1    2    0    0  0.00000000000E+00  0.00000000000E+00 -0.14340189353E+04  0.27990134747E+04  0.24037608294E+04 0.  0.
        2    1    3    3  502    0 -0.83810207903E+02  0.11332516675E+04 -0.26119307276E+03  0.11659782649E+04  0.25500000920E-02 0.  1.
       -2    1    3    3    0  502  0.83810207903E+02 -0.11332516675E+04 -0.11728258625E+04  0.16330352099E+04  0.25500000920E-02 0. -1.
</event>
<event>
 5   0  0.5268358E-06  0.2400361E+04  0.7818609E-02  0.8439369E-01
        2   -1    0    0  501    0  0.00000000000E+00  0.00000000000E+00  0.17877636805E+04  0.17877636805E+04  0.25500000920E-02 0.  1.
       -2   -1    0    0    0  501  0.00000000000E+00  0.00000000000E+00 -0.80571768827E+03  0.80571768827E+03  0.25500000920E-02 0. -1.
    10030    2    1    2    0    0  0.00000000000E+00  0.00000000000E+00  0.98204599219E+03  0.25934813687E+04  0.24003606561E+04 0.  0.
        2    1    3    3  502    0 -0.70983431480E+03  0.81663714990E+03 -0.70056533821E+02  0.10842826693E+04  0.25500000920E-02 0.  1.
       -2    1    3    3    0  502  0.70983431480E+03 -0.81663714990E+03  0.10521025260E+04  0.15091986994E+04  0.25500000920E-02 0. -1.
</event>
<event>
 5   0  0.5268358E-06  0.2401009E+04  0.7818609E-02  0.8439126E-01
        2   -1    0    0  501    0  0.00000000000E+00  0.00000000000E+00  0.11754443321E+04  0.11754443321E+04  0.25500000920E-02 0. -1.
       -2   -1    0    0    0  501  0.00000000000E+00  0.00000000000E+00 -0.12260993592E+04  0.12260993592E+04  0.25500000920E-02 0.  1.
    10030    2    1    2    0    0  0.00000000000E+00  0.00000000000E+00 -0.50655027116E+02  0.24015436913E+04  0.24010094064E+04 0.  0.
        2    1    3    3  502    0 -0.13424268586E+03 -0.10991321585E+04  0.43856329497E+03  0.11909871386E+04  0.25500000920E-02 0. -1.
       -2    1    3    3    0  502  0.13424268586E+03  0.10991321585E+04 -0.48921832208E+03  0.12105565527E+04  0.25500000920E-02 0.  1.
</event>
<event>
 5   0  0.5349036E-06  0.2413142E+04  0.7818609E-02  0.8434600E-01
       -2   -1    0    0    0  501  0.00000000000E+00  0.00000000000E+00  0.67209417865E+03  0.67209417866E+03  0.25500000920E-02 0. -1.
        2   -1    0    0  501    0  0.00000000000E+00  0.00000000000E+00 -0.21660858670E+04  0.21660858670E+04  0.25500000920E-02 0.  1.
    10030    2    1    2    0    0  0.00000000000E+00  0.00000000000E+00 -0.14939916884E+04  0.28381800457E+04  0.24131421025E+04 0.  0.
        1    1    3    3  502    0  0.91536920848E+03  0.12986183986E+03 -0.16588217328E+04  0.18990667251E+04  0.50400001928E-02 0.  1.
       -1    1    3    3    0  502 -0.91536920848E+03 -0.12986183986E+03  0.16483004442E+03  0.93911332056E+03  0.50400001928E-02 0. -1.
</event>
<event>
 5   0  0.2149417E-06  0.2401743E+04  0.7818609E-02  0.8438851E-01
       -1   -1    0    0    0  501  0.00000000000E+00  0.00000000000E+00  0.60005593133E+03  0.60005593135E+03  0.50400001928E-02 0.  1.
        1   -1    0    0  501    0  0.00000000000E+00  0.00000000000E+00 -0.24032636641E+04  0.24032636641E+04  0.50400001928E-02 0. -1.
    10030    2    1    2    0    0  0.00000000000E+00  0.00000000000E+00 -0.18032077328E+04  0.30033195955E+04  0.24017432138E+04 0.  0.
        5    1    3    3  502    0 -0.12809207291E+03  0.39764091619E+03  0.50624686413E+03  0.65637935282E+03  0.46999998093E+01 0.  1.
       -5    1    3    3    0  502  0.12809207291E+03 -0.39764091619E+03 -0.23094545969E+04  0.23469402427E+04  0.46999998093E+01 0. -1.
</event>
<event>
 5   0  0.2215700E-06  0.2430301E+04  0.7818609E-02  0.8428246E-01
       -1   -1    0    0    0  501  0.00000000000E+00  0.00000000000E+00  0.80752439744E+03  0.80752439745E+03  0.50400001928E-02 0. -1.
        1   -1    0    0  501    0  0.00000000000E+00  0.00000000000E+00 -0.18285405605E+04  0.18285405605E+04  0.50400001928E-02 0.  1.
    10030    2    1    2    0    0  0.00000000000E+00  0.00000000000E+00 -0.10210161630E+04  0.26360649579E+04  0.24303013100E+04 0.  0.
        3    1    3    3  502    0 -0.25134558435E+03 -0.33726504509E+03  0.72604377003E+03  0.83908395266E+03  0.10100000352E+00 0. -1.
       -3    1    3    3    0  502  0.25134558435E+03  0.33726504509E+03 -0.17470599331E+04  0.17969810053E+04  0.10100000352E+00 0.  1.
</event>
<event>
 5   0  0.5440503E-06  0.2397505E+04  0.7818609E-02  0.8440438E-01
        2   -1    0    0  501    0  0.00000000000E+00  0.00000000000E+00  0.81742589612E+03  0.81742589612E+03  0.25500000920E-02 0. -1.
       -2   -1    0    0    0  501  0.00000000000E+00  0.00000000000E+00 -0.17579671209E+04  0.17579671209E+04  0.25500000920E-02 0.  1.
    10030    2    1    2    0    0  0.00000000000E+00  0.00000000000E+00 -0.94054122474E+03  0.25753930170E+04  0.23975052443E+04 0.  0.
        3    1    3    3  502    0 -0.77886686955E+03  0.83460166633E+03 -0.86321872433E+03  0.14312023331E+04  0.10100000352E+00 0.  1.
       -3    1    3    3    0  502  0.77886686955E+03 -0.83460166633E+03 -0.77322500405E+02  0.11441906839E+04  0.10100000352E+00 0. -1.
</event>
<event>
 5   0  0.2297414E-06  0.2401580E+04  0.7818609E-02  0.8438912E-01
       -1   -1    0    0    0  501  0.00000000000E+00  0.00000000000E+00  0.88895125063E+03  0.88895125064E+03  0.50400001928E-02 0. -1.
        1   -1    0    0  501    0  0.00000000000E+00  0.00000000000E+00 -0.16220201950E+04  0.16220201950E+04  0.50400001928E-02 0.  1.
    10030    2    1    2    0    0  0.00000000000E+00  0.00000000000E+00 -0.73306894432E+03  0.25109714456E+04  0.24015802138E+04 0.  0.
        1    1    3    3  502    0  0.89646064551E+03  0.20683605493E+03 -0.11733534276E+04  0.14910335706E+04  0.50400001928E-02 0.  1.
       -1    1    3    3    0  502 -0.89646064551E+03 -0.20683605493E+03  0.44028448330E+03  0.10199378750E+04  0.50400001928E-02 0. -1.
</event>
<event>
 5   0  0.5268358E-06  0.2401925E+04  0.7818609E-02  0.8438783E-01
        2   -1    0    0  501    0  0.00000000000E+00  0.00000000000E+00  0.10996406545E+04  0.10996406545E+04  0.25500000920E-02 0. -1.
       -2   -1    0    0    0  501  0.00000000000E+00  0.00000000000E+00 -0.13116206139E+04  0.13116206139E+04  0.25500000920E-02 0.  1.
    10030    2    1    2    0    0  0.00000000000E+00  0.00000000000E+00 -0.21197995939E+03  0.24112612684E+04  0.24019253530E+04 0.  0.
        2    1    3    3  502    0 -0.83855067701E+03 -0.85950136981E+03 -0.12610552125E+03  0.12073990414E+04  0.25500000920E-02 0. -1.
       -2    1    3    3    0  502  0.83855067701E+03  0.85950136981E+03 -0.85874438138E+02  0.12038622271E+04  0.25500000920E-02 0.  1.
</event>
<event>
 5   0  0.2149029E-06  0.2388071E+04  0.7818609E-02  0.8443983E-01
        1   -1    0    0  501    0  0.00000000000E+00  0.00000000000E+00  0.11812353483E+04  0.11812353483E+04  0.50400001928E-02 0. -1.
       -1   -1    0    0    0  501  0.00000000000E+00  0.00000000000E+00 -0.12069743009E+04  0.12069743009E+04  0.50400001928E-02 0.  1.
    10030    2    1    2    0    0  0.00000000000E+00  0.00000000000E+00 -0.25738952607E+02  0.23882096492E+04  0.23880709443E+04 0.  0.
        4    1    3    3  502    0  0.36705118286E+03  0.64741685175E+03 -0.94664954978E+03  0.12041686484E+04  0.12699999809E+01 0.  1.
       -4    1    3    3    0  502 -0.36705118286E+03 -0.64741685175E+03  0.92091059718E+03  0.11840410008E+04  0.12699999809E+01 0. -1.
</event>
<event>
 5   0  0.2297414E-06  0.2400192E+04  0.7818609E-02  0.8439432E-01
       -1   -1    0    0    0  501  0.00000000000E+00  0.00000000000E+00  0.59591486118E+03  0.59591486120E+03  0.50400001928E-02 0. -1.
        1   -1    0    0  501    0  0.00000000000E+00  0.00000000000E+00 -0.24168388682E+04  0.24168388682E+04  0.50400001928E-02 0.  1.
    10030    2    1    2    0    0  0.00000000000E+00  0.00000000000E+00 -0.18209240070E+04  0.30127537294E+04  0.24001918246E+04 0.  0.
        1    1    3    3  502    0 -0.15983295610E+03 -0.16757378906E+03 -0.23885275491E+04  0.23997273599E+04  0.50400001928E-02 0.  1.
       -1    1    3    3    0  502  0.15983295610E+03  0.16757378906E+03  0.56760354215E+03  0.61302636952E+03  0.50400001928E-02 0. -1.
</event>
<event>
 5   0  0.2254269E-06  0.2444066E+04  0.7818609E-02  0.8423188E-01
       -1   -1    0    0    0  501  0.00000000000E+00  0.00000000000E+00  0.84094809486E+03  0.84094809487E+03  0.50400001928E-02 0. -1.
        1   -1    0    0  501    0  0.00000000000E+00  0.00000000000E+00 -0.17758114330E+04  0.17758114330E+04  0.50400001928E-02 0.  1.
    10030    2    1    2    0    0  0.00000000000E+00  0.00000000000E+00 -0.93486333813E+03  0.26167595279E+04  0.24440664814E+04 0.  0.
        2    1    3    3  502    0 -0.89576905786E+03 -0.69304736569E+03  0.23962350149E+02  0.11328243687E+04  0.25500000920E-02 0. -1.
       -2    1    3    3    0  502  0.89576905786E+03  0.69304736569E+03 -0.95882568828E+03  0.14839351592E+04  0.25500000920E-02 0.  1.
</event>
<event>
 5   0  0.2149417E-06  0.2399730E+04  0.7818609E-02  0.8439605E-01
       -1   -1    0    0    0  501  0.00000000000E+00  0.00000000000E+00  0.58659996831E+03  0.58659996833E+03  0.50400001928E-02 0.  1.
        1   -1    0    0  501    0  0.00000000000E+00  0.00000000000E+00 -0.24542729583E+04  0.24542729583E+04  0.50400001928E-02 0. -1.
    10030    2    1    2    0    0  0.00000000000E+00  0.00000000000E+00 -0.18676729900E+04  0.30408729267E+04  0.23997303512E+04 0.  0.
        5    1    3    3  502    0  0.94089085057E+03 -0.44731073738E+01  0.96404244703E+01  0.94096260773E+03  0.46999998093E+01 0.  1.
       -5    1    3    3    0  502 -0.94089085057E+03  0.44731073738E+01 -0.18773134145E+04  0.20999103189E+04  0.46999998093E+01 0. -1.
</event>
<event>
 5   0  0.5371843E-06  0.2401189E+04  0.7818609E-02  0.8439059E-01
       -2   -1    0    0    0  501  0.00000000000E+00  0.00000000000E+00  0.12657486612E+04  0.12657486612E+04  0.25500000920E-02 0. -1.
        2   -1    0    0  501    0  0.00000000000E+00  0.00000000000E+00 -0.11387940125E+04  0.11387940125E+04  0.25500000920E-02 0.  1.
    10030    2    1    2    0    0  0.00000000000E+00  0.00000000000E+00  0.12695464866E+03  0.24045426738E+04  0.24011888695E+04 0.  0.
        4    1    3    3  502    0 -0.56249834903E+03 -0.60343119714E+03 -0.81003213836E+03  0.11561519279E+04  0.12699999809E+01 0.  1.
       -4    1    3    3    0  502  0.56249834903E+03  0.60343119714E+03  0.93698678703E+03  0.12483907458E+04  0.12699999809E+01 0. -1.
</event>
<event>
 5   0  0.5371843E-06  0.2399638E+04  0.7818609E-02  0.8439639E-01
       -2   -1    0    0    0  501  0.00000000000E+00  0.00000000000E+00  0.12791752646E+04  0.12791752646E+04  0.25500000920E-02 0. -1.
        2   -1    0    0  501    0  0.00000000000E+00  0.00000000000E+00 -0.11253853410E+04  0.11253853410E+04  0.25500000920E-02 0.  1.
    10030    2    1    2    0    0  0.00000000000E+00  0.00000000000E+00  0.15378992364E+03  0.24045606057E+04  0.23996375488E+04 0.  0.
        4    1    3    3  502    0  0.88391640336E+03  0.63398730256E+03  0.58420961189E+03  0.12347269299E+04  0.12699999809E+01 0. -1.
       -4    1    3    3    0  502 -0.88391640336E+03 -0.63398730256E+03 -0.43041968825E+03  0.11698336757E+04  0.12699999809E+01 0.  1.
</event>
<event>
 5   0  0.2254269E-06  0.2401363E+04  0.7818609E-02  0.8438993E-01
       -1   -1    0    0    0  501  0.00000000000E+00  0.00000000000E+00  0.10867690001E+04  0.10867690001E+04  0.50400001928E-02 0.  1.
        1   -1    0    0  501    0  0.00000000000E+00  0.00000000000E+00 -0.13265344141E+04  0.13265344141E+04  0.50400001928E-02 0. -1.
    10030    2    1    2    0    0  0.00000000000E+00  0.00000000000E+00 -0.23976541401E+03  0.24133034142E+04  0.24013633451E+04 0.  0.
        2    1    3    3  502    0 -0.15961847041E+03  0.77135377798E+03  0.79080831697E+03  0.11161731501E+04  0.25500000920E-02 0.  1.
       -2    1    3    3    0  502  0.15961847041E+03 -0.77135377798E+03 -0.10305737310E+04  0.12971302640E+04  0.25500000920E-02 0. -1.
</event>
<event>
 5   0  0.5371843E-06  0.2401606E+04  0.7818609E-02  0.8438902E-01
       -2   -1    0    0    0  501  0.00000000000E+00  0.00000000000E+00  0.64414701469E+03  0.64414701470E+03  0.25500000920E-02 0. -1.
        2   -1    0    0  501    0  0.00000000000E+00  0.00000000000E+00 -0.22385076400E+04  0.22385076400E+04  0.25500000920E-02 0.  1.
    10030    2    1    2    0    0  0.00000000000E+00  0.00000000000E+00 -0.15943606253E+04  0.28826546547E+04  0.24016061407E+04 0.  0.
        4    1    3    3  502    0 -0.72925593474E+03 -0.75243639833E+03 -0.15011266103E+04  0.18306713153E+04  0.12699999809E+01 0.  1.
       -4    1    3    3    0  502  0.72925593474E+03  0.75243639833E+03 -0.93234015074E+02  0.10519833394E+04  0.12699999809E+01 0. -1.
</event>
<event>
 5   0  0.5349036E-06  0.2407705E+04  0.7818609E-02  0.8436625E-01
        2   -1    0    0  501    0  0.00000000000E+00  0.00000000000E+00  0.12220262393E+04  0.12220262393E+04  0.25500000920E-02 0.  1.
       -2   -1    0    0    0  501  0.00000000000E+00  0.00000000000E+00 -0.11859490060E+04  0.11859490060E+04  0.25500000920E-02 0. -1.
    10030    2    1    2    0    0  0.00000000000E+00  0.00000000000E+00  0.36077233244E+02  0.24079752453E+04  0.24077049685E+04 0.  0.
        1    1    3    3  502    0  0.33864826323E+03 -0.11213858413E+04  0.29568813832E+03  0.12081474771E+04  0.50400001928E-02 0.  1.
       -1    1    3    3    0  502 -0.33864826323E+03  0.11213858413E+04 -0.25961090508E+03  0.11998277682E+04  0.50400001928E-02 0. -1.
</event>
<event>
 5   0  0.5371843E-06  0.2401222E+04  0.7818609E-02  0.8439046E-01
       -2   -1    0    0    0  501  0.00000000000E+00  0.00000000000E+00  0.13127252251E+04  0.13127252251E+04  0.25500000920E-02 0.  1.
        2   -1    0    0  501    0  0.00000000000E+00  0.00000000000E+00 -0.10980720845E+04  0.10980720845E+04  0.25500000920E-02 0. -1.
    10030    2    1    2    0    0  0.00000000000E+00  0.00000000000E+00  0.21465314067E+03  0.24107973096E+04  0.24012221257E+04 0.  0.
        4    1    3    3  502    0 -0.80843536373E+02  0.24872296553E+03 -0.10691252623E+04  0.11006494585E+04  0.12699999809E+01 0. -1.
       -4    1    3    3    0  502  0.80843536373E+02 -0.24872296553E+03  0.12837784030E+04  0.13101478511E+04  0.12699999809E+01 0.  1.
</event>
<event>
 5   0  0.2149417E-06  0.2400684E+04  0.7818609E-02  0.8439248E-01
        1   -1    0    0  501    0  0.00000000000E+00  0.00000000000E+00  0.98630384401E+03  0.98630384402E+03  0.50400001928E-02 0. -1.
       -1   -1    0    0    0  501  0.00000000000E+00  0.00000000000E+00 -0.14608285201E+04  0.14608285201E+04  0.50400001928E-02 0.  1.
    10030    2    1    2    0    0  0.00000000000E+00  0.00000000000E+00 -0.47452467605E+03  0.24471323641E+04  0.24006838899E+04 0.  0.
        5    1    3    3  502    0  0.73842134828E+03  0.77911597129E+03  0.31026222004E+03  0.11173954177E+04  0.46999998093E+01 0. -1.
       -5    1    3    3    0  502 -0.73842134828E+03 -0.77911597129E+03 -0.78478689609E+03  0.13297369464E+04  0.46999998093E+01 0.  1.
</event>
<event>
 5   0  0.5379778E-06  0.2397025E+04  0.7818609E-02  0.8440618E-01
       -2   -1    0    0    0  501  0.00000000000E+00  0.00000000000E+00  0.81637072099E+03  0.81637072099E+03  0.25500000920E-02 0. -1.
        2   -1    0    0  501    0  0.00000000000E+00  0.00000000000E+00 -0.17595338803E+04  0.17595338803E+04  0.25500000920E-02 0.  1.
    10030    2    1    2    0    0  0.00000000000E+00  0.00000000000E+00 -0.94316315936E+03  0.25759046013E+04  0.23970247746E+04 0.  0.
        5    1    3    3  502    0 -0.95150274298E+03  0.21968702500E+03 -0.12182647836E+04  0.15613491063E+04  0.46999998093E+01 0. -1.
       -5    1    3    3    0  502  0.95150274298E+03 -0.21968702500E+03  0.27510162422E+03  0.10145554950E+04  0.46999998093E+01 0.  1.
</event>
<event>
 5   0  0.2149417E-06  0.2394613E+04  0.7818609E-02  0.8441523E-01
        1   -1    0    0  501    0  0.00000000000E+00  0.00000000000E+00  0.22980307494E+04  0.22980307494E+04  0.50400001928E-02 0. -1.
       -1   -1    0    0    0  501  0.00000000000E+00  0.00000000000E+00 -0.62381365309E+03  0.62381365311E+03  0.50400001928E-02 0.  1.
    10030    2    1    2    0    0  0.00000000000E+00  0.00000000000E+00  0.16742170963E+04  0.29218444025E+04  0.23946130850E+04 0.  0.
        5    1    3    3  502    0  0.11604894146E+04  0.19151052742E+03  0.56397239924E+03  0.13044151642E+04  0.46999998093E+01 0.  1.
       -5    1    3    3    0  502 -0.11604894146E+04 -0.19151052742E+03  0.11102446971E+04  0.16174292383E+04  0.46999998093E+01 0. -1.
</event>
<event>
 5   0  0.2215700E-06  0.2405220E+04  0.7818609E-02  0.8437552E-01
        1   -1    0    0  501    0  0.00000000000E+00  0.00000000000E+00  0.10439376434E+04  0.10439376434E+04  0.50400001928E-02 0. -1.
       -1   -1    0    0    0  501  0.00000000000E+00  0.00000000000E+00 -0.13854000543E+04  0.13854000543E+04  0.50400001928E-02 0.  1.
    10030    2    1    2    0    0  0.00000000000E+00  0.00000000000E+00 -0.34146241099E+03  0.24293376977E+04  0.24052203790E+04 0.  0.
        3    1    3    3  502    0 -0.39604056107E+02  0.12014889511E+04 -0.20463979898E+03  0.12194349668E+04  0.10100000352E+00 0. -1.
       -3    1    3    3    0  502  0.39604056107E+02 -0.12014889511E+04 -0.13682261201E+03  0.12099027309E+04  0.10100000352E+00 0.  1.
</event>
<event>
 5   0  0.5379778E-06  0.2398186E+04  0.7818609E-02  0.8440183E-01
       -2   -1    0    0    0  501  0.00000000000E+00  0.00000000000E+00  0.61448495470E+03  0.61448495471E+03  0.25500000920E-02 0. -1.
        2   -1    0    0  501    0  0.00000000000E+00  0.00000000000E+00 -0.23398854447E+04  0.23398854447E+04  0.25500000920E-02 0.  1.
    10030    2    1    2    0    0  0.00000000000E+00  0.00000000000E+00 -0.17254004900E+04  0.29543703994E+04  0.23981863159E+04 0.  0.
        5    1    3    3  502    0  0.10430345933E+04 -0.39208410847E+03 -0.14083041977E+04  0.17958268052E+04  0.46999998093E+01 0.  1.
       -5    1    3    3    0  502 -0.10430345933E+04  0.39208410847E+03 -0.31709629225E+03  0.11585435942E+04  0.46999998093E+01 0. -1.
</event>
<event>
 5   0  0.2297414E-06  0.2396018E+04  0.7818609E-02  0.8440996E-01
        1   -1    0    0  501    0  0.00000000000E+00  0.00000000000E+00  0.10936766290E+04  0.10936766290E+04  0.50400001928E-02 0.  1.
       -1   -1    0    0    0  501  0.00000000000E+00  0.00000000000E+00 -0.13122938843E+04  0.13122938843E+04  0.50400001928E-02 0. -1.
    10030    2    1    2    0    0  0.00000000000E+00  0.00000000000E+00 -0.21861725527E+03  0.24059705133E+04  0.23960176558E+04 0.  0.
        1    1    3    3  502    0  0.36885420287E+03 -0.10900485468E+04 -0.44380779822E+03  0.12333793493E+04  0.50400001928E-02 0. -1.
       -1    1    3    3    0  502 -0.36885420287E+03  0.10900485468E+04  0.22519054295E+03  0.11725911641E+04  0.50400001928E-02 0.  1.
</event>
<event>
 5   0  0.2149029E-06  0.2395972E+04  0.7818609E-02  0.8441013E-01
       -1   -1    0    0    0  501  0.00000000000E+00  0.00000000000E+00  0.75631075164E+03  0.75631075165E+03  0.50400001928E-02 0.  1.
        1   -1    0    0  501    0  0.00000000000E+00  0.00000000000E+00 -0.18975929065E+04  0.18975929065E+04  0.50400001928E-02 0. -1.
    10030    2    1    2    0    0  0.00000000000E+00  0.00000000000E+00 -0.11412821549E+04  0.26539036582E+04  0.23959715503E+04 0.  0.
        4    1    3    3  502    0 -0.10679093752E+03  0.10157819661E+04  0.12281567793E+03  0.10287383587E+04  0.12699999809E+01 0.  1.
       -4    1    3    3    0  502  0.10679093752E+03 -0.10157819661E+04 -0.12640978328E+04  0.16251652995E+04  0.12699999809E+01 0. -1.
</event>
<event>
 5   0  0.2149417E-06  0.2384501E+04  0.7818609E-02  0.8445329E-01
        1   -1    0    0  501    0  0.00000000000E+00  0.00000000000E+00  0.17742813762E+04  0.17742813762E+04  0.50400001928E-02 0.  1.
       -1   -1    0    0    0  501  0.00000000000E+00  0.00000000000E+00 -0.80114781127E+03  0.80114781129E+03  0.50400001928E-02 0. -1.
    10030    2    1    2    0    0  0.00000000000E+00  0.00000000000E+00  0.97313356495E+03  0.25754291875E+04  0.23845013241E+04 0.  0.
        5    1    3    3  502    0 -0.89882934402E+03 -0.66236246279E+02  0.13295463819E+04  0.16062369382E+04  0.46999998093E+01 0.  1.
       -5    1    3    3    0  502  0.89882934402E+03  0.66236246279E+02 -0.35641281698E+03  0.96919224930E+03  0.46999998093E+01 0. -1.
</event>
<event>
 5   0  0.2297414E-06  0.2376880E+04  0.7818609E-02  0.8448210E-01
       -1   -1    0    0    0  501  0.00000000000E+00  0.00000000000E+00  0.90788736907E+03  0.90788736908E+03  0.50400001928E-02 0.  1.
        1   -1    0    0  501    0  0.00000000000E+00  0.00000000000E+00 -0.15556884052E+04  0.15556884052E+04  0.50400001928E-02 0. -1.
    10030    2    1    2    0    0  0.00000000000E+00  0.00000000000E+00 -0.64780103617E+03  0.24635757743E+04  0.23768801849E+04 0.  0.
        1    1    3    3  502    0  0.31575864959E+03  0.13354283858E+03  0.85552035014E+03  0.92165735719E+03  0.50400001928E-02 0.  1.
       -1    1    3    3    0  502 -0.31575864959E+03 -0.13354283858E+03 -0.15033213863E+04  0.15419184171E+04  0.50400001928E-02 0. -1.
</event>
<event>
 5   0  0.2297414E-06  0.2399240E+04  0.7818609E-02  0.8439788E-01
       -1   -1    0    0    0  501  0.00000000000E+00  0.00000000000E+00  0.79777895599E+03  0.79777895601E+03  0.50400001928E-02 0. -1.
        1   -1    0    0  501    0  0.00000000000E+00  0.00000000000E+00 -0.18038684387E+04  0.18038684387E+04  0.50400001928E-02 0.  1.
    10030    2    1    2    0    0  0.00000000000E+00  0.00000000000E+00 -0.10060894827E+04  0.26016473947E+04  0.23992401129E+04 0.  0.
        1    1    3    3  502    0 -0.34271548362E+03  0.66219888763E+03 -0.15220731834E+04  0.16948947003E+04  0.50400001928E-02 0.  1.
       -1    1    3    3    0  502  0.34271548362E+03 -0.66219888763E+03  0.51598370066E+03  0.90675269443E+03  0.50400001928E-02 0. -1.
</event>
<event>
 5   0  0.5371843E-06  0.2397556E+04  0.7818609E-02  0.8440419E-01
       -2   -1    0    0    0  501  0.00000000000E+00  0.00000000000E+00  0.90766377879E+03  0.90766377880E+03  0.25500000920E-02 0.  1.
        2   -1    0    0  501    0  0.00000000000E+00  0.00000000000E+00 -0.15832613233E+04  0.15832613233E+04  0.25500000920E-02 0. -1.
    10030    2    1    2    0    0  0.00000000000E+00  0.00000000000E+00 -0.67559754447E+03  0.24909251021E+04  0.23975562187E+04 0.  0.
        4    1    3    3  502    0  0.89222809176E+03  0.11438775318E+03  0.48546915752E+03  0.10221729020E+04  0.12699999809E+01 0.  1.
       -4    1    3    3    0  502 -0.89222809176E+03 -0.11438775318E+03 -0.11610667020E+04  0.14687522001E+04  0.12699999809E+01 0. -1.
</event>
<event>
 5   0  0.2149029E-06  0.2401237E+04  0.7818609E-02  0.8439041E-01
       -1   -1    0    0    0  501  0.00000000000E+00  0.00000000000E+00  0.84769035008E+03  0.84769035009E+03  0.50400001928E-02 0. -1.
        1   -1    0    0  501    0  0.00000000000E+00  0.00000000000E+00 -0.17004844902E+04  0.17004844902E+04  0.50400001928E-02 0.  1.
    10030    2    1    2    0    0  0.00000000000E+00  0.00000000000E+00 -0.85279414015E+03  0.25481748403E+04  0.24012365921E+04 0.  0.
        4    1    3    3  502    0 -0.70751026172E+03  0.63605499401E+03 -0.12035684070E+04  0.15341822738E+04  0.12699999809E+01 0.  1.
       -4    1    3    3    0  502  0.70751026172E+03 -0.63605499401E+03  0.35077426688E+03  0.10139925666E+04  0.12699999809E+01 0. -1.
</event>
<event>
 5   0  0.2297414E-06  0.2409403E+04  0.7818609E-02  0.8435992E-01
        1   -1    0    0  501    0  0.00000000000E+00  0.00000000000E+00  0.16991014014E+04  0.16991014014E+04  0.50400001928E-02 0. -1.
       -1   -1    0    0    0  501  0.00000000000E+00  0.00000000000E+00 -0.85416047504E+03  0.85416047506E+03  0.50400001928E-02 0.  1.
    10030    2    1    2    0    0  0.00000000000E+00  0.00000000000E+00  0.84494092636E+03  0.25532618765E+04  0.24094026315E+04 0.  0.
        1    1    3    3  502    0  0.11699879590E+04 -0.86172254158E+02  0.71269834476E+03  0.13726749114E+04  0.50400001928E-02 0. -1.
       -1    1    3    3    0  502 -0.11699879590E+04  0.86172254158E+02  0.13224258160E+03  0.11805869651E+04  0.50400001928E-02 0.  1.
</event>
<event>
 5   0  0.2215700E-06  0.2390890E+04  0.7818609E-02  0.8442922E-01
       -1   -1    0    0    0  501  0.00000000000E+00  0.00000000000E+00  0.98298515974E+03  0.98298515975E+03  0.50400001928E-02 0. -1.
        1   -1    0    0  501    0  0.00000000000E+00  0.00000000000E+00 -0.14538254500E+04  0.14538254500E+04  0.50400001928E-02 0.  1.
    10030    2    1    2    0    0  0.00000000000E+00  0.00000000000E+00 -0.47084029025E+03  0.24368106098E+04  0.23908900788E+04 0.  0.
        3    1    3    3  502    0  0.29059975919E+03  0.94553964043E+03  0.44873649139E+03  0.10862126314E+04  0.10100000352E+00 0. -1.
       -3    1    3    3    0  502 -0.29059975919E+03 -0.94553964043E+03 -0.91957678164E+03  0.13505979784E+04  0.10100000352E+00 0.  1.
</event>
<event>
 5   0  0.2149417E-06  0.2399300E+04  0.7818609E-02  0.8439766E-01
        1   -1    0    0  501    0  0.00000000000E+00  0.00000000000E+00  0.10043354914E+04  0.10043354914E+04  0.50400001928E-02 0.  1.
       -1   -1    0    0    0  501  0.00000000000E+00  0.00000000000E+00 -0.14329474684E+04  0.14329474684E+04  0.50400001928E-02 0. -1.
    10030    2    1    2    0    0  0.00000000000E+00  0.00000000000E+00 -0.42861197700E+03  0.24372829598E+04  0.23992998978E+04 0.  0.
        5    1    3    3  502    0  0.10777026824E+04  0.49272068316E+03 -0.24475577389E+02  0.11852585740E+04  0.46999998093E+01 0.  1.
       -5    1    3    3    0  502 -0.10777026824E+04 -0.49272068316E+03 -0.40413639961E+03  0.12520243858E+04  0.46999998093E+01 0. -1.
</event>
<event>
 5   0  0.5371843E-06  0.2398483E+04  0.7818609E-02  0.8440072E-01
        2   -1    0    0  501    0  0.00000000000E+00  0.00000000000E+00  0.14336802824E+04  0.14336802824E+04  0.25500000920E-02 0.  1.
       -2   -1    0    0    0  501  0.00000000000E+00  0.00000000000E+00 -0.10031387281E+04  0.10031387281E+04  0.25500000920E-02 0. -1.
    10030    2    1    2    0    0  0.00000000000E+00  0.00000000000E+00  0.43054155433E+03  0.24368190106E+04  0.23984830331E+04 0.  0.
        4    1    3    3  502    0 -0.27091221162E+03  0.86761709480E+03  0.10100956913E+04  0.13588405970E+04  0.12699999809E+01 0.  1.
       -4    1    3    3    0  502  0.27091221162E+03 -0.86761709480E+03 -0.57955413694E+03  0.10779784136E+04  0.12699999809E+01 0. -1.
</event>
<event>
 5   0  0.2254269E-06  0.2396615E+04  0.7818609E-02  0.8440772E-01
        1   -1    0    0  501    0  0.00000000000E+00  0.00000000000E+00  0.19165049529E+04  0.19165049529E+04  0.50400001928E-02 0. -1.
       -1   -1    0    0    0  501  0.00000000000E+00  0.00000000000E+00 -0.74924981721E+03  0.74924981723E+03  0.50400001928E-02 0.  1.
    10030    2    1    2    0    0  0.00000000000E+00  0.00000000000E+00  0.11672551357E+04  0.26657547702E+04  0.23966151011E+04 0.  0.
        2    1    3    3  502    0  0.85938932560E+03  0.53793362380E+03 -0.12686865256E+03  0.10217721133E+04  0.25500000920E-02 0.  1.
       -2    1    3    3    0  502 -0.85938932560E+03 -0.53793362380E+03  0.12941237883E+04  0.16439826568E+04  0.25500000920E-02 0. -1.
</event>
<event>
 5   0  0.2149029E-06  0.2400411E+04  0.7818609E-02  0.8439350E-01
       -1   -1    0    0    0  501  0.00000000000E+00  0.00000000000E+00  0.13058481770E+04  0.13058481771E+04  0.50400001928E-02 0.  1.
        1   -1    0    0  501    0  0.00000000000E+00  0.00000000000E+00 -0.11031096121E+04  0.11031096121E+04  0.50400001928E-02 0. -1.
    10030    2    1    2    0    0  0.00000000000E+00  0.00000000000E+00  0.20273856499E+03  0.24089577891E+04  0.24004113614E+04 0.  0.
        4    1    3    3  502    0  0.52697137948E+03 -0.10777738707E+04  0.66652590901E+02  0.12015571280E+04  0.12699999809E+01 0. -1.
       -4    1    3    3    0  502 -0.52697137948E+03  0.10777738707E+04  0.13608597409E+03  0.12074006611E+04  0.12699999809E+01 0.  1.
</event>
<event>
 5   0  0.5371843E-06  0.2400615E+04  0.7818609E-02  0.8439274E-01
       -2   -1    0    0    0  501  0.00000000000E+00  0.00000000000E+00  0.94987783315E+03  0.94987783315E+03  0.25500000920E-02 0. -1.
        2   -1    0    0  501    0  0.00000000000E+00  0.00000000000E+00 -0.15167608835E+04  0.15167608835E+04  0.25500000920E-02 0.  1.
    10030    2    1    2    0    0  0.00000000000E+00  0.00000000000E+00 -0.56688305033E+03  0.24666387166E+04  0.24006145392E+04 0.  0.
        4    1    3    3  502    0 -0.96693668543E+03 -0.24348493463E+03 -0.97001383913E+03  0.13911074466E+04  0.12699999809E+01 0.  1.
       -4    1    3    3    0  502  0.96693668543E+03  0.24348493463E+03  0.40313078880E+03  0.10755312700E+04  0.12699999809E+01 0. -1.
</event>
<event>
 5   0  0.5379778E-06  0.2399228E+04  0.7818609E-02  0.8439793E-01
       -2   -1    0    0    0  501  0.00000000000E+00  0.00000000000E+00  0.84762088252E+03  0.84762088253E+03  0.25500000920E-02 0. -1.
        2   -1    0    0  501    0  0.00000000000E+00  0.00000000000E+00 -0.16977803186E+04  0.16977803187E+04  0.25500000920E-02 0.  1.
    10030    2    1    2    0    0  0.00000000000E+00  0.00000000000E+00 -0.85015943613E+03  0.25454012012E+04  0.23992282526E+04 0.  0.
        5    1    3    3  502    0  0.73358762478E+03  0.81201728662E+03 -0.94647776001E+03  0.14468466115E+04  0.46999998093E+01 0.  1.
       -5    1    3    3    0  502 -0.73358762478E+03 -0.81201728662E+03  0.96318323886E+02  0.10985545897E+04  0.46999998093E+01 0. -1.
</event>
<event>
 5   0  0.2149029E-06  0.2397891E+04  0.7818609E-02  0.8440294E-01
        1   -1    0    0  501    0  0.00000000000E+00  0.00000000000E+00  0.12997261258E+04  0.12997261258E+04  0.50400001928E-02 0.  1.
       -1   -1    0    0    0  501  0.00000000000E+00  0.00000000000E+00 -0.11059790354E+04  0.11059790354E+04  0.50400001928E-02 0. -1.
    10030    2    1    2    0    0  0.00000000000E+00  0.00000000000E+00  0.19374709039E+03  0.24057051613E+04  0.23978906122E+04 0.  0.
        4    1    3    3  502    0 -0.11760640623E+04 -0.21886794837E+03  0.16372554516E+02  0.11963693120E+04  0.12699999809E+01 0. -1.
       -4    1    3    3    0  502  0.11760640623E+04  0.21886794837E+03  0.17737453587E+03  0.12093358492E+04  0.12699999809E+01 0.  1.
</event>
<event>
 5   0  0.5371843E-06  0.2398300E+04  0.7818609E-02  0.8440140E-01
       -2   -1    0    0    0  501  0.00000000000E+00  0.00000000000E+00  0.14123823383E+04  0.14123823383E+04  0.25500000920E-02 0. -1.
        2   -1    0    0  501    0  0.00000000000E+00  0.00000000000E+00 -0.10181098269E+04  0.10181098269E+04  0.25500000920E-02 0.  1.
    10030    2    1    2    0    0  0.00000000000E+00  0.00000000000E+00  0.39427251145E+03  0.24304921652E+04  0.23982996793E+04 0.  0.
        4    1    3    3  502    0  0.86904221136E+03  0.66293787235E+03  0.69694776607E+03  0.12963251094E+04  0.12699999809E+01 0. -1.
       -4    1    3    3    0  502 -0.86904221136E+03 -0.66293787235E+03 -0.30267525463E+03  0.11341670558E+04  0.12699999809E+01 0.  1.
</event>
<event>
 5   0  0.5440503E-06  0.2405342E+04  0.7818609E-02  0.8437506E-01
       -2   -1    0    0    0  501  0.00000000000E+00  0.00000000000E+00  0.12617376607E+04  0.12617376607E+04  0.25500000920E-02 0.  1.
        2   -1    0    0  501    0  0.00000000000E+00  0.00000000000E+00 -0.11463694199E+04  0.11463694199E+04  0.25500000920E-02 0. -1.
    10030    2    1    2    0    0  0.00000000000E+00  0.00000000000E+00  0.11536824081E+03  0.24081070807E+04  0.24053419468E+04 0.  0.
        3    1    3    3  502    0 -0.42605640455E+02 -0.54197206797E+03  0.11317027653E+04  0.12555079140E+04  0.10100000352E+00 0.  1.
       -3    1    3    3    0  502  0.42605640455E+02  0.54197206797E+03 -0.10163345245E+04  0.11525991666E+04  0.10100000352E+00 0. -1.
</event>
<event>
 5   0  0.2149417E-06  0.2402759E+04  0.7818609E-02  0.8438471E-01
        1   -1    0    0  501    0  0.00000000000E+00  0.00000000000E+00  0.23815849991E+04  0.23815849991E+04  0.50400001928E-02 0.  1.
       -1   -1    0    0    0  501  0.00000000000E+00  0.00000000000E+00 -0.60603055471E+03  0.60603055473E+03  0.50400001928E-02 0. -1.
    10030    2    1    2    0    0  0.00000000000E+00  0.00000000000E+00  0.17755544444E+04  0.29876155538E+04  0.24027594787E+04 0.  0.
        5    1    3    3  502    0 -0.44008267669E+02  0.28143735712E+03  0.23389745745E+04  0.23562614166E+04  0.46999998093E+01 0.  1.
       -5    1    3    3    0  502  0.44008267669E+02 -0.28143735712E+03 -0.56342013006E+03  0.63135413720E+03  0.46999998093E+01 0. -1.
</event>
<event>
 5   0  0.5268358E-06  0.2400939E+04  0.7818609E-02  0.8439152E-01
       -2   -1    0    0    0  501  0.00000000000E+00  0.00000000000E+00  0.11092210191E+04  0.11092210191E+04  0.25500000920E-02 0.  1.
        2   -1    0    0  501    0  0.00000000000E+00  0.00000000000E+00 -0.12992243536E+04  0.12992243536E+04  0.25500000920E-02 0. -1.
    10030    2    1    2    0    0  0.00000000000E+00  0.00000000000E+00 -0.19000333451E+03  0.24084453727E+04  0.24009389509E+04 0.  0.
        2    1    3    3  502    0  0.19772987113E+03  0.69407439976E+03 -0.10573187005E+04  0.12801403082E+04  0.25500000920E-02 0. -1.
       -2    1    3    3    0  502 -0.19772987113E+03 -0.69407439976E+03  0.86731536600E+03  0.11283050644E+04  0.25500000920E-02 0.  1.
</event>
<event>
 5   0  0.1796750E-06  0.2400203E+04  0.7818609E-02  0.8439428E-01
        3   -1    0    0  501    0  0.00000000000E+00  0.00000000000E+00  0.12658421238E+04  0.12658421278E+04  0.10100000352E+00 0.  1.
       -3   -1    0    0    0  501  0.00000000000E+00  0.00000000000E+00 -0.11377748590E+04  0.11377748635E+04  0.10100000352E+00 0. -1.
    10030    2    1    2    0    0  0.00000000000E+00  0.00000000000E+00  0.12806726474E+03  0.24036169913E+04  0.24002027865E+04 0.  0.
        1    1    3    3  502    0 -0.13089053412E+03 -0.41601103071E+03 -0.10556112520E+04  0.11421526277E+04  0.50400001928E-02 0. -1.
       -1    1    3    3    0  502  0.13089053412E+03  0.41601103071E+03  0.11836785167E+04  0.12614643636E+04  0.50400001928E-02 0.  1.
</event>
<event>
 5   0  0.5268358E-06  0.2399366E+04  0.7818609E-02  0.8439741E-01
        2   -1    0    0  501    0  0.00000000000E+00  0.00000000000E+00  0.13377484353E+04  0.13377484353E+04  0.25500000920E-02 0.  1.
       -2   -1    0    0    0  501  0.00000000000E+00  0.00000000000E+00 -0.10758671480E+04  0.10758671480E+04  0.25500000920E-02 0. -1.
    10030    2    1    2    0    0  0.00000000000E+00  0.00000000000E+00  0.26188128735E+03  0.24136155833E+04  0.23993662446E+04 0.  0.
        2    1    3    3  502    0  0.39657860189E+03  0.21307643447E+03 -0.98767208648E+03  0.10854364582E+04  0.25500000920E-02 0. -1.
       -2    1    3    3    0  502 -0.39657860189E+03 -0.21307643447E+03  0.12495533738E+04  0.13281791251E+04  0.25500000920E-02 0.  1.
</event>
<event>
 5   0  0.2215700E-06  0.2392473E+04  0.7818609E-02  0.8442327E-01
        1   -1    0    0  501    0  0.00000000000E+00  0.00000000000E+00  0.12045874770E+04  0.12045874770E+04  0.50400001928E-02 0.  1.
       -1   -1    0    0    0  501  0.00000000000E+00  0.00000000000E+00 -0.11879436456E+04  0.11879436456E+04  0.50400001928E-02 0. -1.
    10030    2    1    2    0    0  0.00000000000E+00  0.00000000000E+00  0.16643831431E+02  0.23925311226E+04  0.23924732299E+04 0.  0.
        3    1    3    3  502    0 -0.58705103789E+03 -0.39513743424E+03  0.97282413701E+03  0.12029751971E+04  0.10100000352E+00 0.  1.
       -3    1    3    3    0  502  0.58705103789E+03  0.39513743424E+03 -0.95618030558E+03  0.11895559255E+04  0.10100000352E+00 0. -1.
</event>
<event>
 5   0  0.5440503E-06  0.2413547E+04  0.7818609E-02  0.8434449E-01
        2   -1    0    0  501    0  0.00000000000E+00  0.00000000000E+00  0.19806975927E+04  0.19806975927E+04  0.25500000920E-02 0. -1.
       -2   -1    0    0    0  501  0.00000000000E+00  0.00000000000E+00 -0.73524742339E+03  0.73524742340E+03  0.25500000920E-02 0.  1.
    10030    2    1    2    0    0  0.00000000000E+00  0.00000000000E+00  0.12454501693E+04  0.27159450161E+04  0.24135474320E+04 0.  0.
        3    1    3    3  502    0 -0.24151571937E+03  0.52032815887E+03 -0.57201023900E+03  0.81010305476E+03  0.10100000352E+00 0.  1.
       -3    1    3    3    0  502  0.24151571937E+03 -0.52032815887E+03  0.18174604083E+04  0.19058419614E+04  0.10100000352E+00 0. -1.
</event>
<event>
 5   0  0.2149029E-06  0.2399218E+04  0.7818609E-02  0.8439796E-01
       -1   -1    0    0    0  501  0.00000000000E+00  0.00000000000E+00  0.12057307972E+04  0.12057307972E+04  0.50400001928E-02 0. -1.
        1   -1    0    0  501    0  0.00000000000E+00  0.00000000000E+00 -0.11935184500E+04  0.11935184500E+04  0.50400001928E-02 0.  1.
    10030    2    1    2    0    0  0.00000000000E+00  0.00000000000E+00  0.12212347182E+02  0.23992492473E+04  0.23992181662E+04 0.  0.
        4    1    3    3  502    0  0.10820347810E+04 -0.10984991684E+03 -0.50005655287E+03  0.11970482198E+04  0.12699999809E+01 0.  1.
       -4    1    3    3    0  502 -0.10820347810E+04  0.10984991684E+03  0.51226890006E+03  0.12022010275E+04  0.12699999809E+01 0. -1.
</event>
<event>
 5   0  0.2215700E-06  0.2401124E+04  0.7818609E-02  0.8439083E-01
       -1   -1    0    0    0  501  0.00000000000E+00  0.00000000000E+00  0.12125340198E+04  0.12125340198E+04  0.50400001928E-02 0.  1.
        1   -1    0    0  501    0  0.00000000000E+00  0.00000000000E+00 -0.11887085843E+04  0.11887085843E+04  0.50400001928E-02 0. -1.
    10030    2    1    2    0    0  0.00000000000E+00  0.00000000000E+00  0.23825435530E+02  0.24012426041E+04  0.24011244017E+04 0.  0.
        3    1    3    3  502    0  0.37621845690E+02 -0.79981060727E+03 -0.88269108679E+03  0.11917449289E+04  0.10100000352E+00 0. -1.
       -3    1    3    3    0  502 -0.37621845690E+02  0.79981060727E+03  0.90651652232E+03  0.12094976752E+04  0.10100000352E+00 0.  1.
</event>
<event>
 5   0  0.5268358E-06  0.2399901E+04  0.7818609E-02  0.8439541E-01
       -2   -1    0    0    0  501  0.00000000000E+00  0.00000000000E+00  0.68871342420E+03  0.68871342421E+03  0.25500000920E-02 0.  1.
        2   -1    0    0  501    0  0.00000000000E+00  0.00000000000E+00 -0.20906820588E+04  0.20906820588E+04  0.25500000920E-02 0. -1.
    10030    2    1    2    0    0  0.00000000000E+00  0.00000000000E+00 -0.14019686346E+04  0.27793954830E+04  0.23999006643E+04 0.  0.
        2    1    3    3  502    0  0.85659638511E+03 -0.69641569992E+03 -0.12455867100E+04  0.16644033304E+04  0.25500000920E-02 0. -1.
       -2    1    3    3    0  502 -0.85659638511E+03  0.69641569992E+03 -0.15638192462E+03  0.11149921526E+04  0.25500000920E-02 0.  1.
</event>
<event>
 5   0  0.2149417E-06  0.2398627E+04  0.7818609E-02  0.8440018E-01
       -1   -1    0    0    0  501  0.00000000000E+00  0.00000000000E+00  0.10902687602E+04  0.10902687602E+04  0.50400001928E-02 0. -1.
        1   -1    0    0  501    0  0.00000000000E+00  0.00000000000E+00 -0.13192644004E+04  0.13192644004E+04  0.50400001928E-02 0.  1.
    10030    2    1    2    0    0  0.00000000000E+00  0.00000000000E+00 -0.22899564023E+03  0.24095331606E+04  0.23986269091E+04 0.  0.
        5    1    3    3  502    0 -0.33070554366E+03 -0.11425855746E+04 -0.26836974555E+03  0.12193901600E+04  0.46999998093E+01 0.  1.
       -5    1    3    3    0  502  0.33070554366E+03  0.11425855746E+04  0.39374105323E+02  0.11901430007E+04  0.46999998093E+01 0. -1.
</event>
<event>
 5   0  0.5371843E-06  0.2399005E+04  0.7818609E-02  0.8439876E-01
       -2   -1    0    0    0  501  0.00000000000E+00  0.00000000000E+00  0.57684245175E+03  0.57684245175E+03  0.25500000920E-02 0.  1.
        2   -1    0    0  501    0  0.00000000000E+00  0.00000000000E+00 -0.24942799057E+04  0.24942799057E+04  0.25500000920E-02 0. -1.
    10030    2    1    2    0    0  0.00000000000E+00  0.00000000000E+00 -0.19174374539E+04  0.30711223574E+04  0.23990052406E+04 0.  0.
        4    1    3    3  502    0  0.47074150893E+03  0.67304757087E+03 -0.20778306153E+04  0.22342722036E+04  0.12699999809E+01 0. -1.
       -4    1    3    3    0  502 -0.47074150893E+03 -0.67304757087E+03  0.16039316138E+03  0.83685015385E+03  0.12699999809E+01 0.  1.
</event>
<event>
 5   0  0.5440503E-06  0.2405593E+04  0.7818609E-02  0.8437413E-01
        2   -1    0    0  501    0  0.00000000000E+00  0.00000000000E+00  0.13271627819E+04  0.13271627819E+04  0.25500000920E-02 0. -1.
       -2   -1    0    0    0  501  0.00000000000E+00  0.00000000000E+00 -0.10900841840E+04  0.10900841840E+04  0.25500000920E-02 0.  1.
    10030    2    1    2    0    0  0.00000000000E+00  0.00000000000E+00  0.23707859793E+03  0.24172469659E+04  0.24055927820E+04 0.  0.
        3    1    3    3  502    0 -0.30264182094E+03  0.28623560460E+03  0.12523657594E+04  0.13198268442E+04  0.10100000352E+00 0. -1.
       -3    1    3    3    0  502  0.30264182094E+03 -0.28623560460E+03 -0.10152871615E+04  0.10974201217E+04  0.10100000352E+00 0.  1.
</event>
<event>
 5   0  0.2254269E-06  0.2399388E+04  0.7818609E-02  0.8439733E-01
       -1   -1    0    0    0  501  0.00000000000E+00  0.00000000000E+00  0.11281103679E+04  0.11281103679E+04  0.50400001928E-02 0. -1.
        1   -1    0    0  501    0  0.00000000000E+00  0.00000000000E+00 -0.12758200408E+04  0.12758200408E+04  0.50400001928E-02 0.  1.
    10030    2    1    2    0    0  0.00000000000E+00  0.00000000000E+00 -0.14770967289E+03  0.24039304087E+04  0.23993881017E+04 0.  0.
        2    1    3    3  502    0 -0.13829587926E+03 -0.98531144697E+03  0.59771361328E+03  0.11607006338E+04  0.25500000920E-02 0. -1.
       -2    1    3    3    0  502  0.13829587926E+03  0.98531144697E+03 -0.74542328616E+03  0.12432297749E+04  0.25500000920E-02 0.  1.
</event>
<event>
 5   0  0.2149029E-06  0.2400538E+04  0.7818609E-02  0.8439302E-01
        1   -1    0    0  501    0  0.00000000000E+00  0.00000000000E+00  0.10863663446E+04  0.10863663446E+04  0.50400001928E-02 0.  1.
       -1   -1    0    0    0  501  0.00000000000E+00  0.00000000000E+00 -0.13261138930E+04  0.13261138930E+04  0.50400001928E-02 0. -1.
    10030    2    1    2    0    0  0.00000000000E+00  0.00000000000E+00 -0.23974754839E+03  0.24124802377E+04  0.24005378585E+04 0.  0.
        4    1    3    3  502    0 -0.24799063228E+03  0.10703027740E+04  0.36584890063E+03  0.11579699533E+04  0.12699999809E+01 0.  1.
       -4    1    3    3    0  502  0.24799063228E+03 -0.10703027740E+04 -0.60559644902E+03  0.12545102844E+04  0.12699999809E+01 0. -1.
</event>
<event>
 5   0  0.2215700E-06  0.2399674E+04  0.7818609E-02  0.8439626E-01
        1   -1    0    0  501    0  0.00000000000E+00  0.00000000000E+00  0.17695415090E+04  0.17695415090E+04  0.50400001928E-02 0.  1.
       -1   -1    0    0    0  501  0.00000000000E+00  0.00000000000E+00 -0.81354899926E+03  0.81354899927E+03  0.50400001928E-02 0. -1.
    10030    2    1    2    0    0  0.00000000000E+00  0.00000000000E+00  0.95599250972E+03  0.25830905082E+04  0.23996739143E+04 0.  0.
        3    1    3    3  502    0 -0.42842641065E+03  0.88275853882E+03  0.12212790810E+04  0.15666315556E+04  0.10100000352E+00 0.  1.
       -3    1    3    3    0  502  0.42842641065E+03 -0.88275853882E+03 -0.26528657131E+03  0.10164589526E+04  0.10100000352E+00 0. -1.
</event>
<event>
 5   0  0.2149417E-06  0.2398112E+04  0.7818609E-02  0.8440211E-01
       -1   -1    0    0    0  501  0.00000000000E+00  0.00000000000E+00  0.15572149364E+04  0.15572149365E+04  0.50400001928E-02 0.  1.
        1   -1    0    0  501    0  0.00000000000E+00  0.00000000000E+00 -0.92327338209E+03  0.92327338210E+03  0.50400001928E-02 0. -1.
    10030    2    1    2    0    0  0.00000000000E+00  0.00000000000E+00  0.63394155436E+03  0.24804883186E+04  0.23981118415E+04 0.  0.
        5    1    3    3  502    0 -0.90110590288E+03  0.34947554035E+03  0.10509866358E+04  0.14278375258E+04  0.46999998093E+01 0.  1.
       -5    1    3    3    0  502  0.90110590288E+03 -0.34947554035E+03 -0.41704508144E+03  0.10526507927E+04  0.46999998093E+01 0. -1.
</event>
<event>
 5   0  0.5371843E-06  0.2400226E+04  0.7818609E-02  0.8439419E-01
        2   -1    0    0  501    0  0.00000000000E+00  0.00000000000E+00  0.26483796083E+04  0.26483796083E+04  0.25500000920E-02 0.  1.
       -2   -1    0    0    0  501  0.00000000000E+00  0.00000000000E+00 -0.54383126759E+03  0.54383126760E+03  0.25500000920E-02 0. -1.
    10030    2    1    2    0    0  0.00000000000E+00  0.00000000000E+00  0.21045483407E+04  0.31922108759E+04  0.24002263555E+04 0.  0.
        4    1    3    3  502    0  0.25748215634E+03  0.75241027394E+03  0.22476520267E+04  0.23841894906E+04  0.12699999809E+01 0.  1.
       -4    1    3    3    0  502 -0.25748215634E+03 -0.75241027394E+03 -0.14310368602E+03  0.80802138525E+03  0.12699999809E+01 0. -1.
</event>
<event>
 5   0  0.5349036E-06  0.2399957E+04  0.7818609E-02  0.8439520E-01
       -2   -1    0    0    0  501  0.00000000000E+00  0.00000000000E+00  0.14176068230E+04  0.14176068230E+04  0.25500000920E-02 0.  1.
        2   -1    0    0  501    0  0.00000000000E+00  0.00000000000E+00 -0.10157596922E+04  0.10157596922E+04  0.25500000920E-02 0. -1.
    10030    2    1    2    0    0  0.00000000000E+00  0.00000000000E+00  0.40184713081E+03  0.24333665153E+04  0.23999565582E+04 0.  0.
        1    1    3    3  502    0  0.76058581270E+03 -0.13256693132E+03  0.11323429923E+04  0.13704982386E+04  0.50400001928E-02 0.  1.
       -1    1    3    3    0  502 -0.76058581270E+03  0.13256693132E+03 -0.73049586153E+03  0.10628682766E+04  0.50400001928E-02 0. -1.
</event>
<event>
 5   0  0.5379778E-06  0.2399718E+04  0.7818609E-02  0.8439609E-01
       -2   -1    0    0    0  501  0.00000000000E+00  0.00000000000E+00  0.81150197369E+03  0.81150197369E+03  0.25500000920E-02 0.  1.
        2   -1    0    0  501    0  0.00000000000E+00  0.00000000000E+00 -0.17740708947E+04  0.17740708947E+04  0.25500000920E-02 0. -1.
    10030    2    1    2    0    0  0.00000000000E+00  0.00000000000E+00 -0.96256892104E+03  0.25855728684E+04  0.23997183439E+04 0.  0.
        5    1    3    3  502    0 -0.11531526754E+04 -0.28657310920E+03 -0.30178431652E+03  0.12259612977E+04  0.46999998093E+01 0.  1.
       -5    1    3    3    0  502  0.11531526754E+04  0.28657310920E+03 -0.66078460453E+03  0.13596115707E+04  0.46999998093E+01 0. -1.
</event>
<event>
 5   0  0.5371843E-06  0.2400194E+04  0.7818609E-02  0.8439431E-01
        2   -1    0    0  501    0  0.00000000000E+00  0.00000000000E+00  0.18068251832E+04  0.18068251832E+04  0.25500000920E-02 0. -1.
       -2   -1    0    0    0  501  0.00000000000E+00  0.00000000000E+00 -0.79710699827E+03  0.79710699827E+03  0.25500000920E-02 0.  1.
    10030    2    1    2    0    0  0.00000000000E+00  0.00000000000E+00  0.10097181849E+04  0.26039321814E+04  0.24001941573E+04 0.  0.
        4    1    3    3  502    0 -0.13306521351E+03  0.63926121241E+03 -0.58752271890E+03  0.87837680232E+03  0.12699999809E+01 0.  1.
       -4    1    3    3    0  502  0.13306521351E+03 -0.63926121241E+03  0.15972409038E+04  0.17255553791E+04  0.12699999809E+01 0. -1.
</event>
<event>
 5   0  0.5268358E-06  0.2389985E+04  0.7818609E-02  0.8443262E-01
        2   -1    0    0  501    0  0.00000000000E+00  0.00000000000E+00  0.11204697785E+04  0.11204697785E+04  0.25500000920E-02 0. -1.
       -2   -1    0    0    0  501  0.00000000000E+00  0.00000000000E+00 -0.12744720609E+04  0.12744720609E+04  0.25500000920E-02 0.  1.
    10030    2    1    2    0    0  0.00000000000E+00  0.00000000000E+00 -0.15400228236E+03  0.23949418394E+04  0.23899852952E+04 0.  0.
        2    1    3    3  502    0 -0.52635406046E+03 -0.56521414510E+03  0.83675167370E+03  0.11387137438E+04  0.25500000920E-02 0. -1.
       -2    1    3    3    0  502  0.52635406046E+03  0.56521414510E+03 -0.99075395606E+03  0.12562280956E+04  0.25500000920E-02 0.  1.
</event>
<event>
 5   0  0.5379778E-06  0.2397022E+04  0.7818609E-02  0.8440619E-01
       -2   -1    0    0    0  501  0.00000000000E+00  0.00000000000E+00  0.49709140866E+03  0.49709140867E+03  0.25500000920E-02 0.  1.
        2   -1    0    0  501    0  0.00000000000E+00  0.00000000000E+00 -0.28896668671E+04  0.28896668671E+04  0.25500000920E-02 0. -1.
    10030    2    1    2    0    0  0.00000000000E+00  0.00000000000E+00 -0.23925754584E+04  0.33867582758E+04  0.23970219636E+04 0.  0.
        5    1    3    3  502    0 -0.75907997329E+03 -0.91805101762E+03 -0.13825895525E+04  0.18249920650E+04  0.46999998093E+01 0. -1.
       -5    1    3    3    0  502  0.75907997329E+03  0.91805101762E+03 -0.10099859060E+04  0.15617662108E+04  0.46999998093E+01 0.  1.
</event>
<event>
 5   0  0.5379778E-06  0.2405789E+04  0.7818609E-02  0.8437339E-01
        2   -1    0    0  501    0  0.00000000000E+00  0.00000000000E+00  0.21989176975E+04  0.21989176975E+04  0.25500000920E-02 0.  1.
       -2   -1    0    0    0  501  0.00000000000E+00  0.00000000000E+00 -0.65803081092E+03  0.65803081093E+03  0.25500000920E-02 0. -1.
    10030    2    1    2    0    0  0.00000000000E+00  0.00000000000E+00  0.15408868865E+04  0.28569485084E+04  0.24057893471E+04 0.  0.
        5    1    3    3  502    0 -0.85242709379E+03 -0.50214757974E+03  0.15829690080E+04  0.18667075594E+04  0.46999998093E+01 0. -1.
       -5    1    3    3    0  502  0.85242709379E+03  0.50214757974E+03 -0.42082121478E+02  0.99024094897E+03  0.46999998093E+01 0.  1.
</event>
<event>
 5   0  0.2254269E-06  0.2407496E+04  0.7818609E-02  0.8436703E-01
        1   -1    0    0  501    0  0.00000000000E+00  0.00000000000E+00  0.76714149556E+03  0.76714149557E+03  0.50400001928E-02 0.  1.
       -1   -1    0    0    0  501  0.00000000000E+00  0.00000000000E+00 -0.18888415843E+04  0.18888415843E+04  0.50400001928E-02 0. -1.
    10030    2    1    2    0    0  0.00000000000E+00  0.00000000000E+00 -0.11217000888E+04  0.26559830799E+04  0.24074955933E+04 0.  0.
        2    1    3    3  502    0  0.40032378960E+03  0.62824473195E+03 -0.16039902705E+04  0.17685404625E+04  0.25500000920E-02 0. -1.
       -2    1    3    3    0  502 -0.40032378960E+03 -0.62824473195E+03  0.48229018173E+03  0.88744261738E+03  0.25500000920E-02 0.  1.
</event>
<event>
 5   0  0.2254269E-06  0.2401983E+04  0.7818609E-02  0.8438762E-01
        1   -1    0    0  501    0  0.00000000000E+00  0.00000000000E+00  0.17018786042E+04  0.17018786042E+04  0.50400001928E-02 0. -1.
       -1   -1    0    0    0  501  0.00000000000E+00  0.00000000000E+00 -0.84752231335E+03  0.84752231336E+03  0.50400001928E-02 0.  1.
    10030    2    1    2    0    0  0.00000000000E+00  0.00000000000E+00  0.85435629082E+03  0.25494009175E+04  0.24019825908E+04 0.  0.
        2    1    3    3  502    0 -0.52282554180E+03  0.94061752008E+03  0.99307267679E+03  0.14643432684E+04  0.25500000920E-02 0.  1.
       -2    1    3    3    0  502  0.52282554180E+03 -0.94061752008E+03 -0.13871638598E+03  0.10850576492E+04  0.25500000920E-02 0. -1.
</event>
<event>
 5   0  0.2254269E-06  0.2405033E+04  0.7818609E-02  0.8437622E-01
        1   -1    0    0  501    0  0.00000000000E+00  0.00000000000E+00  0.88805470010E+03  0.88805470012E+03  0.50400001928E-02 0. -1.
       -1   -1    0    0    0  501  0.00000000000E+00  0.00000000000E+00 -0.16283303763E+04  0.16283303763E+04  0.50400001928E-02 0.  1.
    10030    2    1    2    0    0  0.00000000000E+00  0.00000000000E+00 -0.74027567616E+03  0.25163850764E+04  0.24050334251E+04 0.  0.
        2    1    3    3  502    0 -0.58251500389E+01 -0.39386357048E+03 -0.15589126463E+04  0.16079089163E+04  0.25500000920E-02 0.  1.
       -2    1    3    3    0  502  0.58251500389E+01  0.39386357048E+03  0.81863697012E+03  0.90847616005E+03  0.25500000920E-02 0. -1.
</event>
<event>
 5   0  0.2149417E-06  0.2403050E+04  0.7818609E-02  0.8438362E-01
        1   -1    0    0  501    0  0.00000000000E+00  0.00000000000E+00  0.16080136827E+04  0.16080136827E+04  0.50400001928E-02 0.  1.
       -1   -1    0    0    0  501  0.00000000000E+00  0.00000000000E+00 -0.89779249914E+03  0.89779249915E+03  0.50400001928E-02 0. -1.
    10030    2    1    2    0    0  0.00000000000E+00  0.00000000000E+00  0.71022118360E+03  0.25058061819E+04  0.24030502474E+04 0.  0.
        5    1    3    3  502    0 -0.95333760325E+03 -0.23719937433E+03  0.10764450349E+04  0.14573510669E+04  0.46999998093E+01 0.  1.
       -5    1    3    3    0  502  0.95333760325E+03  0.23719937433E+03 -0.36622385130E+03  0.10484551150E+04  0.46999998093E+01 0. -1.
</event>
<event>
 5   0  0.5379778E-06  0.2398838E+04  0.7818609E-02  0.8439939E-01
       -2   -1    0    0    0  501  0.00000000000E+00  0.00000000000E+00  0.10388117163E+04  0.10388117163E+04  0.25500000920E-02 0. -1.
        2   -1    0    0  501    0  0.00000000000E+00  0.00000000000E+00 -0.13848567245E+04  0.13848567245E+04  0.25500000920E-02 0.  1.
    10030    2    1    2    0    0  0.00000000000E+00  0.00000000000E+00 -0.34604500820E+03  0.24236684409E+04  0.23988375442E+04 0.  0.
        5    1    3    3  502    0  0.16825236106E+03 -0.37288453004E+03 -0.13121824480E+04  0.13744804824E+04  0.46999998093E+01 0.  1.
       -5    1    3    3    0  502 -0.16825236106E+03  0.37288453004E+03  0.96613743976E+03  0.10491879585E+04  0.46999998093E+01 0. -1.
</event>
<event>
 5   0  0.2215700E-06  0.2392896E+04  0.7818609E-02  0.8442168E-01
        1   -1    0    0  501    0  0.00000000000E+00  0.00000000000E+00  0.14964088962E+04  0.14964088962E+04  0.50400001928E-02 0.  1.
       -1   -1    0    0    0  501  0.00000000000E+00  0.00000000000E+00 -0.95661518023E+03  0.95661518025E+03  0.50400001928E-02 0. -1.
    10030    2    1    2    0    0  0.00000000000E+00  0.00000000000E+00  0.53979371599E+03  0.24530240765E+04  0.23928957069E+04 0.  0.
        3    1    3    3  502    0 -0.76874612973E+03  0.65806018767E+03  0.92427351110E+03  0.13705091594E+04  0.10100000352E+00 0.  1.
       -3    1    3    3    0  502  0.76874612973E+03 -0.65806018767E+03 -0.38447979511E+03  0.10825149170E+04  0.10100000352E+00 0. -1.
</event>
<event>
 5   0  0.2254269E-06  0.2400435E+04  0.7818609E-02  0.8439341E-01
        1   -1    0    0  501    0  0.00000000000E+00  0.00000000000E+00  0.16606554036E+04  0.16606554036E+04  0.50400001928E-02 0.  1.
       -1   -1    0    0    0  501  0.00000000000E+00  0.00000000000E+00 -0.86744205100E+03  0.86744205101E+03  0.50400001928E-02 0. -1.
    10030    2    1    2    0    0  0.00000000000E+00  0.00000000000E+00  0.79321335260E+03  0.25280974546E+04  0.24004352350E+04 0.  0.
        2    1    3    3  502    0  0.78955851267E+03 -0.89948436364E+03  0.49108583926E+03  0.12936924159E+04  0.25500000920E-02 0. -1.
       -2    1    3    3    0  502 -0.78955851267E+03  0.89948436364E+03  0.30212751334E+03  0.12344050387E+04  0.25500000920E-02 0.  1.
</event>
<event>
 5   0  0.2149417E-06  0.2395984E+04  0.7818609E-02  0.8441009E-01
       -1   -1    0    0    0  501  0.00000000000E+00  0.00000000000E+00  0.59751039403E+03  0.59751039405E+03  0.50400001928E-02 0. -1.
        1   -1    0    0  501    0  0.00000000000E+00  0.00000000000E+00 -0.24019404054E+04  0.24019404054E+04  0.50400001928E-02 0.  1.
    10030    2    1    2    0    0  0.00000000000E+00  0.00000000000E+00 -0.18044300114E+04  0.29994507995E+04  0.23959836044E+04 0.  0.
        5    1    3    3  502    0  0.45249693215E+03  0.48056940389E+03 -0.21537442720E+04  0.22526288875E+04  0.46999998093E+01 0.  1.
       -5    1    3    3    0  502 -0.45249693215E+03 -0.48056940389E+03  0.34931426061E+03  0.74682191199E+03  0.46999998093E+01 0. -1.
</event>
<event>
 5   0  0.5268358E-06  0.2384161E+04  0.7818609E-02  0.8445457E-01
        2   -1    0    0  501    0  0.00000000000E+00  0.00000000000E+00  0.69513788912E+03  0.69513788912E+03  0.25500000920E-02 0. -1.
       -2   -1    0    0    0  501  0.00000000000E+00  0.00000000000E+00 -0.20442791876E+04  0.20442791876E+04  0.25500000920E-02 0.  1.
    10030    2    1    2    0    0  0.00000000000E+00  0.00000000000E+00 -0.13491412984E+04  0.27394170767E+04  0.23841610006E+04 0.  0.
        2    1    3    3  502    0  0.11514938219E+04 -0.19482102626E+03 -0.94928339703E+03  0.15050023994E+04  0.25500000920E-02 0.  1.
       -2    1    3    3    0  502 -0.11514938219E+04  0.19482102626E+03 -0.39985790141E+03  0.12344146773E+04  0.25500000920E-02 0. -1.
</event>
<event>
 5   0  0.5371843E-06  0.2398391E+04  0.7818609E-02  0.8440106E-01
       -2   -1    0    0    0  501  0.00000000000E+00  0.00000000000E+00  0.13810258799E+04  0.13810258799E+04  0.25500000920E-02 0. -1.
        2   -1    0    0  501    0  0.00000000000E+00  0.00000000000E+00 -0.10413056611E+04  0.10413056611E+04  0.25500000920E-02 0.  1.
    10030    2    1    2    0    0  0.00000000000E+00  0.00000000000E+00  0.33972021875E+03  0.24223315410E+04  0.23983911832E+04 0.  0.
        4    1    3    3  502    0  0.27192434502E+03 -0.27414395424E+03  0.13165212300E+04  0.13719794164E+04  0.12699999809E+01 0. -1.
       -4    1    3    3    0  502 -0.27192434502E+03  0.27414395424E+03 -0.97680101130E+03  0.10503521246E+04  0.12699999809E+01 0.  1.
</event>
<event>
 5   0  0.2215700E-06  0.2395857E+04  0.7818609E-02  0.8441056E-01
        1   -1    0    0  501    0  0.00000000000E+00  0.00000000000E+00  0.11106378934E+04  0.11106378934E+04  0.50400001928E-02 0. -1.
       -1   -1    0    0    0  501  0.00000000000E+00  0.00000000000E+00 -0.12920801751E+04  0.12920801751E+04  0.50400001928E-02 0.  1.
    10030    2    1    2    0    0  0.00000000000E+00  0.00000000000E+00 -0.18144228168E+03  0.24027180685E+04  0.23958574280E+04 0.  0.
        3    1    3    3  502    0  0.15472183855E+03 -0.50141984738E+03 -0.11706857402E+04  0.12829130225E+04  0.10100000352E+00 0.  1.
       -3    1    3    3    0  502 -0.15472183855E+03  0.50141984738E+03  0.98924345853E+03  0.11198050460E+04  0.10100000352E+00 0. -1.
</event>
<event>
 5   0  0.5268358E-06  0.2394627E+04  0.7818609E-02  0.8441518E-01
        2   -1    0    0  501    0  0.00000000000E+00  0.00000000000E+00  0.10939297795E+04  0.10939297795E+04  0.25500000920E-02 0.  1.
       -2   -1    0    0    0  501  0.00000000000E+00  0.00000000000E+00 -0.13104673527E+04  0.13104673527E+04  0.25500000920E-02 0. -1.
    10030    2    1    2    0    0  0.00000000000E+00  0.00000000000E+00 -0.21653757316E+03  0.24043971322E+04  0.23946267034E+04 0.  0.
        2    1    3    3  502    0  0.60724347881E+03 -0.71332786331E+03  0.64041284026E+03  0.11347730562E+04  0.25500000920E-02 0.  1.
       -2    1    3    3    0  502 -0.60724347881E+03  0.71332786331E+03 -0.85695041342E+03  0.12696240759E+04  0.25500000920E-02 0. -1.
</event>
<event>
 5   0  0.2149417E-06  0.2399096E+04  0.7818609E-02  0.8439842E-01
        1   -1    0    0  501    0  0.00000000000E+00  0.00000000000E+00  0.13061513198E+04  0.13061513198E+04  0.50400001928E-02 0.  1.
       -1   -1    0    0    0  501  0.00000000000E+00  0.00000000000E+00 -0.11016450850E+04  0.11016450850E+04  0.50400001928E-02 0. -1.
    10030    2    1    2    0    0  0.00000000000E+00  0.00000000000E+00  0.20450623479E+03  0.24077964049E+04  0.23990958145E+04 0.  0.
        5    1    3    3  502    0  0.30170617428E+03  0.88291088917E+03 -0.65436076901E+03  0.11396351872E+04  0.46999998093E+01 0. -1.
       -5    1    3    3    0  502 -0.30170617428E+03 -0.88291088917E+03  0.85886700380E+03  0.12681612177E+04  0.46999998093E+01 0.  1.
</event>
<event>
 5   0  0.2297414E-06  0.2398107E+04  0.7818609E-02  0.8440213E-01
        1   -1    0    0  501    0  0.00000000000E+00  0.00000000000E+00  0.21299920774E+04  0.21299920774E+04  0.50400001928E-02 0.  1.
       -1   -1    0    0    0  501  0.00000000000E+00  0.00000000000E+00 -0.67499270328E+03  0.67499270330E+03  0.50400001928E-02 0. -1.
    10030    2    1    2    0    0  0.00000000000E+00  0.00000000000E+00  0.14549993741E+04  0.28049847807E+04  0.23981068453E+04 0.  0.
        1    1    3    3  502    0 -0.31660645466E+03 -0.17573055954E+03  0.20645097493E+04  0.20960251386E+04  0.50400001928E-02 0.  1.
       -1    1    3    3    0  502  0.31660645466E+03  0.17573055954E+03 -0.60951037517E+03  0.70895964212E+03  0.50400001928E-02 0. -1.
</event>
<event>
 5   0  0.2149029E-06  0.2408062E+04  0.7818609E-02  0.8436491E-01
        1   -1    0    0  501    0  0.00000000000E+00  0.00000000000E+00  0.23464831001E+04  0.23464831001E+04  0.50400001928E-02 0.  1.
       -1   -1    0    0    0  501  0.00000000000E+00  0.00000000000E+00 -0.61781417365E+03  0.61781417367E+03  0.50400001928E-02 0. -1.
    10030    2    1    2    0    0  0.00000000000E+00  0.00000000000E+00  0.17286689264E+04  0.29642972738E+04  0.24080618908E+04 0.  0.
        4    1    3    3  502    0  0.79625684354E+03  0.50700226667E+03 -0.55711430039E+02  0.94561177850E+03  0.12699999809E+01 0.  1.
       -4    1    3    3    0  502 -0.79625684354E+03 -0.50700226667E+03  0.17843803565E+04  0.20186854953E+04  0.12699999809E+01 0. -1.
</event>
<event>
 5   0  0.2149417E-06  0.2401483E+04  0.7818609E-02  0.8438949E-01
       -1   -1    0    0    0  501  0.00000000000E+00  0.00000000000E+00  0.92000955897E+03  0.92000955898E+03  0.50400001928E-02 0. -1.
        1   -1    0    0  501    0  0.00000000000E+00  0.00000000000E+00 -0.15671359089E+04  0.15671359089E+04  0.50400001928E-02 0.  1.
    10030    2    1    2    0    0  0.00000000000E+00  0.00000000000E+00 -0.64712634991E+03  0.24871454679E+04  0.24014828889E+04 0.  0.
        5    1    3    3  502    0  0.11210691884E+04 -0.41753631063E+03 -0.43031882583E+03  0.12713493138E+04  0.46999998093E+01 0.  1.
       -5    1    3    3    0  502 -0.11210691884E+04  0.41753631063E+03 -0.21680752407E+03  0.12157961541E+04  0.46999998093E+01 0. -1.
</event>
<event>
 5   0  0.2297414E-06  0.2400372E+04  0.7818609E-02  0.8439364E-01
       -1   -1    0    0    0  501  0.00000000000E+00  0.00000000000E+00  0.86931378718E+03  0.86931378720E+03  0.50400001928E-02 0. -1.
        1   -1    0    0  501    0  0.00000000000E+00  0.00000000000E+00 -0.16569920168E+04  0.16569920168E+04  0.50400001928E-02 0.  1.
    10030    2    1    2    0    0  0.00000000000E+00  0.00000000000E+00 -0.78767822958E+03  0.25263058040E+04  0.24003716424E+04 0.  0.
        1    1    3    3  502    0 -0.20426322185E+03 -0.47466105921E+03  0.74623758054E+03  0.90768778309E+03  0.50400001928E-02 0. -1.
       -1    1    3    3    0  502  0.20426322185E+03  0.47466105921E+03 -0.15339158101E+04  0.16186180209E+04  0.50400001928E-02 0.  1.
</event>
<event>
 5   0  0.5440503E-06  0.2390157E+04  0.7818609E-02  0.8443198E-01
       -2   -1    0    0    0  501  0.00000000000E+00  0.00000000000E+00  0.59210610657E+03  0.59210610658E+03  0.25500000920E-02 0.  1.
        2   -1    0    0  501    0  0.00000000000E+00  0.00000000000E+00 -0.24120892618E+04  0.24120892618E+04  0.25500000920E-02 0. -1.
    10030    2    1    2    0    0  0.00000000000E+00  0.00000000000E+00 -0.18199831553E+04  0.30041953684E+04  0.23901571342E+04 0.  0.
        3    1    3    3  502    0 -0.10209498678E+04 -0.47979896680E+02 -0.16884316889E+04  0.19736874832E+04  0.10100000352E+00 0. -1.
       -3    1    3    3    0  502  0.10209498678E+04  0.47979896680E+02 -0.13155146635E+03  0.10305078852E+04  0.10100000352E+00 0.  1.
</event>
<event>
 5   0  0.5440503E-06  0.2398646E+04  0.7818609E-02  0.8440011E-01
        2   -1    0    0  501    0  0.00000000000E+00  0.00000000000E+00  0.12261647227E+04  0.12261647227E+04  0.25500000920E-02 0. -1.
       -2   -1    0    0    0  501  0.00000000000E+00  0.00000000000E+00 -0.11730690502E+04  0.11730690502E+04  0.25500000920E-02 0.  1.
    10030    2    1    2    0    0  0.00000000000E+00  0.00000000000E+00  0.53095672492E+02  0.23992337729E+04  0.23986461904E+04 0.  0.
        3    1    3    3  502    0 -0.41329432429E+03 -0.27864920285E+03 -0.10645531426E+04  0.11754705357E+04  0.10100000352E+00 0.  1.
       -3    1    3    3    0  502  0.41329432429E+03  0.27864920285E+03  0.11176488151E+04  0.12237632372E+04  0.10100000352E+00 0. -1.
</event>
<event>
 5   0  0.2149417E-06  0.2399712E+04  0.7818609E-02  0.8439612E-01
       -1   -1    0    0    0  501  0.00000000000E+00  0.00000000000E+00  0.15401383358E+04  0.15401383358E+04  0.50400001928E-02 0. -1.
        1   -1    0    0  501    0  0.00000000000E+00  0.00000000000E+00 -0.93475620155E+03  0.93475620157E+03  0.50400001928E-02 0.  1.
    10030    2    1    2    0    0  0.00000000000E+00  0.00000000000E+00  0.60538213420E+03  0.24748945373E+04  0.23997115332E+04 0.  0.
        5    1    3    3  502    0  0.76346788187E+03 -0.24672554875E+03 -0.61737731847E+03  0.10123900169E+04  0.46999998093E+01 0.  1.
       -5    1    3    3    0  502 -0.76346788187E+03  0.24672554875E+03  0.12227594527E+04  0.14625045204E+04  0.46999998093E+01 0. -1.
</event>
<event>
 5   0  0.2215700E-06  0.2399243E+04  0.7818609E-02  0.8439787E-01
       -1   -1    0    0    0  501  0.00000000000E+00  0.00000000000E+00  0.12977661547E+04  0.12977661547E+04  0.50400001928E-02 0. -1.
        1   -1    0    0  501    0  0.00000000000E+00  0.00000000000E+00 -0.11088991438E+04  0.11088991438E+04  0.50400001928E-02 0.  1.
    10030    2    1    2    0    0  0.00000000000E+00  0.00000000000E+00  0.18886701092E+03  0.24066652985E+04  0.23992430288E+04 0.  0.
        3    1    3    3  502    0 -0.11124813032E+04  0.27105898252E+03 -0.26444997836E+03  0.11751686786E+04  0.10100000352E+00 0.  1.
       -3    1    3    3    0  502  0.11124813032E+04 -0.27105898252E+03  0.45331698928E+03  0.12314966199E+04  0.10100000352E+00 0. -1.
</event>
<event>
 5   0  0.2215700E-06  0.2371810E+04  0.7818609E-02  0.8450134E-01
        1   -1    0    0  501    0  0.00000000000E+00  0.00000000000E+00  0.23029198658E+04  0.23029198658E+04  0.50400001928E-02 0. -1.
       -1   -1    0    0    0  501  0.00000000000E+00  0.00000000000E+00 -0.61068999931E+03  0.61068999934E+03  0.50400001928E-02 0.  1.
    10030    2    1    2    0    0  0.00000000000E+00  0.00000000000E+00  0.16922298665E+04  0.29136098651E+04  0.23718095466E+04 0.  0.
        3    1    3    3  502    0  0.11285805385E+04  0.36417511403E+03  0.83720768542E+03  0.14516315870E+04  0.10100000352E+00 0.  1.
       -3    1    3    3    0  502 -0.11285805385E+04 -0.36417511403E+03  0.85502218106E+03  0.14619782782E+04  0.10100000352E+00 0. -1.
</event>
<event>
 5   0  0.5268358E-06  0.2394959E+04  0.7818609E-02  0.8441393E-01
       -2   -1    0    0    0  501  0.00000000000E+00  0.00000000000E+00  0.87527998573E+03  0.87527998574E+03  0.25500000920E-02 0. -1.
        2   -1    0    0  501    0  0.00000000000E+00  0.00000000000E+00 -0.16382839456E+04  0.16382839456E+04  0.25500000920E-02 0.  1.
    10030    2    1    2    0    0  0.00000000000E+00  0.00000000000E+00 -0.76300395982E+03  0.25135639313E+04  0.23949589963E+04 0.  0.
        2    1    3    3  502    0  0.31959702666E+03 -0.28336728310E+03  0.79261233041E+03  0.90037413496E+03  0.25500000920E-02 0. -1.
       -2    1    3    3    0  502 -0.31959702666E+03  0.28336728310E+03 -0.15556162902E+04  0.16131897963E+04  0.25500000920E-02 0.  1.
</event>
<event>
 5   0  0.5268358E-06  0.2384362E+04  0.7818609E-02  0.8445381E-01
       -2   -1    0    0    0  501  0.00000000000E+00  0.00000000000E+00  0.95152002857E+03  0.95152002857E+03  0.25500000920E-02 0. -1.
        2   -1    0    0  501    0  0.00000000000E+00  0.00000000000E+00 -0.14937108371E+04  0.14937108371E+04  0.25500000920E-02 0.  1.
    10030    2    1    2    0    0  0.00000000000E+00  0.00000000000E+00 -0.54219080849E+03  0.24452308656E+04  0.23843622027E+04 0.  0.
        2    1    3    3  502    0 -0.58886008561E+03  0.58888337332E+03  0.60376854952E+03  0.10286283533E+04  0.25500000920E-02 0. -1.
       -2    1    3    3    0  502  0.58886008561E+03 -0.58888337332E+03 -0.11459593580E+04  0.14166025124E+04  0.25500000920E-02 0.  1.
</event>
<event>
 5   0  0.2149029E-06  0.2397193E+04  0.7818609E-02  0.8440555E-01
       -1   -1    0    0    0  501  0.00000000000E+00  0.00000000000E+00  0.86810193776E+03  0.86810193778E+03  0.50400001928E-02 0. -1.
        1   -1    0    0  501    0  0.00000000000E+00  0.00000000000E+00 -0.16549135671E+04  0.16549135671E+04  0.50400001928E-02 0.  1.
    10030    2    1    2    0    0  0.00000000000E+00  0.00000000000E+00 -0.78681162931E+03  0.25230155049E+04  0.23971930873E+04 0.  0.
        4    1    3    3  502    0 -0.57124794708E+02 -0.95779130060E+03 -0.11494439596E+04  0.14972810180E+04  0.12699999809E+01 0.  1.
       -4    1    3    3    0  502  0.57124794708E+02  0.95779130060E+03  0.36263233029E+03  0.10257344869E+04  0.12699999809E+01 0. -1.
</event>
<event>
 5   0  0.5349036E-06  0.2398572E+04  0.7818609E-02  0.8440038E-01
        2   -1    0    0  501    0  0.00000000000E+00  0.00000000000E+00  0.23663192689E+04  0.23663192689E+04  0.25500000920E-02 0.  1.
       -2   -1    0    0    0  501  0.00000000000E+00  0.00000000000E+00 -0.60781605698E+03  0.60781605698E+03  0.25500000920E-02 0. -1.
    10030    2    1    2    0    0  0.00000000000E+00  0.00000000000E+00  0.17585032119E+04  0.29741353259E+04  0.23985719481E+04 0.  0.
        1    1    3    3  502    0 -0.85944172318E+03  0.82394590799E+03  0.70059431812E+03  0.13814337963E+04  0.50400001928E-02 0. -1.
       -1    1    3    3    0  502  0.85944172318E+03 -0.82394590799E+03  0.10579088938E+04  0.15927015296E+04  0.50400001928E-02 0.  1.
</event>
<event>
 5   0  0.1796750E-06  0.2403901E+04  0.7818609E-02  0.8438044E-01
       -4   -1    0    0    0  501  0.00000000000E+00  0.00000000000E+00  0.13750569449E+04  0.13750575314E+04  0.12699999809E+01 0.  1.
        4   -1    0    0  501    0  0.00000000000E+00  0.00000000000E+00 -0.10506356414E+04  0.10506364090E+04  0.12699999809E+01 0. -1.
    10030    2    1    2    0    0  0.00000000000E+00  0.00000000000E+00  0.32442130354E+03  0.24256939404E+04  0.24039013936E+04 0.  0.
        5    1    3    3  502    0  0.66086308725E+03 -0.96675658081E+03  0.43541423615E+03  0.12493862308E+04  0.46999998093E+01 0.  1.
       -5    1    3    3    0  502 -0.66086308725E+03  0.96675658081E+03 -0.11099293262E+03  0.11763077096E+04  0.46999998093E+01 0. -1.
</event>
<event>
 5   0  0.1796750E-06  0.2397062E+04  0.7818609E-02  0.8440604E-01
        4   -1    0    0  501    0  0.00000000000E+00  0.00000000000E+00  0.13432198364E+04  0.13432204368E+04  0.12699999809E+01 0. -1.
       -4   -1    0    0    0  501  0.00000000000E+00  0.00000000000E+00 -0.10694266770E+04  0.10694274311E+04  0.12699999809E+01 0.  1.
    10030    2    1    2    0    0  0.00000000000E+00  0.00000000000E+00  0.27379315935E+03  0.24126478679E+04  0.23970621686E+04 0.  0.
        5    1    3    3  502    0  0.36442171826E+03 -0.57788045153E+03  0.11280356787E+04  0.13188008142E+04  0.46999998093E+01 0. -1.
       -5    1    3    3    0  502 -0.36442171826E+03  0.57788045153E+03 -0.85424251937E+03  0.10938470537E+04  0.46999998093E+01 0.  1.
</event>
<event>
 5   0  0.5268358E-06  0.2396729E+04  0.7818609E-02  0.8440729E-01
       -2   -1    0    0    0  501  0.00000000000E+00  0.00000000000E+00  0.19663852571E+04  0.19663852571E+04  0.25500000920E-02 0. -1.
        2   -1    0    0  501    0  0.00000000000E+00  0.00000000000E+00 -0.73031336948E+03  0.73031336949E+03  0.25500000920E-02 0.  1.
    10030    2    1    2    0    0  0.00000000000E+00  0.00000000000E+00  0.12360718876E+04  0.26966986266E+04  0.23967289733E+04 0.  0.
        2    1    3    3  502    0 -0.23611328411E+03 -0.56020937241E+03 -0.54392780204E+03  0.81574596396E+03  0.25500000920E-02 0.  1.
       -2    1    3    3    0  502  0.23611328411E+03  0.56020937241E+03  0.17799996897E+04  0.18809526626E+04  0.25500000920E-02 0. -1.
</event>
<event>
 5   0  0.1796750E-06  0.2403134E+04  0.7818609E-02  0.8438331E-01
        3   -1    0    0  501    0  0.00000000000E+00  0.00000000000E+00  0.12271799166E+04  0.12271799208E+04  0.10100000352E+00 0. -1.
       -3   -1    0    0    0  501  0.00000000000E+00  0.00000000000E+00 -0.11764889162E+04  0.11764889206E+04  0.10100000352E+00 0.  1.
    10030    2    1    2    0    0  0.00000000000E+00  0.00000000000E+00  0.50691000397E+02  0.24036688414E+04  0.24031342704E+04 0.  0.
        2    1    3    3  502    0  0.40923715040E+03  0.10539837455E+04 -0.38144731694E+03  0.11932555622E+04  0.25500000920E-02 0.  1.
       -2    1    3    3    0  502 -0.40923715040E+03 -0.10539837455E+04  0.43213831734E+03  0.12104132792E+04  0.25500000920E-02 0. -1.
</event>
<event>
 5   0  0.5379778E-06  0.2400143E+04  0.7818609E-02  0.8439450E-01
       -2   -1    0    0    0  501  0.00000000000E+00  0.00000000000E+00  0.51878208116E+03  0.51878208117E+03  0.25500000920E-02 0. -1.
        2   -1    0    0  501    0  0.00000000000E+00  0.00000000000E+00 -0.27760623550E+04  0.27760623550E+04  0.25500000920E-02 0.  1.
    10030    2    1    2    0    0  0.00000000000E+00  0.00000000000E+00 -0.22572802739E+04  0.32948444362E+04  0.24001428341E+04 0.  0.
        5    1    3    3  502    0 -0.10991690159E+04 -0.25960418269E+03 -0.57172425909E+03  0.12658821334E+04  0.46999998093E+01 0.  1.
       -5    1    3    3    0  502  0.10991690159E+04  0.25960418269E+03 -0.16855560148E+04  0.20289623028E+04  0.46999998093E+01 0. -1.
</event>
<event>
 5   0  0.2215700E-06  0.2420653E+04  0.7818609E-02  0.8431812E-01
        1   -1    0    0  501    0  0.00000000000E+00  0.00000000000E+00  0.18996347734E+04  0.18996347734E+04  0.50400001928E-02 0. -1.
       -1   -1    0    0    0  501  0.00000000000E+00  0.00000000000E+00 -0.77114311017E+03  0.77114311018E+03  0.50400001928E-02 0.  1.
    10030    2    1    2    0    0  0.00000000000E+00  0.00000000000E+00  0.11284916632E+04  0.26707778836E+04  0.24206530254E+04 0.  0.
        3    1    3    3  502    0 -0.47359252845E+03 -0.11122616017E+04  0.62928150114E+03  0.13628686552E+04  0.10100000352E+00 0.  1.
       -3    1    3    3    0  502  0.47359252845E+03  0.11122616017E+04  0.49921016210E+03  0.13079092284E+04  0.10100000352E+00 0. -1.
</event>
<event>
 5   0  0.5371843E-06  0.2398783E+04  0.7818609E-02  0.8439959E-01
       -2   -1    0    0    0  501  0.00000000000E+00  0.00000000000E+00  0.13146644241E+04  0.13146644241E+04  0.25500000920E-02 0. -1.
        2   -1    0    0  501    0  0.00000000000E+00  0.00000000000E+00 -0.10942263610E+04  0.10942263610E+04  0.25500000920E-02 0.  1.
    10030    2    1    2    0    0  0.00000000000E+00  0.00000000000E+00  0.22043806313E+03  0.24088907851E+04  0.23987834155E+04 0.  0.
        4    1    3    3  502    0  0.53124790769E+03 -0.10067177521E+04  0.48974517333E+03  0.12391759034E+04  0.12699999809E+01 0. -1.
       -4    1    3    3    0  502 -0.53124790769E+03  0.10067177521E+04 -0.26930711020E+03  0.11697148817E+04  0.12699999809E+01 0.  1.
</event>
<event>
 5   0  0.2149029E-06  0.2395522E+04  0.7818609E-02  0.8441182E-01
       -1   -1    0    0    0  501  0.00000000000E+00  0.00000000000E+00  0.12758146746E+04  0.12758146746E+04  0.50400001928E-02 0. -1.
        1   -1    0    0  501    0  0.00000000000E+00  0.00000000000E+00 -0.11244822573E+04  0.11244822573E+04  0.50400001928E-02 0.  1.
    10030    2    1    2    0    0  0.00000000000E+00  0.00000000000E+00  0.15133241729E+03  0.24002969318E+04  0.23955216260E+04 0.  0.
        4    1    3    3  502    0  0.27705565336E+03 -0.99120300471E+03 -0.53824276229E+03  0.11614431177E+04  0.12699999809E+01 0.  1.
       -4    1    3    3    0  502 -0.27705565336E+03  0.99120300471E+03  0.68957517958E+03  0.12388538141E+04  0.12699999809E+01 0. -1.
</event>
<event>
 5   0  0.2297414E-06  0.2401284E+04  0.7818609E-02  0.8439023E-01
       -1   -1    0    0    0  501  0.00000000000E+00  0.00000000000E+00  0.68734590439E+03  0.68734590441E+03  0.50400001928E-02 0. -1.
        1   -1    0    0  501    0  0.00000000000E+00  0.00000000000E+00 -0.20972571025E+04  0.20972571025E+04  0.50400001928E-02 0.  1.
    10030    2    1    2    0    0  0.00000000000E+00  0.00000000000E+00 -0.14099111981E+04  0.27846030069E+04  0.24012838898E+04 0.  0.
        1    1    3    3  502    0 -0.88798603728E+03 -0.14832932200E+03  0.21621791488E+03  0.92588928977E+03  0.50400001928E-02 0. -1.
       -1    1    3    3    0  502  0.88798603728E+03  0.14832932200E+03 -0.16261291129E+04  0.18587137171E+04  0.50400001928E-02 0.  1.
</event>
<event>
 5   0  0.5379778E-06  0.2367387E+04  0.7818609E-02  0.8451815E-01
       -2   -1    0    0    0  501  0.00000000000E+00  0.00000000000E+00  0.13088476920E+04  0.13088476920E+04  0.25500000920E-02 0.  1.
        2   -1    0    0  501    0  0.00000000000E+00  0.00000000000E+00 -0.10705069662E+04  0.10705069662E+04  0.25500000920E-02 0. -1.
    10030    2    1    2    0    0  0.00000000000E+00  0.00000000000E+00  0.23834072576E+03  0.23793546582E+04  0.23673872282E+04 0.  0.
        5    1    3    3  502    0  0.65704905091E+03 -0.83181909960E+03  0.64858930126E+03  0.12427093954E+04  0.46999998093E+01 0.  1.
       -5    1    3    3    0  502 -0.65704905091E+03  0.83181909960E+03 -0.41024857550E+03  0.11366452628E+04  0.46999998093E+01 0. -1.
</event>
<event>
 5   0  0.2149417E-06  0.2410100E+04  0.7818609E-02  0.8435732E-01
        1   -1    0    0  501    0  0.00000000000E+00  0.00000000000E+00  0.95558910704E+03  0.95558910705E+03  0.50400001928E-02 0.  1.
       -1   -1    0    0    0  501  0.00000000000E+00  0.00000000000E+00 -0.15196342525E+04  0.15196342525E+04  0.50400001928E-02 0. -1.
    10030    2    1    2    0    0  0.00000000000E+00  0.00000000000E+00 -0.56404514549E+03  0.24752233596E+04  0.24101003617E+04 0.  0.
        5    1    3    3  502    0 -0.59876010189E+03 -0.16494908775E+03  0.77854840827E+03  0.99593251538E+03  0.46999998093E+01 0.  1.
       -5    1    3    3    0  502  0.59876010189E+03  0.16494908775E+03 -0.13425935538E+04  0.14792908442E+04  0.46999998093E+01 0. -1.
</event>
<event>
 5   0  0.5440503E-06  0.2396575E+04  0.7818609E-02  0.8440787E-01
        2   -1    0    0  501    0  0.00000000000E+00  0.00000000000E+00  0.12933767958E+04  0.12933767958E+04  0.25500000920E-02 0. -1.
       -2   -1    0    0    0  501  0.00000000000E+00  0.00000000000E+00 -0.11101890264E+04  0.11101890264E+04  0.25500000920E-02 0.  1.
    10030    2    1    2    0    0  0.00000000000E+00  0.00000000000E+00  0.18318776940E+03  0.24035658222E+04  0.23965748272E+04 0.  0.
        3    1    3    3  502    0 -0.39693681359E+03  0.67234047104E+02  0.12235196461E+04  0.12880526331E+04  0.10100000352E+00 0. -1.
       -3    1    3    3    0  502  0.39693681359E+03 -0.67234047104E+02 -0.10403318767E+04  0.11155131890E+04  0.10100000352E+00 0.  1.
</event>
<event>
 5   0  0.5349036E-06  0.2403255E+04  0.7818609E-02  0.8438286E-01
        2   -1    0    0  501    0  0.00000000000E+00  0.00000000000E+00  0.19637672271E+04  0.19637672271E+04  0.25500000920E-02 0. -1.
       -2   -1    0    0    0  501  0.00000000000E+00  0.00000000000E+00 -0.73527504004E+03  0.73527504005E+03  0.25500000920E-02 0.  1.
    10030    2    1    2    0    0  0.00000000000E+00  0.00000000000E+00  0.12284921871E+04  0.26990422672E+04  0.24032553144E+04 0.  0.
        1    1    3    3  502    0  0.11916573910E+03 -0.11954840908E+04  0.58848029089E+03  0.13377936080E+04  0.50400001928E-02 0. -1.
       -1    1    3    3    0  502 -0.11916573910E+03  0.11954840908E+04  0.64001189621E+03  0.13612486592E+04  0.50400001928E-02 0.  1.
</event>
<event>
 5   0  0.2254269E-06  0.2397490E+04  0.7818609E-02  0.8440444E-01
        1   -1    0    0  501    0  0.00000000000E+00  0.00000000000E+00  0.99885942541E+03  0.99885942542E+03  0.50400001928E-02 0.  1.
       -1   -1    0    0    0  501  0.00000000000E+00  0.00000000000E+00 -0.14386308506E+04  0.14386308506E+04  0.50400001928E-02 0. -1.
    10030    2    1    2    0    0  0.00000000000E+00  0.00000000000E+00 -0.43977142517E+03  0.24374902760E+04  0.23974903418E+04 0.  0.
        2    1    3    3  502    0  0.96049898767E+03 -0.41120796786E+03 -0.81734631277E+03  0.13265388397E+04  0.25500000920E-02 0. -1.
       -2    1    3    3    0  502 -0.96049898767E+03  0.41120796786E+03  0.37757488759E+03  0.11109514363E+04  0.25500000920E-02 0.  1.
</event>
<event>
 5   0  0.2254269E-06  0.2405396E+04  0.7818609E-02  0.8437486E-01
        1   -1    0    0  501    0  0.00000000000E+00  0.00000000000E+00  0.22295773053E+04  0.22295773053E+04  0.50400001928E-02 0. -1.
       -1   -1    0    0    0  501  0.00000000000E+00  0.00000000000E+00 -0.64877002053E+03  0.64877002055E+03  0.50400001928E-02 0.  1.
    10030    2    1    2    0    0  0.00000000000E+00  0.00000000000E+00  0.15808072847E+04  0.28783473258E+04  0.24053963616E+04 0.  0.
        2    1    3    3  502    0 -0.79073577217E+02  0.11955982741E+03 -0.63851178309E+03  0.65440391204E+03  0.25500000920E-02 0.  1.
       -2    1    3    3    0  502  0.79073577217E+02 -0.11955982741E+03  0.22193190678E+04  0.22239434138E+04  0.25500000920E-02 0. -1.
</event>
<event>
 5   0  0.5440503E-06  0.2401247E+04  0.7818609E-02  0.8439037E-01
        2   -1    0    0  501    0  0.00000000000E+00  0.00000000000E+00  0.90077015731E+03  0.90077015731E+03  0.25500000920E-02 0. -1.
       -2   -1    0    0    0  501  0.00000000000E+00  0.00000000000E+00 -0.16002942970E+04  0.16002942970E+04  0.25500000920E-02 0.  1.
    10030    2    1    2    0    0  0.00000000000E+00  0.00000000000E+00 -0.69952413967E+03  0.25010644543E+04  0.24012474638E+04 0.  0.
        3    1    3    3  502    0 -0.86139979156E+03  0.30461622540E+03 -0.11610476885E+04  0.14774411632E+04  0.10100000352E+00 0.  1.
       -3    1    3    3    0  502  0.86139979156E+03 -0.30461622540E+03  0.46152354881E+03  0.10236232911E+04  0.10100000352E+00 0. -1.
</event>
<event>
 5   0  0.5379778E-06  0.2403781E+04  0.7818609E-02  0.8438090E-01
       -2   -1    0    0    0  501  0.00000000000E+00  0.00000000000E+00  0.10643236140E+04  0.10643236140E+04  0.25500000920E-02 0. -1.
        2   -1    0    0  501    0  0.00000000000E+00  0.00000000000E+00 -0.13572377447E+04  0.13572377447E+04  0.25500000920E-02 0.  1.
    10030    2    1    2    0    0  0.00000000000E+00  0.00000000000E+00 -0.29291413065E+03  0.24215613587E+04  0.24037805071E+04 0.  0.
        5    1    3    3  502    0  0.27955870077E+03 -0.58712468980E+03  0.87178646273E+03  0.10876130724E+04  0.46999998093E+01 0. -1.
       -5    1    3    3    0  502 -0.27955870077E+03  0.58712468980E+03 -0.11647005934E+04  0.13339482864E+04  0.46999998093E+01 0.  1.
</event>
<event>
 5   0  0.2149029E-06  0.2394680E+04  0.7818609E-02  0.8441498E-01
       -1   -1    0    0    0  501  0.00000000000E+00  0.00000000000E+00  0.64849003178E+03  0.64849003180E+03  0.50400001928E-02 0.  1.
        1   -1    0    0  501    0  0.00000000000E+00  0.00000000000E+00 -0.22107094336E+04  0.22107094337E+04  0.50400001928E-02 0. -1.
    10030    2    1    2    0    0  0.00000000000E+00  0.00000000000E+00 -0.15622194019E+04  0.28591994655E+04  0.23946799627E+04 0.  0.
        4    1    3    3  502    0  0.84142023210E+03 -0.84366078147E+03 -0.64049407344E+03  0.13527696745E+04  0.12699999809E+01 0.  1.
       -4    1    3    3    0  502 -0.84142023210E+03  0.84366078147E+03 -0.92172532842E+03  0.15064297910E+04  0.12699999809E+01 0. -1.
</event>
<event>
 5   0  0.2149029E-06  0.2400512E+04  0.7818609E-02  0.8439312E-01
       -1   -1    0    0    0  501  0.00000000000E+00  0.00000000000E+00  0.16056418518E+04  0.16056418518E+04  0.50400001928E-02 0. -1.
        1   -1    0    0  501    0  0.00000000000E+00  0.00000000000E+00 -0.89722050041E+03  0.89722050043E+03  0.50400001928E-02 0.  1.
    10030    2    1    2    0    0  0.00000000000E+00  0.00000000000E+00  0.70842135134E+03  0.25028623522E+04  0.24005122668E+04 0.  0.
        4    1    3    3  502    0  0.10324325263E+04 -0.24636552289E+03  0.93845977869E+03  0.14167996546E+04  0.12699999809E+01 0. -1.
       -4    1    3    3    0  502 -0.10324325263E+04  0.24636552289E+03 -0.23003842735E+03  0.10860626976E+04  0.12699999809E+01 0.  1.
</event>
<event>
 5   0  0.2297414E-06  0.2401835E+04  0.7818609E-02  0.8438817E-01
       -1   -1    0    0    0  501  0.00000000000E+00  0.00000000000E+00  0.12705368123E+04  0.12705368123E+04  0.50400001928E-02 0.  1.
        1   -1    0    0  501    0  0.00000000000E+00  0.00000000000E+00 -0.11351130235E+04  0.11351130235E+04  0.50400001928E-02 0. -1.
    10030    2    1    2    0    0  0.00000000000E+00  0.00000000000E+00  0.13542378876E+03  0.24056498358E+04  0.24018350338E+04 0.  0.
        1    1    3    3  502    0 -0.49322359260E+03  0.44592392455E+03  0.10693428594E+04  0.12592107884E+04  0.50400001928E-02 0.  1.
       -1    1    3    3    0  502  0.49322359260E+03 -0.44592392455E+03 -0.93391907060E+03  0.11464390473E+04  0.50400001928E-02 0. -1.
</event>
<event>
 5   0  0.2297414E-06  0.2401598E+04  0.7818609E-02  0.8438905E-01
       -1   -1    0    0    0  501  0.00000000000E+00  0.00000000000E+00  0.10354252089E+04  0.10354252089E+04  0.50400001928E-02 0. -1.
        1   -1    0    0  501    0  0.00000000000E+00  0.00000000000E+00 -0.13925859245E+04  0.13925859245E+04  0.50400001928E-02 0.  1.
    10030    2    1    2    0    0  0.00000000000E+00  0.00000000000E+00 -0.35716071563E+03  0.24280111334E+04  0.24015982777E+04 0.  0.
        1    1    3    3  502    0  0.32644921767E+03  0.96634916941E+03 -0.81920439889E+03  0.13082414365E+04  0.50400001928E-02 0.  1.
       -1    1    3    3    0  502 -0.32644921767E+03 -0.96634916941E+03  0.46204368325E+03  0.11197696969E+04  0.50400001928E-02 0. -1.
</event>
<event>
 5   0  0.2254269E-06  0.2399695E+04  0.7818609E-02  0.8439618E-01
        1   -1    0    0  501    0  0.00000000000E+00  0.00000000000E+00  0.11565333294E+04  0.11565333294E+04  0.50400001928E-02 0.  1.
       -1   -1    0    0    0  501  0.00000000000E+00  0.00000000000E+00 -0.12447841354E+04  0.12447841354E+04  0.50400001928E-02 0. -1.
    10030    2    1    2    0    0  0.00000000000E+00  0.00000000000E+00 -0.88250805985E+02  0.24013174648E+04  0.23996952644E+04 0.  0.
        2    1    3    3  502    0  0.23385389576E+03  0.99305193760E+03 -0.67605411714E+03  0.12238827414E+04  0.25500000920E-02 0. -1.
       -2    1    3    3    0  502 -0.23385389576E+03 -0.99305193760E+03  0.58780331116E+03  0.11774347234E+04  0.25500000920E-02 0.  1.
</event>
<event>
 5   0  0.2149417E-06  0.2399398E+04  0.7818609E-02  0.8439729E-01
        1   -1    0    0  501    0  0.00000000000E+00  0.00000000000E+00  0.16860818184E+04  0.16860818185E+04  0.50400001928E-02 0.  1.
       -1   -1    0    0    0  501  0.00000000000E+00  0.00000000000E+00 -0.85362268949E+03  0.85362268951E+03  0.50400001928E-02 0. -1.
    10030    2    1    2    0    0  0.00000000000E+00  0.00000000000E+00  0.83245912895E+03  0.25397045080E+04  0.23993980050E+04 0.  0.
        5    1    3    3  502    0 -0.10653750642E+04 -0.28644521931E+03 -0.82694069569E+02  0.11063160896E+04  0.46999998093E+01 0. -1.
       -5    1    3    3    0  502  0.10653750642E+04  0.28644521931E+03  0.91515319852E+03  0.14333884183E+04  0.46999998093E+01 0.  1.
</event>
<event>
 5   0  0.2254269E-06  0.2402253E+04  0.7818609E-02  0.8438660E-01
        1   -1    0    0  501    0  0.00000000000E+00  0.00000000000E+00  0.14276158236E+04  0.14276158236E+04  0.50400001928E-02 0.  1.
       -1   -1    0    0    0  501  0.00000000000E+00  0.00000000000E+00 -0.10105696895E+04  0.10105696895E+04  0.50400001928E-02 0. -1.
    10030    2    1    2    0    0  0.00000000000E+00  0.00000000000E+00  0.41704613411E+03  0.24381855131E+04  0.24022533418E+04 0.  0.
        2    1    3    3  502    0  0.68416002201E+03  0.62226284841E+03 -0.56937383657E+03  0.10860352453E+04  0.25500000920E-02 0. -1.
       -2    1    3    3    0  502 -0.68416002201E+03 -0.62226284841E+03  0.98641997068E+03  0.13521502678E+04  0.25500000920E-02 0.  1.
</event>
<event>
 5   0  0.5349036E-06  0.2399846E+04  0.7818609E-02  0.8439561E-01
        2   -1    0    0  501    0  0.00000000000E+00  0.00000000000E+00  0.12461264033E+04  0.12461264033E+04  0.25500000920E-02 0. -1.
       -2   -1    0    0    0  501  0.00000000000E+00  0.00000000000E+00 -0.11554326385E+04  0.11554326385E+04  0.25500000920E-02 0.  1.
    10030    2    1    2    0    0  0.00000000000E+00  0.00000000000E+00  0.90693764811E+02  0.24015590417E+04  0.23998459267E+04 0.  0.
        1    1    3    3  502    0 -0.37055764418E+03  0.11389889380E+04 -0.26859661837E+02  0.11980526742E+04  0.50400001928E-02 0. -1.
       -1    1    3    3    0  502  0.37055764418E+03 -0.11389889380E+04  0.11755342665E+03  0.12035063676E+04  0.50400001928E-02 0.  1.
</event>
<event>
 5   0  0.5349036E-06  0.2395377E+04  0.7818609E-02  0.8441236E-01
       -2   -1    0    0    0  501  0.00000000000E+00  0.00000000000E+00  0.25549874532E+04  0.25549874532E+04  0.25500000920E-02 0. -1.
        2   -1    0    0  501    0  0.00000000000E+00  0.00000000000E+00 -0.56143432062E+03  0.56143432063E+03  0.25500000920E-02 0.  1.
    10030    2    1    2    0    0  0.00000000000E+00  0.00000000000E+00  0.19935531325E+04  0.31164217738E+04  0.23953769181E+04 0.  0.
        1    1    3    3  502    0  0.60149592477E+03 -0.66327362757E+03 -0.38105905371E+02  0.89620383429E+03  0.50400001928E-02 0.  1.
       -1    1    3    3    0  502 -0.60149592477E+03  0.66327362757E+03  0.20316590379E+04  0.22202179395E+04  0.50400001928E-02 0. -1.
</event>
<event>
 5   0  0.5268358E-06  0.2402398E+04  0.7818609E-02  0.8438606E-01
        2   -1    0    0  501    0  0.00000000000E+00  0.00000000000E+00  0.91526313710E+03  0.91526313711E+03  0.25500000920E-02 0. -1.
       -2   -1    0    0    0  501  0.00000000000E+00  0.00000000000E+00 -0.15764637390E+04  0.15764637390E+04  0.25500000920E-02 0.  1.
    10030    2    1    2    0    0  0.00000000000E+00  0.00000000000E+00 -0.66120060187E+03  0.24917268761E+04  0.24023980913E+04 0.  0.
        2    1    3    3  502    0 -0.17238069901E+03  0.27172699952E+03  0.86972514900E+03  0.92734702376E+03  0.25500000920E-02 0. -1.
       -2    1    3    3    0  502  0.17238069901E+03 -0.27172699952E+03 -0.15309257509E+04  0.15643798523E+04  0.25500000920E-02 0.  1.
</event>
<event>
 5   0  0.2149029E-06  0.2396954E+04  0.7818609E-02  0.8440645E-01
        1   -1    0    0  501    0  0.00000000000E+00  0.00000000000E+00  0.17823720729E+04  0.17823720729E+04  0.50400001928E-02 0.  1.
       -1   -1    0    0    0  501  0.00000000000E+00  0.00000000000E+00 -0.80586257127E+03  0.80586257129E+03  0.50400001928E-02 0. -1.
    10030    2    1    2    0    0  0.00000000000E+00  0.00000000000E+00  0.97650950167E+03  0.25882346442E+04  0.23969538516E+04 0.  0.
        4    1    3    3  502    0  0.28484428396E+03  0.11599023436E+04  0.38116577747E+03  0.12537139529E+04  0.12699999809E+01 0. -1.
       -4    1    3    3    0  502 -0.28484428396E+03 -0.11599023436E+04  0.59534372419E+03  0.13345206914E+04  0.12699999809E+01 0.  1.
</event>
<event>
 5   0  0.2149029E-06  0.2394305E+04  0.7818609E-02  0.8441639E-01
       -1   -1    0    0    0  501  0.00000000000E+00  0.00000000000E+00  0.19439249806E+04  0.19439249806E+04  0.50400001928E-02 0.  1.
        1   -1    0    0  501    0  0.00000000000E+00  0.00000000000E+00 -0.73725764338E+03  0.73725764340E+03  0.50400001928E-02 0. -1.
    10030    2    1    2    0    0  0.00000000000E+00  0.00000000000E+00  0.12066673373E+04  0.26811826240E+04  0.23943045338E+04 0.  0.
        4    1    3    3  502    0 -0.56427144620E+03 -0.10191551733E+04  0.91223349486E+03  0.14796118052E+04  0.12699999809E+01 0.  1.
       -4    1    3    3    0  502  0.56427144620E+03  0.10191551733E+04  0.29443384240E+03  0.12015708188E+04  0.12699999809E+01 0. -1.
</event>
<event>
 5   0  0.2297414E-06  0.2399704E+04  0.7818609E-02  0.8439614E-01
        1   -1    0    0  501    0  0.00000000000E+00  0.00000000000E+00  0.23322459487E+04  0.23322459487E+04  0.50400001928E-02 0.  1.
       -1   -1    0    0    0  501  0.00000000000E+00  0.00000000000E+00 -0.61727831297E+03  0.61727831299E+03  0.50400001928E-02 0. -1.
    10030    2    1    2    0    0  0.00000000000E+00  0.00000000000E+00  0.17149676357E+04  0.29495242617E+04  0.23997040190E+04 0.  0.
        1    1    3    3  502    0 -0.12603064690E+03  0.44876576317E+03 -0.50144187019E+03  0.68463010696E+03  0.50400001928E-02 0. -1.
       -1    1    3    3    0  502  0.12603064690E+03 -0.44876576317E+03  0.22164095059E+04  0.22648941547E+04  0.50400001928E-02 0.  1.
</event>
<event>
 5   0  0.2254269E-06  0.2399381E+04  0.7818609E-02  0.8439735E-01
       -1   -1    0    0    0  501  0.00000000000E+00  0.00000000000E+00  0.71470341848E+03  0.71470341850E+03  0.50400001928E-02 0.  1.
        1   -1    0    0  501    0  0.00000000000E+00  0.00000000000E+00 -0.20137830463E+04  0.20137830463E+04  0.50400001928E-02 0. -1.
    10030    2    1    2    0    0  0.00000000000E+00  0.00000000000E+00 -0.12990796278E+04  0.27284864648E+04  0.23993812763E+04 0.  0.
        2    1    3    3  502    0 -0.11832687044E+04 -0.18249071899E+03 -0.56271287204E+03  0.13229034227E+04  0.25500000920E-02 0. -1.
       -2    1    3    3    0  502  0.11832687044E+04  0.18249071899E+03 -0.73636675579E+03  0.14055830422E+04  0.25500000920E-02 0.  1.
</event>
<event>
 5   0  0.2254269E-06  0.2396280E+04  0.7818609E-02  0.8440898E-01
       -1   -1    0    0    0  501  0.00000000000E+00  0.00000000000E+00  0.66979446207E+03  0.66979446209E+03  0.50400001928E-02 0. -1.
        1   -1    0    0  501    0  0.00000000000E+00  0.00000000000E+00 -0.21432536174E+04  0.21432536174E+04  0.50400001928E-02 0.  1.
    10030    2    1    2    0    0  0.00000000000E+00  0.00000000000E+00 -0.14734591553E+04  0.28130480795E+04  0.23962799534E+04 0.  0.
        2    1    3    3  502    0  0.11675506275E+04 -0.25128626599E+03 -0.84945154445E+03  0.14655671877E+04  0.25500000920E-02 0.  1.
       -2    1    3    3    0  502 -0.11675506275E+04  0.25128626599E+03 -0.62400761090E+03  0.13474808918E+04  0.25500000920E-02 0. -1.
</event>
<event>
 5   0  0.5440503E-06  0.2396554E+04  0.7818609E-02  0.8440795E-01
       -2   -1    0    0    0  501  0.00000000000E+00  0.00000000000E+00  0.84801421308E+03  0.84801421308E+03  0.25500000920E-02 0. -1.
        2   -1    0    0  501    0  0.00000000000E+00  0.00000000000E+00 -0.16932118380E+04  0.16932118380E+04  0.25500000920E-02 0.  1.
    10030    2    1    2    0    0  0.00000000000E+00  0.00000000000E+00 -0.84519762491E+03  0.25412260511E+04  0.23965539463E+04 0.  0.
        3    1    3    3  502    0  0.10572777661E+04 -0.40657208189E+03 -0.83699816102E+03  0.14084399398E+04  0.10100000352E+00 0. -1.
       -3    1    3    3    0  502 -0.10572777661E+04  0.40657208189E+03 -0.81994638825E+01  0.11327861112E+04  0.10100000352E+00 0.  1.
</event>
<event>
 5   0  0.5349036E-06  0.2395329E+04  0.7818609E-02  0.8441254E-01
        2   -1    0    0  501    0  0.00000000000E+00  0.00000000000E+00  0.12413732936E+04  0.12413732936E+04  0.25500000920E-02 0. -1.
       -2   -1    0    0    0  501  0.00000000000E+00  0.00000000000E+00 -0.11554945346E+04  0.11554945346E+04  0.25500000920E-02 0.  1.
    10030    2    1    2    0    0  0.00000000000E+00  0.00000000000E+00  0.85878758998E+02  0.23968678282E+04  0.23953288344E+04 0.  0.
        1    1    3    3  502    0 -0.23430119460E+03  0.67801324758E+03 -0.91673940152E+03  0.11640490299E+04  0.50400001928E-02 0.  1.
       -1    1    3    3    0  502  0.23430119460E+03 -0.67801324758E+03  0.10026181605E+04  0.12328187983E+04  0.50400001928E-02 0. -1.
</event>
<event>
 5   0  0.5440503E-06  0.2402101E+04  0.7818609E-02  0.8438717E-01
       -2   -1    0    0    0  501  0.00000000000E+00  0.00000000000E+00  0.11412608535E+04  0.11412608535E+04  0.25500000920E-02 0.  1.
        2   -1    0    0  501    0  0.00000000000E+00  0.00000000000E+00 -0.12639725287E+04  0.12639725287E+04  0.25500000920E-02 0. -1.
    10030    2    1    2    0    0  0.00000000000E+00  0.00000000000E+00 -0.12271167523E+03  0.24052333822E+04  0.24021010527E+04 0.  0.
        3    1    3    3  502    0 -0.54379510342E+03  0.65404653898E+03  0.78770765818E+03  0.11592986477E+04  0.10100000352E+00 0.  1.
       -3    1    3    3    0  502  0.54379510342E+03 -0.65404653898E+03 -0.91041933342E+03  0.12459347345E+04  0.10100000352E+00 0. -1.
</event>
<event>
 5   0  0.2297414E-06  0.2390705E+04  0.7818609E-02  0.8442991E-01
       -1   -1    0    0    0  501  0.00000000000E+00  0.00000000000E+00  0.13196907534E+04  0.13196907534E+04  0.50400001928E-02 0. -1.
        1   -1    0    0  501    0  0.00000000000E+00  0.00000000000E+00 -0.10827295469E+04  0.10827295469E+04  0.50400001928E-02 0.  1.
    10030    2    1    2    0    0  0.00000000000E+00  0.00000000000E+00  0.23696120654E+03  0.24024203003E+04  0.23907054787E+04 0.  0.
        1    1    3    3  502    0 -0.63858793478E+02 -0.11593648908E+04 -0.16692391240E+03  0.11730594563E+04  0.50400001928E-02 0.  1.
       -1    1    3    3    0  502  0.63858793478E+02  0.11593648908E+04  0.40388511894E+03  0.12293608440E+04  0.50400001928E-02 0. -1.
</event>
<event>
 5   0  0.5268358E-06  0.2399005E+04  0.7818609E-02  0.8439876E-01
        2   -1    0    0  501    0  0.00000000000E+00  0.00000000000E+00  0.57765014177E+03  0.57765014177E+03  0.25500000920E-02 0. -1.
       -2   -1    0    0    0  501  0.00000000000E+00  0.00000000000E+00 -0.24907909039E+04  0.24907909039E+04  0.25500000920E-02 0.  1.
    10030    2    1    2    0    0  0.00000000000E+00  0.00000000000E+00 -0.19131407621E+04  0.30684410457E+04  0.23990045592E+04 0.  0.
        2    1    3    3  502    0  0.16007403703E+03  0.11820685041E+04 -0.79530853214E+03  0.14336754539E+04  0.25500000920E-02 0. -1.
       -2    1    3    3    0  502 -0.16007403703E+03 -0.11820685041E+04 -0.11178322300E+04  0.16347655918E+04  0.25500000920E-02 0.  1.
</event>
<event>
 5   0  0.5268358E-06  0.2401248E+04  0.7818609E-02  0.8439036E-01
       -2   -1    0    0    0  501  0.00000000000E+00  0.00000000000E+00  0.13688676074E+04  0.13688676074E+04  0.25500000920E-02 0. -1.
        2   -1    0    0  501    0  0.00000000000E+00  0.00000000000E+00 -0.10530591327E+04  0.10530591327E+04  0.25500000920E-02 0.  1.
    10030    2    1    2    0    0  0.00000000000E+00  0.00000000000E+00  0.31580847472E+03  0.24219267401E+04  0.24012484548E+04 0.  0.
        2    1    3    3  502    0  0.18944065529E+03 -0.18947345443E+03 -0.10225205202E+04  0.10570412319E+04  0.25500000920E-02 0.  1.
       -2    1    3    3    0  502 -0.18944065529E+03  0.18947345443E+03  0.13383289949E+04  0.13648855082E+04  0.25500000920E-02 0. -1.
</event>
<event>
 5   0  0.2297414E-06  0.2403812E+04  0.7818609E-02  0.8438078E-01
       -1   -1    0    0    0  501  0.00000000000E+00  0.00000000000E+00  0.85905380049E+03  0.85905380050E+03  0.50400001928E-02 0.  1.
        1   -1    0    0  501    0  0.00000000000E+00  0.00000000000E+00 -0.16815921453E+04  0.16815921453E+04  0.50400001928E-02 0. -1.
    10030    2    1    2    0    0  0.00000000000E+00  0.00000000000E+00 -0.82253834478E+03  0.25406459458E+04  0.24038120753E+04 0.  0.
        1    1    3    3  502    0  0.45842128073E+02 -0.33429733102E+03 -0.16305038043E+04  0.16650522100E+04  0.50400001928E-02 0. -1.
       -1    1    3    3    0  502 -0.45842128073E+02  0.33429733102E+03  0.80796545954E+03  0.87559373574E+03  0.50400001928E-02 0.  1.
</event>
<event>
 5   0  0.2149029E-06  0.2409874E+04  0.7818609E-02  0.8435816E-01
       -1   -1    0    0    0  501  0.00000000000E+00  0.00000000000E+00  0.17827282343E+04  0.17827282343E+04  0.50400001928E-02 0. -1.
        1   -1    0    0  501    0  0.00000000000E+00  0.00000000000E+00 -0.81441092105E+03  0.81441092107E+03  0.50400001928E-02 0.  1.
    10030    2    1    2    0    0  0.00000000000E+00  0.00000000000E+00  0.96831731326E+03  0.25971391554E+04  0.24098741406E+04 0.  0.
        4    1    3    3  502    0 -0.49867688285E+03 -0.43135962657E+03  0.15710531186E+04  0.17038072882E+04  0.12699999809E+01 0. -1.
       -4    1    3    3    0  502  0.49867688285E+03  0.43135962657E+03 -0.60273580537E+03  0.89333186717E+03  0.12699999809E+01 0.  1.
</event>
<event>
 5   0  0.2149417E-06  0.2397968E+04  0.7818609E-02  0.8440265E-01
        1   -1    0    0  501    0  0.00000000000E+00  0.00000000000E+00  0.21036776257E+04  0.21036776257E+04  0.50400001928E-02 0.  1.
       -1   -1    0    0    0  501  0.00000000000E+00  0.00000000000E+00 -0.68335686718E+03  0.68335686720E+03  0.50400001928E-02 0. -1.
    10030    2    1    2    0    0  0.00000000000E+00  0.00000000000E+00  0.14203207585E+04  0.27870344929E+04  0.23979679330E+04 0.  0.
        5    1    3    3  502    0 -0.10908218634E+04  0.49720822655E+03  0.73432015914E+03  0.14058294862E+04  0.46999998093E+01 0. -1.
       -5    1    3    3    0  502  0.10908218634E+04 -0.49720822655E+03  0.68600059935E+03  0.13812050067E+04  0.46999998093E+01 0.  1.
</event>
<event>
 5   0  0.5371843E-06  0.2400966E+04  0.7818609E-02  0.8439142E-01
        2   -1    0    0  501    0  0.00000000000E+00  0.00000000000E+00  0.15553130518E+04  0.15553130518E+04  0.25500000920E-02 0.  1.
       -2   -1    0    0    0  501  0.00000000000E+00  0.00000000000E+00 -0.92660423423E+03  0.92660423423E+03  0.25500000920E-02 0. -1.
    10030    2    1    2    0    0  0.00000000000E+00  0.00000000000E+00  0.62870881759E+03  0.24819172860E+04  0.24009661883E+04 0.  0.
        4    1    3    3  502    0  0.97515027879E+03 -0.69803170808E+03  0.37089513104E+03  0.12552813003E+04  0.12699999809E+01 0.  1.
       -4    1    3    3    0  502 -0.97515027879E+03  0.69803170808E+03  0.25781368655E+03  0.12266359858E+04  0.12699999809E+01 0. -1.
</event>
<event>
 5   0  0.2149417E-06  0.2404310E+04  0.7818609E-02  0.8437892E-01
       -1   -1    0    0    0  501  0.00000000000E+00  0.00000000000E+00  0.11056235602E+04  0.11056235602E+04  0.50400001928E-02 0. -1.
        1   -1    0    0  501    0  0.00000000000E+00  0.00000000000E+00 -0.13071140760E+04  0.13071140760E+04  0.50400001928E-02 0.  1.
    10030    2    1    2    0    0  0.00000000000E+00  0.00000000000E+00 -0.20149051579E+03  0.24127376362E+04  0.24043095627E+04 0.  0.
        5    1    3    3  502    0 -0.89688248725E+03 -0.75316789876E+03 -0.37279323803E+03  0.12290878602E+04  0.46999998093E+01 0. -1.
       -5    1    3    3    0  502  0.89688248725E+03  0.75316789876E+03  0.17130272224E+03  0.11836497760E+04  0.46999998093E+01 0.  1.
</event>
<event>
 5   0  0.5440503E-06  0.2396781E+04  0.7818609E-02  0.8440710E-01
       -2   -1    0    0    0  501  0.00000000000E+00  0.00000000000E+00  0.11309454032E+04  0.11309454032E+04  0.25500000920E-02 0. -1.
        2   -1    0    0  501    0  0.00000000000E+00  0.00000000000E+00 -0.12698581524E+04  0.12698581524E+04  0.25500000920E-02 0.  1.
    10030    2    1    2    0    0  0.00000000000E+00  0.00000000000E+00 -0.13891274927E+03  0.24008035556E+04  0.23967813752E+04 0.  0.
        3    1    3    3  502    0 -0.78580019482E+03  0.53921279291E+03  0.65833560189E+03  0.11582910503E+04  0.10100000352E+00 0. -1.
       -3    1    3    3    0  502  0.78580019482E+03 -0.53921279291E+03 -0.79724835116E+03  0.12425125053E+04  0.10100000352E+00 0.  1.
</event>
<event>
 5   0  0.2149417E-06  0.2399811E+04  0.7818609E-02  0.8439574E-01
       -1   -1    0    0    0  501  0.00000000000E+00  0.00000000000E+00  0.18935761386E+04  0.18935761386E+04  0.50400001928E-02 0.  1.
        1   -1    0    0  501    0  0.00000000000E+00  0.00000000000E+00 -0.76034607885E+03  0.76034607886E+03  0.50400001928E-02 0. -1.
    10030    2    1    2    0    0  0.00000000000E+00  0.00000000000E+00  0.11332300598E+04  0.26539222175E+04  0.23998109859E+04 0.  0.
        5    1    3    3  502    0 -0.10361733483E+04  0.42399046976E+02 -0.10086714863E+03  0.10419448923E+04  0.46999998093E+01 0. -1.
       -5    1    3    3    0  502  0.10361733483E+04 -0.42399046976E+02  0.12340972084E+04  0.16119773251E+04  0.46999998093E+01 0.  1.
</event>
<event>
 5   0  0.2215700E-06  0.2397090E+04  0.7818609E-02  0.8440594E-01
        1   -1    0    0  501    0  0.00000000000E+00  0.00000000000E+00  0.26580558382E+04  0.26580558382E+04  0.50400001928E-02 0. -1.
       -1   -1    0    0    0  501  0.00000000000E+00  0.00000000000E+00 -0.54043631159E+03  0.54043631162E+03  0.50400001928E-02 0.  1.
    10030    2    1    2    0    0  0.00000000000E+00  0.00000000000E+00  0.21176195266E+04  0.31984921498E+04  0.23970898133E+04 0.  0.
        3    1    3    3  502    0  0.43659156106E+03 -0.11141065380E+04  0.96768112825E+03  0.15389127153E+04  0.10100000352E+00 0.  1.
       -3    1    3    3    0  502 -0.43659156106E+03  0.11141065380E+04  0.11499383983E+04  0.16595794345E+04  0.10100000352E+00 0. -1.
</event>
<event>
 5   0  0.2215700E-06  0.2414265E+04  0.7818609E-02  0.8434182E-01
        1   -1    0    0  501    0  0.00000000000E+00  0.00000000000E+00  0.24371044539E+04  0.24371044539E+04  0.50400001928E-02 0.  1.
       -1   -1    0    0    0  501  0.00000000000E+00  0.00000000000E+00 -0.59790979613E+03  0.59790979616E+03  0.50400001928E-02 0. -1.
    10030    2    1    2    0    0  0.00000000000E+00  0.00000000000E+00  0.18391946577E+04  0.30350142500E+04  0.24142647967E+04 0.  0.
        3    1    3    3  502    0 -0.11837214520E+04  0.11036978110E+03  0.65653022657E+03  0.13580905394E+04  0.10100000352E+00 0. -1.
       -3    1    3    3    0  502  0.11837214520E+04 -0.11036978110E+03  0.11826644312E+04  0.16769237107E+04  0.10100000352E+00 0.  1.
</event>
<event>
 5   0  0.2149417E-06  0.2404613E+04  0.7818609E-02  0.8437779E-01
       -1   -1    0    0    0  501  0.00000000000E+00  0.00000000000E+00  0.10219530640E+04  0.10219530640E+04  0.50400001928E-02 0. -1.
        1   -1    0    0  501    0  0.00000000000E+00  0.00000000000E+00 -0.14144882885E+04  0.14144882885E+04  0.50400001928E-02 0.  1.
    10030    2    1    2    0    0  0.00000000000E+00  0.00000000000E+00 -0.39253522447E+03  0.24364413526E+04  0.24046127676E+04 0.  0.
        5    1    3    3  502    0  0.80559524765E+03 -0.50568969259E+03 -0.94140145212E+03  0.13382692376E+04  0.46999998093E+01 0.  1.
       -5    1    3    3    0  502 -0.80559524765E+03  0.50568969259E+03  0.54886622765E+03  0.10981721150E+04  0.46999998093E+01 0. -1.
</event>
<event>
 5   0  0.5371843E-06  0.2395411E+04  0.7818609E-02  0.8441223E-01
        2   -1    0    0  501    0  0.00000000000E+00  0.00000000000E+00  0.12122582974E+04  0.12122582974E+04  0.25500000920E-02 0.  1.
       -2   -1    0    0    0  501  0.00000000000E+00  0.00000000000E+00 -0.11833276944E+04  0.11833276944E+04  0.25500000920E-02 0. -1.
    10030    2    1    2    0    0  0.00000000000E+00  0.00000000000E+00  0.28930603057E+02  0.23955859918E+04  0.23954112934E+04 0.  0.
        4    1    3    3  502    0  0.47556291681E+03  0.89183383235E+03  0.65713922286E+03  0.12055543304E+04  0.12699999809E+01 0.  1.
       -4    1    3    3    0  502 -0.47556291681E+03 -0.89183383235E+03 -0.62820861980E+03  0.11900316615E+04  0.12699999809E+01 0. -1.
</event>
<event>
 5   0  0.5440503E-06  0.2390543E+04  0.7818609E-02  0.8443053E-01
        2   -1    0    0  501    0  0.00000000000E+00  0.00000000000E+00  0.26782523747E+04  0.26782523747E+04  0.25500000920E-02 0.  1.
       -2   -1    0    0    0  501  0.00000000000E+00  0.00000000000E+00 -0.53343527824E+03  0.53343527825E+03  0.25500000920E-02 0. -1.
    10030    2    1    2    0    0  0.00000000000E+00  0.00000000000E+00  0.21448170965E+04  0.32116876530E+04  0.23905432861E+04 0.  0.
        3    1    3    3  502    0  0.65631552255E+02  0.49701756008E+03  0.25301741615E+04  0.25793633426E+04  0.10100000352E+00 0.  1.
       -3    1    3    3    0  502 -0.65631552255E+02 -0.49701756008E+03 -0.38535706501E+03  0.63232431033E+03  0.10100000352E+00 0. -1.
</event>
<event>
 5   0  0.5268358E-06  0.2401668E+04  0.7818609E-02  0.8438879E-01
       -2   -1    0    0    0  501  0.00000000000E+00  0.00000000000E+00  0.60930539830E+03  0.60930539830E+03  0.25500000920E-02 0.  1.
        2   -1    0    0  501    0  0.00000000000E+00  0.00000000000E+00 -0.23666326907E+04  0.23666326907E+04  0.25500000920E-02 0. -1.
    10030    2    1    2    0    0  0.00000000000E+00  0.00000000000E+00 -0.17573272924E+04  0.29759380890E+04  0.24016678157E+04 0.  0.
        2    1    3    3  502    0 -0.46994758290E+03 -0.46454968527E+03 -0.21210838369E+04  0.22216331344E+04  0.25500000920E-02 0. -1.
       -2    1    3    3    0  502  0.46994758290E+03  0.46454968527E+03  0.36375654454E+03  0.75430495455E+03  0.25500000920E-02 0.  1.
</event>
<event>
 5   0  0.5349036E-06  0.2428364E+04  0.7818609E-02  0.8428960E-01
       -2   -1    0    0    0  501  0.00000000000E+00  0.00000000000E+00  0.12341782333E+04  0.12341782333E+04  0.25500000920E-02 0.  1.
        2   -1    0    0  501    0  0.00000000000E+00  0.00000000000E+00 -0.11945093239E+04  0.11945093239E+04  0.25500000920E-02 0. -1.
    10030    2    1    2    0    0  0.00000000000E+00  0.00000000000E+00  0.39668909335E+02  0.24286875572E+04  0.24283635700E+04 0.  0.
        1    1    3    3  502    0 -0.49682108837E+03  0.79486227382E+03  0.79168879125E+03  0.12269508427E+04  0.50400001928E-02 0.  1.
       -1    1    3    3    0  502  0.49682108837E+03 -0.79486227382E+03 -0.75201988191E+03  0.12017367145E+04  0.50400001928E-02 0. -1.
</event>
<event>
 5   0  0.5379778E-06  0.2399307E+04  0.7818609E-02  0.8439763E-01
       -2   -1    0    0    0  501  0.00000000000E+00  0.00000000000E+00  0.76095183386E+03  0.76095183387E+03  0.25500000920E-02 0.  1.
        2   -1    0    0  501    0  0.00000000000E+00  0.00000000000E+00 -0.18912739864E+04  0.18912739864E+04  0.25500000920E-02 0. -1.
    10030    2    1    2    0    0  0.00000000000E+00  0.00000000000E+00 -0.11303221525E+04  0.26522258202E+04  0.23993069068E+04 0.  0.
        5    1    3    3  502    0 -0.10301836635E+04  0.12998237835E+02 -0.12445173690E+04  0.16156400919E+04  0.46999998093E+01 0. -1.
       -5    1    3    3    0  502  0.10301836635E+04 -0.12998237835E+02  0.11419521649E+03  0.10365857284E+04  0.46999998093E+01 0.  1.
</event>
<event>
 5   0  0.5440503E-06  0.2400325E+04  0.7818609E-02  0.8439382E-01
        2   -1    0    0  501    0  0.00000000000E+00  0.00000000000E+00  0.97022887180E+03  0.97022887180E+03  0.25500000920E-02 0. -1.
       -2   -1    0    0    0  501  0.00000000000E+00  0.00000000000E+00 -0.14845873080E+04  0.14845873080E+04  0.25500000920E-02 0.  1.
    10030    2    1    2    0    0  0.00000000000E+00  0.00000000000E+00 -0.51435843617E+03  0.24548161798E+04  0.24003245355E+04 0.  0.
        3    1    3    3  502    0  0.73603099002E+03 -0.34656836253E+03 -0.11595582160E+04  0.14164838561E+04  0.10100000352E+00 0.  1.
       -3    1    3    3    0  502 -0.73603099002E+03  0.34656836253E+03  0.64519977985E+03  0.10383323236E+04  0.10100000352E+00 0. -1.
</event>
<event>
 5   0  0.2215700E-06  0.2376323E+04  0.7818609E-02  0.8448421E-01
       -1   -1    0    0    0  501  0.00000000000E+00  0.00000000000E+00  0.11159924684E+04  0.11159924684E+04  0.50400001928E-02 0. -1.
        1   -1    0    0  501    0  0.00000000000E+00  0.00000000000E+00 -0.12649977684E+04  0.12649977684E+04  0.50400001928E-02 0.  1.
    10030    2    1    2    0    0  0.00000000000E+00  0.00000000000E+00 -0.14900530002E+03  0.23809902368E+04  0.23763231952E+04 0.  0.
        3    1    3    3  502    0 -0.42296495735E+03  0.86544064286E+03  0.62245034784E+03  0.11468789418E+04  0.10100000352E+00 0. -1.
       -3    1    3    3    0  502  0.42296495735E+03 -0.86544064286E+03 -0.77145564786E+03  0.12341112949E+04  0.10100000352E+00 0.  1.
</event>
<event>
 5   0  0.2215700E-06  0.2403653E+04  0.7818609E-02  0.8438137E-01
        1   -1    0    0  501    0  0.00000000000E+00  0.00000000000E+00  0.23044925400E+04  0.23044925400E+04  0.50400001928E-02 0. -1.
       -1   -1    0    0    0  501  0.00000000000E+00  0.00000000000E+00 -0.62677007622E+03  0.62677007624E+03  0.50400001928E-02 0.  1.
    10030    2    1    2    0    0  0.00000000000E+00  0.00000000000E+00  0.16777224638E+04  0.29312626162E+04  0.24036530240E+04 0.  0.
        3    1    3    3  502    0  0.95693423783E+03 -0.20184595769E+03  0.16907015004E+04  0.19531862430E+04  0.10100000352E+00 0. -1.
       -3    1    3    3    0  502 -0.95693423783E+03  0.20184595769E+03 -0.12979036693E+02  0.97807637317E+03  0.10100000352E+00 0.  1.
</event>
<event>
 5   0  0.2149417E-06  0.2391637E+04  0.7818609E-02  0.8442641E-01
       -1   -1    0    0    0  501  0.00000000000E+00  0.00000000000E+00  0.10330218653E+04  0.10330218653E+04  0.50400001928E-02 0. -1.
        1   -1    0    0  501    0  0.00000000000E+00  0.00000000000E+00 -0.13842711181E+04  0.13842711181E+04  0.50400001928E-02 0.  1.
    10030    2    1    2    0    0  0.00000000000E+00  0.00000000000E+00 -0.35124925280E+03  0.24172929834E+04  0.23916373743E+04 0.  0.
        5    1    3    3  502    0 -0.86572949029E+03  0.54453976066E+03  0.45065864312E+03  0.11176432364E+04  0.46999998093E+01 0. -1.
       -5    1    3    3    0  502  0.86572949029E+03 -0.54453976066E+03 -0.80190789592E+03  0.12996497470E+04  0.46999998093E+01 0.  1.
</event>
<event>
 5   0  0.2215700E-06  0.2397988E+04  0.7818609E-02  0.8440257E-01
        1   -1    0    0  501    0  0.00000000000E+00  0.00000000000E+00  0.25394891962E+04  0.25394891962E+04  0.50400001928E-02 0.  1.
       -1   -1    0    0    0  501  0.00000000000E+00  0.00000000000E+00 -0.56609262318E+03  0.56609262320E+03  0.50400001928E-02 0. -1.
    10030    2    1    2    0    0  0.00000000000E+00  0.00000000000E+00  0.19733965730E+04  0.31055818194E+04  0.23979875735E+04 0.  0.
        3    1    3    3  502    0  0.22441443746E+03 -0.18432490701E+03  0.24932527529E+04  0.25101089242E+04  0.10100000352E+00 0.  1.
       -3    1    3    3    0  502 -0.22441443746E+03  0.18432490701E+03 -0.51985617985E+03  0.59547289528E+03  0.10100000352E+00 0. -1.
</event>
<event>
 5   0  0.5268358E-06  0.2401637E+04  0.7818609E-02  0.8438891E-01
        2   -1    0    0  501    0  0.00000000000E+00  0.00000000000E+00  0.29336437614E+04  0.29336437614E+04  0.25500000920E-02 0. -1.
       -2   -1    0    0    0  501  0.00000000000E+00  0.00000000000E+00 -0.49152684533E+03  0.49152684534E+03  0.25500000920E-02 0.  1.
    10030    2    1    2    0    0  0.00000000000E+00  0.00000000000E+00  0.24421169160E+04  0.34251706067E+04  0.24016366614E+04 0.  0.
        2    1    3    3  502    0  0.11452205726E+04  0.29498383637E+03  0.15182353329E+04  0.19244698360E+04  0.25500000920E-02 0. -1.
       -2    1    3    3    0  502 -0.11452205726E+04 -0.29498383637E+03  0.92388158317E+03  0.15007007707E+04  0.25500000920E-02 0.  1.
</event>
<event>
 5   0  0.5440503E-06  0.2400101E+04  0.7818609E-02  0.8439466E-01
       -2   -1    0    0    0  501  0.00000000000E+00  0.00000000000E+00  0.11059436268E+04  0.11059436268E+04  0.25500000920E-02 0.  1.
        2   -1    0    0  501    0  0.00000000000E+00  0.00000000000E+00 -0.13021649982E+04  0.13021649982E+04  0.25500000920E-02 0. -1.
    10030    2    1    2    0    0  0.00000000000E+00  0.00000000000E+00 -0.19622137145E+03  0.24081086250E+04  0.24001008985E+04 0.  0.
        3    1    3    3  502    0  0.60695342950E+01 -0.51649549333E+03 -0.11849220926E+04  0.12926116236E+04  0.10100000352E+00 0. -1.
       -3    1    3    3    0  502 -0.60695342950E+01  0.51649549333E+03  0.98870072113E+03  0.11154970014E+04  0.10100000352E+00 0.  1.
</event>
<event>
 5   0  0.2215700E-06  0.2369957E+04  0.7818609E-02  0.8450838E-01
        1   -1    0    0  501    0  0.00000000000E+00  0.00000000000E+00  0.11300406927E+04  0.11300406927E+04  0.50400001928E-02 0. -1.
       -1   -1    0    0    0  501  0.00000000000E+00  0.00000000000E+00 -0.12425869704E+04  0.12425869704E+04  0.50400001928E-02 0.  1.
    10030    2    1    2    0    0  0.00000000000E+00  0.00000000000E+00 -0.11254627765E+03  0.23726276631E+04  0.23699568273E+04 0.  0.
        3    1    3    3  502    0  0.49614183055E+03  0.95246874224E+03  0.44511100037E+03  0.11625305303E+04  0.10100000352E+00 0. -1.
       -3    1    3    3    0  502 -0.49614183055E+03 -0.95246874224E+03 -0.55765727802E+03  0.12100971328E+04  0.10100000352E+00 0.  1.
</event>
<event>
 5   0  0.2254269E-06  0.2410107E+04  0.7818609E-02  0.8435729E-01
        1   -1    0    0  501    0  0.00000000000E+00  0.00000000000E+00  0.14476708192E+04  0.14476708192E+04  0.50400001928E-02 0.  1.
       -1   -1    0    0    0  501  0.00000000000E+00  0.00000000000E+00 -0.10030970587E+04  0.10030970587E+04  0.50400001928E-02 0. -1.
    10030    2    1    2    0    0  0.00000000000E+00  0.00000000000E+00  0.44457376046E+03  0.24507678779E+04  0.24101073343E+04 0.  0.
        2    1    3    3  502    0  0.78343495593E+03  0.55195236115E+02 -0.70710052605E+03  0.10567913693E+04  0.25500000920E-02 0. -1.
       -2    1    3    3    0  502 -0.78343495593E+03 -0.55195236115E+02  0.11516742865E+04  0.13939765086E+04  0.25500000920E-02 0.  1.
</event>
<event>
 5   0  0.5268358E-06  0.2400465E+04  0.7818609E-02  0.8439330E-01
       -2   -1    0    0    0  501  0.00000000000E+00  0.00000000000E+00  0.12011642771E+04  0.12011642771E+04  0.25500000920E-02 0. -1.
        2   -1    0    0  501    0  0.00000000000E+00  0.00000000000E+00 -0.11993011148E+04  0.11993011148E+04  0.25500000920E-02 0.  1.
    10030    2    1    2    0    0  0.00000000000E+00  0.00000000000E+00  0.18631623788E+01  0.24004653919E+04  0.24004646688E+04 0.  0.
        2    1    3    3  502    0  0.22235615941E+03  0.10855631262E+04 -0.46022806810E+03  0.11998747590E+04  0.25500000920E-02 0.  1.
       -2    1    3    3    0  502 -0.22235615941E+03 -0.10855631262E+04  0.46209123048E+03  0.12005906329E+04  0.25500000920E-02 0. -1.
</event>
<event>
 5   0  0.2149029E-06  0.2401058E+04  0.7818609E-02  0.8439107E-01
        1   -1    0    0  501    0  0.00000000000E+00  0.00000000000E+00  0.13085205048E+04  0.13085205049E+04  0.50400001928E-02 0. -1.
       -1   -1    0    0    0  501  0.00000000000E+00  0.00000000000E+00 -0.11014503506E+04  0.11014503506E+04  0.50400001928E-02 0.  1.
    10030    2    1    2    0    0  0.00000000000E+00  0.00000000000E+00  0.20707015423E+03  0.24099708555E+04  0.24010584074E+04 0.  0.
        4    1    3    3  502    0  0.10966290446E+04  0.30916012365E+03  0.48321622851E+03  0.12376084922E+04  0.12699999809E+01 0. -1.
       -4    1    3    3    0  502 -0.10966290446E+04 -0.30916012365E+03 -0.27614607428E+03  0.11723623633E+04  0.12699999809E+01 0.  1.
</event>
<event>
 5   0  0.5349036E-06  0.2407318E+04  0.7818609E-02  0.8436769E-01
        2   -1    0    0  501    0  0.00000000000E+00  0.00000000000E+00  0.10839790791E+04  0.10839790791E+04  0.25500000920E-02 0. -1.
       -2   -1    0    0    0  501  0.00000000000E+00  0.00000000000E+00 -0.13365524112E+04  0.13365524112E+04  0.25500000920E-02 0.  1.
    10030    2    1    2    0    0  0.00000000000E+00  0.00000000000E+00 -0.25257333214E+03  0.24205314903E+04  0.24073178866E+04 0.  0.
        1    1    3    3  502    0  0.15211256216E+03  0.62525643653E+03 -0.11490775045E+04  0.13169901117E+04  0.50400001928E-02 0.  1.
       -1    1    3    3    0  502 -0.15211256216E+03 -0.62525643653E+03  0.89650417240E+03  0.11035413785E+04  0.50400001928E-02 0. -1.
</event>
<event>
 5   0  0.2149029E-06  0.2398792E+04  0.7818609E-02  0.8439956E-01
        1   -1    0    0  501    0  0.00000000000E+00  0.00000000000E+00  0.21366580837E+04  0.21366580837E+04  0.50400001928E-02 0.  1.
       -1   -1    0    0    0  501  0.00000000000E+00  0.00000000000E+00 -0.67327137847E+03  0.67327137849E+03  0.50400001928E-02 0. -1.
    10030    2    1    2    0    0  0.00000000000E+00  0.00000000000E+00  0.14633867052E+04  0.28099294622E+04  0.23987919738E+04 0.  0.
        4    1    3    3  502    0 -0.99853615464E+03 -0.66341004739E+03  0.77492043100E+03  0.14274770157E+04  0.12699999809E+01 0. -1.
       -4    1    3    3    0  502  0.99853615464E+03  0.66341004739E+03  0.68846627419E+03  0.13824524465E+04  0.12699999809E+01 0.  1.
</event>
<event>
 5   0  0.2215700E-06  0.2400387E+04  0.7818609E-02  0.8439359E-01
       -1   -1    0    0    0  501  0.00000000000E+00  0.00000000000E+00  0.75513511269E+03  0.75513511270E+03  0.50400001928E-02 0. -1.
        1   -1    0    0  501    0  0.00000000000E+00  0.00000000000E+00 -0.19075591227E+04  0.19075591227E+04  0.50400001928E-02 0.  1.
    10030    2    1    2    0    0  0.00000000000E+00  0.00000000000E+00 -0.11524240100E+04  0.26626942354E+04  0.24003873630E+04 0.  0.
        3    1    3    3  502    0 -0.72565958219E+02  0.38458520590E+03 -0.18347858861E+04  0.18760625941E+04  0.10100000352E+00 0.  1.
       -3    1    3    3    0  502  0.72565958219E+02 -0.38458520590E+03  0.68236187612E+03  0.78663164129E+03  0.10100000352E+00 0. -1.
</event>
<event>
 5   0  0.2254269E-06  0.2399676E+04  0.7818609E-02  0.8439625E-01
        1   -1    0    0  501    0  0.00000000000E+00  0.00000000000E+00  0.14922959402E+04  0.14922959402E+04  0.50400001928E-02 0.  1.
       -1   -1    0    0    0  501  0.00000000000E+00  0.00000000000E+00 -0.96469574188E+03  0.96469574190E+03  0.50400001928E-02 0. -1.
    10030    2    1    2    0    0  0.00000000000E+00  0.00000000000E+00  0.52760019832E+03  0.24569916821E+04  0.23996762608E+04 0.  0.
        2    1    3    3  502    0 -0.14968211610E+03  0.11524350305E+04 -0.41826130046E+02  0.11628674304E+04  0.25500000920E-02 0.  1.
       -2    1    3    3    0  502  0.14968211610E+03 -0.11524350305E+04  0.56942632837E+03  0.12941242517E+04  0.25500000920E-02 0. -1.
</event>
<event>
 5   0  0.5349036E-06  0.2399611E+04  0.7818609E-02  0.8439649E-01
       -2   -1    0    0    0  501  0.00000000000E+00  0.00000000000E+00  0.85280729848E+03  0.85280729848E+03  0.25500000920E-02 0.  1.
        2   -1    0    0  501    0  0.00000000000E+00  0.00000000000E+00 -0.16879929494E+04  0.16879929494E+04  0.25500000920E-02 0. -1.
    10030    2    1    2    0    0  0.00000000000E+00  0.00000000000E+00 -0.83518565093E+03  0.25408002479E+04  0.23996105576E+04 0.  0.
        1    1    3    3  502    0  0.17978374543E+03 -0.78118174107E+02  0.83573757867E+03  0.85841828072E+03  0.50400001928E-02 0.  1.
       -1    1    3    3    0  502 -0.17978374543E+03  0.78118174107E+02 -0.16709232296E+04  0.16823819672E+04  0.50400001928E-02 0. -1.
</event>
<event>
 5   0  0.5379778E-06  0.2396251E+04  0.7818609E-02  0.8440908E-01
       -2   -1    0    0    0  501  0.00000000000E+00  0.00000000000E+00  0.96016828691E+03  0.96016828692E+03  0.25500000920E-02 0.  1.
        2   -1    0    0  501    0  0.00000000000E+00  0.00000000000E+00 -0.14950557748E+04  0.14950557748E+04  0.25500000920E-02 0. -1.
    10030    2    1    2    0    0  0.00000000000E+00  0.00000000000E+00 -0.53488748791E+03  0.24552240617E+04  0.23962513576E+04 0.  0.
        5    1    3    3  502    0 -0.23506800637E+03  0.76313847771E+03  0.64776092545E+03  0.10282283843E+04  0.46999998093E+01 0.  1.
       -5    1    3    3    0  502  0.23506800637E+03 -0.76313847771E+03 -0.11826484134E+04  0.14269956774E+04  0.46999998093E+01 0. -1.
</event>
<event>
 5   0  0.2149417E-06  0.2398774E+04  0.7818609E-02  0.8439963E-01
       -1   -1    0    0    0  501  0.00000000000E+00  0.00000000000E+00  0.88445879069E+03  0.88445879070E+03  0.50400001928E-02 0.  1.
        1   -1    0    0  501    0  0.00000000000E+00  0.00000000000E+00 -0.16264516159E+04  0.16264516159E+04  0.50400001928E-02 0. -1.
    10030    2    1    2    0    0  0.00000000000E+00  0.00000000000E+00 -0.74199282518E+03  0.25109104066E+04  0.23987742114E+04 0.  0.
        5    1    3    3  502    0 -0.69910070292E+03  0.26968079007E+03  0.60928553678E+03  0.96577454755E+03  0.46999998093E+01 0.  1.
       -5    1    3    3    0  502  0.69910070292E+03 -0.26968079007E+03 -0.13512783620E+04  0.15451358590E+04  0.46999998093E+01 0. -1.
</event>
<event>
 5   0  0.5371843E-06  0.2390808E+04  0.7818609E-02  0.8442953E-01
       -2   -1    0    0    0  501  0.00000000000E+00  0.00000000000E+00  0.10540552225E+04  0.10540552225E+04  0.25500000920E-02 0. -1.
        2   -1    0    0  501    0  0.00000000000E+00  0.00000000000E+00 -0.13557072184E+04  0.13557072184E+04  0.25500000920E-02 0.  1.
    10030    2    1    2    0    0  0.00000000000E+00  0.00000000000E+00 -0.30165199589E+03  0.24097624410E+04  0.23908076241E+04 0.  0.
        4    1    3    3  502    0  0.51865124094E+03 -0.77928971467E+03  0.59850412018E+03  0.11110807189E+04  0.12699999809E+01 0. -1.
       -4    1    3    3    0  502 -0.51865124094E+03  0.77928971467E+03 -0.90015611607E+03  0.12986817221E+04  0.12699999809E+01 0.  1.
</event>
<event>
 5   0  0.2297414E-06  0.2398477E+04  0.7818609E-02  0.8440074E-01
        1   -1    0    0  501    0  0.00000000000E+00  0.00000000000E+00  0.11711038244E+04  0.11711038244E+04  0.50400001928E-02 0. -1.
       -1   -1    0    0    0  501  0.00000000000E+00  0.00000000000E+00 -0.12280494843E+04  0.12280494843E+04  0.50400001928E-02 0.  1.
    10030    2    1    2    0    0  0.00000000000E+00  0.00000000000E+00 -0.56945659932E+02  0.23991533087E+04  0.23984773901E+04 0.  0.
        1    1    3    3  502    0 -0.90068420065E+03 -0.78261721971E+03 -0.14872195565E+03  0.12024308554E+04  0.50400001928E-02 0.  1.
       -1    1    3    3    0  502  0.90068420065E+03  0.78261721971E+03  0.91776295720E+02  0.11967224534E+04  0.50400001928E-02 0. -1.
</event>
<event>
 5   0  0.2149417E-06  0.2408563E+04  0.7818609E-02  0.8436305E-01
        1   -1    0    0  501    0  0.00000000000E+00  0.00000000000E+00  0.20655277915E+04  0.20655277915E+04  0.50400001928E-02 0.  1.
       -1   -1    0    0    0  501  0.00000000000E+00  0.00000000000E+00 -0.70214220214E+03  0.70214220216E+03  0.50400001928E-02 0. -1.
    10030    2    1    2    0    0  0.00000000000E+00  0.00000000000E+00  0.13633855894E+04  0.27676699937E+04  0.24085632499E+04 0.  0.
        5    1    3    3  502    0 -0.36410580622E+03 -0.86276917076E+03  0.15517704205E+04  0.18124450910E+04  0.46999998093E+01 0.  1.
       -5    1    3    3    0  502  0.36410580622E+03  0.86276917076E+03 -0.18838483107E+03  0.95522490268E+03  0.46999998093E+01 0. -1.
</event>
<event>
 5   0  0.2254269E-06  0.2400870E+04  0.7818609E-02  0.8439178E-01
       -1   -1    0    0    0  501  0.00000000000E+00  0.00000000000E+00  0.91672798729E+03  0.91672798730E+03  0.50400001928E-02 0. -1.
        1   -1    0    0  501    0  0.00000000000E+00  0.00000000000E+00 -0.15719428890E+04  0.15719428890E+04  0.50400001928E-02 0.  1.
    10030    2    1    2    0    0  0.00000000000E+00  0.00000000000E+00 -0.65521490170E+03  0.24886708763E+04  0.24008698763E+04 0.  0.
        2    1    3    3  502    0 -0.85996553541E+03  0.58024211691E+03  0.29848662371E+03  0.10794979856E+04  0.25500000920E-02 0. -1.
       -2    1    3    3    0  502  0.85996553541E+03 -0.58024211691E+03 -0.95370152541E+03  0.14091728907E+04  0.25500000920E-02 0.  1.
</event>
<event>
 5   0  0.2254269E-06  0.2402722E+04  0.7818609E-02  0.8438485E-01
        1   -1    0    0  501    0  0.00000000000E+00  0.00000000000E+00  0.84954911524E+03  0.84954911526E+03  0.50400001928E-02 0.  1.
       -1   -1    0    0    0  501  0.00000000000E+00  0.00000000000E+00 -0.16988640499E+04  0.16988640499E+04  0.50400001928E-02 0. -1.
    10030    2    1    2    0    0  0.00000000000E+00  0.00000000000E+00 -0.84931493462E+03  0.25484131651E+04  0.24027221650E+04 0.  0.
        2    1    3    3  502    0  0.97065340264E+03 -0.39786261754E+03  0.19634073151E+03  0.10672452264E+04  0.25500000920E-02 0.  1.
       -2    1    3    3    0  502 -0.97065340264E+03  0.39786261754E+03 -0.10456556661E+04  0.14811679387E+04  0.25500000920E-02 0. -1.
</event>
<event>
 5   0  0.1796750E-06  0.2400441E+04  0.7818609E-02  0.8439338E-01
       -3   -1    0    0    0  501  0.00000000000E+00  0.00000000000E+00  0.24480026103E+04  0.24480026124E+04  0.10100000352E+00 0. -1.
        3   -1    0    0  501    0  0.00000000000E+00  0.00000000000E+00 -0.58845086334E+03  0.58845087200E+03  0.10100000352E+00 0.  1.
    10030    2    1    2    0    0  0.00000000000E+00  0.00000000000E+00  0.18595517470E+04  0.30364534844E+04  0.24004410143E+04 0.  0.
        2    1    3    3  502    0 -0.10926349014E+04  0.48252886827E+03  0.78093972618E+03  0.14270781311E+04  0.25500000920E-02 0.  1.
       -2    1    3    3    0  502  0.10926349014E+04 -0.48252886827E+03  0.10786120208E+04  0.16093753533E+04  0.25500000920E-02 0. -1.
</event>
<event>
 5   0  0.2149417E-06  0.2394835E+04  0.7818609E-02  0.8441440E-01
        1   -1    0    0  501    0  0.00000000000E+00  0.00000000000E+00  0.12684113749E+04  0.12684113749E+04  0.50400001928E-02 0.  1.
       -1   -1    0    0    0  501  0.00000000000E+00  0.00000000000E+00 -0.11303976156E+04  0.11303976156E+04  0.50400001928E-02 0. -1.
    10030    2    1    2    0    0  0.00000000000E+00  0.00000000000E+00  0.13801375932E+03  0.23988089904E+04  0.23948354380E+04 0.  0.
        5    1    3    3  502    0  0.35173446334E+03  0.93645353342E+03 -0.59020722771E+03  0.11614770831E+04  0.46999998093E+01 0. -1.
       -5    1    3    3    0  502 -0.35173446334E+03 -0.93645353342E+03  0.72822098703E+03  0.12373319073E+04  0.46999998093E+01 0.  1.
</event>
<event>
 5   0  0.2149029E-06  0.2399473E+04  0.7818609E-02  0.8439701E-01
        1   -1    0    0  501    0  0.00000000000E+00  0.00000000000E+00  0.11671376229E+04  0.11671376229E+04  0.50400001928E-02 0.  1.
       -1   -1    0    0    0  501  0.00000000000E+00  0.00000000000E+00 -0.12332459431E+04  0.12332459431E+04  0.50400001928E-02 0. -1.
    10030    2    1    2    0    0  0.00000000000E+00  0.00000000000E+00 -0.66108320203E+02  0.24003835660E+04  0.23994730575E+04 0.  0.
        4    1    3    3  502    0 -0.33388880499E+03 -0.41300119757E+03 -0.11092478611E+04  0.12298309452E+04  0.12699999809E+01 0. -1.
       -4    1    3    3    0  502  0.33388880499E+03  0.41300119757E+03  0.10431395409E+04  0.11705526208E+04  0.12699999809E+01 0.  1.
</event>
<event>
 5   0  0.2254269E-06  0.2382655E+04  0.7818609E-02  0.8446026E-01
       -1   -1    0    0    0  501  0.00000000000E+00  0.00000000000E+00  0.55889243363E+03  0.55889243365E+03  0.50400001928E-02 0.  1.
        1   -1    0    0  501    0  0.00000000000E+00  0.00000000000E+00 -0.25394178055E+04  0.25394178055E+04  0.50400001928E-02 0. -1.
    10030    2    1    2    0    0  0.00000000000E+00  0.00000000000E+00 -0.19805253718E+04  0.30983102391E+04  0.23826551554E+04 0.  0.
        2    1    3    3  502    0  0.27049678398E+03 -0.79278460137E+03  0.11127796130E+03  0.84501995183E+03  0.25500000920E-02 0.  1.
       -2    1    3    3    0  502 -0.27049678398E+03  0.79278460137E+03 -0.20918033331E+04  0.22532902873E+04  0.25500000920E-02 0. -1.
</event>
<event>
 5   0  0.2254269E-06  0.2400477E+04  0.7818609E-02  0.8439325E-01
        1   -1    0    0  501    0  0.00000000000E+00  0.00000000000E+00  0.10898227161E+04  0.10898227161E+04  0.50400001928E-02 0.  1.
       -1   -1    0    0    0  501  0.00000000000E+00  0.00000000000E+00 -0.13218414847E+04  0.13218414847E+04  0.50400001928E-02 0. -1.
    10030    2    1    2    0    0  0.00000000000E+00  0.00000000000E+00 -0.23201876863E+03  0.24116642008E+04  0.24004773501E+04 0.  0.
        2    1    3    3  502    0  0.65631652994E+03 -0.88711475023E+03  0.35825933440E+03  0.11602041709E+04  0.25500000920E-02 0.  1.
       -2    1    3    3    0  502 -0.65631652994E+03  0.88711475023E+03 -0.59027810303E+03  0.12514600299E+04  0.25500000920E-02 0. -1.
</event>
<event>
 5   0  0.5349036E-06  0.2395986E+04  0.7818609E-02  0.8441008E-01
        2   -1    0    0  501    0  0.00000000000E+00  0.00000000000E+00  0.12496644936E+04  0.12496644936E+04  0.25500000920E-02 0. -1.
       -2   -1    0    0    0  501  0.00000000000E+00  0.00000000000E+00 -0.11484576619E+04  0.11484576619E+04  0.25500000920E-02 0.  1.
    10030    2    1    2    0    0  0.00000000000E+00  0.00000000000E+00  0.10120683171E+03  0.23981221555E+04  0.23959856114E+04 0.  0.
        1    1    3    3  502    0 -0.93215765684E+03  0.16424008359E+03  0.78562469840E+03  0.12300808384E+04  0.50400001928E-02 0. -1.
       -1    1    3    3    0  502  0.93215765684E+03 -0.16424008359E+03 -0.68441786669E+03  0.11680413171E+04  0.50400001928E-02 0.  1.
</event>
<event>
 5   0  0.2149417E-06  0.2401307E+04  0.7818609E-02  0.8439014E-01
        1   -1    0    0  501    0  0.00000000000E+00  0.00000000000E+00  0.14956561027E+04  0.14956561027E+04  0.50400001928E-02 0. -1.
       -1   -1    0    0    0  501  0.00000000000E+00  0.00000000000E+00 -0.96383748405E+03  0.96383748407E+03  0.50400001928E-02 0.  1.
    10030    2    1    2    0    0  0.00000000000E+00  0.00000000000E+00  0.53181861862E+03  0.24594935867E+04  0.24013074897E+04 0.  0.
        5    1    3    3  502    0 -0.84340020138E+03  0.31221867656E+03  0.10806352931E+04  0.14059157615E+04  0.46999998093E+01 0. -1.
       -5    1    3    3    0  502  0.84340020138E+03 -0.31221867656E+03 -0.54881667450E+03  0.10535778253E+04  0.46999998093E+01 0.  1.
</event>
<event>
 5   0  0.2254269E-06  0.2390391E+04  0.7818609E-02  0.8443110E-01
       -1   -1    0    0    0  501  0.00000000000E+00  0.00000000000E+00  0.95506316990E+03  0.95506316992E+03  0.50400001928E-02 0. -1.
        1   -1    0    0  501    0  0.00000000000E+00  0.00000000000E+00 -0.14957045984E+04  0.14957045984E+04  0.50400001928E-02 0.  1.
    10030    2    1    2    0    0  0.00000000000E+00  0.00000000000E+00 -0.54064142846E+03  0.24507677683E+04  0.23903910768E+04 0.  0.
        2    1    3    3  502    0  0.29979561524E+03 -0.42638068496E+03  0.83239879533E+03  0.98212303399E+03  0.25500000920E-02 0. -1.
       -2    1    3    3    0  502 -0.29979561524E+03  0.42638068496E+03 -0.13730402238E+04  0.14686447343E+04  0.25500000920E-02 0.  1.
</event>
<event>
 5   0  0.2297414E-06  0.2386123E+04  0.7818609E-02  0.8444717E-01
       -1   -1    0    0    0  501  0.00000000000E+00  0.00000000000E+00  0.16477982467E+04  0.16477982467E+04  0.50400001928E-02 0.  1.
        1   -1    0    0  501    0  0.00000000000E+00  0.00000000000E+00 -0.86381661473E+03  0.86381661475E+03  0.50400001928E-02 0. -1.
    10030    2    1    2    0    0  0.00000000000E+00  0.00000000000E+00  0.78398163194E+03  0.25116148614E+04  0.23861227992E+04 0.  0.
        1    1    3    3  502    0  0.10439585281E+04  0.30357831774E+03  0.90914085591E+03  0.14172319144E+04  0.50400001928E-02 0.  1.
       -1    1    3    3    0  502 -0.10439585281E+04 -0.30357831774E+03 -0.12515922397E+03  0.10943829470E+04  0.50400001928E-02 0. -1.
</event>
<event>
 5   0  0.5379778E-06  0.2344128E+04  0.7818609E-02  0.8460723E-01
        2   -1    0    0  501    0  0.00000000000E+00  0.00000000000E+00  0.15356466518E+04  0.15356466518E+04  0.25500000920E-02 0. -1.
       -2   -1    0    0    0  501  0.00000000000E+00  0.00000000000E+00 -0.89456350434E+03  0.89456350434E+03  0.25500000920E-02 0.  1.
    10030    2    1    2    0    0  0.00000000000E+00  0.00000000000E+00  0.64108314743E+03  0.24302101561E+04  0.23441275138E+04 0.  0.
        5    1    3    3  502    0 -0.35897615605E+03 -0.10097752520E+03 -0.83141129000E+03  0.91122289499E+03  0.46999998093E+01 0.  1.
       -5    1    3    3    0  502  0.35897615605E+03  0.10097752520E+03  0.14724944374E+04  0.15189872611E+04  0.46999998093E+01 0. -1.
</event>
<event>
 5   0  0.5379778E-06  0.2396937E+04  0.7818609E-02  0.8440651E-01
        2   -1    0    0  501    0  0.00000000000E+00  0.00000000000E+00  0.67802655031E+03  0.67802655032E+03  0.25500000920E-02 0. -1.
       -2   -1    0    0    0  501  0.00000000000E+00  0.00000000000E+00 -0.21183939293E+04  0.21183939293E+04  0.25500000920E-02 0.  1.
    10030    2    1    2    0    0  0.00000000000E+00  0.00000000000E+00 -0.14403673790E+04  0.27964204796E+04  0.23969374861E+04 0.  0.
        5    1    3    3  502    0  0.75391588717E+03  0.55868027129E+03 -0.15899489938E+04  0.18462049462E+04  0.46999998093E+01 0.  1.
       -5    1    3    3    0  502 -0.75391588717E+03 -0.55868027129E+03  0.14958161482E+03  0.95021553342E+03  0.46999998093E+01 0. -1.
</event>
<event>
 5   0  0.5371843E-06  0.2354436E+04  0.7818609E-02  0.8456762E-01
       -2   -1    0    0    0  501  0.00000000000E+00  0.00000000000E+00  0.11062215620E+04  0.11062215620E+04  0.25500000920E-02 0. -1.
        2   -1    0    0  501    0  0.00000000000E+00  0.00000000000E+00 -0.12527713710E+04  0.12527713710E+04  0.25500000920E-02 0.  1.
    10030    2    1    2    0    0  0.00000000000E+00  0.00000000000E+00 -0.14654980899E+03  0.23589929329E+04  0.23544364105E+04 0.  0.
        4    1    3    3  502    0  0.23788727112E+03 -0.10859238454E+04  0.31479901330E+03  0.11553878065E+04  0.12699999809E+01 0. -1.
       -4    1    3    3    0  502 -0.23788727112E+03  0.10859238454E+04 -0.46134882229E+03  0.12036051265E+04  0.12699999809E+01 0.  1.
</event>
<event>
 5   0  0.2149417E-06  0.2401781E+04  0.7818609E-02  0.8438837E-01
        1   -1    0    0  501    0  0.00000000000E+00  0.00000000000E+00  0.15417664540E+04  0.15417664540E+04  0.50400001928E-02 0. -1.
       -1   -1    0    0    0  501  0.00000000000E+00  0.00000000000E+00 -0.93538063784E+03  0.93538063786E+03  0.50400001928E-02 0.  1.
    10030    2    1    2    0    0  0.00000000000E+00  0.00000000000E+00  0.60638581611E+03  0.24771470918E+04  0.24017814131E+04 0.  0.
        5    1    3    3  502    0  0.60125335367E+03 -0.25661567115E+03  0.13421552702E+04  0.14929032310E+04  0.46999998093E+01 0. -1.
       -5    1    3    3    0  502 -0.60125335367E+03  0.25661567115E+03 -0.73576945406E+03  0.98424386079E+03  0.46999998093E+01 0.  1.
</event>
<event>
 5   0  0.5268358E-06  0.2399773E+04  0.7818609E-02  0.8439588E-01
       -2   -1    0    0    0  501  0.00000000000E+00  0.00000000000E+00  0.78799890005E+03  0.78799890006E+03  0.25500000920E-02 0.  1.
        2   -1    0    0  501    0  0.00000000000E+00  0.00000000000E+00 -0.18270684893E+04  0.18270684893E+04  0.25500000920E-02 0. -1.
    10030    2    1    2    0    0  0.00000000000E+00  0.00000000000E+00 -0.10390695893E+04  0.26150673894E+04  0.23997732892E+04 0.  0.
        2    1    3    3  502    0 -0.97056250879E+03  0.60831602941E+03 -0.90892738782E+03  0.14622547560E+04  0.25500000920E-02 0. -1.
       -2    1    3    3    0  502  0.97056250879E+03 -0.60831602941E+03 -0.13014220146E+03  0.11528126334E+04  0.25500000920E-02 0.  1.
</event>
<event>
 5   0  0.2254269E-06  0.2401483E+04  0.7818609E-02  0.8438948E-01
        1   -1    0    0  501    0  0.00000000000E+00  0.00000000000E+00  0.12317813515E+04  0.12317813515E+04  0.50400001928E-02 0. -1.
       -1   -1    0    0    0  501  0.00000000000E+00  0.00000000000E+00 -0.11704842592E+04  0.11704842592E+04  0.50400001928E-02 0.  1.
    10030    2    1    2    0    0  0.00000000000E+00  0.00000000000E+00  0.61297092308E+02  0.24022656107E+04  0.24014834438E+04 0.  0.
        2    1    3    3  502    0 -0.74582296235E+03  0.19608433586E+03 -0.89002056109E+03  0.11776406740E+04  0.25500000920E-02 0.  1.
       -2    1    3    3    0  502  0.74582296235E+03 -0.19608433586E+03  0.95131765340E+03  0.12246249367E+04  0.25500000920E-02 0. -1.
</event>
<event>
 5   0  0.5268358E-06  0.2384561E+04  0.7818609E-02  0.8445306E-01
        2   -1    0    0  501    0  0.00000000000E+00  0.00000000000E+00  0.14863647982E+04  0.14863647982E+04  0.25500000920E-02 0.  1.
       -2   -1    0    0    0  501  0.00000000000E+00  0.00000000000E+00 -0.95638194674E+03  0.95638194675E+03  0.25500000920E-02 0. -1.
    10030    2    1    2    0    0  0.00000000000E+00  0.00000000000E+00  0.52998285150E+03  0.24427467450E+04  0.23845607221E+04 0.  0.
        2    1    3    3  502    0  0.88532949512E+03  0.71946913316E+03 -0.90002093905E+02  0.11443533219E+04  0.25500000920E-02 0.  1.
       -2    1    3    3    0  502 -0.88532949512E+03 -0.71946913316E+03  0.61998494541E+03  0.12983934231E+04  0.25500000920E-02 0. -1.
</event>
<event>
 5   0  0.2149417E-06  0.2407455E+04  0.7818609E-02  0.8436718E-01
        1   -1    0    0  501    0  0.00000000000E+00  0.00000000000E+00  0.23388427239E+04  0.23388427239E+04  0.50400001928E-02 0. -1.
       -1   -1    0    0    0  501  0.00000000000E+00  0.00000000000E+00 -0.61951980888E+03  0.61951980890E+03  0.50400001928E-02 0.  1.
    10030    2    1    2    0    0  0.00000000000E+00  0.00000000000E+00  0.17193229151E+04  0.29583625329E+04  0.24074545872E+04 0.  0.
        5    1    3    3  502    0 -0.84525547651E+03  0.83644438186E+03  0.10890334350E+04  0.16124862595E+04  0.46999998093E+01 0. -1.
       -5    1    3    3    0  502  0.84525547651E+03 -0.83644438186E+03  0.63028948005E+03  0.13458762733E+04  0.46999998093E+01 0.  1.
</event>
<event>
 5   0  0.5371843E-06  0.2400485E+04  0.7818609E-02  0.8439322E-01
        2   -1    0    0  501    0  0.00000000000E+00  0.00000000000E+00  0.17925837998E+04  0.17925837998E+04  0.25500000920E-02 0.  1.
       -2   -1    0    0    0  501  0.00000000000E+00  0.00000000000E+00 -0.80363438918E+03  0.80363438919E+03  0.25500000920E-02 0. -1.
    10030    2    1    2    0    0  0.00000000000E+00  0.00000000000E+00  0.98894941066E+03  0.25962181890E+04  0.24004849402E+04 0.  0.
        4    1    3    3  502    0  0.49234393079E+03  0.79651827743E+03 -0.31757060986E+03  0.98878542547E+03  0.12699999809E+01 0. -1.
       -4    1    3    3    0  502 -0.49234393079E+03 -0.79651827743E+03  0.13065200205E+04  0.16074327636E+04  0.12699999809E+01 0.  1.
</event>
<event>
 5   0  0.2297414E-06  0.2392589E+04  0.7818609E-02  0.8442283E-01
        1   -1    0    0  501    0  0.00000000000E+00  0.00000000000E+00  0.20752779749E+04  0.20752779749E+04  0.50400001928E-02 0. -1.
       -1   -1    0    0    0  501  0.00000000000E+00  0.00000000000E+00 -0.68960441686E+03  0.68960441688E+03  0.50400001928E-02 0.  1.
    10030    2    1    2    0    0  0.00000000000E+00  0.00000000000E+00  0.13856735580E+04  0.27648823917E+04  0.23925892733E+04 0.  0.
        1    1    3    3  502    0 -0.89076578855E+03 -0.71811605742E+03  0.28925757039E+03  0.11801797761E+04  0.50400001928E-02 0.  1.
       -1    1    3    3    0  502  0.89076578855E+03  0.71811605742E+03  0.10964159876E+04  0.15847026156E+04  0.50400001928E-02 0. -1.
</event>
<event>
 5   0  0.2149417E-06  0.2350023E+04  0.7818609E-02  0.8458455E-01
        1   -1    0    0  501    0  0.00000000000E+00  0.00000000000E+00  0.17854535559E+04  0.17854535560E+04  0.50400001928E-02 0. -1.
       -1   -1    0    0    0  501  0.00000000000E+00  0.00000000000E+00 -0.77327782168E+03  0.77327782170E+03  0.50400001928E-02 0.  1.
    10030    2    1    2    0    0  0.00000000000E+00  0.00000000000E+00  0.10121757343E+04  0.25587313777E+04  0.23500226692E+04 0.  0.
        5    1    3    3  502    0 -0.11682050691E+03 -0.11596124504E+04  0.34356118636E+03  0.12150738433E+04  0.46999998093E+01 0.  1.
       -5    1    3    3    0  502  0.11682050691E+03  0.11596124504E+04  0.66861454790E+03  0.13436575343E+04  0.46999998093E+01 0. -1.
</event>
<event>
 5   0  0.2297414E-06  0.2392536E+04  0.7818609E-02  0.8442303E-01
       -1   -1    0    0    0  501  0.00000000000E+00  0.00000000000E+00  0.71219274166E+03  0.71219274167E+03  0.50400001928E-02 0. -1.
        1   -1    0    0  501    0  0.00000000000E+00  0.00000000000E+00 -0.20093669518E+04  0.20093669518E+04  0.50400001928E-02 0.  1.
    10030    2    1    2    0    0  0.00000000000E+00  0.00000000000E+00 -0.12971742101E+04  0.27215596935E+04  0.23925355240E+04 0.  0.
        1    1    3    3  502    0  0.30050393385E+03 -0.88902103552E+03  0.19532443088E+03  0.95854715543E+03  0.50400001928E-02 0. -1.
       -1    1    3    3    0  502 -0.30050393385E+03  0.88902103552E+03 -0.14924986410E+04  0.17630125380E+04  0.50400001928E-02 0.  1.
</event>
<event>
 5   0  0.5268358E-06  0.2400555E+04  0.7818609E-02  0.8439296E-01
        2   -1    0    0  501    0  0.00000000000E+00  0.00000000000E+00  0.27224146547E+04  0.27224146547E+04  0.25500000920E-02 0.  1.
       -2   -1    0    0    0  501  0.00000000000E+00  0.00000000000E+00 -0.52918666163E+03  0.52918666164E+03  0.25500000920E-02 0. -1.
    10030    2    1    2    0    0  0.00000000000E+00  0.00000000000E+00  0.21932279931E+04  0.32516013163E+04  0.24005545382E+04 0.  0.
        2    1    3    3  502    0  0.10145849740E+04  0.24361232104E+03  0.29305550891E+03  0.10837947978E+04  0.25500000920E-02 0. -1.
       -2    1    3    3    0  502 -0.10145849740E+04 -0.24361232104E+03  0.19001724842E+04  0.21678065186E+04  0.25500000920E-02 0.  1.
</event>
<event>
 5   0  0.5440503E-06  0.2405329E+04  0.7818609E-02  0.8437511E-01
        2   -1    0    0  501    0  0.00000000000E+00  0.00000000000E+00  0.15002900288E+04  0.15002900288E+04  0.25500000920E-02 0.  1.
       -2   -1    0    0    0  501  0.00000000000E+00  0.00000000000E+00 -0.96408177985E+03  0.96408177986E+03  0.25500000920E-02 0. -1.
    10030    2    1    2    0    0  0.00000000000E+00  0.00000000000E+00  0.53620824891E+03  0.24643718086E+04  0.24053293174E+04 0.  0.
        3    1    3    3  502    0 -0.11329617731E+04 -0.35250345231E+03  0.66966022723E+02  0.11884214411E+04  0.10100000352E+00 0.  1.
       -3    1    3    3    0  502  0.11329617731E+04  0.35250345231E+03  0.46924222619E+03  0.12759503675E+04  0.10100000352E+00 0. -1.
</event>
<event>
 5   0  0.2149417E-06  0.2399879E+04  0.7818609E-02  0.8439549E-01
        1   -1    0    0  501    0  0.00000000000E+00  0.00000000000E+00  0.74869142706E+03  0.74869142708E+03  0.50400001928E-02 0.  1.
       -1   -1    0    0    0  501  0.00000000000E+00  0.00000000000E+00 -0.19231622370E+04  0.19231622370E+04  0.50400001928E-02 0. -1.
    10030    2    1    2    0    0  0.00000000000E+00  0.00000000000E+00 -0.11744708099E+04  0.26718536641E+04  0.23998792301E+04 0.  0.
        5    1    3    3  502    0 -0.11328182980E+04 -0.36810448685E+03 -0.42568850170E+03  0.12649154122E+04  0.46999998093E+01 0.  1.
       -5    1    3    3    0  502  0.11328182980E+04  0.36810448685E+03 -0.74878230823E+03  0.14069382519E+04  0.46999998093E+01 0. -1.
</event>
<event>
 5   0  0.1796750E-06  0.2405249E+04  0.7818609E-02  0.8437541E-01
       -4   -1    0    0    0  501  0.00000000000E+00  0.00000000000E+00  0.83410172388E+03  0.83410269073E+03  0.12699999809E+01 0. -1.
        4   -1    0    0  501    0  0.00000000000E+00  0.00000000000E+00 -0.17339664551E+04  0.17339669202E+04  0.12699999809E+01 0.  1.
    10030    2    1    2    0    0  0.00000000000E+00  0.00000000000E+00 -0.89986473118E+03  0.25680696109E+04  0.24052494656E+04 0.  0.
        3    1    3    3  502    0 -0.49452155368E+03 -0.71906257525E+03 -0.13334149583E+04  0.15936116263E+04  0.10100000352E+00 0.  1.
       -3    1    3    3    0  502  0.49452155368E+03  0.71906257525E+03  0.43355022711E+03  0.97445798462E+03  0.10100000352E+00 0. -1.
</event>
<event>
 5   0  0.5379778E-06  0.2399219E+04  0.7818609E-02  0.8439796E-01
        2   -1    0    0  501    0  0.00000000000E+00  0.00000000000E+00  0.22304794488E+04  0.22304794488E+04  0.25500000920E-02 0. -1.
       -2   -1    0    0    0  501  0.00000000000E+00  0.00000000000E+00 -0.64518099333E+03  0.64518099334E+03  0.25500000920E-02 0.  1.
    10030    2    1    2    0    0  0.00000000000E+00  0.00000000000E+00  0.15852984554E+04  0.28756604421E+04  0.23992189949E+04 0.  0.
        5    1    3    3  502    0  0.40363998879E+03  0.67055959433E+03  0.18822817636E+04  0.20385245001E+04  0.46999998093E+01 0. -1.
       -5    1    3    3    0  502 -0.40363998879E+03 -0.67055959433E+03 -0.29698330812E+03  0.83713594200E+03  0.46999998093E+01 0.  1.
</event>
<event>
 5   0  0.5379778E-06  0.2398021E+04  0.7818609E-02  0.8440245E-01
       -2   -1    0    0    0  501  0.00000000000E+00  0.00000000000E+00  0.10500161307E+04  0.10500161307E+04  0.25500000920E-02 0. -1.
        2   -1    0    0  501    0  0.00000000000E+00  0.00000000000E+00 -0.13691467537E+04  0.13691467537E+04  0.25500000920E-02 0.  1.
    10030    2    1    2    0    0  0.00000000000E+00  0.00000000000E+00 -0.31913062308E+03  0.24191628844E+04  0.23980209980E+04 0.  0.
        5    1    3    3  502    0  0.79622892172E+03  0.86099003537E+03  0.92274844613E+02  0.11763592452E+04  0.46999998093E+01 0. -1.
       -5    1    3    3    0  502 -0.79622892172E+03 -0.86099003537E+03 -0.41140546769E+03  0.12428036392E+04  0.46999998093E+01 0.  1.
</event>
<event>
 5   0  0.2297414E-06  0.2399034E+04  0.7818609E-02  0.8439865E-01
       -1   -1    0    0    0  501  0.00000000000E+00  0.00000000000E+00  0.32607310280E+04  0.32607310280E+04  0.50400001928E-02 0.  1.
        1   -1    0    0  501    0  0.00000000000E+00  0.00000000000E+00 -0.44126342234E+03  0.44126342236E+03  0.50400001928E-02 0. -1.
    10030    2    1    2    0    0  0.00000000000E+00  0.00000000000E+00  0.28194676056E+04  0.37019944503E+04  0.23990342497E+04 0.  0.
        1    1    3    3  502    0  0.10606950309E+04 -0.18220338348E+03  0.59236247706E+03  0.12284809017E+04  0.50400001928E-02 0. -1.
       -1    1    3    3    0  502 -0.10606950309E+04  0.18220338348E+03  0.22271051286E+04  0.24735135486E+04  0.50400001928E-02 0.  1.
</event>
<event>
 5   0  0.5371843E-06  0.2399359E+04  0.7818609E-02  0.8439744E-01
       -2   -1    0    0    0  501  0.00000000000E+00  0.00000000000E+00  0.59998864524E+03  0.59998864524E+03  0.25500000920E-02 0.  1.
        2   -1    0    0  501    0  0.00000000000E+00  0.00000000000E+00 -0.23987636031E+04  0.23987636031E+04  0.25500000920E-02 0. -1.
    10030    2    1    2    0    0  0.00000000000E+00  0.00000000000E+00 -0.17987749579E+04  0.29987522484E+04  0.23993590181E+04 0.  0.
        4    1    3    3  502    0  0.97971431863E+03 -0.69176249090E+03 -0.86286763365E+03  0.14774700187E+04  0.12699999809E+01 0.  1.
       -4    1    3    3    0  502 -0.97971431863E+03  0.69176249090E+03 -0.93590732423E+03  0.15212822297E+04  0.12699999809E+01 0. -1.
</event>
<event>
 5   0  0.2297414E-06  0.2412875E+04  0.7818609E-02  0.8434699E-01
       -1   -1    0    0    0  501  0.00000000000E+00  0.00000000000E+00  0.11130174688E+04  0.11130174688E+04  0.50400001928E-02 0.  1.
        1   -1    0    0  501    0  0.00000000000E+00  0.00000000000E+00 -0.13076985080E+04  0.13076985080E+04  0.50400001928E-02 0. -1.
    10030    2    1    2    0    0  0.00000000000E+00  0.00000000000E+00 -0.19468103925E+03  0.24207159768E+04  0.24128748690E+04 0.  0.
        1    1    3    3  502    0  0.80616003340E+03  0.88708530290E+03  0.39767231030E+02  0.11993313832E+04  0.50400001928E-02 0. -1.
       -1    1    3    3    0  502 -0.80616003340E+03 -0.88708530290E+03 -0.23444827028E+03  0.12213845936E+04  0.50400001928E-02 0.  1.
</event>
<event>
 5   0  0.2215700E-06  0.2407074E+04  0.7818609E-02  0.8436860E-01
        1   -1    0    0  501    0  0.00000000000E+00  0.00000000000E+00  0.10331006675E+04  0.10331006675E+04  0.50400001928E-02 0.  1.
       -1   -1    0    0    0  501  0.00000000000E+00  0.00000000000E+00 -0.14020910500E+04  0.14020910500E+04  0.50400001928E-02 0. -1.
    10030    2    1    2    0    0  0.00000000000E+00  0.00000000000E+00 -0.36899038255E+03  0.24351917175E+04  0.24070739080E+04 0.  0.
        3    1    3    3  502    0  0.20054285444E+03  0.71621348772E+03 -0.11417627896E+04  0.13626450287E+04  0.10100000352E+00 0. -1.
       -3    1    3    3    0  502 -0.20054285444E+03 -0.71621348772E+03  0.77277240702E+03  0.10725466888E+04  0.10100000352E+00 0.  1.
</event>
<event>
 5   0  0.2149029E-06  0.2400550E+04  0.7818609E-02  0.8439298E-01
       -1   -1    0    0    0  501  0.00000000000E+00  0.00000000000E+00  0.61205770137E+03  0.61205770139E+03  0.50400001928E-02 0. -1.
        1   -1    0    0  501    0  0.00000000000E+00  0.00000000000E+00 -0.23537976860E+04  0.23537976860E+04  0.50400001928E-02 0.  1.
    10030    2    1    2    0    0  0.00000000000E+00  0.00000000000E+00 -0.17417399846E+04  0.29658553874E+04  0.24005499380E+04 0.  0.
        4    1    3    3  502    0 -0.91554083356E+03  0.73767601147E+03 -0.57261372353E+03  0.13077725357E+04  0.12699999809E+01 0. -1.
       -4    1    3    3    0  502  0.91554083356E+03 -0.73767601147E+03 -0.11691262611E+04  0.16580828517E+04  0.12699999809E+01 0.  1.
</event>
<event>
 5   0  0.5371843E-06  0.2399984E+04  0.7818609E-02  0.8439510E-01
        2   -1    0    0  501    0  0.00000000000E+00  0.00000000000E+00  0.17282993294E+04  0.17282993294E+04  0.25500000920E-02 0. -1.
       -2   -1    0    0    0  501  0.00000000000E+00  0.00000000000E+00 -0.83317764376E+03  0.83317764376E+03  0.25500000920E-02 0.  1.
    10030    2    1    2    0    0  0.00000000000E+00  0.00000000000E+00  0.89512168561E+03  0.25614769731E+04  0.23999836357E+04 0.  0.
        4    1    3    3  502    0  0.90879124766E+03  0.20795045153E+03 -0.35881410435E+03  0.99894649331E+03  0.12699999809E+01 0.  1.
       -4    1    3    3    0  502 -0.90879124766E+03 -0.20795045153E+03  0.12539357900E+04  0.15625304798E+04  0.12699999809E+01 0. -1.
</event>
<event>
 5   0  0.2149029E-06  0.2400910E+04  0.7818609E-02  0.8439163E-01
       -1   -1    0    0    0  501  0.00000000000E+00  0.00000000000E+00  0.12622663644E+04  0.12622663645E+04  0.50400001928E-02 0.  1.
        1   -1    0    0  501    0  0.00000000000E+00  0.00000000000E+00 -0.11416704659E+04  0.11416704659E+04  0.50400001928E-02 0. -1.
    10030    2    1    2    0    0  0.00000000000E+00  0.00000000000E+00  0.12059589857E+03  0.24039368303E+04  0.24009100178E+04 0.  0.
        4    1    3    3  502    0 -0.14176989209E+03  0.57278721648E+03  0.11070376956E+04  0.12544791628E+04  0.12699999809E+01 0.  1.
       -4    1    3    3    0  502  0.14176989209E+03 -0.57278721648E+03 -0.98644179698E+03  0.11494576675E+04  0.12699999809E+01 0. -1.
</event>
<event>
 5   0  0.2215700E-06  0.2403914E+04  0.7818609E-02  0.8438040E-01
       -1   -1    0    0    0  501  0.00000000000E+00  0.00000000000E+00  0.43270481199E+03  0.43270481202E+03  0.50400001928E-02 0.  1.
        1   -1    0    0  501    0  0.00000000000E+00  0.00000000000E+00 -0.33387672093E+04  0.33387672093E+04  0.50400001928E-02 0. -1.
    10030    2    1    2    0    0  0.00000000000E+00  0.00000000000E+00 -0.29060623973E+04  0.37714720213E+04  0.24039140065E+04 0.  0.
        3    1    3    3  502    0 -0.98463708454E+03 -0.66596384260E+03 -0.17322871043E+04  0.21009132894E+04  0.10100000352E+00 0.  1.
       -3    1    3    3    0  502  0.98463708454E+03  0.66596384260E+03 -0.11737752930E+04  0.16705587319E+04  0.10100000352E+00 0. -1.
</event>
<event>
 5   0  0.5349036E-06  0.2399482E+04  0.7818609E-02  0.8439697E-01
        2   -1    0    0  501    0  0.00000000000E+00  0.00000000000E+00  0.94174874025E+03  0.94174874026E+03  0.25500000920E-02 0. -1.
       -2   -1    0    0    0  501  0.00000000000E+00  0.00000000000E+00 -0.15284109106E+04  0.15284109106E+04  0.25500000920E-02 0.  1.
    10030    2    1    2    0    0  0.00000000000E+00  0.00000000000E+00 -0.58666217034E+03  0.24701596509E+04  0.23994824856E+04 0.  0.
        1    1    3    3  502    0  0.59829822846E+03  0.75291615528E+03 -0.10317709414E+04  0.14104590681E+04  0.50400001928E-02 0.  1.
       -1    1    3    3    0  502 -0.59829822846E+03 -0.75291615528E+03  0.44510877109E+03  0.10597005828E+04  0.50400001928E-02 0. -1.
</event>
<event>
 5   0  0.5379778E-06  0.2406081E+04  0.7818609E-02  0.8437231E-01
       -2   -1    0    0    0  501  0.00000000000E+00  0.00000000000E+00  0.11302975263E+04  0.11302975263E+04  0.25500000920E-02 0.  1.
        2   -1    0    0  501    0  0.00000000000E+00  0.00000000000E+00 -0.12804646020E+04  0.12804646020E+04  0.25500000920E-02 0. -1.
    10030    2    1    2    0    0  0.00000000000E+00  0.00000000000E+00 -0.15016707572E+03  0.24107621284E+04  0.24060806073E+04 0.  0.
        5    1    3    3  502    0  0.72236913386E+03  0.94938978161E+03  0.80543367843E+02  0.11956870189E+04  0.46999998093E+01 0.  1.
       -5    1    3    3    0  502 -0.72236913386E+03 -0.94938978161E+03 -0.23071044357E+03  0.12150751095E+04  0.46999998093E+01 0. -1.
</event>
<event>
 5   0  0.2149029E-06  0.2399514E+04  0.7818609E-02  0.8439685E-01
        1   -1    0    0  501    0  0.00000000000E+00  0.00000000000E+00  0.15117042417E+04  0.15117042417E+04  0.50400001928E-02 0.  1.
       -1   -1    0    0    0  501  0.00000000000E+00  0.00000000000E+00 -0.95218178349E+03  0.95218178350E+03  0.50400001928E-02 0. -1.
    10030    2    1    2    0    0  0.00000000000E+00  0.00000000000E+00  0.55952245822E+03  0.24638860252E+04  0.23995143184E+04 0.  0.
        4    1    3    3  502    0 -0.67958451545E+02  0.10126160538E+04 -0.37725239057E+03  0.10827421682E+04  0.12699999809E+01 0. -1.
       -4    1    3    3    0  502  0.67958451545E+02 -0.10126160538E+04  0.93677484879E+03  0.13811438570E+04  0.12699999809E+01 0.  1.
</event>
<event>
 5   0  0.5371843E-06  0.2398705E+04  0.7818609E-02  0.8439989E-01
       -2   -1    0    0    0  501  0.00000000000E+00  0.00000000000E+00  0.14931951269E+04  0.14931951269E+04  0.25500000920E-02 0. -1.
        2   -1    0    0  501    0  0.00000000000E+00  0.00000000000E+00 -0.96333439121E+03  0.96333439121E+03  0.25500000920E-02 0.  1.
    10030    2    1    2    0    0  0.00000000000E+00  0.00000000000E+00  0.52986073572E+03  0.24565295181E+04  0.23987048327E+04 0.  0.
        4    1    3    3  502    0 -0.97798244717E+03 -0.46977512253E+03 -0.25857374105E+03  0.11153476253E+04  0.12699999809E+01 0.  1.
       -4    1    3    3    0  502  0.97798244717E+03  0.46977512253E+03  0.78843447677E+03  0.13411818929E+04  0.12699999809E+01 0. -1.
</event>
<event>
 5   0  0.5268358E-06  0.2398636E+04  0.7818609E-02  0.8440014E-01
        2   -1    0    0  501    0  0.00000000000E+00  0.00000000000E+00  0.25971186531E+04  0.25971186531E+04  0.25500000920E-02 0. -1.
       -2   -1    0    0    0  501  0.00000000000E+00  0.00000000000E+00 -0.55383074720E+03  0.55383074721E+03  0.25500000920E-02 0.  1.
    10030    2    1    2    0    0  0.00000000000E+00  0.00000000000E+00  0.20432879059E+04  0.31509494003E+04  0.23986364161E+04 0.  0.
        2    1    3    3  502    0  0.59076697378E+02  0.11615081988E+03  0.25877911559E+04  0.25910700754E+04  0.25500000920E-02 0. -1.
       -2    1    3    3    0  502 -0.59076697378E+02 -0.11615081988E+03 -0.54450325002E+03  0.55987932487E+03  0.25500000920E-02 0.  1.
</event>
<event>
 5   0  0.2297414E-06  0.2397425E+04  0.7818609E-02  0.8440468E-01
       -1   -1    0    0    0  501  0.00000000000E+00  0.00000000000E+00  0.10366097767E+04  0.10366097767E+04  0.50400001928E-02 0.  1.
        1   -1    0    0  501    0  0.00000000000E+00  0.00000000000E+00 -0.13861643945E+04  0.13861643945E+04  0.50400001928E-02 0. -1.
    10030    2    1    2    0    0  0.00000000000E+00  0.00000000000E+00 -0.34955461787E+03  0.24227741712E+04  0.23974249214E+04 0.  0.
        1    1    3    3  502    0 -0.60092588769E+03  0.10220916539E+04  0.35203185996E+01  0.11856625423E+04  0.50400001928E-02 0.  1.
       -1    1    3    3    0  502  0.60092588769E+03 -0.10220916539E+04 -0.35307493647E+03  0.12371116289E+04  0.50400001928E-02 0. -1.
</event>
<event>
 5   0  0.5268358E-06  0.2400838E+04  0.7818609E-02  0.8439190E-01
        2   -1    0    0  501    0  0.00000000000E+00  0.00000000000E+00  0.11192924229E+04  0.11192924229E+04  0.25500000920E-02 0.  1.
       -2   -1    0    0    0  501  0.00000000000E+00  0.00000000000E+00 -0.12874256807E+04  0.12874256807E+04  0.25500000920E-02 0. -1.
    10030    2    1    2    0    0  0.00000000000E+00  0.00000000000E+00 -0.16813325781E+03  0.24067181036E+04  0.24008380282E+04 0.  0.
        2    1    3    3  502    0  0.53621591904E+02 -0.51138742647E+03  0.10033081728E+04  0.11273950793E+04  0.25500000920E-02 0.  1.
       -2    1    3    3    0  502 -0.53621591904E+02  0.51138742647E+03 -0.11714414307E+04  0.12793230243E+04  0.25500000920E-02 0. -1.
</event>
<event>
 5   0  0.2149029E-06  0.2402397E+04  0.7818609E-02  0.8438607E-01
       -1   -1    0    0    0  501  0.00000000000E+00  0.00000000000E+00  0.10349090097E+04  0.10349090097E+04  0.50400001928E-02 0. -1.
        1   -1    0    0  501    0  0.00000000000E+00  0.00000000000E+00 -0.13942075231E+04  0.13942075231E+04  0.50400001928E-02 0.  1.
    10030    2    1    2    0    0  0.00000000000E+00  0.00000000000E+00 -0.35929851339E+03  0.24291165328E+04  0.24023970755E+04 0.  0.
        4    1    3    3  502    0  0.28382525315E+03  0.10863589506E+04 -0.61117898560E+03  0.12783872297E+04  0.12699999809E+01 0.  1.
       -4    1    3    3    0  502 -0.28382525315E+03 -0.10863589506E+04  0.25188047221E+03  0.11507293031E+04  0.12699999809E+01 0. -1.
</event>
<event>
 5   0  0.2297414E-06  0.2399297E+04  0.7818609E-02  0.8439767E-01
       -1   -1    0    0    0  501  0.00000000000E+00  0.00000000000E+00  0.70149611190E+03  0.70149611192E+03  0.50400001928E-02 0. -1.
        1   -1    0    0  501    0  0.00000000000E+00  0.00000000000E+00 -0.20515524781E+04  0.20515524781E+04  0.50400001928E-02 0.  1.
    10030    2    1    2    0    0  0.00000000000E+00  0.00000000000E+00 -0.13500563662E+04  0.27530485901E+04  0.23992966359E+04 0.  0.
        1    1    3    3  502    0 -0.15579201836E+01 -0.11613350206E+04 -0.32992788768E+03  0.12072919566E+04  0.50400001928E-02 0. -1.
       -1    1    3    3    0  502  0.15579201836E+01  0.11613350206E+04 -0.10201284786E+04  0.15457566335E+04  0.50400001928E-02 0.  1.
</event>
<event>
 5   0  0.5349036E-06  0.2403500E+04  0.7818609E-02  0.8438194E-01
       -2   -1    0    0    0  501  0.00000000000E+00  0.00000000000E+00  0.97004510514E+03  0.97004510514E+03  0.25500000920E-02 0. -1.
        2   -1    0    0  501    0  0.00000000000E+00  0.00000000000E+00 -0.14887999272E+04  0.14887999272E+04  0.25500000920E-02 0.  1.
    10030    2    1    2    0    0  0.00000000000E+00  0.00000000000E+00 -0.51875482210E+03  0.24588450324E+04  0.24035000162E+04 0.  0.
        1    1    3    3  502    0  0.36858267080E+03  0.27007723097E+02 -0.14292212331E+04  0.14762303125E+04  0.50400001928E-02 0.  1.
       -1    1    3    3    0  502 -0.36858267080E+03 -0.27007723097E+02  0.91046641096E+03  0.98261471994E+03  0.50400001928E-02 0. -1.
</event>
<event>
 5   0  0.5268358E-06  0.2399960E+04  0.7818609E-02  0.8439519E-01
        2   -1    0    0  501    0  0.00000000000E+00  0.00000000000E+00  0.18067091491E+04  0.18067091491E+04  0.25500000920E-02 0. -1.
       -2   -1    0    0    0  501  0.00000000000E+00  0.00000000000E+00 -0.79700253619E+03  0.79700253620E+03  0.25500000920E-02 0.  1.
    10030    2    1    2    0    0  0.00000000000E+00  0.00000000000E+00  0.10097066129E+04  0.26037116853E+04  0.23999598113E+04 0.  0.
        2    1    3    3  502    0  0.11241624361E+04  0.38049788150E+03  0.31251109294E+03  0.12272664762E+04  0.25500000920E-02 0.  1.
       -2    1    3    3    0  502 -0.11241624361E+04 -0.38049788150E+03  0.69719551995E+03  0.13764452090E+04  0.25500000920E-02 0. -1.
</event>
<event>
 5   0  0.2297414E-06  0.2417711E+04  0.7818609E-02  0.8432902E-01
       -1   -1    0    0    0  501  0.00000000000E+00  0.00000000000E+00  0.70217330804E+03  0.70217330805E+03  0.50400001928E-02 0. -1.
        1   -1    0    0  501    0  0.00000000000E+00  0.00000000000E+00 -0.20811556206E+04  0.20811556206E+04  0.50400001928E-02 0.  1.
    10030    2    1    2    0    0  0.00000000000E+00  0.00000000000E+00 -0.13789823125E+04  0.27833289286E+04  0.24177112538E+04 0.  0.
        1    1    3    3  502    0 -0.74395987822E+03 -0.63003833152E+03 -0.15123610384E+04  0.17993500243E+04  0.50400001928E-02 0.  1.
       -1    1    3    3    0  502  0.74395987822E+03  0.63003833152E+03  0.13337872585E+03  0.98397890431E+03  0.50400001928E-02 0. -1.
</event>
<event>
 5   0  0.2254269E-06  0.2418023E+04  0.7818609E-02  0.8432787E-01
       -1   -1    0    0    0  501  0.00000000000E+00  0.00000000000E+00  0.12365765788E+04  0.12365765788E+04  0.50400001928E-02 0. -1.
        1   -1    0    0  501    0  0.00000000000E+00  0.00000000000E+00 -0.11820611875E+04  0.11820611875E+04  0.50400001928E-02 0.  1.
    10030    2    1    2    0    0  0.00000000000E+00  0.00000000000E+00  0.54515391344E+02  0.24186377663E+04  0.24180233078E+04 0.  0.
        2    1    3    3  502    0  0.23751946922E+03 -0.11467876023E+04 -0.27310493567E+03  0.12025487969E+04  0.25500000920E-02 0.  1.
       -2    1    3    3    0  502 -0.23751946922E+03  0.11467876023E+04  0.32762032702E+03  0.12160889695E+04  0.25500000920E-02 0. -1.
</event>
<event>
 5   0  0.5349036E-06  0.2395192E+04  0.7818609E-02  0.8441306E-01
        2   -1    0    0  501    0  0.00000000000E+00  0.00000000000E+00  0.12509190441E+04  0.12509190441E+04  0.25500000920E-02 0.  1.
       -2   -1    0    0    0  501  0.00000000000E+00  0.00000000000E+00 -0.11465457017E+04  0.11465457017E+04  0.25500000920E-02 0. -1.
    10030    2    1    2    0    0  0.00000000000E+00  0.00000000000E+00  0.10437334231E+03  0.23974647458E+04  0.23951917278E+04 0.  0.
        1    1    3    3  502    0 -0.28945102694E+03  0.10573631905E+04 -0.43038810088E+03  0.11777235376E+04  0.50400001928E-02 0.  1.
       -1    1    3    3    0  502  0.28945102694E+03 -0.10573631905E+04  0.53476144318E+03  0.12197412082E+04  0.50400001928E-02 0. -1.
</event>
<event>
 5   0  0.2254269E-06  0.2395984E+04  0.7818609E-02  0.8441009E-01
       -1   -1    0    0    0  501  0.00000000000E+00  0.00000000000E+00  0.11451710311E+04  0.11451710311E+04  0.50400001928E-02 0.  1.
        1   -1    0    0  501    0  0.00000000000E+00  0.00000000000E+00 -0.12532492611E+04  0.12532492611E+04  0.50400001928E-02 0. -1.
    10030    2    1    2    0    0  0.00000000000E+00  0.00000000000E+00 -0.10807822997E+03  0.23984202923E+04  0.23959839304E+04 0.  0.
        2    1    3    3  502    0  0.24691053350E+03 -0.53917018250E+03  0.98793983020E+03  0.11522562238E+04  0.25500000920E-02 0.  1.
       -2    1    3    3    0  502 -0.24691053350E+03  0.53917018250E+03 -0.10960180602E+04  0.12461640684E+04  0.25500000920E-02 0. -1.
</event>
<event>
 5   0  0.2215700E-06  0.2399237E+04  0.7818609E-02  0.8439789E-01
        1   -1    0    0  501    0  0.00000000000E+00  0.00000000000E+00  0.17775085153E+04  0.17775085153E+04  0.50400001928E-02 0. -1.
       -1   -1    0    0    0  501  0.00000000000E+00  0.00000000000E+00 -0.80960742576E+03  0.80960742578E+03  0.50400001928E-02 0.  1.
    10030    2    1    2    0    0  0.00000000000E+00  0.00000000000E+00  0.96790108952E+03  0.25871159411E+04  0.23992366231E+04 0.  0.
        3    1    3    3  502    0  0.43971513344E+03 -0.11120198989E+04  0.38082444502E+03  0.12549760644E+04  0.10100000352E+00 0.  1.
       -3    1    3    3    0  502 -0.43971513344E+03  0.11120198989E+04  0.58707664450E+03  0.13321398766E+04  0.10100000352E+00 0. -1.
</event>
<event>
 5   0  0.5349036E-06  0.2398771E+04  0.7818609E-02  0.8439964E-01
        2   -1    0    0  501    0  0.00000000000E+00  0.00000000000E+00  0.80375142768E+03  0.80375142768E+03  0.25500000920E-02 0.  1.
       -2   -1    0    0    0  501  0.00000000000E+00  0.00000000000E+00 -0.17897635888E+04  0.17897635888E+04  0.25500000920E-02 0. -1.
    10030    2    1    2    0    0  0.00000000000E+00  0.00000000000E+00 -0.98601216107E+03  0.25935150164E+04  0.23987705515E+04 0.  0.
        1    1    3    3  502    0 -0.93022106275E+03 -0.60411782718E+03 -0.98640507687E+03  0.14843397692E+04  0.50400001928E-02 0. -1.
       -1    1    3    3    0  502  0.93022106275E+03  0.60411782718E+03  0.39291579333E+00  0.11091752473E+04  0.50400001928E-02 0.  1.
</event>
<event>
 5   0  0.5371843E-06  0.2407699E+04  0.7818609E-02  0.8436627E-01
        2   -1    0    0  501    0  0.00000000000E+00  0.00000000000E+00  0.10093594143E+04  0.10093594143E+04  0.25500000920E-02 0.  1.
       -2   -1    0    0    0  501  0.00000000000E+00  0.00000000000E+00 -0.14358152875E+04  0.14358152875E+04  0.25500000920E-02 0. -1.
    10030    2    1    2    0    0  0.00000000000E+00  0.00000000000E+00 -0.42645587321E+03  0.24451747018E+04  0.24076990490E+04 0.  0.
        4    1    3    3  502    0 -0.27175170538E+03  0.73251812554E+03  0.71689884885E+03  0.10603666187E+04  0.12699999809E+01 0.  1.
       -4    1    3    3    0  502  0.27175170538E+03 -0.73251812554E+03 -0.11433547221E+04  0.13848080831E+04  0.12699999809E+01 0. -1.
</event>
<event>
 5   0  0.5371843E-06  0.2400461E+04  0.7818609E-02  0.8439331E-01
       -2   -1    0    0    0  501  0.00000000000E+00  0.00000000000E+00  0.76711479776E+03  0.76711479776E+03  0.25500000920E-02 0. -1.
        2   -1    0    0  501    0  0.00000000000E+00  0.00000000000E+00 -0.18778845676E+04  0.18778845676E+04  0.25500000920E-02 0.  1.
    10030    2    1    2    0    0  0.00000000000E+00  0.00000000000E+00 -0.11107697699E+04  0.26449993654E+04  0.24004608227E+04 0.  0.
        4    1    3    3  502    0 -0.64812329573E+03  0.58553817867E+03  0.35165861483E+03  0.94158598091E+03  0.12699999809E+01 0. -1.
       -4    1    3    3    0  502  0.64812329573E+03 -0.58553817867E+03 -0.14624283847E+04  0.17034133845E+04  0.12699999809E+01 0.  1.
</event>
<event>
 5   0  0.5440503E-06  0.2399695E+04  0.7818609E-02  0.8439618E-01
        2   -1    0    0  501    0  0.00000000000E+00  0.00000000000E+00  0.22306532233E+04  0.22306532233E+04  0.25500000920E-02 0.  1.
       -2   -1    0    0    0  501  0.00000000000E+00  0.00000000000E+00 -0.64538687788E+03  0.64538687788E+03  0.25500000920E-02 0. -1.
    10030    2    1    2    0    0  0.00000000000E+00  0.00000000000E+00  0.15852663454E+04  0.28760401012E+04  0.23996952468E+04 0.  0.
        3    1    3    3  502    0 -0.60881663797E+03 -0.13282839402E+03 -0.43624559702E+03  0.76066504589E+03  0.10100000352E+00 0. -1.
       -3    1    3    3    0  502  0.60881663797E+03  0.13282839402E+03  0.20215119424E+04  0.21153750553E+04  0.10100000352E+00 0.  1.
</event>
<event>
 5   0  0.2297414E-06  0.2395296E+04  0.7818609E-02  0.8441267E-01
        1   -1    0    0  501    0  0.00000000000E+00  0.00000000000E+00  0.10060102084E+04  0.10060102084E+04  0.50400001928E-02 0.  1.
       -1   -1    0    0    0  501  0.00000000000E+00  0.00000000000E+00 -0.14257914326E+04  0.14257914326E+04  0.50400001928E-02 0. -1.
    10030    2    1    2    0    0  0.00000000000E+00  0.00000000000E+00 -0.41978122423E+03  0.24318016410E+04  0.23952960037E+04 0.  0.
        1    1    3    3  502    0  0.87830925231E+02 -0.30434745267E+03 -0.13824908555E+04  0.14183168225E+04  0.50400001928E-02 0. -1.
       -1    1    3    3    0  502 -0.87830925231E+02  0.30434745267E+03  0.96270963124E+03  0.10134848186E+04  0.50400001928E-02 0.  1.
</event>
<event>
 5   0  0.5268358E-06  0.2397002E+04  0.7818609E-02  0.8440627E-01
        2   -1    0    0  501    0  0.00000000000E+00  0.00000000000E+00  0.86758152544E+03  0.86758152544E+03  0.25500000920E-02 0.  1.
       -2   -1    0    0    0  501  0.00000000000E+00  0.00000000000E+00 -0.16556424549E+04  0.16556424549E+04  0.25500000920E-02 0. -1.
    10030    2    1    2    0    0  0.00000000000E+00  0.00000000000E+00 -0.78806092948E+03  0.25232239804E+04  0.23970021332E+04 0.  0.
        2    1    3    3  502    0  0.41585787053E+03 -0.36780521354E+03  0.72406221956E+03  0.91240590824E+03  0.25500000920E-02 0.  1.
       -2    1    3    3    0  502 -0.41585787053E+03  0.36780521354E+03 -0.15121231490E+04  0.16108180721E+04  0.25500000920E-02 0. -1.
</event>
<event>
 5   0  0.5349036E-06  0.2393017E+04  0.7818609E-02  0.8442123E-01
        2   -1    0    0  501    0  0.00000000000E+00  0.00000000000E+00  0.17831755687E+04  0.17831755687E+04  0.25500000920E-02 0.  1.
       -2   -1    0    0    0  501  0.00000000000E+00  0.00000000000E+00 -0.80285544809E+03  0.80285544809E+03  0.25500000920E-02 0. -1.
    10030    2    1    2    0    0  0.00000000000E+00  0.00000000000E+00  0.98032012062E+03  0.25860310168E+04  0.23930166905E+04 0.  0.
        1    1    3    3  502    0 -0.91507073047E+03  0.74562793965E+03  0.70169512005E+03  0.13732048309E+04  0.50400001928E-02 0. -1.
       -1    1    3    3    0  502  0.91507073047E+03 -0.74562793965E+03  0.27862500057E+03  0.12128261859E+04  0.50400001928E-02 0.  1.
</event>
<event>
 5   0  0.2254269E-06  0.2404598E+04  0.7818609E-02  0.8437784E-01
       -1   -1    0    0    0  501  0.00000000000E+00  0.00000000000E+00  0.94571462532E+03  0.94571462533E+03  0.50400001928E-02 0. -1.
        1   -1    0    0  501    0  0.00000000000E+00  0.00000000000E+00 -0.15284983308E+04  0.15284983308E+04  0.50400001928E-02 0.  1.
    10030    2    1    2    0    0  0.00000000000E+00  0.00000000000E+00 -0.58278370547E+03  0.24742129561E+04  0.24045982835E+04 0.  0.
        2    1    3    3  502    0 -0.10993462364E+04  0.40326629391E+03 -0.10849681138E+02  0.11710267148E+04  0.25500000920E-02 0. -1.
       -2    1    3    3    0  502  0.10993462364E+04 -0.40326629391E+03 -0.57193402434E+03  0.13031862413E+04  0.25500000920E-02 0.  1.
</event>
<event>
 5   0  0.2254269E-06  0.2395715E+04  0.7818609E-02  0.8441109E-01
       -1   -1    0    0    0  501  0.00000000000E+00  0.00000000000E+00  0.91203543998E+03  0.91203544000E+03  0.50400001928E-02 0. -1.
        1   -1    0    0  501    0  0.00000000000E+00  0.00000000000E+00 -0.15732537159E+04  0.15732537159E+04  0.50400001928E-02 0.  1.
    10030    2    1    2    0    0  0.00000000000E+00  0.00000000000E+00 -0.66121827590E+03  0.24852891559E+04  0.23957154631E+04 0.  0.
        2    1    3    3  502    0 -0.32147454226E+03 -0.92660130013E+03  0.38280034608E+03  0.10528399478E+04  0.25500000920E-02 0. -1.
       -2    1    3    3    0  502  0.32147454226E+03  0.92660130013E+03 -0.10440186220E+04  0.14324492081E+04  0.25500000920E-02 0.  1.
</event>
<event>
 5   0  0.5349036E-06  0.2399751E+04  0.7818609E-02  0.8439597E-01
       -2   -1    0    0    0  501  0.00000000000E+00  0.00000000000E+00  0.12785383917E+04  0.12785383917E+04  0.25500000920E-02 0. -1.
        2   -1    0    0  501    0  0.00000000000E+00  0.00000000000E+00 -0.11260527333E+04  0.11260527333E+04  0.25500000920E-02 0.  1.
    10030    2    1    2    0    0  0.00000000000E+00  0.00000000000E+00  0.15248565836E+03  0.24045911250E+04  0.23997513626E+04 0.  0.
        1    1    3    3  502    0  0.10781286125E+04 -0.11873759746E+03 -0.43786280070E+03  0.11696938721E+04  0.50400001928E-02 0.  1.
       -1    1    3    3    0  502 -0.10781286125E+04  0.11873759746E+03  0.59034845906E+03  0.12348972529E+04  0.50400001928E-02 0. -1.
</event>
<event>
 5   0  0.5371843E-06  0.2401582E+04  0.7818609E-02  0.8438912E-01
       -2   -1    0    0    0  501  0.00000000000E+00  0.00000000000E+00  0.14186758800E+04  0.14186758800E+04  0.25500000920E-02 0.  1.
        2   -1    0    0  501    0  0.00000000000E+00  0.00000000000E+00 -0.10163693942E+04  0.10163693942E+04  0.25500000920E-02 0. -1.
    10030    2    1    2    0    0  0.00000000000E+00  0.00000000000E+00  0.40230648574E+03  0.24350452742E+04  0.24015817661E+04 0.  0.
        4    1    3    3  502    0 -0.60115239859E+03 -0.71380941408E+03 -0.56501394911E+03  0.10909401732E+04  0.12699999809E+01 0. -1.
       -4    1    3    3    0  502  0.60115239859E+03  0.71380941408E+03  0.96732043485E+03  0.13441051010E+04  0.12699999809E+01 0.  1.
</event>
<event>
 5   0  0.5371843E-06  0.2402718E+04  0.7818609E-02  0.8438487E-01
        2   -1    0    0  501    0  0.00000000000E+00  0.00000000000E+00  0.15877102808E+04  0.15877102808E+04  0.25500000920E-02 0.  1.
       -2   -1    0    0    0  501  0.00000000000E+00  0.00000000000E+00 -0.90902191087E+03  0.90902191087E+03  0.25500000920E-02 0. -1.
    10030    2    1    2    0    0  0.00000000000E+00  0.00000000000E+00  0.67868836989E+03  0.24967321916E+04  0.24027179887E+04 0.  0.
        4    1    3    3  502    0 -0.25620227250E+03 -0.11499028835E+04  0.58380576319E+03  0.13148182490E+04  0.12699999809E+01 0. -1.
       -4    1    3    3    0  502  0.25620227250E+03  0.11499028835E+04  0.94882606707E+02  0.11819139426E+04  0.12699999809E+01 0.  1.
</event>
<event>
 5   0  0.2215700E-06  0.2398232E+04  0.7818609E-02  0.8440166E-01
       -1   -1    0    0    0  501  0.00000000000E+00  0.00000000000E+00  0.11108413787E+04  0.11108413787E+04  0.50400001928E-02 0.  1.
        1   -1    0    0  501    0  0.00000000000E+00  0.00000000000E+00 -0.12944049697E+04  0.12944049697E+04  0.50400001928E-02 0. -1.
    10030    2    1    2    0    0  0.00000000000E+00  0.00000000000E+00 -0.18356359100E+03  0.24052463484E+04  0.23982315160E+04 0.  0.
        3    1    3    3  502    0  0.49686030786E+03  0.91624747563E+02  0.99887935358E+03  0.11193860965E+04  0.10100000352E+00 0.  1.
       -3    1    3    3    0  502 -0.49686030786E+03 -0.91624747563E+02 -0.11824429446E+04  0.12858602518E+04  0.10100000352E+00 0. -1.
</event>
<event>
 5   0  0.2149417E-06  0.2414718E+04  0.7818609E-02  0.8434014E-01
        1   -1    0    0  501    0  0.00000000000E+00  0.00000000000E+00  0.10011322377E+04  0.10011322378E+04  0.50400001928E-02 0.  1.
       -1   -1    0    0    0  501  0.00000000000E+00  0.00000000000E+00 -0.14560668838E+04  0.14560668838E+04  0.50400001928E-02 0. -1.
    10030    2    1    2    0    0  0.00000000000E+00  0.00000000000E+00 -0.45493464606E+03  0.24571991216E+04  0.24147177870E+04 0.  0.
        5    1    3    3  502    0 -0.59894913555E+03  0.22025909258E+03  0.81547296777E+03  0.10355058599E+04  0.46999998093E+01 0.  1.
       -5    1    3    3    0  502  0.59894913555E+03 -0.22025909258E+03 -0.12704076138E+04  0.14216932616E+04  0.46999998093E+01 0. -1.
</event>
<event>
 5   0  0.5268358E-06  0.2401644E+04  0.7818609E-02  0.8438888E-01
       -2   -1    0    0    0  501  0.00000000000E+00  0.00000000000E+00  0.12575301214E+04  0.12575301214E+04  0.25500000920E-02 0. -1.
        2   -1    0    0  501    0  0.00000000000E+00  0.00000000000E+00 -0.11466714471E+04  0.11466714471E+04  0.25500000920E-02 0.  1.
    10030    2    1    2    0    0  0.00000000000E+00  0.00000000000E+00  0.11085867427E+03  0.24042015685E+04  0.24016443401E+04 0.  0.
        2    1    3    3  502    0 -0.67070225826E+03  0.32843783137E+03 -0.88592343904E+03  0.11586946397E+04  0.25500000920E-02 0.  1.
       -2    1    3    3    0  502  0.67070225826E+03 -0.32843783137E+03  0.99678211331E+03  0.12455069288E+04  0.25500000920E-02 0. -1.
</event>
<event>
 5   0  0.2254269E-06  0.2399434E+04  0.7818609E-02  0.8439715E-01
       -1   -1    0    0    0  501  0.00000000000E+00  0.00000000000E+00  0.11824557024E+04  0.11824557024E+04  0.50400001928E-02 0. -1.
        1   -1    0    0  501    0  0.00000000000E+00  0.00000000000E+00 -0.12172305571E+04  0.12172305571E+04  0.50400001928E-02 0.  1.
    10030    2    1    2    0    0  0.00000000000E+00  0.00000000000E+00 -0.34774854727E+02  0.23996862595E+04  0.23994342778E+04 0.  0.
        2    1    3    3  502    0  0.97802899123E+03 -0.69477309866E+03 -0.89694750612E+01  0.11997211417E+04  0.25500000920E-02 0. -1.
       -2    1    3    3    0  502 -0.97802899123E+03  0.69477309866E+03 -0.25805379665E+02  0.11999651178E+04  0.25500000920E-02 0.  1.
</event>
<event>
 5   0  0.2149029E-06  0.2398703E+04  0.7818609E-02  0.8439989E-01
       -1   -1    0    0    0  501  0.00000000000E+00  0.00000000000E+00  0.60431615722E+03  0.60431615725E+03  0.50400001928E-02 0. -1.
        1   -1    0    0  501    0  0.00000000000E+00  0.00000000000E+00 -0.23802830921E+04  0.23802830921E+04  0.50400001928E-02 0.  1.
    10030    2    1    2    0    0  0.00000000000E+00  0.00000000000E+00 -0.17759669348E+04  0.29845992493E+04  0.23987025921E+04 0.  0.
        4    1    3    3  502    0 -0.61981492701E+02  0.10020478227E+04 -0.17043710446E+04  0.19780858968E+04  0.12699999809E+01 0.  1.
       -4    1    3    3    0  502  0.61981492701E+02 -0.10020478227E+04 -0.71595890189E+02  0.10065133525E+04  0.12699999809E+01 0. -1.
</event>
<event>
 5   0  0.2297414E-06  0.2395387E+04  0.7818609E-02  0.8441233E-01
        1   -1    0    0  501    0  0.00000000000E+00  0.00000000000E+00  0.15485421147E+04  0.15485421147E+04  0.50400001928E-02 0.  1.
       -1   -1    0    0    0  501  0.00000000000E+00  0.00000000000E+00 -0.92633538562E+03  0.92633538564E+03  0.50400001928E-02 0. -1.
    10030    2    1    2    0    0  0.00000000000E+00  0.00000000000E+00  0.62220672909E+03  0.24748775004E+04  0.23953866970E+04 0.  0.
        1    1    3    3  502    0 -0.66751959043E+03  0.90717146244E+03  0.73196221262E+03  0.13432464951E+04  0.50400001928E-02 0.  1.
       -1    1    3    3    0  502  0.66751959043E+03 -0.90717146244E+03 -0.10975548353E+03  0.11316310053E+04  0.50400001928E-02 0. -1.
</event>
<event>
 5   0  0.5268358E-06  0.2404249E+04  0.7818609E-02  0.8437914E-01
        2   -1    0    0  501    0  0.00000000000E+00  0.00000000000E+00  0.18377083830E+04  0.18377083830E+04  0.25500000920E-02 0. -1.
       -2   -1    0    0    0  501  0.00000000000E+00  0.00000000000E+00 -0.78636181524E+03  0.78636181524E+03  0.25500000920E-02 0.  1.
    10030    2    1    2    0    0  0.00000000000E+00  0.00000000000E+00  0.10513465677E+04  0.26240701982E+04  0.24042493215E+04 0.  0.
        2    1    3    3  502    0 -0.39122266549E+03 -0.10917124428E+04  0.87118026452E+03  0.14504641619E+04  0.25500000920E-02 0. -1.
       -2    1    3    3    0  502  0.39122266549E+03  0.10917124428E+04  0.18016630323E+03  0.11736060363E+04  0.25500000920E-02 0.  1.
</event>
<event>
 5   0  0.5371843E-06  0.2389581E+04  0.7818609E-02  0.8443415E-01
       -2   -1    0    0    0  501  0.00000000000E+00  0.00000000000E+00  0.93632522589E+03  0.93632522590E+03  0.25500000920E-02 0.  1.
        2   -1    0    0  501    0  0.00000000000E+00  0.00000000000E+00 -0.15246026351E+04  0.15246026351E+04  0.25500000920E-02 0. -1.
    10030    2    1    2    0    0  0.00000000000E+00  0.00000000000E+00 -0.58827740919E+03  0.24609278610E+04  0.23895806383E+04 0.  0.
        4    1    3    3  502    0  0.17707094913E+02 -0.24142638887E+03  0.91080443148E+03  0.94242589510E+03  0.12699999809E+01 0.  1.
       -4    1    3    3    0  502 -0.17707094913E+02  0.24142638887E+03 -0.14990818407E+04  0.15185019659E+04  0.12699999809E+01 0. -1.
</event>
<event>
 5   0  0.2215700E-06  0.2398171E+04  0.7818609E-02  0.8440189E-01
        1   -1    0    0  501    0  0.00000000000E+00  0.00000000000E+00  0.12046954358E+04  0.12046954358E+04  0.50400001928E-02 0.  1.
       -1   -1    0    0    0  501  0.00000000000E+00  0.00000000000E+00 -0.11935013143E+04  0.11935013143E+04  0.50400001928E-02 0. -1.
    10030    2    1    2    0    0  0.00000000000E+00  0.00000000000E+00  0.11194121544E+02  0.23981967501E+04  0.23981706245E+04 0.  0.
        3    1    3    3  502    0 -0.11195465173E+04 -0.38792825752E+03 -0.17861362775E+03  0.11982385303E+04  0.10100000352E+00 0.  1.
       -3    1    3    3    0  502  0.11195465173E+04  0.38792825752E+03  0.18980774930E+03  0.11999582198E+04  0.10100000352E+00 0. -1.
</event>
<event>
 5   0  0.5349036E-06  0.2398794E+04  0.7818609E-02  0.8439955E-01
        2   -1    0    0  501    0  0.00000000000E+00  0.00000000000E+00  0.17331173278E+04  0.17331173278E+04  0.25500000920E-02 0.  1.
       -2   -1    0    0    0  501  0.00000000000E+00  0.00000000000E+00 -0.83003826353E+03  0.83003826354E+03  0.25500000920E-02 0. -1.
    10030    2    1    2    0    0  0.00000000000E+00  0.00000000000E+00  0.90307906431E+03  0.25631555914E+04  0.23987944450E+04 0.  0.
        1    1    3    3  502    0 -0.49169283746E+03  0.65338994286E+03 -0.48600434571E+03  0.95125206329E+03  0.50400001928E-02 0. -1.
       -1    1    3    3    0  502  0.49169283746E+03 -0.65338994286E+03  0.13890834100E+04  0.16119035281E+04  0.50400001928E-02 0.  1.
</event>
<event>
 5   0  0.2254269E-06  0.2399247E+04  0.7818609E-02  0.8439785E-01
        1   -1    0    0  501    0  0.00000000000E+00  0.00000000000E+00  0.12083456977E+04  0.12083456977E+04  0.50400001928E-02 0. -1.
       -1   -1    0    0    0  501  0.00000000000E+00  0.00000000000E+00 -0.11909645779E+04  0.11909645779E+04  0.50400001928E-02 0.  1.
    10030    2    1    2    0    0  0.00000000000E+00  0.00000000000E+00  0.17381119773E+02  0.23993102756E+04  0.23992473185E+04 0.  0.
        2    1    3    3  502    0 -0.46135074922E+03 -0.11041132050E+04  0.93465661241E+02  0.12002692669E+04  0.25500000920E-02 0. -1.
       -2    1    3    3    0  502  0.46135074922E+03  0.11041132050E+04 -0.76084541468E+02  0.11990410088E+04  0.25500000920E-02 0.  1.
</event>
<event>
 5   0  0.2297414E-06  0.2433044E+04  0.7818609E-02  0.8427235E-01
        1   -1    0    0  501    0  0.00000000000E+00  0.00000000000E+00  0.21332155597E+04  0.21332155597E+04  0.50400001928E-02 0.  1.
       -1   -1    0    0    0  501  0.00000000000E+00  0.00000000000E+00 -0.69375372509E+03  0.69375372511E+03  0.50400001928E-02 0. -1.
    10030    2    1    2    0    0  0.00000000000E+00  0.00000000000E+00  0.14394618346E+04  0.28269692849E+04  0.24330443819E+04 0.  0.
        1    1    3    3  502    0 -0.18823232127E+03  0.10145425134E+04  0.14684154379E+04  0.17947066102E+04  0.50400001928E-02 0.  1.
       -1    1    3    3    0  502  0.18823232127E+03 -0.10145425134E+04 -0.28953603270E+02  0.10322626747E+04  0.50400001928E-02 0. -1.
</event>
<event>
 5   0  0.2215700E-06  0.2394065E+04  0.7818609E-02  0.8441729E-01
       -1   -1    0    0    0  501  0.00000000000E+00  0.00000000000E+00  0.14070603694E+04  0.14070603694E+04  0.50400001928E-02 0.  1.
        1   -1    0    0  501    0  0.00000000000E+00  0.00000000000E+00 -0.10183551408E+04  0.10183551408E+04  0.50400001928E-02 0. -1.
    10030    2    1    2    0    0  0.00000000000E+00  0.00000000000E+00  0.38870522854E+03  0.24254155102E+04  0.23940652962E+04 0.  0.
        3    1    3    3  502    0 -0.43287609737E+03 -0.90299383787E+03  0.85876649823E+03  0.13191889537E+04  0.10100000352E+00 0.  1.
       -3    1    3    3    0  502  0.43287609737E+03  0.90299383787E+03 -0.47006126969E+03  0.11062265565E+04  0.10100000352E+00 0. -1.
</event>
<event>
 5   0  0.2297414E-06  0.2400304E+04  0.7818609E-02  0.8439390E-01
       -1   -1    0    0    0  501  0.00000000000E+00  0.00000000000E+00  0.11270486363E+04  0.11270486363E+04  0.50400001928E-02 0. -1.
        1   -1    0    0  501    0  0.00000000000E+00  0.00000000000E+00 -0.12779969114E+04  0.12779969114E+04  0.50400001928E-02 0.  1.
    10030    2    1    2    0    0  0.00000000000E+00  0.00000000000E+00 -0.15094827509E+03  0.24050455478E+04  0.24003038777E+04 0.  0.
        1    1    3    3  502    0  0.37242758765E+03  0.13736885682E+03 -0.12103156877E+04  0.12737490235E+04  0.50400001928E-02 0.  1.
       -1    1    3    3    0  502 -0.37242758765E+03 -0.13736885682E+03  0.10593674126E+04  0.11312965243E+04  0.50400001928E-02 0. -1.
</event>
<event>
 5   0  0.2297414E-06  0.2397155E+04  0.7818609E-02  0.8440569E-01
       -1   -1    0    0    0  501  0.00000000000E+00  0.00000000000E+00  0.77567239781E+03  0.77567239782E+03  0.50400001928E-02 0. -1.
        1   -1    0    0  501    0  0.00000000000E+00  0.00000000000E+00 -0.18520556145E+04  0.18520556145E+04  0.50400001928E-02 0.  1.
    10030    2    1    2    0    0  0.00000000000E+00  0.00000000000E+00 -0.10763832167E+04  0.26277280124E+04  0.23971553303E+04 0.  0.
        1    1    3    3  502    0 -0.37680710397E+03  0.10852838300E+04 -0.91276628066E+03  0.14672991748E+04  0.50400001928E-02 0.  1.
       -1    1    3    3    0  502  0.37680710397E+03 -0.10852838300E+04 -0.16361693606E+03  0.11604288376E+04  0.50400001928E-02 0. -1.
</event>
<event>
 5   0  0.2254269E-06  0.2397372E+04  0.7818609E-02  0.8440488E-01
        1   -1    0    0  501    0  0.00000000000E+00  0.00000000000E+00  0.14754986909E+04  0.14754986909E+04  0.50400001928E-02 0.  1.
       -1   -1    0    0    0  501  0.00000000000E+00  0.00000000000E+00 -0.97380537021E+03  0.97380537022E+03  0.50400001928E-02 0. -1.
    10030    2    1    2    0    0  0.00000000000E+00  0.00000000000E+00  0.50169332066E+03  0.24493040611E+04  0.23973723523E+04 0.  0.
        2    1    3    3  502    0  0.26278793389E+03 -0.43224896035E+03 -0.85940980861E+03  0.99723712379E+03  0.25500000920E-02 0. -1.
       -2    1    3    3    0  502 -0.26278793389E+03  0.43224896035E+03  0.13611031293E+04  0.14520669373E+04  0.25500000920E-02 0.  1.
</event>
<event>
 5   0  0.2297414E-06  0.2402664E+04  0.7818609E-02  0.8438507E-01
       -1   -1    0    0    0  501  0.00000000000E+00  0.00000000000E+00  0.11195839653E+04  0.11195839653E+04  0.50400001928E-02 0.  1.
        1   -1    0    0  501    0  0.00000000000E+00  0.00000000000E+00 -0.12890490225E+04  0.12890490225E+04  0.50400001928E-02 0. -1.
    10030    2    1    2    0    0  0.00000000000E+00  0.00000000000E+00 -0.16946505721E+03  0.24086329878E+04  0.24026640348E+04 0.  0.
        1    1    3    3  502    0  0.74207748604E+02 -0.11633557108E+04  0.20632531307E+03  0.11838384327E+04  0.50400001928E-02 0. -1.
       -1    1    3    3    0  502 -0.74207748604E+02  0.11633557108E+04 -0.37579037029E+03  0.12247945551E+04  0.50400001928E-02 0.  1.
</event>
<event>
 5   0  0.5268358E-06  0.2402684E+04  0.7818609E-02  0.8438499E-01
        2   -1    0    0  501    0  0.00000000000E+00  0.00000000000E+00  0.15902826690E+04  0.15902826690E+04  0.25500000920E-02 0. -1.
       -2   -1    0    0    0  501  0.00000000000E+00  0.00000000000E+00 -0.90752609991E+03  0.90752609991E+03  0.25500000920E-02 0.  1.
    10030    2    1    2    0    0  0.00000000000E+00  0.00000000000E+00  0.68275656914E+03  0.24978087690E+04  0.24026843558E+04 0.  0.
        2    1    3    3  502    0 -0.11247793741E+04 -0.25228699142E+03  0.69306999583E+03  0.13450365741E+04  0.25500000920E-02 0. -1.
       -2    1    3    3    0  502  0.11247793741E+04  0.25228699142E+03 -0.10313426693E+02  0.11527721949E+04  0.25500000920E-02 0.  1.
</event>
<event>
 5   0  0.2254269E-06  0.2389732E+04  0.7818609E-02  0.8443358E-01
        1   -1    0    0  501    0  0.00000000000E+00  0.00000000000E+00  0.31813759953E+04  0.31813759953E+04  0.50400001928E-02 0. -1.
       -1   -1    0    0    0  501  0.00000000000E+00  0.00000000000E+00 -0.44876970117E+03  0.44876970119E+03  0.50400001928E-02 0.  1.
    10030    2    1    2    0    0  0.00000000000E+00  0.00000000000E+00  0.27326062942E+04  0.36301456965E+04  0.23897323321E+04 0.  0.
        2    1    3    3  502    0 -0.56472392108E+03 -0.81033891132E+03  0.23877426568E+04  0.25839654125E+04  0.25500000920E-02 0. -1.
       -2    1    3    3    0  502  0.56472392108E+03  0.81033891132E+03  0.34486363742E+03  0.10461802840E+04  0.25500000920E-02 0.  1.
</event>
<event>
 5   0  0.2149417E-06  0.2411854E+04  0.7818609E-02  0.8435079E-01
        1   -1    0    0  501    0  0.00000000000E+00  0.00000000000E+00  0.20409607982E+04  0.20409607982E+04  0.50400001928E-02 0.  1.
       -1   -1    0    0    0  501  0.00000000000E+00  0.00000000000E+00 -0.71253675628E+03  0.71253675630E+03  0.50400001928E-02 0. -1.
    10030    2    1    2    0    0  0.00000000000E+00  0.00000000000E+00  0.13284240420E+04  0.27534975545E+04  0.24118537160E+04 0.  0.
        5    1    3    3  502    0 -0.11917258258E+04  0.18372491698E+03  0.64537621632E+03  0.13676614491E+04  0.46999998093E+01 0. -1.
       -5    1    3    3    0  502  0.11917258258E+04 -0.18372491698E+03  0.68304782563E+03  0.13858361054E+04  0.46999998093E+01 0.  1.
</event>
<event>
 5   0  0.5349036E-06  0.2404633E+04  0.7818609E-02  0.8437771E-01
        2   -1    0    0  501    0  0.00000000000E+00  0.00000000000E+00  0.13441671154E+04  0.13441671154E+04  0.25500000920E-02 0.  1.
       -2   -1    0    0    0  501  0.00000000000E+00  0.00000000000E+00 -0.10754350584E+04  0.10754350584E+04  0.25500000920E-02 0. -1.
    10030    2    1    2    0    0  0.00000000000E+00  0.00000000000E+00  0.26873205694E+03  0.24196021738E+04  0.24046325626E+04 0.  0.
        1    1    3    3  502    0 -0.41118195292E+03  0.55613485344E+03  0.11239556962E+04  0.13197094304E+04  0.50400001928E-02 0.  1.
       -1    1    3    3    0  502  0.41118195292E+03 -0.55613485344E+03 -0.85522363930E+03  0.10998927433E+04  0.50400001928E-02 0. -1.
</event>
<event>
 5   0  0.5349036E-06  0.2405979E+04  0.7818609E-02  0.8437268E-01
       -2   -1    0    0    0  501  0.00000000000E+00  0.00000000000E+00  0.10964959587E+04  0.10964959587E+04  0.25500000920E-02 0. -1.
        2   -1    0    0  501    0  0.00000000000E+00  0.00000000000E+00 -0.13198260209E+04  0.13198260209E+04  0.25500000920E-02 0.  1.
    10030    2    1    2    0    0  0.00000000000E+00  0.00000000000E+00 -0.22333006221E+03  0.24163219795E+04  0.24059791338E+04 0.  0.
        1    1    3    3  502    0 -0.39797035295E+03 -0.89452620657E+03 -0.81368811822E+03  0.12730459103E+04  0.50400001928E-02 0.  1.
       -1    1    3    3    0  502  0.39797035295E+03  0.89452620657E+03  0.59035805601E+03  0.11432760692E+04  0.50400001928E-02 0. -1.
</event>
<event>
 5   0  0.5268358E-06  0.2399920E+04  0.7818609E-02  0.8439533E-01
        2   -1    0    0  501    0  0.00000000000E+00  0.00000000000E+00  0.18191141488E+04  0.18191141488E+04  0.25500000920E-02 0.  1.
       -2   -1    0    0    0  501  0.00000000000E+00  0.00000000000E+00 -0.79154155051E+03  0.79154155052E+03  0.25500000920E-02 0. -1.
    10030    2    1    2    0    0  0.00000000000E+00  0.00000000000E+00  0.10275725983E+04  0.26106556993E+04  0.23999203603E+04 0.  0.
        2    1    3    3  502    0 -0.99373122821E+03 -0.19648331889E+03  0.12135419763E+04  0.15807566469E+04  0.25500000920E-02 0.  1.
       -2    1    3    3    0  502  0.99373122821E+03  0.19648331889E+03 -0.18596937804E+03  0.10298990524E+04  0.25500000920E-02 0. -1.
</event>
<event>
 5   0  0.5379778E-06  0.2403498E+04  0.7818609E-02  0.8438195E-01
        2   -1    0    0  501    0  0.00000000000E+00  0.00000000000E+00  0.13784478174E+04  0.13784478174E+04  0.25500000920E-02 0. -1.
       -2   -1    0    0    0  501  0.00000000000E+00  0.00000000000E+00 -0.10477005205E+04  0.10477005205E+04  0.25500000920E-02 0.  1.
    10030    2    1    2    0    0  0.00000000000E+00  0.00000000000E+00  0.33074729686E+03  0.24261483379E+04  0.24034978642E+04 0.  0.
        5    1    3    3  502    0  0.13280249325E+03 -0.11920753920E+04  0.24022203185E+03  0.12232779558E+04  0.46999998093E+01 0. -1.
       -5    1    3    3    0  502 -0.13280249325E+03  0.11920753920E+04  0.90525265010E+02  0.12028703821E+04  0.46999998093E+01 0.  1.
</event>
<event>
 5   0  0.2149029E-06  0.2427646E+04  0.7818609E-02  0.8429225E-01
        1   -1    0    0  501    0  0.00000000000E+00  0.00000000000E+00  0.14038325597E+04  0.14038325597E+04  0.50400001928E-02 0.  1.
       -1   -1    0    0    0  501  0.00000000000E+00  0.00000000000E+00 -0.10495312842E+04  0.10495312842E+04  0.50400001928E-02 0. -1.
    10030    2    1    2    0    0  0.00000000000E+00  0.00000000000E+00  0.35430127546E+03  0.24533638439E+04  0.24276459290E+04 0.  0.
        4    1    3    3  502    0 -0.83275662558E+02 -0.92046104507E+03  0.97236734832E+03  0.13415227335E+04  0.12699999809E+01 0.  1.
       -4    1    3    3    0  502  0.83275662558E+02  0.92046104507E+03 -0.61806607286E+03  0.11118411104E+04  0.12699999809E+01 0. -1.
</event>
<event>
 5   0  0.5349036E-06  0.2402739E+04  0.7818609E-02  0.8438479E-01
       -2   -1    0    0    0  501  0.00000000000E+00  0.00000000000E+00  0.50615573476E+03  0.50615573477E+03  0.25500000920E-02 0. -1.
        2   -1    0    0  501    0  0.00000000000E+00  0.00000000000E+00 -0.28514719367E+04  0.28514719367E+04  0.25500000920E-02 0.  1.
    10030    2    1    2    0    0  0.00000000000E+00  0.00000000000E+00 -0.23453162020E+04  0.33576276715E+04  0.24027391646E+04 0.  0.
        1    1    3    3  502    0  0.27752747381E+03  0.77459059993E+03  0.50601800971E+02  0.82436195843E+03  0.50400001928E-02 0. -1.
       -1    1    3    3    0  502 -0.27752747381E+03 -0.77459059993E+03 -0.23959180029E+04  0.25332657131E+04  0.50400001928E-02 0.  1.
</event>
<event>
 5   0  0.2297414E-06  0.2398484E+04  0.7818609E-02  0.8440071E-01
       -1   -1    0    0    0  501  0.00000000000E+00  0.00000000000E+00  0.14952423764E+04  0.14952423764E+04  0.50400001928E-02 0.  1.
        1   -1    0    0  501    0  0.00000000000E+00  0.00000000000E+00 -0.96183864140E+03  0.96183864141E+03  0.50400001928E-02 0. -1.
    10030    2    1    2    0    0  0.00000000000E+00  0.00000000000E+00  0.53340373500E+03  0.24570810178E+04  0.23984844347E+04 0.  0.
        1    1    3    3  502    0  0.79492347240E+03  0.33500670381E+02 -0.65252490162E+03  0.10289870598E+04  0.50400001928E-02 0. -1.
       -1    1    3    3    0  502 -0.79492347240E+03 -0.33500670381E+02  0.11859286366E+04  0.14280939581E+04  0.50400001928E-02 0.  1.
</event>
<event>
 5   0  0.2254269E-06  0.2398854E+04  0.7818609E-02  0.8439933E-01
        1   -1    0    0  501    0  0.00000000000E+00  0.00000000000E+00  0.25979767009E+04  0.25979767009E+04  0.50400001928E-02 0. -1.
       -1   -1    0    0    0  501  0.00000000000E+00  0.00000000000E+00 -0.55374828307E+03  0.55374828309E+03  0.50400001928E-02 0.  1.
    10030    2    1    2    0    0  0.00000000000E+00  0.00000000000E+00  0.20442284179E+04  0.31517249840E+04  0.23988540078E+04 0.  0.
        2    1    3    3  502    0  0.88564640482E+03 -0.46768942460E+03  0.18891751800E+04  0.21382436281E+04  0.25500000920E-02 0. -1.
       -2    1    3    3    0  502 -0.88564640482E+03  0.46768942460E+03  0.15505323783E+03  0.10134813559E+04  0.25500000920E-02 0.  1.
</event>
<event>
 5   0  0.2215700E-06  0.2401318E+04  0.7818609E-02  0.8439010E-01
       -1   -1    0    0    0  501  0.00000000000E+00  0.00000000000E+00  0.92179475068E+03  0.92179475070E+03  0.50400001928E-02 0. -1.
        1   -1    0    0  501    0  0.00000000000E+00  0.00000000000E+00 -0.15638865066E+04  0.15638865066E+04  0.50400001928E-02 0.  1.
    10030    2    1    2    0    0  0.00000000000E+00  0.00000000000E+00 -0.64209175591E+03  0.24856812573E+04  0.24013182817E+04 0.  0.
        3    1    3    3  502    0  0.29098698437E+03 -0.30226546900E+03  0.84344053276E+03  0.94203491513E+03  0.10100000352E+00 0. -1.
       -3    1    3    3    0  502 -0.29098698437E+03  0.30226546900E+03 -0.14855322887E+04  0.15436463422E+04  0.10100000352E+00 0.  1.
</event>
<event>
 5   0  0.2149417E-06  0.2406434E+04  0.7818609E-02  0.8437099E-01
        1   -1    0    0  501    0  0.00000000000E+00  0.00000000000E+00  0.13113502737E+04  0.13113502737E+04  0.50400001928E-02 0.  1.
       -1   -1    0    0    0  501  0.00000000000E+00  0.00000000000E+00 -0.11040006272E+04  0.11040006272E+04  0.50400001928E-02 0. -1.
    10030    2    1    2    0    0  0.00000000000E+00  0.00000000000E+00  0.20734964642E+03  0.24153509009E+04  0.24064343121E+04 0.  0.
        5    1    3    3  502    0 -0.70811750747E+02  0.80340475743E+03 -0.79251426777E+03  0.11307406701E+04  0.46999998093E+01 0. -1.
       -5    1    3    3    0  502  0.70811750747E+02 -0.80340475743E+03  0.99986391419E+03  0.12846102309E+04  0.46999998093E+01 0.  1.
</event>
<event>
 5   0  0.2254269E-06  0.2397767E+04  0.7818609E-02  0.8440340E-01
       -1   -1    0    0    0  501  0.00000000000E+00  0.00000000000E+00  0.12446241442E+04  0.12446241442E+04  0.50400001928E-02 0. -1.
        1   -1    0    0  501    0  0.00000000000E+00  0.00000000000E+00 -0.11548242824E+04  0.11548242824E+04  0.50400001928E-02 0.  1.
    10030    2    1    2    0    0  0.00000000000E+00  0.00000000000E+00  0.89799861815E+02  0.23994484266E+04  0.23977674484E+04 0.  0.
        2    1    3    3  502    0 -0.38046365810E+02 -0.24694091439E+03  0.12182810649E+04  0.12436382489E+04  0.25500000920E-02 0. -1.
       -2    1    3    3    0  502  0.38046365810E+02  0.24694091439E+03 -0.11284812031E+04  0.11558101777E+04  0.25500000920E-02 0.  1.
</event>
<event>
 5   0  0.5349036E-06  0.2398901E+04  0.7818609E-02  0.8439915E-01
       -2   -1    0    0    0  501  0.00000000000E+00  0.00000000000E+00  0.83285500179E+03  0.83285500179E+03  0.25500000920E-02 0. -1.
        2   -1    0    0  501    0  0.00000000000E+00  0.00000000000E+00 -0.17274087394E+04  0.17274087394E+04  0.25500000920E-02 0.  1.
    10030    2    1    2    0    0  0.00000000000E+00  0.00000000000E+00 -0.89455373762E+03  0.25602637412E+04  0.23989005888E+04 0.  0.
        1    1    3    3  502    0  0.31075391592E+03 -0.63777787507E+02  0.78727084729E+03  0.84878206240E+03  0.50400001928E-02 0. -1.
       -1    1    3    3    0  502 -0.31075391592E+03  0.63777787507E+02 -0.16818245849E+04  0.17114816788E+04  0.50400001928E-02 0.  1.
</event>
<event>
 5   0  0.5440503E-06  0.2400639E+04  0.7818609E-02  0.8439264E-01
        2   -1    0    0  501    0  0.00000000000E+00  0.00000000000E+00  0.17005870095E+04  0.17005870095E+04  0.25500000920E-02 0. -1.
       -2   -1    0    0    0  501  0.00000000000E+00  0.00000000000E+00 -0.84721748712E+03  0.84721748712E+03  0.25500000920E-02 0.  1.
    10030    2    1    2    0    0  0.00000000000E+00  0.00000000000E+00  0.85336952242E+03  0.25478044967E+04  0.24006391256E+04 0.  0.
        3    1    3    3  502    0  0.57755601232E+03 -0.87947538158E+03  0.10397825971E+04  0.14792551348E+04  0.10100000352E+00 0. -1.
       -3    1    3    3    0  502 -0.57755601232E+03  0.87947538158E+03 -0.18641307473E+03  0.10685493619E+04  0.10100000352E+00 0.  1.
</event>
<event>
 5   0  0.2297414E-06  0.2398436E+04  0.7818609E-02  0.8440089E-01
        1   -1    0    0  501    0  0.00000000000E+00  0.00000000000E+00  0.18860432776E+04  0.18860432776E+04  0.50400001928E-02 0. -1.
       -1   -1    0    0    0  501  0.00000000000E+00  0.00000000000E+00 -0.76250866418E+03  0.76250866419E+03  0.50400001928E-02 0.  1.
    10030    2    1    2    0    0  0.00000000000E+00  0.00000000000E+00  0.11235346134E+04  0.26485519418E+04  0.23984364408E+04 0.  0.
        1    1    3    3  502    0 -0.11888974928E+04 -0.84546850136E+02  0.41568893276E+03  0.12623084834E+04  0.50400001928E-02 0. -1.
       -1    1    3    3    0  502  0.11888974928E+04  0.84546850136E+02  0.70784568064E+03  0.13862434584E+04  0.50400001928E-02 0.  1.
</event>
<event>
 5   0  0.2254269E-06  0.2366760E+04  0.7818609E-02  0.8452054E-01
        1   -1    0    0  501    0  0.00000000000E+00  0.00000000000E+00  0.11254081609E+04  0.11254081609E+04  0.50400001928E-02 0. -1.
       -1   -1    0    0    0  501  0.00000000000E+00  0.00000000000E+00 -0.12443376951E+04  0.12443376951E+04  0.50400001928E-02 0.  1.
    10030    2    1    2    0    0  0.00000000000E+00  0.00000000000E+00 -0.11892953420E+03  0.23697458559E+04  0.23667596387E+04 0.  0.
        2    1    3    3  502    0  0.51222732217E+03 -0.70377527860E+03  0.74323954150E+03  0.11445879120E+04  0.25500000920E-02 0. -1.
       -2    1    3    3    0  502 -0.51222732217E+03  0.70377527860E+03 -0.86216907570E+03  0.12251579439E+04  0.25500000920E-02 0.  1.
</event>
<event>
 5   0  0.2297414E-06  0.2400465E+04  0.7818609E-02  0.8439329E-01
       -1   -1    0    0    0  501  0.00000000000E+00  0.00000000000E+00  0.11671587722E+04  0.11671587722E+04  0.50400001928E-02 0.  1.
        1   -1    0    0  501    0  0.00000000000E+00  0.00000000000E+00 -0.12342437112E+04  0.12342437112E+04  0.50400001928E-02 0. -1.
    10030    2    1    2    0    0  0.00000000000E+00  0.00000000000E+00 -0.67084938959E+02  0.24014024834E+04  0.24004652671E+04 0.  0.
        1    1    3    3  502    0 -0.41963532258E+03  0.20892335928E+03 -0.11388791039E+04  0.12315796310E+04  0.50400001928E-02 0. -1.
       -1    1    3    3    0  502  0.41963532258E+03 -0.20892335928E+03  0.10717941650E+04  0.11698228525E+04  0.50400001928E-02 0.  1.
</event>
<event>
 5   0  0.2149029E-06  0.2402420E+04  0.7818609E-02  0.8438598E-01
       -1   -1    0    0    0  501  0.00000000000E+00  0.00000000000E+00  0.15604219617E+04  0.15604219617E+04  0.50400001928E-02 0.  1.
        1   -1    0    0  501    0  0.00000000000E+00  0.00000000000E+00 -0.92468956943E+03  0.92468956945E+03  0.50400001928E-02 0. -1.
    10030    2    1    2    0    0  0.00000000000E+00  0.00000000000E+00  0.63573239229E+03  0.24851115312E+04  0.24024203728E+04 0.  0.
        4    1    3    3  502    0 -0.10104231202E+04 -0.51111072655E+03  0.73255796603E+03  0.13486407391E+04  0.12699999809E+01 0.  1.
       -4    1    3    3    0  502  0.10104231202E+04  0.51111072655E+03 -0.96825573748E+02  0.11364707921E+04  0.12699999809E+01 0. -1.
</event>
<event>
 5   0  0.2149417E-06  0.2400940E+04  0.7818609E-02  0.8439152E-01
       -1   -1    0    0    0  501  0.00000000000E+00  0.00000000000E+00  0.81083872949E+03  0.81083872951E+03  0.50400001928E-02 0.  1.
        1   -1    0    0  501    0  0.00000000000E+00  0.00000000000E+00 -0.17773304228E+04  0.17773304229E+04  0.50400001928E-02 0. -1.
    10030    2    1    2    0    0  0.00000000000E+00  0.00000000000E+00 -0.96649169335E+03  0.25881691524E+04  0.24009401009E+04 0.  0.
        5    1    3    3  502    0  0.27830920451E+03 -0.19538736394E+03 -0.17243177413E+04  0.17575340675E+04  0.46999998093E+01 0. -1.
       -5    1    3    3    0  502 -0.27830920451E+03  0.19538736394E+03  0.75782604796E+03  0.83063508490E+03  0.46999998093E+01 0.  1.
</event>
<event>
 5   0  0.5349036E-06  0.2396033E+04  0.7818609E-02  0.8440990E-01
       -2   -1    0    0    0  501  0.00000000000E+00  0.00000000000E+00  0.10828434207E+04  0.10828434207E+04  0.25500000920E-02 0. -1.
        2   -1    0    0  501    0  0.00000000000E+00  0.00000000000E+00 -0.13254391615E+04  0.13254391615E+04  0.25500000920E-02 0.  1.
    10030    2    1    2    0    0  0.00000000000E+00  0.00000000000E+00 -0.24259574076E+03  0.24082825822E+04  0.23960326171E+04 0.  0.
        1    1    3    3  502    0  0.75292836183E+03  0.69826497195E+03  0.49892093848E+03  0.11416642203E+04  0.50400001928E-02 0. -1.
       -1    1    3    3    0  502 -0.75292836183E+03 -0.69826497195E+03 -0.74151667923E+03  0.12666183619E+04  0.50400001928E-02 0.  1.
</event>
<event>
 5   0  0.2149417E-06  0.2401549E+04  0.7818609E-02  0.8438924E-01
        1   -1    0    0  501    0  0.00000000000E+00  0.00000000000E+00  0.10358680306E+04  0.10358680306E+04  0.50400001928E-02 0. -1.
       -1   -1    0    0    0  501  0.00000000000E+00  0.00000000000E+00 -0.13919340073E+04  0.13919340074E+04  0.50400001928E-02 0.  1.
    10030    2    1    2    0    0  0.00000000000E+00  0.00000000000E+00 -0.35606597675E+03  0.24278020380E+04  0.24015494490E+04 0.  0.
        5    1    3    3  502    0  0.38049310832E+03 -0.42988804043E+03  0.88813275746E+03  0.10575351614E+04  0.46999998093E+01 0. -1.
       -5    1    3    3    0  502 -0.38049310832E+03  0.42988804043E+03 -0.12441987342E+04  0.13702668765E+04  0.46999998093E+01 0.  1.
</event>
<event>
 5   0  0.5268358E-06  0.2395669E+04  0.7818609E-02  0.8441127E-01
        2   -1    0    0  501    0  0.00000000000E+00  0.00000000000E+00  0.12627767301E+04  0.12627767301E+04  0.25500000920E-02 0.  1.
       -2   -1    0    0    0  501  0.00000000000E+00  0.00000000000E+00 -0.11362318934E+04  0.11362318934E+04  0.25500000920E-02 0. -1.
    10030    2    1    2    0    0  0.00000000000E+00  0.00000000000E+00  0.12654483672E+03  0.23990086235E+04  0.23956687542E+04 0.  0.
        2    1    3    3  502    0  0.58336399257E+03 -0.14726711690E+03 -0.97393507621E+03  0.11447928565E+04  0.25500000920E-02 0. -1.
       -2    1    3    3    0  502 -0.58336399257E+03  0.14726711690E+03  0.11004799129E+04  0.12542157671E+04  0.25500000920E-02 0.  1.
</event>
<event>
 5   0  0.2149029E-06  0.2397070E+04  0.7818609E-02  0.8440601E-01
        1   -1    0    0  501    0  0.00000000000E+00  0.00000000000E+00  0.21922437271E+04  0.21922437271E+04  0.50400001928E-02 0.  1.
       -1   -1    0    0    0  501  0.00000000000E+00  0.00000000000E+00 -0.65525838472E+03  0.65525838474E+03  0.50400001928E-02 0. -1.
    10030    2    1    2    0    0  0.00000000000E+00  0.00000000000E+00  0.15369853424E+04  0.28475021119E+04  0.23970699477E+04 0.  0.
        4    1    3    3  502    0  0.22597213448E+03  0.11183129837E+04  0.33235492045E+03  0.11883386475E+04  0.12699999809E+01 0. -1.
       -4    1    3    3    0  502 -0.22597213448E+03 -0.11183129837E+04  0.12046304219E+04  0.16591634644E+04  0.12699999809E+01 0.  1.
</event>
<event>
 5   0  0.5440503E-06  0.2398458E+04  0.7818609E-02  0.8440081E-01
        2   -1    0    0  501    0  0.00000000000E+00  0.00000000000E+00  0.12112158710E+04  0.12112158710E+04  0.25500000920E-02 0.  1.
       -2   -1    0    0    0  501  0.00000000000E+00  0.00000000000E+00 -0.11873612523E+04  0.11873612523E+04  0.25500000920E-02 0. -1.
    10030    2    1    2    0    0  0.00000000000E+00  0.00000000000E+00  0.23854618683E+02  0.23985771234E+04  0.23984584995E+04 0.  0.
        3    1    3    3  502    0  0.89563532685E+03 -0.49650258320E+03  0.63603615870E+03  0.12054955243E+04  0.10100000352E+00 0.  1.
       -3    1    3    3    0  502 -0.89563532685E+03  0.49650258320E+03 -0.61218154001E+03  0.11930815990E+04  0.10100000352E+00 0. -1.
</event>
<event>
 5   0  0.2297414E-06  0.2397967E+04  0.7818609E-02  0.8440265E-01
       -1   -1    0    0    0  501  0.00000000000E+00  0.00000000000E+00  0.10071413005E+04  0.10071413005E+04  0.50400001928E-02 0. -1.
        1   -1    0    0  501    0  0.00000000000E+00  0.00000000000E+00 -0.14273679638E+04  0.14273679638E+04  0.50400001928E-02 0.  1.
    10030    2    1    2    0    0  0.00000000000E+00  0.00000000000E+00 -0.42022666325E+03  0.24345092643E+04  0.23979668283E+04 0.  0.
        1    1    3    3  502    0  0.13811649486E+03  0.72621059859E+03 -0.11684812537E+04  0.13826808887E+04  0.50400001928E-02 0.  1.
       -1    1    3    3    0  502 -0.13811649486E+03 -0.72621059859E+03  0.74825459042E+03  0.10518283756E+04  0.50400001928E-02 0. -1.
</event>
<event>
 5   0  0.5440503E-06  0.2387991E+04  0.7818609E-02  0.8444013E-01
       -2   -1    0    0    0  501  0.00000000000E+00  0.00000000000E+00  0.10103800798E+04  0.10103800798E+04  0.25500000920E-02 0. -1.
        2   -1    0    0  501    0  0.00000000000E+00  0.00000000000E+00 -0.14109792618E+04  0.14109792618E+04  0.25500000920E-02 0.  1.
    10030    2    1    2    0    0  0.00000000000E+00  0.00000000000E+00 -0.40059918195E+03  0.24213593416E+04  0.23879910713E+04 0.  0.
        3    1    3    3  502    0  0.62492474215E+03  0.99667313947E+03 -0.40745077252E+03  0.12449515744E+04  0.10100000352E+00 0. -1.
       -3    1    3    3    0  502 -0.62492474215E+03 -0.99667313947E+03  0.68515905723E+01  0.11764077672E+04  0.10100000352E+00 0.  1.
</event>
<event>
 5   0  0.2149417E-06  0.2404340E+04  0.7818609E-02  0.8437880E-01
       -1   -1    0    0    0  501  0.00000000000E+00  0.00000000000E+00  0.72011675287E+03  0.72011675289E+03  0.50400001928E-02 0.  1.
        1   -1    0    0  501    0  0.00000000000E+00  0.00000000000E+00 -0.20069149514E+04  0.20069149514E+04  0.50400001928E-02 0. -1.
    10030    2    1    2    0    0  0.00000000000E+00  0.00000000000E+00 -0.12867981985E+04  0.27270317043E+04  0.24043403071E+04 0.  0.
        5    1    3    3  502    0  0.66426163849E+03  0.16214086265E+03  0.47807096586E+03  0.83433034351E+03  0.46999998093E+01 0.  1.
       -5    1    3    3    0  502 -0.66426163849E+03 -0.16214086265E+03 -0.17648691644E+04  0.18927013608E+04  0.46999998093E+01 0. -1.
</event>
<event>
 5   0  0.2149417E-06  0.2403547E+04  0.7818609E-02  0.8438177E-01
       -1   -1    0    0    0  501  0.00000000000E+00  0.00000000000E+00  0.18641949078E+04  0.18641949078E+04  0.50400001928E-02 0. -1.
        1   -1    0    0  501    0  0.00000000000E+00  0.00000000000E+00 -0.77473660582E+03  0.77473660583E+03  0.50400001928E-02 0.  1.
    10030    2    1    2    0    0  0.00000000000E+00  0.00000000000E+00  0.10894583020E+04  0.26389315137E+04  0.24035474079E+04 0.  0.
        5    1    3    3  502    0 -0.82291996264E+03 -0.87212337577E+03  0.63284801024E+03  0.13558448073E+04  0.46999998093E+01 0.  1.
       -5    1    3    3    0  502  0.82291996264E+03  0.87212337577E+03  0.45661029178E+03  0.12830867064E+04  0.46999998093E+01 0. -1.
</event>
<event>
 5   0  0.2215700E-06  0.2413999E+04  0.7818609E-02  0.8434281E-01
       -1   -1    0    0    0  501  0.00000000000E+00  0.00000000000E+00  0.11778927086E+04  0.11778927086E+04  0.50400001928E-02 0. -1.
        1   -1    0    0  501    0  0.00000000000E+00  0.00000000000E+00 -0.12368259858E+04  0.12368259858E+04  0.50400001928E-02 0.  1.
    10030    2    1    2    0    0  0.00000000000E+00  0.00000000000E+00 -0.58933277171E+02  0.24147186944E+04  0.24139994287E+04 0.  0.
        3    1    3    3  502    0  0.39842312495E+03  0.91070064523E+03  0.65537714868E+03  0.11906451482E+04  0.10100000352E+00 0. -1.
       -3    1    3    3    0  502 -0.39842312495E+03 -0.91070064523E+03 -0.71431042585E+03  0.12240735462E+04  0.10100000352E+00 0.  1.
</event>
<event>
 5   0  0.5379778E-06  0.2408060E+04  0.7818609E-02  0.8436492E-01
        2   -1    0    0  501    0  0.00000000000E+00  0.00000000000E+00  0.15799384351E+04  0.15799384351E+04  0.25500000920E-02 0. -1.
       -2   -1    0    0    0  501  0.00000000000E+00  0.00000000000E+00 -0.91756008037E+03  0.91756008037E+03  0.25500000920E-02 0.  1.
    10030    2    1    2    0    0  0.00000000000E+00  0.00000000000E+00  0.66237835472E+03  0.24974985155E+04  0.24080601633E+04 0.  0.
        5    1    3    3  502    0  0.60718743044E+03 -0.34252895647E+03  0.13493131240E+04  0.15187727474E+04  0.46999998093E+01 0. -1.
       -5    1    3    3    0  502 -0.60718743044E+03  0.34252895647E+03 -0.68693476930E+03  0.97872576802E+03  0.46999998093E+01 0.  1.
</event>
<event>
 5   0  0.5349036E-06  0.2386802E+04  0.7818609E-02  0.8444461E-01
        2   -1    0    0  501    0  0.00000000000E+00  0.00000000000E+00  0.24170683807E+04  0.24170683807E+04  0.25500000920E-02 0.  1.
       -2   -1    0    0    0  501  0.00000000000E+00  0.00000000000E+00 -0.58922852616E+03  0.58922852617E+03  0.25500000920E-02 0. -1.
    10030    2    1    2    0    0  0.00000000000E+00  0.00000000000E+00  0.18278398545E+04  0.30062969069E+04  0.23868017426E+04 0.  0.
        1    1    3    3  502    0 -0.68604423905E+03 -0.67521338587E+03  0.25391467814E+02  0.96291979991E+03  0.50400001928E-02 0. -1.
       -1    1    3    3    0  502  0.68604423905E+03  0.67521338587E+03  0.18024483867E+04  0.20433771070E+04  0.50400001928E-02 0.  1.
</event>
<event>
 5   0  0.5349036E-06  0.2399449E+04  0.7818609E-02  0.8439710E-01
       -2   -1    0    0    0  501  0.00000000000E+00  0.00000000000E+00  0.87565873278E+03  0.87565873279E+03  0.25500000920E-02 0. -1.
        2   -1    0    0  501    0  0.00000000000E+00  0.00000000000E+00 -0.16437208291E+04  0.16437208291E+04  0.25500000920E-02 0.  1.
    10030    2    1    2    0    0  0.00000000000E+00  0.00000000000E+00 -0.76806209635E+03  0.25193795619E+04  0.23994486853E+04 0.  0.
        1    1    3    3  502    0 -0.66135088338E+03  0.15703519255E+03  0.65396244397E+03  0.94324541917E+03  0.50400001928E-02 0. -1.
       -1    1    3    3    0  502  0.66135088338E+03 -0.15703519255E+03 -0.14220245403E+04  0.15761341427E+04  0.50400001928E-02 0.  1.
</event>
<event>
 5   0  0.2254269E-06  0.2398587E+04  0.7818609E-02  0.8440033E-01
       -1   -1    0    0    0  501  0.00000000000E+00  0.00000000000E+00  0.19003558047E+04  0.19003558047E+04  0.50400001928E-02 0. -1.
        1   -1    0    0  501    0  0.00000000000E+00  0.00000000000E+00 -0.75686104130E+03  0.75686104132E+03  0.50400001928E-02 0.  1.
    10030    2    1    2    0    0  0.00000000000E+00  0.00000000000E+00  0.11434947634E+04  0.26572168460E+04  0.23985873119E+04 0.  0.
        2    1    3    3  502    0  0.72245210215E+03  0.63101675343E+03 -0.22572259299E+03  0.98542877571E+03  0.25500000920E-02 0.  1.
       -2    1    3    3    0  502 -0.72245210215E+03 -0.63101675343E+03  0.13692173564E+04  0.16717880703E+04  0.25500000920E-02 0. -1.
</event>
<event>
 5   0  0.2254269E-06  0.2401016E+04  0.7818609E-02  0.8439123E-01
        1   -1    0    0  501    0  0.00000000000E+00  0.00000000000E+00  0.13296035675E+04  0.13296035675E+04  0.50400001928E-02 0.  1.
       -1   -1    0    0    0  501  0.00000000000E+00  0.00000000000E+00 -0.10839464912E+04  0.10839464912E+04  0.50400001928E-02 0. -1.
    10030    2    1    2    0    0  0.00000000000E+00  0.00000000000E+00  0.24565707626E+03  0.24135500587E+04  0.24010157198E+04 0.  0.
        2    1    3    3  502    0  0.68005353446E+02 -0.81978262609E+03 -0.75612211288E+03  0.11173132648E+04  0.25500000920E-02 0. -1.
       -2    1    3    3    0  502 -0.68005353446E+02  0.81978262609E+03  0.10017791891E+04  0.12962367939E+04  0.25500000920E-02 0.  1.
</event>
<event>
 5   0  0.5268358E-06  0.2404014E+04  0.7818609E-02  0.8438002E-01
       -2   -1    0    0    0  501  0.00000000000E+00  0.00000000000E+00  0.66555858723E+03  0.66555858724E+03  0.25500000920E-02 0.  1.
        2   -1    0    0  501    0  0.00000000000E+00  0.00000000000E+00 -0.21708392232E+04  0.21708392232E+04  0.25500000920E-02 0. -1.
    10030    2    1    2    0    0  0.00000000000E+00  0.00000000000E+00 -0.15052806360E+04  0.28363978105E+04  0.24040138823E+04 0.  0.
        2    1    3    3  502    0  0.11848891358E+04  0.87257773024E+02 -0.53751570821E+03  0.13040319473E+04  0.25500000920E-02 0. -1.
       -2    1    3    3    0  502 -0.11848891358E+04 -0.87257773024E+02 -0.96776492777E+03  0.15323658631E+04  0.25500000920E-02 0.  1.
</event>
<event>
 5   0  0.2149417E-06  0.2389866E+04  0.7818609E-02  0.8443307E-01
       -1   -1    0    0    0  501  0.00000000000E+00  0.00000000000E+00  0.95966126076E+03  0.95966126078E+03  0.50400001928E-02 0. -1.
        1   -1    0    0  501    0  0.00000000000E+00  0.00000000000E+00 -0.14878838622E+04  0.14878838622E+04  0.50400001928E-02 0.  1.
    10030    2    1    2    0    0  0.00000000000E+00  0.00000000000E+00 -0.52822260146E+03  0.24475451230E+04  0.23898656892E+04 0.  0.
        5    1    3    3  502    0  0.59420070612E+03  0.86846958312E+03 -0.84392777425E+03  0.13489069924E+04  0.46999998093E+01 0.  1.
       -5    1    3    3    0  502 -0.59420070612E+03 -0.86846958312E+03  0.31570517278E+03  0.10986381306E+04  0.46999998093E+01 0. -1.
</event>
<event>
 5   0  0.2149029E-06  0.2400987E+04  0.7818609E-02  0.8439134E-01
       -1   -1    0    0    0  501  0.00000000000E+00  0.00000000000E+00  0.11009518143E+04  0.11009518143E+04  0.50400001928E-02 0.  1.
        1   -1    0    0  501    0  0.00000000000E+00  0.00000000000E+00 -0.13090354014E+04  0.13090354014E+04  0.50400001928E-02 0. -1.
    10030    2    1    2    0    0  0.00000000000E+00  0.00000000000E+00 -0.20808358715E+03  0.24099872157E+04  0.24009872138E+04 0.  0.
        4    1    3    3  502    0 -0.36552614860E+03 -0.91756858214E+03 -0.78897919233E+03  0.12641326066E+04  0.12699999809E+01 0. -1.
       -4    1    3    3    0  502  0.36552614860E+03  0.91756858214E+03  0.58089560518E+03  0.11458546091E+04  0.12699999809E+01 0.  1.
</event>
<event>
 5   0  0.2215700E-06  0.2474683E+04  0.7818609E-02  0.8412061E-01
        1   -1    0    0  501    0  0.00000000000E+00  0.00000000000E+00  0.93038071537E+03  0.93038071538E+03  0.50400001928E-02 0.  1.
       -1   -1    0    0    0  501  0.00000000000E+00  0.00000000000E+00 -0.16455781036E+04  0.16455781036E+04  0.50400001928E-02 0. -1.
    10030    2    1    2    0    0  0.00000000000E+00  0.00000000000E+00 -0.71519738819E+03  0.25759588189E+04  0.24746831177E+04 0.  0.
        3    1    3    3  502    0 -0.56984612738E+02 -0.42833533037E+03 -0.15644860253E+04  0.16230634414E+04  0.10100000352E+00 0. -1.
       -3    1    3    3    0  502  0.56984612738E+02  0.42833533037E+03  0.84928863706E+03  0.95289537756E+03  0.10100000352E+00 0.  1.
</event>
<event>
 5   0  0.2149417E-06  0.2397062E+04  0.7818609E-02  0.8440604E-01
        1   -1    0    0  501    0  0.00000000000E+00  0.00000000000E+00  0.22268359543E+04  0.22268359543E+04  0.50400001928E-02 0. -1.
       -1   -1    0    0    0  501  0.00000000000E+00  0.00000000000E+00 -0.64507525608E+03  0.64507525610E+03  0.50400001928E-02 0.  1.
    10030    2    1    2    0    0  0.00000000000E+00  0.00000000000E+00  0.15817606983E+04  0.28719112104E+04  0.23970621799E+04 0.  0.
        5    1    3    3  502    0 -0.55688642148E+03  0.38772007928E+03 -0.39275466903E+03  0.78404570425E+03  0.46999998093E+01 0.  1.
       -5    1    3    3    0  502  0.55688642148E+03 -0.38772007928E+03  0.19745153673E+04  0.20878655062E+04  0.46999998093E+01 0. -1.
</event>
<event>
 5   0  0.5268358E-06  0.2389542E+04  0.7818609E-02  0.8443429E-01
        2   -1    0    0  501    0  0.00000000000E+00  0.00000000000E+00  0.13612475691E+04  0.13612475691E+04  0.25500000920E-02 0. -1.
       -2   -1    0    0    0  501  0.00000000000E+00  0.00000000000E+00 -0.10486544268E+04  0.10486544268E+04  0.25500000920E-02 0.  1.
    10030    2    1    2    0    0  0.00000000000E+00  0.00000000000E+00  0.31259314232E+03  0.24099019959E+04  0.23895424578E+04 0.  0.
        2    1    3    3  502    0 -0.11162130175E+04  0.48576132477E+02 -0.27061513036E+03  0.11495754389E+04  0.25500000920E-02 0.  1.
       -2    1    3    3    0  502  0.11162130175E+04 -0.48576132477E+02  0.58320827268E+03  0.12603265570E+04  0.25500000920E-02 0. -1.
</event>
<event>
 5   0  0.5268358E-06  0.2399929E+04  0.7818609E-02  0.8439530E-01
       -2   -1    0    0    0  501  0.00000000000E+00  0.00000000000E+00  0.79458324113E+03  0.79458324113E+03  0.25500000920E-02 0.  1.
        2   -1    0    0  501    0  0.00000000000E+00  0.00000000000E+00 -0.18121641091E+04  0.18121641091E+04  0.25500000920E-02 0. -1.
    10030    2    1    2    0    0  0.00000000000E+00  0.00000000000E+00 -0.10175808680E+04  0.26067473502E+04  0.23999293584E+04 0.  0.
        2    1    3    3  502    0  0.36990158523E+03 -0.35995721508E+03 -0.16854356072E+04  0.17626938377E+04  0.25500000920E-02 0. -1.
       -2    1    3    3    0  502 -0.36990158523E+03  0.35995721508E+03  0.66785473918E+03  0.84405351258E+03  0.25500000920E-02 0.  1.
</event>
<event>
 5   0  0.2149029E-06  0.2402329E+04  0.7818609E-02  0.8438632E-01
       -1   -1    0    0    0  501  0.00000000000E+00  0.00000000000E+00  0.17761164777E+04  0.17761164777E+04  0.50400001928E-02 0. -1.
        1   -1    0    0  501    0  0.00000000000E+00  0.00000000000E+00 -0.81233179045E+03  0.81233179047E+03  0.50400001928E-02 0.  1.
    10030    2    1    2    0    0  0.00000000000E+00  0.00000000000E+00  0.96378468721E+03  0.25884482681E+04  0.24023287688E+04 0.  0.
        4    1    3    3  502    0 -0.49534772977E+02 -0.52876023097E+03  0.16427447086E+04  0.17264567374E+04  0.12699999809E+01 0. -1.
       -4    1    3    3    0  502  0.49534772977E+02  0.52876023097E+03 -0.67896002136E+03  0.86199153076E+03  0.12699999809E+01 0.  1.
</event>
<event>
 5   0  0.2215700E-06  0.2395981E+04  0.7818609E-02  0.8441010E-01
        1   -1    0    0  501    0  0.00000000000E+00  0.00000000000E+00  0.78586787351E+03  0.78586787352E+03  0.50400001928E-02 0. -1.
       -1   -1    0    0    0  501  0.00000000000E+00  0.00000000000E+00 -0.18262375616E+04  0.18262375616E+04  0.50400001928E-02 0.  1.
    10030    2    1    2    0    0  0.00000000000E+00  0.00000000000E+00 -0.10403696881E+04  0.26121054352E+04  0.23959811595E+04 0.  0.
        3    1    3    3  502    0  0.58434078756E+03 -0.16865813878E+03  0.60504058022E+03  0.85788917565E+03  0.10100000352E+00 0. -1.
       -3    1    3    3    0  502 -0.58434078756E+03  0.16865813878E+03 -0.16454102683E+04  0.17542162595E+04  0.10100000352E+00 0.  1.
</event>
<event>
 5   0  0.2297414E-06  0.2403667E+04  0.7818609E-02  0.8438132E-01
        1   -1    0    0  501    0  0.00000000000E+00  0.00000000000E+00  0.88229383287E+03  0.88229383289E+03  0.50400001928E-02 0. -1.
       -1   -1    0    0    0  501  0.00000000000E+00  0.00000000000E+00 -0.16371005291E+04  0.16371005291E+04  0.50400001928E-02 0.  1.
    10030    2    1    2    0    0  0.00000000000E+00  0.00000000000E+00 -0.75480669627E+03  0.25193943620E+04  0.24036669492E+04 0.  0.
        1    1    3    3  502    0  0.10565266273E+04  0.43602976299E+03  0.12012560907E+02  0.11430287705E+04  0.50400001928E-02 0. -1.
       -1    1    3    3    0  502 -0.10565266273E+04 -0.43602976299E+03 -0.76681925717E+03  0.13763655916E+04  0.50400001928E-02 0.  1.
</event>
<event>
 5   0  0.2149417E-06  0.2397309E+04  0.7818609E-02  0.8440512E-01
        1   -1    0    0  501    0  0.00000000000E+00  0.00000000000E+00  0.18259203917E+04  0.18259203917E+04  0.50400001928E-02 0. -1.
       -1   -1    0    0    0  501  0.00000000000E+00  0.00000000000E+00 -0.78687609490E+03  0.78687609492E+03  0.50400001928E-02 0.  1.
    10030    2    1    2    0    0  0.00000000000E+00  0.00000000000E+00  0.10390442968E+04  0.26127964866E+04  0.23973094147E+04 0.  0.
        5    1    3    3  502    0  0.75945393624E+02 -0.53995496729E+03  0.16829131184E+04  0.17690499494E+04  0.46999998093E+01 0. -1.
       -5    1    3    3    0  502 -0.75945393624E+02  0.53995496729E+03 -0.64386882162E+03  0.84374653716E+03  0.46999998093E+01 0.  1.
</event>
<event>
 5   0  0.5349036E-06  0.2404681E+04  0.7818609E-02  0.8437753E-01
        2   -1    0    0  501    0  0.00000000000E+00  0.00000000000E+00  0.18960554691E+04  0.18960554691E+04  0.25500000920E-02 0.  1.
       -2   -1    0    0    0  501  0.00000000000E+00  0.00000000000E+00 -0.76243666078E+03  0.76243666079E+03  0.25500000920E-02 0. -1.
    10030    2    1    2    0    0  0.00000000000E+00  0.00000000000E+00  0.11336188083E+04  0.26584921299E+04  0.24046806029E+04 0.  0.
        1    1    3    3  502    0 -0.78174610634E+03 -0.91342623314E+03  0.58024727393E+03  0.13349761635E+04  0.50400001928E-02 0. -1.
       -1    1    3    3    0  502  0.78174610634E+03  0.91342623314E+03  0.55337153435E+03  0.13235159664E+04  0.50400001928E-02 0.  1.
</event>
<event>
 5   0  0.5440503E-06  0.2404524E+04  0.7818609E-02  0.8437812E-01
        2   -1    0    0  501    0  0.00000000000E+00  0.00000000000E+00  0.12378506755E+04  0.12378506755E+04  0.25500000920E-02 0. -1.
       -2   -1    0    0    0  501  0.00000000000E+00  0.00000000000E+00 -0.11676963798E+04  0.11676963798E+04  0.25500000920E-02 0.  1.
    10030    2    1    2    0    0  0.00000000000E+00  0.00000000000E+00  0.70154295731E+02  0.24055470553E+04  0.24045238635E+04 0.  0.
        3    1    3    3  502    0  0.43738196274E+03 -0.27771472924E+03  0.11204375490E+04  0.12344264917E+04  0.10100000352E+00 0. -1.
       -3    1    3    3    0  502 -0.43738196274E+03  0.27771472924E+03 -0.10502832532E+04  0.11711205636E+04  0.10100000352E+00 0.  1.
</event>
<event>
 5   0  0.5349036E-06  0.2326048E+04  0.7818609E-02  0.8467721E-01
        2   -1    0    0  501    0  0.00000000000E+00  0.00000000000E+00  0.18213609561E+04  0.18213609561E+04  0.25500000920E-02 0. -1.
       -2   -1    0    0    0  501  0.00000000000E+00  0.00000000000E+00 -0.74264489343E+03  0.74264489344E+03  0.25500000920E-02 0.  1.
    10030    2    1    2    0    0  0.00000000000E+00  0.00000000000E+00  0.10787160626E+04  0.25640058495E+04  0.23260476462E+04 0.  0.
        1    1    3    3  502    0  0.24020168799E+03 -0.62526316328E+03 -0.50868294772E+03  0.84107622460E+03  0.50400001928E-02 0.  1.
       -1    1    3    3    0  502 -0.24020168799E+03  0.62526316328E+03  0.15873990104E+04  0.17229296249E+04  0.50400001928E-02 0. -1.
</event>
<event>
 5   0  0.5440503E-06  0.2396836E+04  0.7818609E-02  0.8440689E-01
       -2   -1    0    0    0  501  0.00000000000E+00  0.00000000000E+00  0.68008663256E+03  0.68008663257E+03  0.25500000920E-02 0. -1.
        2   -1    0    0  501    0  0.00000000000E+00  0.00000000000E+00 -0.21117982791E+04  0.21117982791E+04  0.25500000920E-02 0.  1.
    10030    2    1    2    0    0  0.00000000000E+00  0.00000000000E+00 -0.14317116465E+04  0.27918849117E+04  0.23968360647E+04 0.  0.
        3    1    3    3  502    0  0.11600880753E+04  0.75455450559E+02 -0.37683908183E+03  0.12220906559E+04  0.10100000352E+00 0. -1.
       -3    1    3    3    0  502 -0.11600880753E+04 -0.75455450559E+02 -0.10548725647E+04  0.15697942558E+04  0.10100000352E+00 0.  1.
</event>
<event>
 5   0  0.5379778E-06  0.2399518E+04  0.7818609E-02  0.8439684E-01
       -2   -1    0    0    0  501  0.00000000000E+00  0.00000000000E+00  0.12299009786E+04  0.12299009786E+04  0.25500000920E-02 0. -1.
        2   -1    0    0  501    0  0.00000000000E+00  0.00000000000E+00 -0.11703559258E+04  0.11703559258E+04  0.25500000920E-02 0.  1.
    10030    2    1    2    0    0  0.00000000000E+00  0.00000000000E+00  0.59545052740E+02  0.24002569044E+04  0.23995182003E+04 0.  0.
        5    1    3    3  502    0 -0.88780291034E+01 -0.64411465556E+03  0.10422290209E+04  0.12252452533E+04  0.46999998093E+01 0. -1.
       -5    1    3    3    0  502  0.88780291034E+01  0.64411465556E+03 -0.98268396811E+03  0.11750116510E+04  0.46999998093E+01 0.  1.
</event>
<event>
 5   0  0.2254269E-06  0.2407056E+04  0.7818609E-02  0.8436867E-01
       -1   -1    0    0    0  501  0.00000000000E+00  0.00000000000E+00  0.89484211994E+03  0.89484211995E+03  0.50400001928E-02 0. -1.
        1   -1    0    0  501    0  0.00000000000E+00  0.00000000000E+00 -0.16186986531E+04  0.16186986531E+04  0.50400001928E-02 0.  1.
    10030    2    1    2    0    0  0.00000000000E+00  0.00000000000E+00 -0.72385653320E+03  0.25135407731E+04  0.24070560728E+04 0.  0.
        2    1    3    3  502    0  0.13915571479E+03 -0.59680216276E+03 -0.14435812974E+04  0.15682678651E+04  0.25500000920E-02 0.  1.
       -2    1    3    3    0  502 -0.13915571479E+03  0.59680216276E+03  0.71972476420E+03  0.94527290802E+03  0.25500000920E-02 0. -1.
</event>
<event>
 5   0  0.2215700E-06  0.2398649E+04  0.7818609E-02  0.8440010E-01
       -1   -1    0    0    0  501  0.00000000000E+00  0.00000000000E+00  0.13967075820E+04  0.13967075820E+04  0.50400001928E-02 0. -1.
        1   -1    0    0  501    0  0.00000000000E+00  0.00000000000E+00 -0.10298356261E+04  0.10298356261E+04  0.50400001928E-02 0.  1.
    10030    2    1    2    0    0  0.00000000000E+00  0.00000000000E+00  0.36687195592E+03  0.24265432081E+04  0.23986489757E+04 0.  0.
        3    1    3    3  502    0  0.96376615565E+01  0.74526438086E+03  0.11339730433E+04  0.13569844344E+04  0.10100000352E+00 0. -1.
       -3    1    3    3    0  502 -0.96376615565E+01 -0.74526438086E+03 -0.76710108741E+03  0.10695587737E+04  0.10100000352E+00 0.  1.
</event>
<event>
 5   0  0.5349036E-06  0.2404617E+04  0.7818609E-02  0.8437777E-01
        2   -1    0    0  501    0  0.00000000000E+00  0.00000000000E+00  0.18673350059E+04  0.18673350059E+04  0.25500000920E-02 0. -1.
       -2   -1    0    0    0  501  0.00000000000E+00  0.00000000000E+00 -0.77412245055E+03  0.77412245055E+03  0.25500000920E-02 0.  1.
    10030    2    1    2    0    0  0.00000000000E+00  0.00000000000E+00  0.10932125554E+04  0.26414574565E+04  0.24046171843E+04 0.  0.
        1    1    3    3  502    0  0.46140466664E+03  0.25413117477E+03  0.17338282580E+04  0.18120809443E+04  0.50400001928E-02 0. -1.
       -1    1    3    3    0  502 -0.46140466664E+03 -0.25413117477E+03 -0.64061570266E+03  0.82937651215E+03  0.50400001928E-02 0.  1.
</event>
<event>
 5   0  0.2215700E-06  0.2404357E+04  0.7818609E-02  0.8437874E-01
        1   -1    0    0  501    0  0.00000000000E+00  0.00000000000E+00  0.14357819788E+04  0.14357819788E+04  0.50400001928E-02 0.  1.
       -1   -1    0    0    0  501  0.00000000000E+00  0.00000000000E+00 -0.10065826971E+04  0.10065826971E+04  0.50400001928E-02 0. -1.
    10030    2    1    2    0    0  0.00000000000E+00  0.00000000000E+00  0.42919928175E+03  0.24423646759E+04  0.24043571255E+04 0.  0.
        3    1    3    3  502    0 -0.76257203727E+02 -0.28125743914E+03  0.13993609422E+04  0.14293816722E+04  0.10100000352E+00 0.  1.
       -3    1    3    3    0  502  0.76257203727E+02  0.28125743914E+03 -0.97016166044E+03  0.10129830037E+04  0.10100000352E+00 0. -1.
</event>
<event>
 5   0  0.2254269E-06  0.2405083E+04  0.7818609E-02  0.8437603E-01
        1   -1    0    0  501    0  0.00000000000E+00  0.00000000000E+00  0.16800215593E+04  0.16800215593E+04  0.50400001928E-02 0.  1.
       -1   -1    0    0    0  501  0.00000000000E+00  0.00000000000E+00 -0.86076646720E+03  0.86076646722E+03  0.50400001928E-02 0. -1.
    10030    2    1    2    0    0  0.00000000000E+00  0.00000000000E+00  0.81925509205E+03  0.25407880265E+04  0.24050831357E+04 0.  0.
        2    1    3    3  502    0 -0.75460093168E+03 -0.58247346157E+03 -0.36481737354E+03  0.10206809568E+04  0.25500000920E-02 0. -1.
       -2    1    3    3    0  502  0.75460093168E+03  0.58247346157E+03  0.11840724656E+04  0.15201070697E+04  0.25500000920E-02 0.  1.
</event>
<event>
 5   0  0.2149029E-06  0.2400187E+04  0.7818609E-02  0.8439433E-01
       -1   -1    0    0    0  501  0.00000000000E+00  0.00000000000E+00  0.20468644804E+04  0.20468644804E+04  0.50400001928E-02 0. -1.
        1   -1    0    0  501    0  0.00000000000E+00  0.00000000000E+00 -0.70362481159E+03  0.70362481161E+03  0.50400001928E-02 0.  1.
    10030    2    1    2    0    0  0.00000000000E+00  0.00000000000E+00  0.13432396688E+04  0.27504892920E+04  0.24001871880E+04 0.  0.
        4    1    3    3  502    0  0.33118681208E+03  0.10696349254E+04  0.17684175693E+03  0.11336128960E+04  0.12699999809E+01 0. -1.
       -4    1    3    3    0  502 -0.33118681208E+03 -0.10696349254E+04  0.11663979119E+04  0.16168763960E+04  0.12699999809E+01 0.  1.
</event>
<event>
 5   0  0.5371843E-06  0.2402800E+04  0.7818609E-02  0.8438456E-01
        2   -1    0    0  501    0  0.00000000000E+00  0.00000000000E+00  0.19018116886E+04  0.19018116886E+04  0.25500000920E-02 0.  1.
       -2   -1    0    0    0  501  0.00000000000E+00  0.00000000000E+00 -0.75894043804E+03  0.75894043804E+03  0.25500000920E-02 0. -1.
    10030    2    1    2    0    0  0.00000000000E+00  0.00000000000E+00  0.11428712506E+04  0.26607521267E+04  0.24027998635E+04 0.  0.
        4    1    3    3  502    0 -0.78062191872E+03 -0.30445516710E+03 -0.38198126049E+03  0.92085548542E+03  0.12699999809E+01 0. -1.
       -4    1    3    3    0  502  0.78062191872E+03  0.30445516710E+03  0.15248525111E+04  0.17398966412E+04  0.12699999809E+01 0.  1.
</event>
<event>
 5   0  0.1796750E-06  0.2397153E+04  0.7818609E-02  0.8440570E-01
       -3   -1    0    0    0  501  0.00000000000E+00  0.00000000000E+00  0.12376251577E+04  0.12376251618E+04  0.10100000352E+00 0. -1.
        3   -1    0    0  501    0  0.00000000000E+00  0.00000000000E+00 -0.11607599745E+04  0.11607599789E+04  0.10100000352E+00 0.  1.
    10030    2    1    2    0    0  0.00000000000E+00  0.00000000000E+00  0.76865183124E+02  0.23983851407E+04  0.23971531087E+04 0.  0.
        2    1    3    3  502    0 -0.11881493914E+04 -0.97467529790E+02 -0.85674948426E+02  0.11952150821E+04  0.25500000920E-02 0.  1.
       -2    1    3    3    0  502  0.11881493914E+04  0.97467529790E+02  0.16254013155E+03  0.12031700586E+04  0.25500000920E-02 0. -1.
</event>
<event>
 5   0  0.2149417E-06  0.2399887E+04  0.7818609E-02  0.8439546E-01
       -1   -1    0    0    0  501  0.00000000000E+00  0.00000000000E+00  0.11146397041E+04  0.11146397042E+04  0.50400001928E-02 0. -1.
        1   -1    0    0  501    0  0.00000000000E+00  0.00000000000E+00 -0.12917751761E+04  0.12917751761E+04  0.50400001928E-02 0.  1.
    10030    2    1    2    0    0  0.00000000000E+00  0.00000000000E+00 -0.17713547196E+03  0.24064148803E+04  0.23998865808E+04 0.  0.
        5    1    3    3  502    0  0.39116589530E+03  0.84539978004E+03 -0.84701824629E+03  0.12590367530E+04  0.46999998093E+01 0. -1.
       -5    1    3    3    0  502 -0.39116589530E+03 -0.84539978004E+03  0.66988277432E+03  0.11473781273E+04  0.46999998093E+01 0.  1.
</event>
<event>
 5   0  0.2149417E-06  0.2416076E+04  0.7818609E-02  0.8433509E-01
       -1   -1    0    0    0  501  0.00000000000E+00  0.00000000000E+00  0.64800163841E+03  0.64800163843E+03  0.50400001928E-02 0. -1.
        1   -1    0    0  501    0  0.00000000000E+00  0.00000000000E+00 -0.22520867221E+04  0.22520867221E+04  0.50400001928E-02 0.  1.
    10030    2    1    2    0    0  0.00000000000E+00  0.00000000000E+00 -0.16040850837E+04  0.29000883605E+04  0.24160760632E+04 0.  0.
        5    1    3    3  502    0  0.57159398991E+02 -0.54156358917E+03 -0.20963830991E+04  0.21659645672E+04  0.46999998093E+01 0.  1.
       -5    1    3    3    0  502 -0.57159398991E+02  0.54156358917E+03  0.49229801541E+03  0.73412379337E+03  0.46999998093E+01 0. -1.
</event>
<event>
 5   0  0.5379778E-06  0.2398049E+04  0.7818609E-02  0.8440234E-01
        2   -1    0    0  501    0  0.00000000000E+00  0.00000000000E+00  0.15799031686E+04  0.15799031686E+04  0.25500000920E-02 0. -1.
       -2   -1    0    0    0  501  0.00000000000E+00  0.00000000000E+00 -0.90996710123E+03  0.90996710124E+03  0.25500000920E-02 0.  1.
    10030    2    1    2    0    0  0.00000000000E+00  0.00000000000E+00  0.66993606737E+03  0.24898702698E+04  0.23980491292E+04 0.  0.
        5    1    3    3  502    0 -0.44761137603E+03  0.90953966376E+03 -0.32987769752E+03  0.10660486524E+04  0.46999998093E+01 0.  1.
       -5    1    3    3    0  502  0.44761137603E+03 -0.90953966376E+03  0.99981376489E+03  0.14238216175E+04  0.46999998093E+01 0. -1.
</event>
<event>
 5   0  0.5440503E-06  0.2392475E+04  0.7818609E-02  0.8442326E-01
        2   -1    0    0  501    0  0.00000000000E+00  0.00000000000E+00  0.18011542384E+04  0.18011542384E+04  0.25500000920E-02 0. -1.
       -2   -1    0    0    0  501  0.00000000000E+00  0.00000000000E+00 -0.79448152611E+03  0.79448152612E+03  0.25500000920E-02 0.  1.
    10030    2    1    2    0    0  0.00000000000E+00  0.00000000000E+00  0.10066727123E+04  0.25956357646E+04  0.23924746754E+04 0.  0.
        3    1    3    3  502    0  0.11205088290E+04  0.39284541061E+03  0.34568259365E+03  0.12366745806E+04  0.10100000352E+00 0. -1.
       -3    1    3    3    0  502 -0.11205088290E+04 -0.39284541061E+03  0.66099011867E+03  0.13589611840E+04  0.10100000352E+00 0.  1.
</event>
<event>
 5   0  0.2254269E-06  0.2400270E+04  0.7818609E-02  0.8439402E-01
        1   -1    0    0  501    0  0.00000000000E+00  0.00000000000E+00  0.20211973879E+04  0.20211973879E+04  0.50400001928E-02 0.  1.
       -1   -1    0    0    0  501  0.00000000000E+00  0.00000000000E+00 -0.71260941255E+03  0.71260941257E+03  0.50400001928E-02 0. -1.
    10030    2    1    2    0    0  0.00000000000E+00  0.00000000000E+00  0.13085879754E+04  0.27338068005E+04  0.24002702209E+04 0.  0.
        2    1    3    3  502    0  0.88772562720E+03  0.68398300252E+03  0.16515863402E+03  0.11327695756E+04  0.25500000920E-02 0.  1.
       -2    1    3    3    0  502 -0.88772562720E+03 -0.68398300252E+03  0.11434293413E+04  0.16010372249E+04  0.25500000920E-02 0. -1.
</event>
<event>
 5   0  0.2254269E-06  0.2396763E+04  0.7818609E-02  0.8440716E-01
       -1   -1    0    0    0  501  0.00000000000E+00  0.00000000000E+00  0.12294962387E+04  0.12294962387E+04  0.50400001928E-02 0.  1.
        1   -1    0    0  501    0  0.00000000000E+00  0.00000000000E+00 -0.11680540037E+04  0.11680540038E+04  0.50400001928E-02 0. -1.
    10030    2    1    2    0    0  0.00000000000E+00  0.00000000000E+00  0.61442234960E+02  0.23975502425E+04  0.23967628203E+04 0.  0.
        2    1    3    3  502    0 -0.39262807381E+03  0.79743880159E+03  0.83475913275E+03  0.12193802755E+04  0.25500000920E-02 0.  1.
       -2    1    3    3    0  502  0.39262807381E+03 -0.79743880159E+03 -0.77331689779E+03  0.11781699670E+04  0.25500000920E-02 0. -1.
</event>
<event>
 5   0  0.5349036E-06  0.2402873E+04  0.7818609E-02  0.8438429E-01
        2   -1    0    0  501    0  0.00000000000E+00  0.00000000000E+00  0.13614369451E+04  0.13614369451E+04  0.25500000920E-02 0.  1.
       -2   -1    0    0    0  501  0.00000000000E+00  0.00000000000E+00 -0.10602396558E+04  0.10602396558E+04  0.25500000920E-02 0. -1.
    10030    2    1    2    0    0  0.00000000000E+00  0.00000000000E+00  0.30119728924E+03  0.24216766009E+04  0.24028728124E+04 0.  0.
        1    1    3    3  502    0  0.19898132262E+03 -0.51038556141E+03  0.12282476303E+04  0.13448714546E+04  0.50400001928E-02 0.  1.
       -1    1    3    3    0  502 -0.19898132262E+03  0.51038556141E+03 -0.92705034111E+03  0.10768051463E+04  0.50400001928E-02 0. -1.
</event>
<event>
 5   0  0.5349036E-06  0.2402066E+04  0.7818609E-02  0.8438730E-01
        2   -1    0    0  501    0  0.00000000000E+00  0.00000000000E+00  0.99033939928E+03  0.99033939928E+03  0.25500000920E-02 0.  1.
       -2   -1    0    0    0  501  0.00000000000E+00  0.00000000000E+00 -0.14565518090E+04  0.14565518090E+04  0.25500000920E-02 0. -1.
    10030    2    1    2    0    0  0.00000000000E+00  0.00000000000E+00 -0.46621240968E+03  0.24468912082E+04  0.24020663134E+04 0.  0.
        1    1    3    3  502    0  0.94959913457E+03  0.57967806165E+02 -0.97984922017E+03  0.13657244514E+04  0.50400001928E-02 0. -1.
       -1    1    3    3    0  502 -0.94959913457E+03 -0.57967806165E+02  0.51363681049E+03  0.10811667568E+04  0.50400001928E-02 0.  1.
</event>
<event>
 5   0  0.5440503E-06  0.2403254E+04  0.7818609E-02  0.8438286E-01
        2   -1    0    0  501    0  0.00000000000E+00  0.00000000000E+00  0.19049826911E+04  0.19049826911E+04  0.25500000920E-02 0.  1.
       -2   -1    0    0    0  501  0.00000000000E+00  0.00000000000E+00 -0.75796362502E+03  0.75796362502E+03  0.25500000920E-02 0. -1.
    10030    2    1    2    0    0  0.00000000000E+00  0.00000000000E+00  0.11470190661E+04  0.26629463161E+04  0.24032541157E+04 0.  0.
        3    1    3    3  502    0  0.85898732056E+02 -0.43103916217E+03  0.18127204579E+04  0.18652422953E+04  0.10100000352E+00 0.  1.
       -3    1    3    3    0  502 -0.85898732056E+02  0.43103916217E+03 -0.66570139184E+03  0.79770402080E+03  0.10100000352E+00 0. -1.
</event>
<event>
 5   0  0.2149029E-06  0.2402211E+04  0.7818609E-02  0.8438676E-01
       -1   -1    0    0    0  501  0.00000000000E+00  0.00000000000E+00  0.96143629482E+03  0.96143629483E+03  0.50400001928E-02 0. -1.
        1   -1    0    0  501    0  0.00000000000E+00  0.00000000000E+00 -0.15005197413E+04  0.15005197413E+04  0.50400001928E-02 0.  1.
    10030    2    1    2    0    0  0.00000000000E+00  0.00000000000E+00 -0.53908344649E+03  0.24619560362E+04  0.24022107655E+04 0.  0.
        4    1    3    3  502    0 -0.10409347726E+04  0.19488058943E+03  0.31123455393E+03  0.11038080473E+04  0.12699999809E+01 0. -1.
       -4    1    3    3    0  502  0.10409347726E+04 -0.19488058943E+03 -0.85031800043E+03  0.13581479888E+04  0.12699999809E+01 0.  1.
</event>
<event>
 5   0  0.2149029E-06  0.2398998E+04  0.7818609E-02  0.8439879E-01
       -1   -1    0    0    0  501  0.00000000000E+00  0.00000000000E+00  0.98538919031E+03  0.98538919033E+03  0.50400001928E-02 0.  1.
        1   -1    0    0  501    0  0.00000000000E+00  0.00000000000E+00 -0.14601315000E+04  0.14601315000E+04  0.50400001928E-02 0. -1.
    10030    2    1    2    0    0  0.00000000000E+00  0.00000000000E+00 -0.47474230972E+03  0.24455206904E+04  0.23989979546E+04 0.  0.
        4    1    3    3  502    0 -0.91534021390E+02  0.11544642365E+04 -0.55588856969E+03  0.12845932685E+04  0.12699999809E+01 0. -1.
       -4    1    3    3    0  502  0.91534021390E+02 -0.11544642365E+04  0.81146259968E+02  0.11609274219E+04  0.12699999809E+01 0.  1.
</event>
<event>
 5   0  0.2297414E-06  0.2400939E+04  0.7818609E-02  0.8439152E-01
       -1   -1    0    0    0  501  0.00000000000E+00  0.00000000000E+00  0.85675325073E+03  0.85675325074E+03  0.50400001928E-02 0.  1.
        1   -1    0    0  501    0  0.00000000000E+00  0.00000000000E+00 -0.16820800001E+04  0.16820800001E+04  0.50400001928E-02 0. -1.
    10030    2    1    2    0    0  0.00000000000E+00  0.00000000000E+00 -0.82532674933E+03  0.25388332508E+04  0.24009394062E+04 0.  0.
        1    1    3    3  502    0 -0.11710331187E+04 -0.59425095713E+02 -0.68489361558E+03  0.13579135362E+04  0.50400001928E-02 0. -1.
       -1    1    3    3    0  502  0.11710331187E+04  0.59425095713E+02 -0.14043313375E+03  0.11809197146E+04  0.50400001928E-02 0.  1.
</event>
<event>
 5   0  0.5379778E-06  0.2416530E+04  0.7818609E-02  0.8433341E-01
       -2   -1    0    0    0  501  0.00000000000E+00  0.00000000000E+00  0.11695262798E+04  0.11695262798E+04  0.25500000920E-02 0.  1.
        2   -1    0    0  501    0  0.00000000000E+00  0.00000000000E+00 -0.12482867945E+04  0.12482867945E+04  0.25500000920E-02 0. -1.
    10030    2    1    2    0    0  0.00000000000E+00  0.00000000000E+00 -0.78760514680E+02  0.24178130743E+04  0.24165299178E+04 0.  0.
        5    1    3    3  502    0 -0.67887318775E+02 -0.58912425518E+03 -0.10926528968E+04  0.12432170039E+04  0.46999998093E+01 0. -1.
       -5    1    3    3    0  502  0.67887318775E+02  0.58912425518E+03  0.10138923821E+04  0.11745960704E+04  0.46999998093E+01 0.  1.
</event>
<event>
 5   0  0.2215700E-06  0.2420017E+04  0.7818609E-02  0.8432047E-01
       -1   -1    0    0    0  501  0.00000000000E+00  0.00000000000E+00  0.14918530502E+04  0.14918530502E+04  0.50400001928E-02 0.  1.
        1   -1    0    0  501    0  0.00000000000E+00  0.00000000000E+00 -0.98141069797E+03  0.98141069798E+03  0.50400001928E-02 0. -1.
    10030    2    1    2    0    0  0.00000000000E+00  0.00000000000E+00  0.51044235220E+03  0.24732637482E+04  0.24200169778E+04 0.  0.
        3    1    3    3  502    0  0.60444224299E+03  0.61957356556E+03 -0.60889925608E+03  0.10582911426E+04  0.10100000352E+00 0. -1.
       -3    1    3    3    0  502 -0.60444224299E+03 -0.61957356556E+03  0.11193416083E+04  0.14149726056E+04  0.10100000352E+00 0.  1.
</event>
<event>
 5   0  0.1796750E-06  0.2405995E+04  0.7818609E-02  0.8437263E-01
        4   -1    0    0  501    0  0.00000000000E+00  0.00000000000E+00  0.10337679339E+04  0.10337687140E+04  0.12699999809E+01 0.  1.
       -4   -1    0    0    0  501  0.00000000000E+00  0.00000000000E+00 -0.13999285950E+04  0.13999291711E+04  0.12699999809E+01 0. -1.
    10030    2    1    2    0    0  0.00000000000E+00  0.00000000000E+00 -0.36616066112E+03  0.24336978851E+04  0.24059949638E+04 0.  0.
        5    1    3    3  502    0  0.10847516360E+04 -0.20024303500E+03 -0.66860444013E+03  0.12898982023E+04  0.46999998093E+01 0.  1.
       -5    1    3    3    0  502 -0.10847516360E+04  0.20024303500E+03  0.30244377901E+03  0.11437996828E+04  0.46999998093E+01 0. -1.
</event>
<event>
 5   0  0.5349036E-06  0.2401714E+04  0.7818609E-02  0.8438862E-01
        2   -1    0    0  501    0  0.00000000000E+00  0.00000000000E+00  0.27330114986E+04  0.27330114986E+04  0.25500000920E-02 0.  1.
       -2   -1    0    0    0  501  0.00000000000E+00  0.00000000000E+00 -0.52764407135E+03  0.52764407135E+03  0.25500000920E-02 0. -1.
    10030    2    1    2    0    0  0.00000000000E+00  0.00000000000E+00  0.22053674273E+04  0.32606555700E+04  0.24017138166E+04 0.  0.
        1    1    3    3  502    0 -0.76191514824E+03 -0.91858217151E+03  0.92180990074E+03  0.15079925040E+04  0.50400001928E-02 0.  1.
       -1    1    3    3    0  502  0.76191514824E+03  0.91858217151E+03  0.12835575265E+04  0.17526630660E+04  0.50400001928E-02 0. -1.
</event>
<event>
 5   0  0.5371843E-06  0.2398332E+04  0.7818609E-02  0.8440128E-01
        2   -1    0    0  501    0  0.00000000000E+00  0.00000000000E+00  0.16897341839E+04  0.16897341840E+04  0.25500000920E-02 0. -1.
       -2   -1    0    0    0  501  0.00000000000E+00  0.00000000000E+00 -0.85102099139E+03  0.85102099140E+03  0.25500000920E-02 0.  1.
    10030    2    1    2    0    0  0.00000000000E+00  0.00000000000E+00  0.83871319256E+03  0.25407551753E+04  0.23983321375E+04 0.  0.
        4    1    3    3  502    0  0.48518949250E+03  0.40808633319E+03  0.14976693971E+04  0.16263328487E+04  0.12699999809E+01 0. -1.
       -4    1    3    3    0  502 -0.48518949250E+03 -0.40808633319E+03 -0.65895620455E+03  0.91442232660E+03  0.12699999809E+01 0.  1.
</event>
<event>
 5   0  0.5379778E-06  0.2398473E+04  0.7818609E-02  0.8440075E-01
       -2   -1    0    0    0  501  0.00000000000E+00  0.00000000000E+00  0.11149011521E+04  0.11149011521E+04  0.25500000920E-02 0. -1.
        2   -1    0    0  501    0  0.00000000000E+00  0.00000000000E+00 -0.12899516279E+04  0.12899516279E+04  0.25500000920E-02 0.  1.
    10030    2    1    2    0    0  0.00000000000E+00  0.00000000000E+00 -0.17505047584E+03  0.24048527800E+04  0.23984733111E+04 0.  0.
        5    1    3    3  502    0 -0.88892410005E+03 -0.62848891984E+03  0.41676588513E+03  0.11657187787E+04  0.46999998093E+01 0. -1.
       -5    1    3    3    0  502  0.88892410005E+03  0.62848891984E+03 -0.59181636098E+03  0.12391340013E+04  0.46999998093E+01 0.  1.
</event>
<event>
 5   0  0.2149029E-06  0.2401209E+04  0.7818609E-02  0.8439051E-01
        1   -1    0    0  501    0  0.00000000000E+00  0.00000000000E+00  0.12328638394E+04  0.12328638394E+04  0.50400001928E-02 0.  1.
       -1   -1    0    0    0  501  0.00000000000E+00  0.00000000000E+00 -0.11691896358E+04  0.11691896358E+04  0.50400001928E-02 0. -1.
    10030    2    1    2    0    0  0.00000000000E+00  0.00000000000E+00  0.63674203603E+02  0.24020534752E+04  0.24012093815E+04 0.  0.
        4    1    3    3  502    0  0.63222057973E+02 -0.28697385245E+03 -0.11326592998E+04  0.11701579906E+04  0.12699999809E+01 0. -1.
       -4    1    3    3    0  502 -0.63222057973E+02  0.28697385245E+03  0.11963335034E+04  0.12318954846E+04  0.12699999809E+01 0.  1.
</event>
<event>
 5   0  0.5349036E-06  0.2362790E+04  0.7818609E-02  0.8453567E-01
       -2   -1    0    0    0  501  0.00000000000E+00  0.00000000000E+00  0.10372335124E+04  0.10372335124E+04  0.25500000920E-02 0.  1.
        2   -1    0    0  501    0  0.00000000000E+00  0.00000000000E+00 -0.13455925225E+04  0.13455925225E+04  0.25500000920E-02 0. -1.
    10030    2    1    2    0    0  0.00000000000E+00  0.00000000000E+00 -0.30835901006E+03  0.23828260349E+04  0.23627895872E+04 0.  0.
        1    1    3    3  502    0  0.51968847602E+02 -0.11761893763E+04 -0.25284291383E+03  0.12041809454E+04  0.50400001928E-02 0. -1.
       -1    1    3    3    0  502 -0.51968847602E+02  0.11761893763E+04 -0.55516096222E+02  0.11786450895E+04  0.50400001928E-02 0.  1.
</event>
<event>
 5   0  0.2297414E-06  0.2395358E+04  0.7818609E-02  0.8441243E-01
       -1   -1    0    0    0  501  0.00000000000E+00  0.00000000000E+00  0.12955533198E+04  0.12955533198E+04  0.50400001928E-02 0.  1.
        1   -1    0    0  501    0  0.00000000000E+00  0.00000000000E+00 -0.11071990545E+04  0.11071990545E+04  0.50400001928E-02 0. -1.
    10030    2    1    2    0    0  0.00000000000E+00  0.00000000000E+00  0.18835426525E+03  0.24027523743E+04  0.23953583538E+04 0.  0.
        1    1    3    3  502    0 -0.80900855907E+03  0.72079139832E+03  0.60604666385E+03  0.12415021737E+04  0.50400001928E-02 0.  1.
       -1    1    3    3    0  502  0.80900855907E+03 -0.72079139832E+03 -0.41769239860E+03  0.11612502006E+04  0.50400001928E-02 0. -1.
</event>
<event>
 5   0  0.2149029E-06  0.2395340E+04  0.7818609E-02  0.8441250E-01
       -1   -1    0    0    0  501  0.00000000000E+00  0.00000000000E+00  0.10703677447E+04  0.10703677447E+04  0.50400001928E-02 0.  1.
        1   -1    0    0  501    0  0.00000000000E+00  0.00000000000E+00 -0.13401129326E+04  0.13401129326E+04  0.50400001928E-02 0. -1.
    10030    2    1    2    0    0  0.00000000000E+00  0.00000000000E+00 -0.26974518796E+03  0.24104806773E+04  0.23953401907E+04 0.  0.
        4    1    3    3  502    0  0.10496175702E+04 -0.88008134384E+02 -0.70853686274E+03  0.12694363214E+04  0.12699999809E+01 0. -1.
       -4    1    3    3    0  502 -0.10496175702E+04  0.88008134384E+02  0.43879167478E+03  0.11410443559E+04  0.12699999809E+01 0.  1.
</event>
<event>
 5   0  0.2254269E-06  0.2397030E+04  0.7818609E-02  0.8440616E-01
        1   -1    0    0  501    0  0.00000000000E+00  0.00000000000E+00  0.10415296893E+04  0.10415296893E+04  0.50400001928E-02 0.  1.
       -1   -1    0    0    0  501  0.00000000000E+00  0.00000000000E+00 -0.13791623660E+04  0.13791623660E+04  0.50400001928E-02 0. -1.
    10030    2    1    2    0    0  0.00000000000E+00  0.00000000000E+00 -0.33763267675E+03  0.24206920553E+04  0.23970302882E+04 0.  0.
        2    1    3    3  502    0  0.48249892449E+03  0.39897266244E+03 -0.12008900444E+04  0.13542973441E+04  0.25500000920E-02 0. -1.
       -2    1    3    3    0  502 -0.48249892449E+03 -0.39897266244E+03  0.86325736760E+03  0.10663947113E+04  0.25500000920E-02 0.  1.
</event>
<event>
 5   0  0.2297414E-06  0.2398500E+04  0.7818609E-02  0.8440065E-01
       -1   -1    0    0    0  501  0.00000000000E+00  0.00000000000E+00  0.12626179006E+04  0.12626179006E+04  0.50400001928E-02 0.  1.
        1   -1    0    0  501    0  0.00000000000E+00  0.00000000000E+00 -0.11390621767E+04  0.11390621767E+04  0.50400001928E-02 0. -1.
    10030    2    1    2    0    0  0.00000000000E+00  0.00000000000E+00  0.12355572387E+03  0.24016800773E+04  0.23984997762E+04 0.  0.
        1    1    3    3  502    0 -0.43349244839E+03  0.79591109448E+03 -0.72463610633E+03  0.11603825489E+04  0.50400001928E-02 0. -1.
       -1    1    3    3    0  502  0.43349244839E+03 -0.79591109448E+03  0.84819183020E+03  0.12412975284E+04  0.50400001928E-02 0.  1.
</event>
<event>
 5   0  0.2149029E-06  0.2415920E+04  0.7818609E-02  0.8433567E-01
       -1   -1    0    0    0  501  0.00000000000E+00  0.00000000000E+00  0.11488082901E+04  0.11488082902E+04  0.50400001928E-02 0.  1.
        1   -1    0    0  501    0  0.00000000000E+00  0.00000000000E+00 -0.12701574213E+04  0.12701574213E+04  0.50400001928E-02 0. -1.
    10030    2    1    2    0    0  0.00000000000E+00  0.00000000000E+00 -0.12134913118E+03  0.24189657115E+04  0.24159200114E+04 0.  0.
        4    1    3    3  502    0  0.10602862352E+04  0.14247256394E+03  0.50097862130E+03  0.11813071251E+04  0.12699999809E+01 0.  1.
       -4    1    3    3    0  502 -0.10602862352E+04 -0.14247256394E+03 -0.62232775248E+03  0.12376585864E+04  0.12699999809E+01 0. -1.
</event>
<event>
 5   0  0.5371843E-06  0.2400956E+04  0.7818609E-02  0.8439146E-01
       -2   -1    0    0    0  501  0.00000000000E+00  0.00000000000E+00  0.69497876143E+03  0.69497876144E+03  0.25500000920E-02 0. -1.
        2   -1    0    0  501    0  0.00000000000E+00  0.00000000000E+00 -0.20736567791E+04  0.20736567791E+04  0.25500000920E-02 0.  1.
    10030    2    1    2    0    0  0.00000000000E+00  0.00000000000E+00 -0.13786780177E+04  0.27686355405E+04  0.24009559929E+04 0.  0.
        4    1    3    3  502    0 -0.60748863373E+03  0.27882515423E+03  0.46054329567E+03  0.81171894571E+03  0.12699999809E+01 0. -1.
       -4    1    3    3    0  502  0.60748863373E+03 -0.27882515423E+03 -0.18392213133E+04  0.19569165948E+04  0.12699999809E+01 0.  1.
</event>
<event>
 5   0  0.5371843E-06  0.2393483E+04  0.7818609E-02  0.8441947E-01
        2   -1    0    0  501    0  0.00000000000E+00  0.00000000000E+00  0.23402109358E+04  0.23402109358E+04  0.25500000920E-02 0. -1.
       -2   -1    0    0    0  501  0.00000000000E+00  0.00000000000E+00 -0.61199216934E+03  0.61199216934E+03  0.25500000920E-02 0.  1.
    10030    2    1    2    0    0  0.00000000000E+00  0.00000000000E+00  0.17282187665E+04  0.29522031052E+04  0.23934834592E+04 0.  0.
        4    1    3    3  502    0 -0.72582288886E+03 -0.67370060291E+03  0.16928976894E+04  0.19612739656E+04  0.12699999809E+01 0. -1.
       -4    1    3    3    0  502  0.72582288886E+03  0.67370060291E+03  0.35321077097E+02  0.99092913961E+03  0.12699999809E+01 0.  1.
</event>
<event>
 5   0  0.2149417E-06  0.2400000E+04  0.7818609E-02  0.8439504E-01
        1   -1    0    0  501    0  0.00000000000E+00  0.00000000000E+00  0.15042675366E+04  0.15042675367E+04  0.50400001928E-02 0.  1.
       -1   -1    0    0    0  501  0.00000000000E+00  0.00000000000E+00 -0.95727651665E+03  0.95727651666E+03  0.50400001928E-02 0. -1.
    10030    2    1    2    0    0  0.00000000000E+00  0.00000000000E+00  0.54699101999E+03  0.24615440533E+04  0.23999999897E+04 0.  0.
        5    1    3    3  502    0 -0.53627626610E+03  0.62898563550E+03  0.11657243182E+04  0.14290382918E+04  0.46999998093E+01 0.  1.
       -5    1    3    3    0  502  0.53627626610E+03 -0.62898563550E+03 -0.61873329824E+03  0.10325057615E+04  0.46999998093E+01 0. -1.
</event>
<event>
 5   0  0.5268358E-06  0.2396134E+04  0.7818609E-02  0.8440952E-01
       -2   -1    0    0    0  501  0.00000000000E+00  0.00000000000E+00  0.74237653743E+03  0.74237653743E+03  0.25500000920E-02 0. -1.
        2   -1    0    0  501    0  0.00000000000E+00  0.00000000000E+00 -0.19334722270E+04  0.19334722270E+04  0.25500000920E-02 0.  1.
    10030    2    1    2    0    0  0.00000000000E+00  0.00000000000E+00 -0.11910956895E+04  0.26758487644E+04  0.23961339003E+04 0.  0.
        2    1    3    3  502    0 -0.15822267654E+03 -0.88398372968E+03  0.29006158737E+03  0.94371466778E+03  0.25500000920E-02 0. -1.
       -2    1    3    3    0  502  0.15822267654E+03  0.88398372968E+03 -0.14811572769E+04  0.17321340966E+04  0.25500000920E-02 0.  1.
</event>
<event>
 5   0  0.2149417E-06  0.2389716E+04  0.7818609E-02  0.8443364E-01
       -1   -1    0    0    0  501  0.00000000000E+00  0.00000000000E+00  0.11695066697E+04  0.11695066697E+04  0.50400001928E-02 0.  1.
        1   -1    0    0  501    0  0.00000000000E+00  0.00000000000E+00 -0.12207591359E+04  0.12207591359E+04  0.50400001928E-02 0. -1.
    10030    2    1    2    0    0  0.00000000000E+00  0.00000000000E+00 -0.51252466202E+02  0.23902658056E+04  0.23897162606E+04 0.  0.
        5    1    3    3  502    0 -0.11485849064E+04 -0.32750761424E+03 -0.59624295780E+02  0.11958618947E+04  0.46999998093E+01 0.  1.
       -5    1    3    3    0  502  0.11485849064E+04  0.32750761424E+03  0.83718295782E+01  0.11944039108E+04  0.46999998093E+01 0. -1.
</event>
<event>
 5   0  0.5349036E-06  0.2399592E+04  0.7818609E-02  0.8439656E-01
        2   -1    0    0  501    0  0.00000000000E+00  0.00000000000E+00  0.10195388693E+04  0.10195388693E+04  0.25500000920E-02 0. -1.
       -2   -1    0    0    0  501  0.00000000000E+00  0.00000000000E+00 -0.14119229274E+04  0.14119229274E+04  0.25500000920E-02 0.  1.
    10030    2    1    2    0    0  0.00000000000E+00  0.00000000000E+00 -0.39238405810E+03  0.24314617968E+04  0.23995918862E+04 0.  0.
        1    1    3    3  502    0 -0.60385012093E+03 -0.10330059235E+04 -0.28553390824E+03  0.12301486981E+04  0.50400001928E-02 0.  1.
       -1    1    3    3    0  502  0.60385012093E+03  0.10330059235E+04 -0.10685014986E+03  0.12013130987E+04  0.50400001928E-02 0. -1.
</event>
<event>
 5   0  0.5371843E-06  0.2400056E+04  0.7818609E-02  0.8439483E-01
        2   -1    0    0  501    0  0.00000000000E+00  0.00000000000E+00  0.16745647760E+04  0.16745647760E+04  0.25500000920E-02 0.  1.
       -2   -1    0    0    0  501  0.00000000000E+00  0.00000000000E+00 -0.85996519477E+03  0.85996519477E+03  0.25500000920E-02 0. -1.
    10030    2    1    2    0    0  0.00000000000E+00  0.00000000000E+00  0.81459958120E+03  0.25345299707E+04  0.24000561858E+04 0.  0.
        4    1    3    3  502    0  0.11828605997E+03  0.26567919241E+03  0.16367869200E+04  0.16624229485E+04  0.12699999809E+01 0.  1.
       -4    1    3    3    0  502 -0.11828605997E+03 -0.26567919241E+03 -0.82218733881E+03  0.87210702225E+03  0.12699999809E+01 0. -1.
</event>
<event>
 5   0  0.2149417E-06  0.2406405E+04  0.7818609E-02  0.8437109E-01
        1   -1    0    0  501    0  0.00000000000E+00  0.00000000000E+00  0.15079178198E+04  0.15079178198E+04  0.50400001928E-02 0.  1.
       -1   -1    0    0    0  501  0.00000000000E+00  0.00000000000E+00 -0.96006314836E+03  0.96006314838E+03  0.50400001928E-02 0. -1.
    10030    2    1    2    0    0  0.00000000000E+00  0.00000000000E+00  0.54785467141E+03  0.24679809682E+04  0.24064050611E+04 0.  0.
        5    1    3    3  502    0 -0.79425131579E+03 -0.49862009905E+02  0.11994336558E+04  0.14394389731E+04  0.46999998093E+01 0.  1.
       -5    1    3    3    0  502  0.79425131579E+03  0.49862009905E+02 -0.65157898439E+03  0.10285419950E+04  0.46999998093E+01 0. -1.
</event>
<event>
 5   0  0.5371843E-06  0.2398085E+04  0.7818609E-02  0.8440221E-01
        2   -1    0    0  501    0  0.00000000000E+00  0.00000000000E+00  0.12729478827E+04  0.12729478827E+04  0.25500000920E-02 0.  1.
       -2   -1    0    0    0  501  0.00000000000E+00  0.00000000000E+00 -0.11294282071E+04  0.11294282071E+04  0.25500000920E-02 0. -1.
    10030    2    1    2    0    0  0.00000000000E+00  0.00000000000E+00  0.14351967556E+03  0.24023760898E+04  0.23980852736E+04 0.  0.
        4    1    3    3  502    0  0.95709048227E+03 -0.43313622155E+03 -0.50726435331E+03  0.11665967233E+04  0.12699999809E+01 0. -1.
       -4    1    3    3    0  502 -0.95709048227E+03  0.43313622155E+03  0.65078402887E+03  0.12357793666E+04  0.12699999809E+01 0.  1.
</event>
<event>
 5   0  0.5379778E-06  0.2400232E+04  0.7818609E-02  0.8439417E-01
        2   -1    0    0  501    0  0.00000000000E+00  0.00000000000E+00  0.11793240707E+04  0.11793240707E+04  0.25500000920E-02 0. -1.
       -2   -1    0    0    0  501  0.00000000000E+00  0.00000000000E+00 -0.12212745863E+04  0.12212745863E+04  0.25500000920E-02 0.  1.
    10030    2    1    2    0    0  0.00000000000E+00  0.00000000000E+00 -0.41950515609E+02  0.24005986570E+04  0.24002320859E+04 0.  0.
        5    1    3    3  502    0  0.11809803553E+04 -0.66034711211E+01 -0.23431095410E+03  0.12040273746E+04  0.46999998093E+01 0.  1.
       -5    1    3    3    0  502 -0.11809803553E+04  0.66034711211E+01  0.19236043849E+03  0.11965712824E+04  0.46999998093E+01 0. -1.
</event>
<event>
 5   0  0.5349036E-06  0.2404581E+04  0.7818609E-02  0.8437790E-01
        2   -1    0    0  501    0  0.00000000000E+00  0.00000000000E+00  0.26620602236E+04  0.26620602236E+04  0.25500000920E-02 0.  1.
       -2   -1    0    0    0  501  0.00000000000E+00  0.00000000000E+00 -0.54300144518E+03  0.54300144519E+03  0.25500000920E-02 0. -1.
    10030    2    1    2    0    0  0.00000000000E+00  0.00000000000E+00  0.21190587784E+04  0.32050616688E+04  0.24045810850E+04 0.  0.
        1    1    3    3  502    0 -0.30147343845E+03  0.10717529729E+04  0.45461991451E+03  0.12025888473E+04  0.50400001928E-02 0. -1.
       -1    1    3    3    0  502  0.30147343845E+03 -0.10717529729E+04  0.16644388639E+04  0.20024728215E+04  0.50400001928E-02 0.  1.
</event>
<event>
 5   0  0.2149029E-06  0.2426879E+04  0.7818609E-02  0.8429508E-01
       -1   -1    0    0    0  501  0.00000000000E+00  0.00000000000E+00  0.14142363410E+04  0.14142363410E+04  0.50400001928E-02 0.  1.
        1   -1    0    0  501    0  0.00000000000E+00  0.00000000000E+00 -0.10411526689E+04  0.10411526689E+04  0.50400001928E-02 0. -1.
    10030    2    1    2    0    0  0.00000000000E+00  0.00000000000E+00  0.37308367209E+03  0.24553890099E+04  0.24268794291E+04 0.  0.
        4    1    3    3  502    0 -0.11679366926E+04 -0.32666258697E+03  0.14544739651E+03  0.12214504172E+04  0.12699999809E+01 0. -1.
       -4    1    3    3    0  502  0.11679366926E+04  0.32666258697E+03  0.22763627558E+03  0.12339385927E+04  0.12699999809E+01 0.  1.
</event>
<event>
 5   0  0.5349036E-06  0.2397811E+04  0.7818609E-02  0.8440324E-01
       -2   -1    0    0    0  501  0.00000000000E+00  0.00000000000E+00  0.13720536046E+04  0.13720536046E+04  0.25500000920E-02 0.  1.
        2   -1    0    0  501    0  0.00000000000E+00  0.00000000000E+00 -0.10476078617E+04  0.10476078617E+04  0.25500000920E-02 0. -1.
    10030    2    1    2    0    0  0.00000000000E+00  0.00000000000E+00  0.32444574292E+03  0.24196614663E+04  0.23978107872E+04 0.  0.
        1    1    3    3  502    0  0.50606896594E+03  0.42601861996E+03  0.11712228487E+04  0.13451247616E+04  0.50400001928E-02 0.  1.
       -1    1    3    3    0  502 -0.50606896594E+03 -0.42601861996E+03 -0.84677710577E+03  0.10745367047E+04  0.50400001928E-02 0. -1.
</event>
<event>
 5   0  0.2149029E-06  0.2401498E+04  0.7818609E-02  0.8438943E-01
        1   -1    0    0  501    0  0.00000000000E+00  0.00000000000E+00  0.19912607768E+04  0.19912607768E+04  0.50400001928E-02 0.  1.
       -1   -1    0    0    0  501  0.00000000000E+00  0.00000000000E+00 -0.72406289999E+03  0.72406290000E+03  0.50400001928E-02 0. -1.
    10030    2    1    2    0    0  0.00000000000E+00  0.00000000000E+00  0.12671978768E+04  0.27153236768E+04  0.24014979098E+04 0.  0.
        4    1    3    3  502    0 -0.44017067593E+03 -0.28777482119E+03  0.18541208215E+04  0.19272597659E+04  0.12699999809E+01 0.  1.
       -4    1    3    3    0  502  0.44017067593E+03  0.28777482119E+03 -0.58692294473E+03  0.78806391086E+03  0.12699999809E+01 0. -1.
</event>
<event>
 5   0  0.5440503E-06  0.2401622E+04  0.7818609E-02  0.8438897E-01
        2   -1    0    0  501    0  0.00000000000E+00  0.00000000000E+00  0.81315711379E+03  0.81315711379E+03  0.25500000920E-02 0. -1.
       -2   -1    0    0    0  501  0.00000000000E+00  0.00000000000E+00 -0.17732697604E+04  0.17732697604E+04  0.25500000920E-02 0.  1.
    10030    2    1    2    0    0  0.00000000000E+00  0.00000000000E+00 -0.96011264662E+03  0.25864268742E+04  0.24016218856E+04 0.  0.
        3    1    3    3  502    0 -0.54182038648E+03 -0.96261461266E+03 -0.98719654719E+03  0.14814699648E+04  0.10100000352E+00 0. -1.
       -3    1    3    3    0  502  0.54182038648E+03  0.96261461266E+03  0.27083900564E+02  0.11049569094E+04  0.10100000352E+00 0.  1.
</event>
<event>
 5   0  0.2149029E-06  0.2456330E+04  0.7818609E-02  0.8418710E-01
       -1   -1    0    0    0  501  0.00000000000E+00  0.00000000000E+00  0.16124556735E+04  0.16124556735E+04  0.50400001928E-02 0. -1.
        1   -1    0    0  501    0  0.00000000000E+00  0.00000000000E+00 -0.93546093864E+03  0.93546093865E+03  0.50400001928E-02 0.  1.
    10030    2    1    2    0    0  0.00000000000E+00  0.00000000000E+00  0.67699473482E+03  0.25479166121E+04  0.24563300249E+04 0.  0.
        4    1    3    3  502    0 -0.98380941644E+03 -0.21508237459E+03 -0.39074216204E+03  0.10801955591E+04  0.12699999809E+01 0.  1.
       -4    1    3    3    0  502  0.98380941644E+03  0.21508237459E+03  0.10677368969E+04  0.14677210531E+04  0.12699999809E+01 0. -1.
</event>
<event>
 5   0  0.2297414E-06  0.2401484E+04  0.7818609E-02  0.8438948E-01
        1   -1    0    0  501    0  0.00000000000E+00  0.00000000000E+00  0.19656978476E+04  0.19656978476E+04  0.50400001928E-02 0. -1.
       -1   -1    0    0    0  501  0.00000000000E+00  0.00000000000E+00 -0.73347043267E+03  0.73347043269E+03  0.50400001928E-02 0.  1.
    10030    2    1    2    0    0  0.00000000000E+00  0.00000000000E+00  0.12322274149E+04  0.26991682803E+04  0.24014839169E+04 0.  0.
        1    1    3    3  502    0  0.84986332440E+03 -0.22289375090E+02  0.15691727084E+04  0.17846757339E+04  0.50400001928E-02 0. -1.
       -1    1    3    3    0  502 -0.84986332440E+03  0.22289375090E+02 -0.33694529354E+03  0.91449254631E+03  0.50400001928E-02 0.  1.
</event>
<event>
 5   0  0.5440503E-06  0.2397915E+04  0.7818609E-02  0.8440285E-01
        2   -1    0    0  501    0  0.00000000000E+00  0.00000000000E+00  0.13648441559E+04  0.13648441559E+04  0.25500000920E-02 0.  1.
       -2   -1    0    0    0  501  0.00000000000E+00  0.00000000000E+00 -0.10532332052E+04  0.10532332052E+04  0.25500000920E-02 0. -1.
    10030    2    1    2    0    0  0.00000000000E+00  0.00000000000E+00  0.31161095072E+03  0.24180773610E+04  0.23979150818E+04 0.  0.
        3    1    3    3  502    0  0.85827669693E+03 -0.33492097000E+03 -0.61790605353E+03  0.11093326128E+04  0.10100000352E+00 0. -1.
       -3    1    3    3    0  502 -0.85827669693E+03  0.33492097000E+03  0.92951700425E+03  0.13087447482E+04  0.10100000352E+00 0.  1.
</event>
<event>
 5   0  0.5371843E-06  0.2411447E+04  0.7818609E-02  0.8435230E-01
        2   -1    0    0  501    0  0.00000000000E+00  0.00000000000E+00  0.22852606993E+04  0.22852606993E+04  0.25500000920E-02 0. -1.
       -2   -1    0    0    0  501  0.00000000000E+00  0.00000000000E+00 -0.63615033562E+03  0.63615033563E+03  0.25500000920E-02 0.  1.
    10030    2    1    2    0    0  0.00000000000E+00  0.00000000000E+00  0.16491103637E+04  0.29214110350E+04  0.24114471679E+04 0.  0.
        4    1    3    3  502    0 -0.43401379683E+03 -0.75580032635E+03 -0.18480570138E+03  0.89093033920E+03  0.12699999809E+01 0.  1.
       -4    1    3    3    0  502  0.43401379683E+03  0.75580032635E+03  0.18339160651E+04  0.20304806958E+04  0.12699999809E+01 0. -1.
</event>
<event>
 5   0  0.1796750E-06  0.2399492E+04  0.7818609E-02  0.8439694E-01
       -3   -1    0    0    0  501  0.00000000000E+00  0.00000000000E+00  0.60338507449E+03  0.60338508294E+03  0.10100000352E+00 0. -1.
        3   -1    0    0  501    0  0.00000000000E+00  0.00000000000E+00 -0.23855247060E+04  0.23855247081E+04  0.10100000352E+00 0.  1.
    10030    2    1    2    0    0  0.00000000000E+00  0.00000000000E+00 -0.17821396315E+04  0.29889097910E+04  0.23994916280E+04 0.  0.
        2    1    3    3  502    0 -0.92488714450E+03  0.19829405151E+03 -0.18103621133E+04  0.20425835949E+04  0.25500000920E-02 0. -1.
       -2    1    3    3    0  502  0.92488714450E+03 -0.19829405151E+03  0.28222481868E+02  0.94632619609E+03  0.25500000920E-02 0.  1.
</event>
<event>
 5   0  0.5349036E-06  0.2401308E+04  0.7818609E-02  0.8439014E-01
       -2   -1    0    0    0  501  0.00000000000E+00  0.00000000000E+00  0.77939463151E+03  0.77939463151E+03  0.25500000920E-02 0. -1.
        2   -1    0    0  501    0  0.00000000000E+00  0.00000000000E+00 -0.18496017026E+04  0.18496017026E+04  0.25500000920E-02 0.  1.
    10030    2    1    2    0    0  0.00000000000E+00  0.00000000000E+00 -0.10702070711E+04  0.26289963341E+04  0.24013076749E+04 0.  0.
        1    1    3    3  502    0  0.75246437609E+03  0.59842100135E+03 -0.13225051985E+04  0.16350322114E+04  0.50400001928E-02 0.  1.
       -1    1    3    3    0  502 -0.75246437609E+03 -0.59842100135E+03  0.25229812742E+03  0.99396412273E+03  0.50400001928E-02 0. -1.
</event>
<event>
 5   0  0.5440503E-06  0.2397761E+04  0.7818609E-02  0.8440342E-01
       -2   -1    0    0    0  501  0.00000000000E+00  0.00000000000E+00  0.59772366244E+03  0.59772366244E+03  0.25500000920E-02 0. -1.
        2   -1    0    0  501    0  0.00000000000E+00  0.00000000000E+00 -0.24046472119E+04  0.24046472119E+04  0.25500000920E-02 0.  1.
    10030    2    1    2    0    0  0.00000000000E+00  0.00000000000E+00 -0.18069235494E+04  0.30023708743E+04  0.23977610710E+04 0.  0.
        3    1    3    3  502    0  0.20504521011E+03  0.14121251370E+03  0.56499745801E+03  0.61741934693E+03  0.10100000352E+00 0. -1.
       -3    1    3    3    0  502 -0.20504521011E+03 -0.14121251370E+03 -0.23719210074E+04  0.23849515274E+04  0.10100000352E+00 0.  1.
</event>
<event>
 5   0  0.2297414E-06  0.2399801E+04  0.7818609E-02  0.8439578E-01
       -1   -1    0    0    0  501  0.00000000000E+00  0.00000000000E+00  0.10140455226E+04  0.10140455226E+04  0.50400001928E-02 0. -1.
        1   -1    0    0  501    0  0.00000000000E+00  0.00000000000E+00 -0.14198185420E+04  0.14198185420E+04  0.50400001928E-02 0.  1.
    10030    2    1    2    0    0  0.00000000000E+00  0.00000000000E+00 -0.40577301938E+03  0.24338640647E+04  0.23998005213E+04 0.  0.
        1    1    3    3  502    0 -0.20133936314E+03  0.12361232782E+03  0.99022295466E+03  0.10180172134E+04  0.50400001928E-02 0. -1.
       -1    1    3    3    0  502  0.20133936314E+03 -0.12361232782E+03 -0.13959959740E+04  0.14158468513E+04  0.50400001928E-02 0.  1.
</event>
<event>
 5   0  0.2297414E-06  0.2402353E+04  0.7818609E-02  0.8438623E-01
       -1   -1    0    0    0  501  0.00000000000E+00  0.00000000000E+00  0.11685616691E+04  0.11685616691E+04  0.50400001928E-02 0. -1.
        1   -1    0    0  501    0  0.00000000000E+00  0.00000000000E+00 -0.12347018300E+04  0.12347018300E+04  0.50400001928E-02 0.  1.
    10030    2    1    2    0    0  0.00000000000E+00  0.00000000000E+00 -0.66140160883E+02  0.24032634991E+04  0.24023532058E+04 0.  0.
        1    1    3    3  502    0 -0.49237936600E+03 -0.10837756310E+04  0.12767114814E+03  0.11972079938E+04  0.50400001928E-02 0.  1.
       -1    1    3    3    0  502  0.49237936600E+03  0.10837756310E+04 -0.19381130902E+03  0.12060555053E+04  0.50400001928E-02 0. -1.
</event>
<event>
 5   0  0.2215700E-06  0.2408839E+04  0.7818609E-02  0.8436202E-01
        1   -1    0    0  501    0  0.00000000000E+00  0.00000000000E+00  0.12875954991E+04  0.12875954991E+04  0.50400001928E-02 0. -1.
       -1   -1    0    0    0  501  0.00000000000E+00  0.00000000000E+00 -0.11266162540E+04  0.11266162540E+04  0.50400001928E-02 0.  1.
    10030    2    1    2    0    0  0.00000000000E+00  0.00000000000E+00  0.16097924514E+03  0.24142117531E+04  0.24088387392E+04 0.  0.
        3    1    3    3  502    0  0.40165013636E+03 -0.58460423650E+03 -0.89509883330E+03  0.11420537977E+04  0.10100000352E+00 0.  1.
       -3    1    3    3    0  502 -0.40165013636E+03  0.58460423650E+03  0.10560780784E+04  0.12721579553E+04  0.10100000352E+00 0. -1.
</event>
<event>
 5   0  0.2149417E-06  0.2392145E+04  0.7818609E-02  0.8442450E-01
       -1   -1    0    0    0  501  0.00000000000E+00  0.00000000000E+00  0.15132530098E+04  0.15132530098E+04  0.50400001928E-02 0. -1.
        1   -1    0    0  501    0  0.00000000000E+00  0.00000000000E+00 -0.94537344616E+03  0.94537344617E+03  0.50400001928E-02 0.  1.
    10030    2    1    2    0    0  0.00000000000E+00  0.00000000000E+00  0.56787956363E+03  0.24586264560E+04  0.23921448224E+04 0.  0.
        5    1    3    3  502    0  0.11990463603E+03 -0.32588212887E+03  0.14602969716E+04  0.15010215251E+04  0.46999998093E+01 0. -1.
       -5    1    3    3    0  502 -0.11990463603E+03  0.32588212887E+03 -0.89241740793E+03  0.95760493087E+03  0.46999998093E+01 0.  1.
</event>
<event>
 5   0  0.2149417E-06  0.2401556E+04  0.7818609E-02  0.8438921E-01
        1   -1    0    0  501    0  0.00000000000E+00  0.00000000000E+00  0.12322574818E+04  0.12322574818E+04  0.50400001928E-02 0. -1.
       -1   -1    0    0    0  501  0.00000000000E+00  0.00000000000E+00 -0.11701031452E+04  0.11701031452E+04  0.50400001928E-02 0.  1.
    10030    2    1    2    0    0  0.00000000000E+00  0.00000000000E+00  0.62154336582E+02  0.24023606270E+04  0.24015564580E+04 0.  0.
        5    1    3    3  502    0 -0.18759189611E+03  0.97483712672E+03 -0.64468447059E+03  0.11836968783E+04  0.46999998093E+01 0.  1.
       -5    1    3    3    0  502  0.18759189611E+03 -0.97483712672E+03  0.70683880717E+03  0.12186637487E+04  0.46999998093E+01 0. -1.
</event>
<event>
 5   0  0.5371843E-06  0.2393741E+04  0.7818609E-02  0.8441851E-01
       -2   -1    0    0    0  501  0.00000000000E+00  0.00000000000E+00  0.16802810584E+04  0.16802810584E+04  0.25500000920E-02 0.  1.
        2   -1    0    0  501    0  0.00000000000E+00  0.00000000000E+00 -0.85253542500E+03  0.85253542501E+03  0.25500000920E-02 0. -1.
    10030    2    1    2    0    0  0.00000000000E+00  0.00000000000E+00  0.82774563343E+03  0.25328164834E+04  0.23937411107E+04 0.  0.
        4    1    3    3  502    0 -0.53587591558E+03 -0.65152425938E+03  0.13122303094E+04  0.15599989920E+04  0.12699999809E+01 0.  1.
       -4    1    3    3    0  502  0.53587591558E+03  0.65152425938E+03 -0.48448467593E+03  0.97281749140E+03  0.12699999809E+01 0. -1.
</event>
<event>
 5   0  0.5349036E-06  0.2398120E+04  0.7818609E-02  0.8440208E-01
        2   -1    0    0  501    0  0.00000000000E+00  0.00000000000E+00  0.20046132480E+04  0.20046132480E+04  0.25500000920E-02 0. -1.
       -2   -1    0    0    0  501  0.00000000000E+00  0.00000000000E+00 -0.71721797948E+03  0.71721797948E+03  0.25500000920E-02 0.  1.
    10030    2    1    2    0    0  0.00000000000E+00  0.00000000000E+00  0.12873952685E+04  0.27218312275E+04  0.23981198163E+04 0.  0.
        1    1    3    3  502    0 -0.10289983606E+04  0.60646172642E+03  0.52405911605E+03  0.13043279529E+04  0.50400001928E-02 0. -1.
       -1    1    3    3    0  502  0.10289983606E+04 -0.60646172642E+03  0.76333615249E+03  0.14175032746E+04  0.50400001928E-02 0.  1.
</event>
<event>
 5   0  0.2149029E-06  0.2393324E+04  0.7818609E-02  0.8442007E-01
       -1   -1    0    0    0  501  0.00000000000E+00  0.00000000000E+00  0.66572290954E+03  0.66572290956E+03  0.50400001928E-02 0. -1.
        1   -1    0    0  501    0  0.00000000000E+00  0.00000000000E+00 -0.21510451803E+04  0.21510451803E+04  0.50400001928E-02 0.  1.
    10030    2    1    2    0    0  0.00000000000E+00  0.00000000000E+00 -0.14853222707E+04  0.28167680898E+04  0.23933240951E+04 0.  0.
        4    1    3    3  502    0 -0.81399366034E+02  0.11224501842E+03  0.65623628997E+03  0.67072534031E+03  0.12699999809E+01 0. -1.
       -4    1    3    3    0  502  0.81399366034E+02 -0.11224501842E+03 -0.21415585607E+04  0.21460427495E+04  0.12699999809E+01 0.  1.
</event>
<event>
 5   0  0.5379778E-06  0.2400031E+04  0.7818609E-02  0.8439492E-01
       -2   -1    0    0    0  501  0.00000000000E+00  0.00000000000E+00  0.83776930656E+03  0.83776930657E+03  0.25500000920E-02 0. -1.
        2   -1    0    0  501    0  0.00000000000E+00  0.00000000000E+00 -0.17188949636E+04  0.17188949636E+04  0.25500000920E-02 0.  1.
    10030    2    1    2    0    0  0.00000000000E+00  0.00000000000E+00 -0.88112565701E+03  0.25566642701E+04  0.24000312012E+04 0.  0.
        5    1    3    3  502    0 -0.54710579835E+03 -0.97982086528E+03  0.12194806904E+02  0.11222942956E+04  0.46999998093E+01 0. -1.
       -5    1    3    3    0  502  0.54710579835E+03  0.97982086528E+03 -0.89332046392E+03  0.14343699745E+04  0.46999998093E+01 0.  1.
</event>
<event>
 5   0  0.2254269E-06  0.2398130E+04  0.7818609E-02  0.8440204E-01
       -1   -1    0    0    0  501  0.00000000000E+00  0.00000000000E+00  0.17975723033E+04  0.17975723033E+04  0.50400001928E-02 0. -1.
        1   -1    0    0  501    0  0.00000000000E+00  0.00000000000E+00 -0.79983256775E+03  0.79983256777E+03  0.50400001928E-02 0.  1.
    10030    2    1    2    0    0  0.00000000000E+00  0.00000000000E+00  0.99773973558E+03  0.25974048711E+04  0.23981299974E+04 0.  0.
        2    1    3    3  502    0  0.10109986897E+04 -0.45365827445E+03  0.99500902402E+03  0.14892841027E+04  0.25500000920E-02 0. -1.
       -2    1    3    3    0  502 -0.10109986897E+04  0.45365827445E+03  0.27307115559E+01  0.11081207684E+04  0.25500000920E-02 0.  1.
</event>
<event>
 5   0  0.5268358E-06  0.2400080E+04  0.7818609E-02  0.8439474E-01
        2   -1    0    0  501    0  0.00000000000E+00  0.00000000000E+00  0.76090093196E+03  0.76090093196E+03  0.25500000920E-02 0. -1.
       -2   -1    0    0    0  501  0.00000000000E+00  0.00000000000E+00 -0.18926193027E+04  0.18926193027E+04  0.25500000920E-02 0.  1.
    10030    2    1    2    0    0  0.00000000000E+00  0.00000000000E+00 -0.11317183707E+04  0.26535202347E+04  0.24000798247E+04 0.  0.
        2    1    3    3  502    0 -0.69612791156E+03 -0.66374731758E+03 -0.13592287692E+04  0.16651298501E+04  0.25500000920E-02 0.  1.
       -2    1    3    3    0  502  0.69612791156E+03  0.66374731758E+03  0.22751039843E+03  0.98839038454E+03  0.25500000920E-02 0. -1.
</event>
<event>
 5   0  0.5440503E-06  0.2400334E+04  0.7818609E-02  0.8439379E-01
        2   -1    0    0  501    0  0.00000000000E+00  0.00000000000E+00  0.16945963637E+04  0.16945963637E+04  0.25500000920E-02 0.  1.
       -2   -1    0    0    0  501  0.00000000000E+00  0.00000000000E+00 -0.84999638262E+03  0.84999638263E+03  0.25500000920E-02 0. -1.
    10030    2    1    2    0    0  0.00000000000E+00  0.00000000000E+00  0.84459998105E+03  0.25445927463E+04  0.24003339594E+04 0.  0.
        3    1    3    3  502    0 -0.70537997685E+03  0.16944575962E+03  0.14358615224E+04  0.16087172216E+04  0.10100000352E+00 0.  1.
       -3    1    3    3    0  502  0.70537997685E+03 -0.16944575962E+03 -0.59126154140E+03  0.93587552470E+03  0.10100000352E+00 0. -1.
</event>
<event>
 5   0  0.5349036E-06  0.2398299E+04  0.7818609E-02  0.8440141E-01
       -2   -1    0    0    0  501  0.00000000000E+00  0.00000000000E+00  0.92891665622E+03  0.92891665622E+03  0.25500000920E-02 0. -1.
        2   -1    0    0  501    0  0.00000000000E+00  0.00000000000E+00 -0.15479964418E+04  0.15479964419E+04  0.25500000920E-02 0.  1.
    10030    2    1    2    0    0  0.00000000000E+00  0.00000000000E+00 -0.61907978563E+03  0.24769130981E+04  0.23982991295E+04 0.  0.
        1    1    3    3  502    0  0.32363695594E+02 -0.64777055796E+03 -0.13512170291E+04  0.14988133854E+04  0.50400001928E-02 0.  1.
       -1    1    3    3    0  502 -0.32363695594E+02  0.64777055796E+03  0.73213724348E+03  0.97809971265E+03  0.50400001928E-02 0. -1.
</event>
<event>
 5   0  0.5371843E-06  0.2359537E+04  0.7818609E-02  0.8454810E-01
       -2   -1    0    0    0  501  0.00000000000E+00  0.00000000000E+00  0.99562430640E+03  0.99562430640E+03  0.25500000920E-02 0. -1.
        2   -1    0    0  501    0  0.00000000000E+00  0.00000000000E+00 -0.13979703689E+04  0.13979703689E+04  0.25500000920E-02 0.  1.
    10030    2    1    2    0    0  0.00000000000E+00  0.00000000000E+00 -0.40234606255E+03  0.23935946754E+04  0.23595366316E+04 0.  0.
        4    1    3    3  502    0 -0.44411382536E+03  0.90205386151E+03 -0.82726338908E+03  0.13020386272E+04  0.12699999809E+01 0.  1.
       -4    1    3    3    0  502  0.44411382536E+03 -0.90205386151E+03  0.42491732653E+03  0.10915560481E+04  0.12699999809E+01 0. -1.
</event>
<event>
 5   0  0.2149417E-06  0.2404106E+04  0.7818609E-02  0.8437968E-01
       -1   -1    0    0    0  501  0.00000000000E+00  0.00000000000E+00  0.84086022651E+03  0.84086022652E+03  0.50400001928E-02 0. -1.
        1   -1    0    0  501    0  0.00000000000E+00  0.00000000000E+00 -0.17183961243E+04  0.17183961244E+04  0.50400001928E-02 0.  1.
    10030    2    1    2    0    0  0.00000000000E+00  0.00000000000E+00 -0.87753589784E+03  0.25592563509E+04  0.24041056170E+04 0.  0.
        5    1    3    3  502    0 -0.57841313772E+03  0.74296772022E+03  0.35668039063E+03  0.10068792292E+04  0.46999998093E+01 0. -1.
       -5    1    3    3    0  502  0.57841313772E+03 -0.74296772022E+03 -0.12342162885E+04  0.15523771217E+04  0.46999998093E+01 0.  1.
</event>
<event>
 5   0  0.2149029E-06  0.2397498E+04  0.7818609E-02  0.8440441E-01
       -1   -1    0    0    0  501  0.00000000000E+00  0.00000000000E+00  0.10371926880E+04  0.10371926880E+04  0.50400001928E-02 0.  1.
        1   -1    0    0  501    0  0.00000000000E+00  0.00000000000E+00 -0.13854701129E+04  0.13854701129E+04  0.50400001928E-02 0. -1.
    10030    2    1    2    0    0  0.00000000000E+00  0.00000000000E+00 -0.34827742483E+03  0.24226628009E+04  0.23974982549E+04 0.  0.
        4    1    3    3  502    0 -0.54670743877E+03 -0.35242816782E+03  0.84335778400E+03  0.10650580274E+04  0.12699999809E+01 0.  1.
       -4    1    3    3    0  502  0.54670743877E+03  0.35242816782E+03 -0.11916352088E+04  0.13576047735E+04  0.12699999809E+01 0. -1.
</event>
<event>
 5   0  0.1796750E-06  0.2403185E+04  0.7818609E-02  0.8438312E-01
       -3   -1    0    0    0  501  0.00000000000E+00  0.00000000000E+00  0.82039887653E+03  0.82039888275E+03  0.10100000352E+00 0. -1.
        3   -1    0    0  501    0  0.00000000000E+00  0.00000000000E+00 -0.17599058132E+04  0.17599058161E+04  0.10100000352E+00 0.  1.
    10030    2    1    2    0    0  0.00000000000E+00  0.00000000000E+00 -0.93950693663E+03  0.25803046988E+04  0.24031851894E+04 0.  0.
        4    1    3    3  502    0 -0.78838404788E+03  0.70605256216E+03  0.14118533965E+03  0.10677052686E+04  0.12699999809E+01 0. -1.
       -4    1    3    3    0  502  0.78838404788E+03 -0.70605256216E+03 -0.10806922763E+04  0.15125994303E+04  0.12699999809E+01 0.  1.
</event>
<event>
 5   0  0.5440503E-06  0.2355015E+04  0.7818609E-02  0.8456540E-01
        2   -1    0    0  501    0  0.00000000000E+00  0.00000000000E+00  0.13461441855E+04  0.13461441855E+04  0.25500000920E-02 0. -1.
       -2   -1    0    0    0  501  0.00000000000E+00  0.00000000000E+00 -0.10299963837E+04  0.10299963837E+04  0.25500000920E-02 0.  1.
    10030    2    1    2    0    0  0.00000000000E+00  0.00000000000E+00  0.31614780172E+03  0.23761405692E+04  0.23550147711E+04 0.  0.
        3    1    3    3  502    0  0.70231548017E+03 -0.80673041100E+03 -0.33874820516E+03  0.11219676227E+04  0.10100000352E+00 0.  1.
       -3    1    3    3    0  502 -0.70231548017E+03  0.80673041100E+03  0.65489600689E+03  0.12541729465E+04  0.10100000352E+00 0. -1.
</event>
<event>
 5   0  0.5268358E-06  0.2401257E+04  0.7818609E-02  0.8439033E-01
        2   -1    0    0  501    0  0.00000000000E+00  0.00000000000E+00  0.14790530256E+04  0.14790530256E+04  0.25500000920E-02 0.  1.
       -2   -1    0    0    0  501  0.00000000000E+00  0.00000000000E+00 -0.97461599798E+03  0.97461599798E+03  0.25500000920E-02 0. -1.
    10030    2    1    2    0    0  0.00000000000E+00  0.00000000000E+00  0.50443702767E+03  0.24536690236E+04  0.24012569547E+04 0.  0.
        2    1    3    3  502    0  0.95577349410E+03  0.51792402853E+03 -0.26857297084E+03  0.11197677045E+04  0.25500000920E-02 0. -1.
       -2    1    3    3    0  502 -0.95577349410E+03 -0.51792402853E+03  0.77300999851E+03  0.13339013191E+04  0.25500000920E-02 0.  1.
</event>
<event>
 5   0  0.5379778E-06  0.2401207E+04  0.7818609E-02  0.8439052E-01
       -2   -1    0    0    0  501  0.00000000000E+00  0.00000000000E+00  0.11085664153E+04  0.11085664153E+04  0.25500000920E-02 0.  1.
        2   -1    0    0  501    0  0.00000000000E+00  0.00000000000E+00 -0.13002817461E+04  0.13002817461E+04  0.25500000920E-02 0. -1.
    10030    2    1    2    0    0  0.00000000000E+00  0.00000000000E+00 -0.19171533078E+03  0.24088481613E+04  0.24012069249E+04 0.  0.
        5    1    3    3  502    0 -0.33462100298E+03 -0.58984215807E+03 -0.10897382190E+04  0.12835250145E+04  0.46999998093E+01 0. -1.
       -5    1    3    3    0  502  0.33462100298E+03  0.58984215807E+03  0.89802288817E+03  0.11253231468E+04  0.46999998093E+01 0.  1.
</event>
<event>
 5   0  0.2149029E-06  0.2399808E+04  0.7818609E-02  0.8439575E-01
        1   -1    0    0  501    0  0.00000000000E+00  0.00000000000E+00  0.14431284398E+04  0.14431284398E+04  0.50400001928E-02 0.  1.
       -1   -1    0    0    0  501  0.00000000000E+00  0.00000000000E+00 -0.99767286895E+03  0.99767286896E+03  0.50400001928E-02 0. -1.
    10030    2    1    2    0    0  0.00000000000E+00  0.00000000000E+00  0.44545557088E+03  0.24408013088E+04  0.23998084014E+04 0.  0.
        4    1    3    3  502    0  0.10626034474E+04 -0.42405894198E+03 -0.14513593910E+03  0.11532641182E+04  0.12699999809E+01 0. -1.
       -4    1    3    3    0  502 -0.10626034474E+04  0.42405894198E+03  0.59059150998E+03  0.12875371906E+04  0.12699999809E+01 0.  1.
</event>
<event>
 5   0  0.2215700E-06  0.2400517E+04  0.7818609E-02  0.8439310E-01
        1   -1    0    0  501    0  0.00000000000E+00  0.00000000000E+00  0.22321360014E+04  0.22321360014E+04  0.50400001928E-02 0.  1.
       -1   -1    0    0    0  501  0.00000000000E+00  0.00000000000E+00 -0.64539970144E+03  0.64539970146E+03  0.50400001928E-02 0. -1.
    10030    2    1    2    0    0  0.00000000000E+00  0.00000000000E+00  0.15867363000E+04  0.28775357029E+04  0.24005165352E+04 0.  0.
        3    1    3    3  502    0 -0.72100491364E+03  0.55583491120E+03 -0.14425350342E+03  0.92174270675E+03  0.10100000352E+00 0.  1.
       -3    1    3    3    0  502  0.72100491364E+03 -0.55583491120E+03  0.17309898034E+04  0.19557929961E+04  0.10100000352E+00 0. -1.
</event>
<event>
 5   0  0.5268358E-06  0.2400322E+04  0.7818609E-02  0.8439383E-01
        2   -1    0    0  501    0  0.00000000000E+00  0.00000000000E+00  0.74067109608E+03  0.74067109609E+03  0.25500000920E-02 0.  1.
       -2   -1    0    0    0  501  0.00000000000E+00  0.00000000000E+00 -0.19447046553E+04  0.19447046553E+04  0.25500000920E-02 0. -1.
    10030    2    1    2    0    0  0.00000000000E+00  0.00000000000E+00 -0.12040335592E+04  0.26853757514E+04  0.24003220856E+04 0.  0.
        2    1    3    3  502    0  0.15676781369E+03  0.96079261708E+03 -0.13872912933E+04  0.16947789628E+04  0.25500000920E-02 0. -1.
       -2    1    3    3    0  502 -0.15676781369E+03 -0.96079261708E+03  0.18325773404E+03  0.99059678858E+03  0.25500000920E-02 0.  1.
</event>
<event>
 5   0  0.2149029E-06  0.2387395E+04  0.7818609E-02  0.8444238E-01
       -1   -1    0    0    0  501  0.00000000000E+00  0.00000000000E+00  0.59976224127E+03  0.59976224129E+03  0.50400001928E-02 0.  1.
        1   -1    0    0  501    0  0.00000000000E+00  0.00000000000E+00 -0.23757984720E+04  0.23757984720E+04  0.50400001928E-02 0. -1.
    10030    2    1    2    0    0  0.00000000000E+00  0.00000000000E+00 -0.17760362307E+04  0.29755607133E+04  0.23873954146E+04 0.  0.
        4    1    3    3  502    0  0.26531275918E+03  0.10954955123E+04 -0.13777789324E+04  0.17801060859E+04  0.12699999809E+01 0. -1.
       -4    1    3    3    0  502 -0.26531275918E+03 -0.10954955123E+04 -0.39825729834E+03  0.11954546274E+04  0.12699999809E+01 0.  1.
</event>
<event>
 5   0  0.5371843E-06  0.2401280E+04  0.7818609E-02  0.8439024E-01
        2   -1    0    0  501    0  0.00000000000E+00  0.00000000000E+00  0.18304611914E+04  0.18304611914E+04  0.25500000920E-02 0. -1.
       -2   -1    0    0    0  501  0.00000000000E+00  0.00000000000E+00 -0.78752655211E+03  0.78752655212E+03  0.25500000920E-02 0.  1.
    10030    2    1    2    0    0  0.00000000000E+00  0.00000000000E+00  0.10429346393E+04  0.26179877435E+04  0.24012803175E+04 0.  0.
        4    1    3    3  502    0 -0.93389599076E+03 -0.49131183701E+01  0.13441155166E+04  0.16367143902E+04  0.12699999809E+01 0. -1.
       -4    1    3    3    0  502  0.93389599076E+03  0.49131183701E+01 -0.30118087725E+03  0.98127335336E+03  0.12699999809E+01 0.  1.
</event>
<event>
 5   0  0.2149417E-06  0.2400902E+04  0.7818609E-02  0.8439166E-01
        1   -1    0    0  501    0  0.00000000000E+00  0.00000000000E+00  0.17369581229E+04  0.17369581229E+04  0.50400001928E-02 0. -1.
       -1   -1    0    0    0  501  0.00000000000E+00  0.00000000000E+00 -0.82965874554E+03  0.82965874556E+03  0.50400001928E-02 0.  1.
    10030    2    1    2    0    0  0.00000000000E+00  0.00000000000E+00  0.90729937737E+03  0.25666168685E+04  0.24009019117E+04 0.  0.
        5    1    3    3  502    0 -0.79299508262E+03 -0.45680447436E+03 -0.37685645682E+03  0.98972441008E+03  0.46999998093E+01 0.  1.
       -5    1    3    3    0  502  0.79299508262E+03  0.45680447436E+03  0.12841558342E+04  0.15768924584E+04  0.46999998093E+01 0. -1.
</event>
<event>
 5   0  0.5379778E-06  0.2404046E+04  0.7818609E-02  0.8437990E-01
       -2   -1    0    0    0  501  0.00000000000E+00  0.00000000000E+00  0.19378635588E+04  0.19378635588E+04  0.25500000920E-02 0. -1.
        2   -1    0    0  501    0  0.00000000000E+00  0.00000000000E+00 -0.74559400856E+03  0.74559400856E+03  0.25500000920E-02 0.  1.
    10030    2    1    2    0    0  0.00000000000E+00  0.00000000000E+00  0.11922695502E+04  0.26834575673E+04  0.24040461384E+04 0.  0.
        5    1    3    3  502    0 -0.95456346024E+03  0.72765247846E+03  0.66819696281E+03  0.13737462648E+04  0.46999998093E+01 0.  1.
       -5    1    3    3    0  502  0.95456346024E+03 -0.72765247846E+03  0.52407258741E+03  0.13097113025E+04  0.46999998093E+01 0. -1.
</event>
<event>
 5   0  0.5349036E-06  0.2399091E+04  0.7818609E-02  0.8439844E-01
       -2   -1    0    0    0  501  0.00000000000E+00  0.00000000000E+00  0.47648597386E+03  0.47648597387E+03  0.25500000920E-02 0. -1.
        2   -1    0    0  501    0  0.00000000000E+00  0.00000000000E+00 -0.30198362950E+04  0.30198362950E+04  0.25500000920E-02 0.  1.
    10030    2    1    2    0    0  0.00000000000E+00  0.00000000000E+00 -0.25433503211E+04  0.34963222688E+04  0.23990911929E+04 0.  0.
        1    1    3    3  502    0  0.89742632582E+03  0.55825976508E+02 -0.24287977635E+04  0.25898936514E+04  0.50400001928E-02 0.  1.
       -1    1    3    3    0  502 -0.89742632582E+03 -0.55825976508E+02 -0.11455255763E+03  0.90642861739E+03  0.50400001928E-02 0. -1.
</event>
<event>
 5   0  0.2215700E-06  0.2394497E+04  0.7818609E-02  0.8441567E-01
       -1   -1    0    0    0  501  0.00000000000E+00  0.00000000000E+00  0.13419119548E+04  0.13419119548E+04  0.50400001928E-02 0. -1.
        1   -1    0    0  501    0  0.00000000000E+00  0.00000000000E+00 -0.10681802450E+04  0.10681802450E+04  0.50400001928E-02 0.  1.
    10030    2    1    2    0    0  0.00000000000E+00  0.00000000000E+00  0.27373170982E+03  0.24100921998E+04  0.23944968913E+04 0.  0.
        3    1    3    3  502    0  0.19892367554E+03  0.98587085749E+03  0.79062827048E+03  0.12792986550E+04  0.10100000352E+00 0. -1.
       -3    1    3    3    0  502 -0.19892367554E+03 -0.98587085749E+03 -0.51689656066E+03  0.11307935448E+04  0.10100000352E+00 0.  1.
</event>
<event>
 5   0  0.2149029E-06  0.2400091E+04  0.7818609E-02  0.8439470E-01
       -1   -1    0    0    0  501  0.00000000000E+00  0.00000000000E+00  0.10295775014E+04  0.10295775015E+04  0.50400001928E-02 0. -1.
        1   -1    0    0  501    0  0.00000000000E+00  0.00000000000E+00 -0.13987376977E+04  0.13987376977E+04  0.50400001928E-02 0.  1.
    10030    2    1    2    0    0  0.00000000000E+00  0.00000000000E+00 -0.36916019622E+03  0.24283151991E+04  0.24000907182E+04 0.  0.
        4    1    3    3  502    0 -0.51310984294E+03 -0.25221677545E+03  0.88291622263E+03  0.10518734153E+04  0.12699999809E+01 0. -1.
       -4    1    3    3    0  502  0.51310984294E+03  0.25221677545E+03 -0.12520764188E+04  0.13764417838E+04  0.12699999809E+01 0.  1.
</event>
<event>
 5   0  0.2149029E-06  0.2386888E+04  0.7818609E-02  0.8444429E-01
        1   -1    0    0  501    0  0.00000000000E+00  0.00000000000E+00  0.24576139530E+04  0.24576139530E+04  0.50400001928E-02 0.  1.
       -1   -1    0    0    0  501  0.00000000000E+00  0.00000000000E+00 -0.57954930447E+03  0.57954930450E+03  0.50400001928E-02 0. -1.
    10030    2    1    2    0    0  0.00000000000E+00  0.00000000000E+00  0.18780646485E+04  0.30371632575E+04  0.23868878961E+04 0.  0.
        4    1    3    3  502    0 -0.44900075564E+03 -0.89947884838E+03  0.17574008863E+04  0.20246291921E+04  0.12699999809E+01 0.  1.
       -4    1    3    3    0  502  0.44900075564E+03  0.89947884838E+03  0.12066376220E+03  0.10125340654E+04  0.12699999809E+01 0. -1.
</event>
<event>
 5   0  0.2149029E-06  0.2402557E+04  0.7818609E-02  0.8438547E-01
       -1   -1    0    0    0  501  0.00000000000E+00  0.00000000000E+00  0.95450632294E+03  0.95450632295E+03  0.50400001928E-02 0.  1.
        1   -1    0    0  501    0  0.00000000000E+00  0.00000000000E+00 -0.15118492133E+04  0.15118492133E+04  0.50400001928E-02 0. -1.
    10030    2    1    2    0    0  0.00000000000E+00  0.00000000000E+00 -0.55734289037E+03  0.24663555363E+04  0.24025566661E+04 0.  0.
        4    1    3    3  502    0  0.69953019254E+03 -0.75141059740E+03  0.36167783279E+03  0.10884727115E+04  0.12699999809E+01 0.  1.
       -4    1    3    3    0  502 -0.69953019254E+03  0.75141059740E+03 -0.91902072315E+03  0.13778828247E+04  0.12699999809E+01 0. -1.
</event>
<event>
 5   0  0.2215700E-06  0.2399989E+04  0.7818609E-02  0.8439508E-01
        1   -1    0    0  501    0  0.00000000000E+00  0.00000000000E+00  0.21625647156E+04  0.21625647156E+04  0.50400001928E-02 0.  1.
       -1   -1    0    0    0  501  0.00000000000E+00  0.00000000000E+00 -0.66586985123E+03  0.66586985125E+03  0.50400001928E-02 0. -1.
    10030    2    1    2    0    0  0.00000000000E+00  0.00000000000E+00  0.14966948644E+04  0.28284345669E+04  0.23999888712E+04 0.  0.
        3    1    3    3  502    0 -0.50125796278E+03 -0.61211738072E+03  0.18116567551E+04  0.19768782060E+04  0.10100000352E+00 0.  1.
       -3    1    3    3    0  502  0.50125796278E+03  0.61211738072E+03 -0.31496189064E+03  0.85155636089E+03  0.10100000352E+00 0. -1.
</event>
<event>
 5   0  0.5379778E-06  0.2398470E+04  0.7818609E-02  0.8440077E-01
        2   -1    0    0  501    0  0.00000000000E+00  0.00000000000E+00  0.16240394682E+04  0.16240394682E+04  0.25500000920E-02 0.  1.
       -2   -1    0    0    0  501  0.00000000000E+00  0.00000000000E+00 -0.88554760452E+03  0.88554760452E+03  0.25500000920E-02 0. -1.
    10030    2    1    2    0    0  0.00000000000E+00  0.00000000000E+00  0.73849186366E+03  0.25095870727E+04  0.23984697294E+04 0.  0.
        5    1    3    3  502    0  0.56080994966E+03  0.74039079452E+03  0.11629781861E+04  0.14883637591E+04  0.46999998093E+01 0.  1.
       -5    1    3    3    0  502 -0.56080994966E+03 -0.74039079452E+03 -0.42448632241E+03  0.10212233136E+04  0.46999998093E+01 0. -1.
</event>
<event>
 5   0  0.5268358E-06  0.2401403E+04  0.7818609E-02  0.8438979E-01
        2   -1    0    0  501    0  0.00000000000E+00  0.00000000000E+00  0.23123812748E+04  0.23123812748E+04  0.25500000920E-02 0. -1.
       -2   -1    0    0    0  501  0.00000000000E+00  0.00000000000E+00 -0.62346280462E+03  0.62346280462E+03  0.25500000920E-02 0.  1.
    10030    2    1    2    0    0  0.00000000000E+00  0.00000000000E+00  0.16889184702E+04  0.29358440795E+04  0.24014026859E+04 0.  0.
        2    1    3    3  502    0 -0.98396914714E+02 -0.96828617823E+03  0.17041012001E+04  0.19624527958E+04  0.25500000920E-02 0.  1.
       -2    1    3    3    0  502  0.98396914714E+02  0.96828617823E+03 -0.15182729839E+02  0.97339128364E+03  0.25500000920E-02 0. -1.
</event>
<event>
 5   0  0.2254269E-06  0.2402318E+04  0.7818609E-02  0.8438636E-01
        1   -1    0    0  501    0  0.00000000000E+00  0.00000000000E+00  0.19814586024E+04  0.19814586024E+04  0.50400001928E-02 0.  1.
       -1   -1    0    0    0  501  0.00000000000E+00  0.00000000000E+00 -0.72814177218E+03  0.72814177220E+03  0.50400001928E-02 0. -1.
    10030    2    1    2    0    0  0.00000000000E+00  0.00000000000E+00  0.12533168302E+04  0.27096003746E+04  0.24023178626E+04 0.  0.
        2    1    3    3  502    0 -0.29099963242E+03  0.23055017028E+03 -0.66180317924E+03  0.75882647235E+03  0.25500000920E-02 0. -1.
       -2    1    3    3    0  502  0.29099963242E+03 -0.23055017028E+03  0.19151200094E+04  0.19507739022E+04  0.25500000920E-02 0.  1.
</event>
<event>
 5   0  0.2297414E-06  0.2400529E+04  0.7818609E-02  0.8439305E-01
       -1   -1    0    0    0  501  0.00000000000E+00  0.00000000000E+00  0.11994009689E+04  0.11994009689E+04  0.50400001928E-02 0.  1.
        1   -1    0    0  501    0  0.00000000000E+00  0.00000000000E+00 -0.12011290018E+04  0.12011290018E+04  0.50400001928E-02 0. -1.
    10030    2    1    2    0    0  0.00000000000E+00  0.00000000000E+00 -0.17280328465E+01  0.24005299707E+04  0.24005293488E+04 0.  0.
        1    1    3    3  502    0 -0.86287618543E+03 -0.59455054884E+03  0.58444769502E+03  0.11998436460E+04  0.50400001928E-02 0.  1.
       -1    1    3    3    0  502  0.86287618543E+03  0.59455054884E+03 -0.58617572787E+03  0.12006863248E+04  0.50400001928E-02 0. -1.
</event>
<event>
 5   0  0.2215700E-06  0.2398141E+04  0.7818609E-02  0.8440200E-01
        1   -1    0    0  501    0  0.00000000000E+00  0.00000000000E+00  0.16596985557E+04  0.16596985557E+04  0.50400001928E-02 0. -1.
       -1   -1    0    0    0  501  0.00000000000E+00  0.00000000000E+00 -0.86628380073E+03  0.86628380075E+03  0.50400001928E-02 0.  1.
    10030    2    1    2    0    0  0.00000000000E+00  0.00000000000E+00  0.79341475496E+03  0.25259823564E+04  0.23981409241E+04 0.  0.
        3    1    3    3  502    0  0.74545709673E+03  0.92004182792E+03  0.59540815190E+03  0.13254033823E+04  0.10100000352E+00 0.  1.
       -3    1    3    3    0  502 -0.74545709673E+03 -0.92004182792E+03  0.19800660306E+03  0.12005789742E+04  0.10100000352E+00 0. -1.
</event>
<event>
 5   0  0.2297414E-06  0.2410197E+04  0.7818609E-02  0.8435696E-01
        1   -1    0    0  501    0  0.00000000000E+00  0.00000000000E+00  0.18110715261E+04  0.18110715262E+04  0.50400001928E-02 0.  1.
       -1   -1    0    0    0  501  0.00000000000E+00  0.00000000000E+00 -0.80188025598E+03  0.80188025600E+03  0.50400001928E-02 0. -1.
    10030    2    1    2    0    0  0.00000000000E+00  0.00000000000E+00  0.10091912702E+04  0.26129517822E+04  0.24101970866E+04 0.  0.
        1    1    3    3  502    0  0.30920970661E+03  0.10888893930E+04  0.95286701494E+03  0.14796101855E+04  0.50400001928E-02 0.  1.
       -1    1    3    3    0  502 -0.30920970661E+03 -0.10888893930E+04  0.56324255221E+02  0.11333415966E+04  0.50400001928E-02 0. -1.
</event>
<event>
 5   0  0.2149029E-06  0.2401175E+04  0.7818609E-02  0.8439064E-01
        1   -1    0    0  501    0  0.00000000000E+00  0.00000000000E+00  0.13373531340E+04  0.13373531340E+04  0.50400001928E-02 0. -1.
       -1   -1    0    0    0  501  0.00000000000E+00  0.00000000000E+00 -0.10778080453E+04  0.10778080453E+04  0.50400001928E-02 0.  1.
    10030    2    1    2    0    0  0.00000000000E+00  0.00000000000E+00  0.25954508867E+03  0.24151611793E+04  0.24011746852E+04 0.  0.
        4    1    3    3  502    0 -0.36659752577E+03  0.48052777391E+03 -0.91362599894E+03  0.10954518548E+04  0.12699999809E+01 0.  1.
       -4    1    3    3    0  502  0.36659752577E+03 -0.48052777391E+03  0.11731710876E+04  0.13197093245E+04  0.12699999809E+01 0. -1.
</event>
<event>
 5   0  0.2149029E-06  0.2409657E+04  0.7818609E-02  0.8435897E-01
        1   -1    0    0  501    0  0.00000000000E+00  0.00000000000E+00  0.24636155993E+04  0.24636155993E+04  0.50400001928E-02 0. -1.
       -1   -1    0    0    0  501  0.00000000000E+00  0.00000000000E+00 -0.58921981798E+03  0.58921981800E+03  0.50400001928E-02 0.  1.
    10030    2    1    2    0    0  0.00000000000E+00  0.00000000000E+00  0.18743957813E+04  0.30528354173E+04  0.24096565191E+04 0.  0.
        4    1    3    3  502    0  0.44629506622E+03 -0.70150387709E+03  0.20419050916E+04  0.22046915866E+04  0.12699999809E+01 0.  1.
       -4    1    3    3    0  502 -0.44629506622E+03  0.70150387709E+03 -0.16750931030E+03  0.84814383075E+03  0.12699999809E+01 0. -1.
</event>
<event>
 5   0  0.2215700E-06  0.2409721E+04  0.7818609E-02  0.8435873E-01
        1   -1    0    0  501    0  0.00000000000E+00  0.00000000000E+00  0.45290892799E+03  0.45290892802E+03  0.50400001928E-02 0. -1.
       -1   -1    0    0    0  501  0.00000000000E+00  0.00000000000E+00 -0.32052563012E+04  0.32052563012E+04  0.50400001928E-02 0.  1.
    10030    2    1    2    0    0  0.00000000000E+00  0.00000000000E+00 -0.27523473732E+04  0.36581652292E+04  0.24097213078E+04 0.  0.
        3    1    3    3  502    0 -0.66490251109E+02 -0.37913201814E+03 -0.31094050503E+04  0.31331392912E+04  0.10100000352E+00 0.  1.
       -3    1    3    3    0  502  0.66490251109E+02  0.37913201814E+03  0.35705767710E+03  0.52502593807E+03  0.10100000352E+00 0. -1.
</event>
<event>
 5   0  0.5268358E-06  0.2398973E+04  0.7818609E-02  0.8439888E-01
       -2   -1    0    0    0  501  0.00000000000E+00  0.00000000000E+00  0.69231572195E+03  0.69231572195E+03  0.25500000920E-02 0.  1.
        2   -1    0    0  501    0  0.00000000000E+00  0.00000000000E+00 -0.20781963217E+04  0.20781963217E+04  0.25500000920E-02 0. -1.
    10030    2    1    2    0    0  0.00000000000E+00  0.00000000000E+00 -0.13858805998E+04  0.27705120437E+04  0.23989731027E+04 0.  0.
        2    1    3    3  502    0 -0.36694446964E+03 -0.56139938403E+03  0.45553572999E+03  0.81075909707E+03  0.25500000920E-02 0.  1.
       -2    1    3    3    0  502  0.36694446964E+03  0.56139938403E+03 -0.18414163298E+04  0.19597529466E+04  0.25500000920E-02 0. -1.
</event>
<event>
 5   0  0.1796750E-06  0.2436982E+04  0.7818609E-02  0.8425786E-01
        3   -1    0    0  501    0  0.00000000000E+00  0.00000000000E+00  0.12283758640E+04  0.12283758682E+04  0.10100000352E+00 0.  1.
       -3   -1    0    0    0  501  0.00000000000E+00  0.00000000000E+00 -0.12086856371E+04  0.12086856413E+04  0.10100000352E+00 0. -1.
    10030    2    1    2    0    0  0.00000000000E+00  0.00000000000E+00  0.19690226949E+02  0.24370615095E+04  0.24369819646E+04 0.  0.
        4    1    3    3  502    0 -0.40593411967E+03 -0.23385614496E+03  0.11347140185E+04  0.12276191277E+04  0.12699999809E+01 0.  1.
       -4    1    3    3    0  502  0.40593411967E+03  0.23385614496E+03 -0.11150237916E+04  0.12094423817E+04  0.12699999809E+01 0. -1.
</event>
<event>
 5   0  0.5349036E-06  0.2401611E+04  0.7818609E-02  0.8438901E-01
        2   -1    0    0  501    0  0.00000000000E+00  0.00000000000E+00  0.19910769586E+04  0.19910769586E+04  0.25500000920E-02 0.  1.
       -2   -1    0    0    0  501  0.00000000000E+00  0.00000000000E+00 -0.72419800869E+03  0.72419800869E+03  0.25500000920E-02 0. -1.
    10030    2    1    2    0    0  0.00000000000E+00  0.00000000000E+00  0.12668789500E+04  0.27152749673E+04  0.24016110997E+04 0.  0.
        1    1    3    3  502    0 -0.23993817567E+03  0.21020144041E+03 -0.67541854077E+03  0.74695728053E+03  0.50400001928E-02 0. -1.
       -1    1    3    3    0  502  0.23993817567E+03 -0.21020144041E+03  0.19422974907E+04  0.19683176868E+04  0.50400001928E-02 0.  1.
</event>
<event>
 5   0  0.2215700E-06  0.2387929E+04  0.7818609E-02  0.8444037E-01
        1   -1    0    0  501    0  0.00000000000E+00  0.00000000000E+00  0.14616271496E+04  0.14616271496E+04  0.50400001928E-02 0. -1.
       -1   -1    0    0    0  501  0.00000000000E+00  0.00000000000E+00 -0.97531800001E+03  0.97531800002E+03  0.50400001928E-02 0.  1.
    10030    2    1    2    0    0  0.00000000000E+00  0.00000000000E+00  0.48630914956E+03  0.24369451496E+04  0.23879290344E+04 0.  0.
        3    1    3    3  502    0  0.90522642214E+03 -0.12533194880E+03  0.10273071262E+04  0.13749556046E+04  0.10100000352E+00 0. -1.
       -3    1    3    3    0  502 -0.90522642214E+03  0.12533194880E+03 -0.54099797668E+03  0.10619895450E+04  0.10100000352E+00 0.  1.
</event>
<event>
 5   0  0.5349036E-06  0.2398885E+04  0.7818609E-02  0.8439921E-01
        2   -1    0    0  501    0  0.00000000000E+00  0.00000000000E+00  0.16957336405E+04  0.16957336405E+04  0.25500000920E-02 0. -1.
       -2   -1    0    0    0  501  0.00000000000E+00  0.00000000000E+00 -0.84840112667E+03  0.84840112667E+03  0.25500000920E-02 0.  1.
    10030    2    1    2    0    0  0.00000000000E+00  0.00000000000E+00  0.84733251387E+03  0.25441347672E+04  0.23988850170E+04 0.  0.
        1    1    3    3  502    0 -0.30863058464E+02  0.10770816370E+04 -0.13511815694E+03  0.10859623831E+04  0.50400001928E-02 0.  1.
       -1    1    3    3    0  502  0.30863058464E+02 -0.10770816370E+04  0.98245067081E+03  0.14581723841E+04  0.50400001928E-02 0. -1.
</event>
<event>
 5   0  0.2297414E-06  0.2400916E+04  0.7818609E-02  0.8439161E-01
        1   -1    0    0  501    0  0.00000000000E+00  0.00000000000E+00  0.12614767502E+04  0.12614767502E+04  0.50400001928E-02 0. -1.
       -1   -1    0    0    0  501  0.00000000000E+00  0.00000000000E+00 -0.11423909199E+04  0.11423909199E+04  0.50400001928E-02 0.  1.
    10030    2    1    2    0    0  0.00000000000E+00  0.00000000000E+00  0.11908583025E+03  0.24038676701E+04  0.24009161461E+04 0.  0.
        1    1    3    3  502    0  0.26579008930E+03 -0.11561373854E+04  0.24362093493E+03  0.12110529243E+04  0.50400001928E-02 0. -1.
       -1    1    3    3    0  502 -0.26579008930E+03  0.11561373854E+04 -0.12453510469E+03  0.11928147458E+04  0.50400001928E-02 0.  1.
</event>
<event>
 5   0  0.5379778E-06  0.2403053E+04  0.7818609E-02  0.8438361E-01
        2   -1    0    0  501    0  0.00000000000E+00  0.00000000000E+00  0.16408743470E+04  0.16408743470E+04  0.25500000920E-02 0. -1.
       -2   -1    0    0    0  501  0.00000000000E+00  0.00000000000E+00 -0.87981504648E+03  0.87981504648E+03  0.25500000920E-02 0.  1.
    10030    2    1    2    0    0  0.00000000000E+00  0.00000000000E+00  0.76105930049E+03  0.25206893935E+04  0.24030530080E+04 0.  0.
        5    1    3    3  502    0 -0.43835677970E+03 -0.10249202399E+04  0.85083699243E+03  0.14023422700E+04  0.46999998093E+01 0. -1.
       -5    1    3    3    0  502  0.43835677970E+03  0.10249202399E+04 -0.89777691937E+02  0.11183471235E+04  0.46999998093E+01 0.  1.
</event>
<event>
 5   0  0.2254269E-06  0.2396757E+04  0.7818609E-02  0.8440719E-01
        1   -1    0    0  501    0  0.00000000000E+00  0.00000000000E+00  0.13376719825E+04  0.13376719825E+04  0.50400001928E-02 0.  1.
       -1   -1    0    0    0  501  0.00000000000E+00  0.00000000000E+00 -0.10735894567E+04  0.10735894567E+04  0.50400001928E-02 0. -1.
    10030    2    1    2    0    0  0.00000000000E+00  0.00000000000E+00  0.26408252579E+03  0.24112614393E+04  0.23967565892E+04 0.  0.
        2    1    3    3  502    0 -0.27320723422E+03 -0.10097196162E+04  0.72033187947E+03  0.12700605941E+04  0.25500000920E-02 0.  1.
       -2    1    3    3    0  502  0.27320723422E+03  0.10097196162E+04 -0.45624935369E+03  0.11412008451E+04  0.25500000920E-02 0. -1.
</event>
<event>
 5   0  0.5440503E-06  0.2405328E+04  0.7818609E-02  0.8437512E-01
        2   -1    0    0  501    0  0.00000000000E+00  0.00000000000E+00  0.25044040149E+04  0.25044040149E+04  0.25500000920E-02 0. -1.
       -2   -1    0    0    0  501  0.00000000000E+00  0.00000000000E+00 -0.57754280433E+03  0.57754280433E+03  0.25500000920E-02 0.  1.
    10030    2    1    2    0    0  0.00000000000E+00  0.00000000000E+00  0.19268612105E+04  0.30819468192E+04  0.24053278512E+04 0.  0.
        3    1    3    3  502    0  0.88364589321E+03 -0.77498477559E+03  0.63683969915E+03  0.13367858017E+04  0.10100000352E+00 0.  1.
       -3    1    3    3    0  502 -0.88364589321E+03  0.77498477559E+03  0.12900215114E+04  0.17451610175E+04  0.10100000352E+00 0. -1.
</event>
<event>
 5   0  0.5268358E-06  0.2398495E+04  0.7818609E-02  0.8440067E-01
        2   -1    0    0  501    0  0.00000000000E+00  0.00000000000E+00  0.25776845002E+04  0.25776845002E+04  0.25500000920E-02 0.  1.
       -2   -1    0    0    0  501  0.00000000000E+00  0.00000000000E+00 -0.55794048957E+03  0.55794048957E+03  0.25500000920E-02 0. -1.
    10030    2    1    2    0    0  0.00000000000E+00  0.00000000000E+00  0.20197440107E+04  0.31356249898E+04  0.23984949881E+04 0.  0.
        2    1    3    3  502    0 -0.50458243685E+03 -0.24039546460E+03 -0.37725473247E+03  0.67432525398E+03  0.25500000920E-02 0. -1.
       -2    1    3    3    0  502  0.50458243685E+03  0.24039546460E+03  0.23969987431E+04  0.24612997358E+04  0.25500000920E-02 0.  1.
</event>
<event>
 5   0  0.2254269E-06  0.2400057E+04  0.7818609E-02  0.8439482E-01
       -1   -1    0    0    0  501  0.00000000000E+00  0.00000000000E+00  0.22603842987E+04  0.22603842987E+04  0.50400001928E-02 0.  1.
        1   -1    0    0  501    0  0.00000000000E+00  0.00000000000E+00 -0.63709016997E+03  0.63709016999E+03  0.50400001928E-02 0. -1.
    10030    2    1    2    0    0  0.00000000000E+00  0.00000000000E+00  0.16232941287E+04  0.28974744687E+04  0.24000571802E+04 0.  0.
        2    1    3    3  502    0  0.96963006208E+03  0.41368483522E+03  0.11944708568E+03  0.10609360049E+04  0.25500000920E-02 0. -1.
       -2    1    3    3    0  502 -0.96963006208E+03 -0.41368483522E+03  0.15038470431E+04  0.18365384638E+04  0.25500000920E-02 0.  1.
</event>
<event>
 5   0  0.1796750E-06  0.2396786E+04  0.7818609E-02  0.8440708E-01
        4   -1    0    0  501    0  0.00000000000E+00  0.00000000000E+00  0.11964078616E+04  0.11964085357E+04  0.12699999809E+01 0. -1.
       -4   -1    0    0    0  501  0.00000000000E+00  0.00000000000E+00 -0.12003798778E+04  0.12003805497E+04  0.12699999809E+01 0.  1.
    10030    2    1    2    0    0  0.00000000000E+00  0.00000000000E+00 -0.39720161811E+01  0.23967890854E+04  0.23967857941E+04 0.  0.
        5    1    3    3  502    0  0.28802605487E+03  0.35644403191E+03  0.11053149704E+04  0.11965594970E+04  0.46999998093E+01 0. -1.
       -5    1    3    3    0  502 -0.28802605487E+03 -0.35644403191E+03 -0.11092869866E+04  0.12002295883E+04  0.46999998093E+01 0.  1.
</event>
<event>
 5   0  0.5379778E-06  0.2384616E+04  0.7818609E-02  0.8445286E-01
       -2   -1    0    0    0  501  0.00000000000E+00  0.00000000000E+00  0.82597820912E+03  0.82597820913E+03  0.25500000920E-02 0.  1.
        2   -1    0    0  501    0  0.00000000000E+00  0.00000000000E+00 -0.17211092539E+04  0.17211092539E+04  0.25500000920E-02 0. -1.
    10030    2    1    2    0    0  0.00000000000E+00  0.00000000000E+00 -0.89513104481E+03  0.25470874631E+04  0.23846163123E+04 0.  0.
        5    1    3    3  502    0 -0.84161774659E+03 -0.11477018789E+00 -0.13496519048E+04  0.15905668168E+04  0.46999998093E+01 0. -1.
       -5    1    3    3    0  502  0.84161774659E+03  0.11477018789E+00  0.45452086000E+03  0.95652064626E+03  0.46999998093E+01 0.  1.
</event>
<event>
 5   0  0.5440503E-06  0.2398073E+04  0.7818609E-02  0.8440225E-01
       -2   -1    0    0    0  501  0.00000000000E+00  0.00000000000E+00  0.12404029803E+04  0.12404029803E+04  0.25500000920E-02 0.  1.
        2   -1    0    0  501    0  0.00000000000E+00  0.00000000000E+00 -0.11590494815E+04  0.11590494815E+04  0.25500000920E-02 0. -1.
    10030    2    1    2    0    0  0.00000000000E+00  0.00000000000E+00  0.81353498799E+02  0.23994524618E+04  0.23980729189E+04 0.  0.
        3    1    3    3  502    0 -0.99646578771E+03  0.53560807185E+03  0.43823182073E+03  0.12132053460E+04  0.10100000352E+00 0.  1.
       -3    1    3    3    0  502  0.99646578771E+03 -0.53560807185E+03 -0.35687832193E+03  0.11862471157E+04  0.10100000352E+00 0. -1.
</event>
<event>
 5   0  0.5349036E-06  0.2403243E+04  0.7818609E-02  0.8438290E-01
        2   -1    0    0  501    0  0.00000000000E+00  0.00000000000E+00  0.11489000512E+04  0.11489000512E+04  0.25500000920E-02 0.  1.
       -2   -1    0    0    0  501  0.00000000000E+00  0.00000000000E+00 -0.12567622535E+04  0.12567622535E+04  0.25500000920E-02 0. -1.
    10030    2    1    2    0    0  0.00000000000E+00  0.00000000000E+00 -0.10786220234E+03  0.24056623047E+04  0.24032429901E+04 0.  0.
        1    1    3    3  502    0  0.55570202183E+03  0.83970680374E+03 -0.71032131640E+03  0.12322615899E+04  0.50400001928E-02 0. -1.
       -1    1    3    3    0  502 -0.55570202183E+03 -0.83970680374E+03  0.60245911406E+03  0.11734007148E+04  0.50400001928E-02 0.  1.
</event>
<event>
 5   0  0.2149417E-06  0.2406266E+04  0.7818609E-02  0.8437161E-01
       -1   -1    0    0    0  501  0.00000000000E+00  0.00000000000E+00  0.13011033741E+04  0.13011033741E+04  0.50400001928E-02 0. -1.
        1   -1    0    0  501    0  0.00000000000E+00  0.00000000000E+00 -0.11125396851E+04  0.11125396851E+04  0.50400001928E-02 0.  1.
    10030    2    1    2    0    0  0.00000000000E+00  0.00000000000E+00  0.18856368906E+03  0.24136430592E+04  0.24062661017E+04 0.  0.
        5    1    3    3  502    0  0.82963112774E+03  0.77693471777E+03 -0.30137855305E+03  0.11759109176E+04  0.46999998093E+01 0. -1.
       -5    1    3    3    0  502 -0.82963112774E+03 -0.77693471777E+03  0.48994224211E+03  0.12377321416E+04  0.46999998093E+01 0.  1.
</event>
<event>
 5   0  0.2297414E-06  0.2390281E+04  0.7818609E-02  0.8443151E-01
       -1   -1    0    0    0  501  0.00000000000E+00  0.00000000000E+00  0.69408511479E+03  0.69408511481E+03  0.50400001928E-02 0.  1.
        1   -1    0    0  501    0  0.00000000000E+00  0.00000000000E+00 -0.20579045507E+04  0.20579045507E+04  0.50400001928E-02 0. -1.
    10030    2    1    2    0    0  0.00000000000E+00  0.00000000000E+00 -0.13638194359E+04  0.27519896655E+04  0.23902810850E+04 0.  0.
        1    1    3    3  502    0  0.28934814351E+03  0.10068243684E+04 -0.13442399727E+04  0.17042296680E+04  0.50400001928E-02 0. -1.
       -1    1    3    3    0  502 -0.28934814351E+03 -0.10068243684E+04 -0.19579463229E+02  0.10477599975E+04  0.50400001928E-02 0.  1.
</event>
<event>
 5   0  0.5268358E-06  0.2397366E+04  0.7818609E-02  0.8440490E-01
       -2   -1    0    0    0  501  0.00000000000E+00  0.00000000000E+00  0.10694154244E+04  0.10694154244E+04  0.25500000920E-02 0. -1.
        2   -1    0    0  501    0  0.00000000000E+00  0.00000000000E+00 -0.13435759288E+04  0.13435759288E+04  0.25500000920E-02 0.  1.
    10030    2    1    2    0    0  0.00000000000E+00  0.00000000000E+00 -0.27416050434E+03  0.24129913532E+04  0.23973659062E+04 0.  0.
        2    1    3    3  502    0  0.68746059678E+03 -0.39504862854E+03  0.76776484127E+03  0.11036885170E+04  0.25500000920E-02 0. -1.
       -2    1    3    3    0  502 -0.68746059678E+03  0.39504862854E+03 -0.10419253456E+04  0.13093028362E+04  0.25500000920E-02 0.  1.
</event>
<event>
 5   0  0.2254269E-06  0.2405692E+04  0.7818609E-02  0.8437376E-01
       -1   -1    0    0    0  501  0.00000000000E+00  0.00000000000E+00  0.11815334369E+04  0.11815334369E+04  0.50400001928E-02 0. -1.
        1   -1    0    0  501    0  0.00000000000E+00  0.00000000000E+00 -0.12245426125E+04  0.12245426125E+04  0.50400001928E-02 0.  1.
    10030    2    1    2    0    0  0.00000000000E+00  0.00000000000E+00 -0.43009175611E+02  0.24060760494E+04  0.24056916191E+04 0.  0.
        2    1    3    3  502    0 -0.41048626511E+03  0.98855340292E+02 -0.11479912307E+04  0.12231742385E+04  0.25500000920E-02 0.  1.
       -2    1    3    3    0  502  0.41048626511E+03 -0.98855340292E+02  0.11049820551E+04  0.11829018109E+04  0.25500000920E-02 0. -1.
</event>
<event>
 5   0  0.5440503E-06  0.2392991E+04  0.7818609E-02  0.8442132E-01
       -2   -1    0    0    0  501  0.00000000000E+00  0.00000000000E+00  0.74947409331E+03  0.74947409332E+03  0.25500000920E-02 0.  1.
        2   -1    0    0  501    0  0.00000000000E+00  0.00000000000E+00 -0.19101419373E+04  0.19101419373E+04  0.25500000920E-02 0. -1.
    10030    2    1    2    0    0  0.00000000000E+00  0.00000000000E+00 -0.11606678440E+04  0.26596160306E+04  0.23929913469E+04 0.  0.
        3    1    3    3  502    0 -0.27331070066E+03 -0.14378462603E+03 -0.18650829008E+04  0.18904779805E+04  0.10100000352E+00 0. -1.
       -3    1    3    3    0  502  0.27331070066E+03  0.14378462603E+03  0.70441505677E+03  0.76913805015E+03  0.10100000352E+00 0.  1.
</event>
<event>
 5   0  0.5379778E-06  0.2415229E+04  0.7818609E-02  0.8433824E-01
       -2   -1    0    0    0  501  0.00000000000E+00  0.00000000000E+00  0.10236106639E+04  0.10236106639E+04  0.25500000920E-02 0. -1.
        2   -1    0    0  501    0  0.00000000000E+00  0.00000000000E+00 -0.14246947496E+04  0.14246947496E+04  0.25500000920E-02 0.  1.
    10030    2    1    2    0    0  0.00000000000E+00  0.00000000000E+00 -0.40108408569E+03  0.24483054135E+04  0.24152289651E+04 0.  0.
        5    1    3    3  502    0 -0.11342028200E+04 -0.28050728006E+03 -0.51002674361E+03  0.12748528308E+04  0.46999998093E+01 0.  1.
       -5    1    3    3    0  502  0.11342028200E+04  0.28050728006E+03  0.10894265792E+03  0.11734525827E+04  0.46999998093E+01 0. -1.
</event>
<event>
 5   0  0.2149417E-06  0.2406378E+04  0.7818609E-02  0.8437119E-01
        1   -1    0    0  501    0  0.00000000000E+00  0.00000000000E+00  0.16394388267E+04  0.16394388267E+04  0.50400001928E-02 0. -1.
       -1   -1    0    0    0  501  0.00000000000E+00  0.00000000000E+00 -0.88302428439E+03  0.88302428440E+03  0.50400001928E-02 0.  1.
    10030    2    1    2    0    0  0.00000000000E+00  0.00000000000E+00  0.75641454228E+03  0.25224631111E+04  0.24063784380E+04 0.  0.
        5    1    3    3  502    0 -0.80598833650E+02  0.98316189215E+03 -0.34389170203E+03  0.10446947262E+04  0.46999998093E+01 0.  1.
       -5    1    3    3    0  502  0.80598833650E+02 -0.98316189215E+03  0.11003062443E+04  0.14777683849E+04  0.46999998093E+01 0. -1.
</event>
<event>
 5   0  0.2149417E-06  0.2399521E+04  0.7818609E-02  0.8439683E-01
        1   -1    0    0  501    0  0.00000000000E+00  0.00000000000E+00  0.55731109111E+03  0.55731109113E+03  0.50400001928E-02 0. -1.
       -1   -1    0    0    0  501  0.00000000000E+00  0.00000000000E+00 -0.25828044201E+04  0.25828044201E+04  0.50400001928E-02 0.  1.
    10030    2    1    2    0    0  0.00000000000E+00  0.00000000000E+00 -0.20254933290E+04  0.31401155112E+04  0.23995212435E+04 0.  0.
        5    1    3    3  502    0 -0.19846595344E+02 -0.20105136219E+03 -0.25603722884E+04  0.25683348463E+04  0.46999998093E+01 0.  1.
       -5    1    3    3    0  502  0.19846595344E+02  0.20105136219E+03  0.53487895940E+03  0.57178066493E+03  0.46999998093E+01 0. -1.
</event>
<event>
 5   0  0.5349036E-06  0.2398792E+04  0.7818609E-02  0.8439956E-01
       -2   -1    0    0    0  501  0.00000000000E+00  0.00000000000E+00  0.11464479180E+04  0.11464479180E+04  0.25500000920E-02 0. -1.
        2   -1    0    0  501    0  0.00000000000E+00  0.00000000000E+00 -0.12547899470E+04  0.12547899470E+04  0.25500000920E-02 0.  1.
    10030    2    1    2    0    0  0.00000000000E+00  0.00000000000E+00 -0.10834202896E+03  0.24012378650E+04  0.23987924648E+04 0.  0.
        1    1    3    3  502    0 -0.60474493482E+03 -0.63211330876E+03 -0.87553637088E+03  0.12376783136E+04  0.50400001928E-02 0.  1.
       -1    1    3    3    0  502  0.60474493482E+03  0.63211330876E+03  0.76719434192E+03  0.11635595514E+04  0.50400001928E-02 0. -1.
</event>
<event>
 5   0  0.5371843E-06  0.2398584E+04  0.7818609E-02  0.8440034E-01
       -2   -1    0    0    0  501  0.00000000000E+00  0.00000000000E+00  0.15360518849E+04  0.15360518849E+04  0.25500000920E-02 0. -1.
        2   -1    0    0  501    0  0.00000000000E+00  0.00000000000E+00 -0.93636270118E+03  0.93636270118E+03  0.25500000920E-02 0.  1.
    10030    2    1    2    0    0  0.00000000000E+00  0.00000000000E+00  0.59968918368E+03  0.24724145860E+04  0.23985843259E+04 0.  0.
        4    1    3    3  502    0 -0.11405288664E+04 -0.36647061704E+03  0.35809301726E+03  0.12503355670E+04  0.12699999809E+01 0. -1.
       -4    1    3    3    0  502  0.11405288664E+04  0.36647061704E+03  0.24159616641E+03  0.12220790190E+04  0.12699999809E+01 0.  1.
</event>
<event>
 5   0  0.2254269E-06  0.2405453E+04  0.7818609E-02  0.8437465E-01
        1   -1    0    0  501    0  0.00000000000E+00  0.00000000000E+00  0.19674897054E+04  0.19674897054E+04  0.50400001928E-02 0. -1.
       -1   -1    0    0    0  501  0.00000000000E+00  0.00000000000E+00 -0.73522643975E+03  0.73522643976E+03  0.50400001928E-02 0.  1.
    10030    2    1    2    0    0  0.00000000000E+00  0.00000000000E+00  0.12322632657E+04  0.27027161452E+04  0.24054525158E+04 0.  0.
        2    1    3    3  502    0 -0.17167097231E+03  0.31976813732E+03 -0.67223093351E+03  0.76394830476E+03  0.25500000920E-02 0.  1.
       -2    1    3    3    0  502  0.17167097231E+03 -0.31976813732E+03  0.19044941992E+04  0.19387678404E+04  0.25500000920E-02 0. -1.
</event>
<event>
 5   0  0.2149029E-06  0.2397626E+04  0.7818609E-02  0.8440393E-01
        1   -1    0    0  501    0  0.00000000000E+00  0.00000000000E+00  0.19185421884E+04  0.19185421884E+04  0.50400001928E-02 0. -1.
       -1   -1    0    0    0  501  0.00000000000E+00  0.00000000000E+00 -0.74908579110E+03  0.74908579111E+03  0.50400001928E-02 0.  1.
    10030    2    1    2    0    0  0.00000000000E+00  0.00000000000E+00  0.11694563973E+04  0.26676279795E+04  0.23976260701E+04 0.  0.
        4    1    3    3  502    0 -0.39191357274E+03 -0.25117424966E+03  0.18138833700E+04  0.18726610065E+04  0.12699999809E+01 0. -1.
       -4    1    3    3    0  502  0.39191357274E+03  0.25117424966E+03 -0.64442697271E+03  0.79496697306E+03  0.12699999809E+01 0.  1.
</event>
<event>
 5   0  0.5379778E-06  0.2402540E+04  0.7818609E-02  0.8438553E-01
       -2   -1    0    0    0  501  0.00000000000E+00  0.00000000000E+00  0.82879899069E+03  0.82879899069E+03  0.25500000920E-02 0. -1.
        2   -1    0    0  501    0  0.00000000000E+00  0.00000000000E+00 -0.17411340885E+04  0.17411340885E+04  0.25500000920E-02 0.  1.
    10030    2    1    2    0    0  0.00000000000E+00  0.00000000000E+00 -0.91233509780E+03  0.25699330792E+04  0.24025404681E+04 0.  0.
        5    1    3    3  502    0 -0.97104594348E+03  0.56679150411E+03 -0.90853339713E+03  0.14455579743E+04  0.46999998093E+01 0.  1.
       -5    1    3    3    0  502  0.97104594348E+03 -0.56679150411E+03 -0.38017006724E+01  0.11243751048E+04  0.46999998093E+01 0. -1.
</event>
<event>
 5   0  0.2297414E-06  0.2398360E+04  0.7818609E-02  0.8440118E-01
       -1   -1    0    0    0  501  0.00000000000E+00  0.00000000000E+00  0.11144649022E+04  0.11144649022E+04  0.50400001928E-02 0.  1.
        1   -1    0    0  501    0  0.00000000000E+00  0.00000000000E+00 -0.12903348138E+04  0.12903348138E+04  0.50400001928E-02 0. -1.
    10030    2    1    2    0    0  0.00000000000E+00  0.00000000000E+00 -0.17586991161E+03  0.24047997159E+04  0.23983601581E+04 0.  0.
        1    1    3    3  502    0  0.40806119286E+03 -0.55477644729E+03 -0.10722744446E+04  0.12743874325E+04  0.50400001928E-02 0. -1.
       -1    1    3    3    0  502 -0.40806119286E+03  0.55477644729E+03  0.89640453303E+03  0.11304122834E+04  0.50400001928E-02 0.  1.
</event>
<event>
 5   0  0.5379778E-06  0.2384178E+04  0.7818609E-02  0.8445451E-01
       -2   -1    0    0    0  501  0.00000000000E+00  0.00000000000E+00  0.13477359616E+04  0.13477359616E+04  0.25500000920E-02 0. -1.
        2   -1    0    0  501    0  0.00000000000E+00  0.00000000000E+00 -0.10544177331E+04  0.10544177331E+04  0.25500000920E-02 0.  1.
    10030    2    1    2    0    0  0.00000000000E+00  0.00000000000E+00  0.29331822849E+03  0.24021536947E+04  0.23841784308E+04 0.  0.
        5    1    3    3  502    0  0.32970322933E+03 -0.81064831816E+03  0.96220589685E+03  0.13006602912E+04  0.46999998093E+01 0. -1.
       -5    1    3    3    0  502 -0.32970322933E+03  0.81064831816E+03 -0.66888766835E+03  0.11014934035E+04  0.46999998093E+01 0.  1.
</event>
<event>
 5   0  0.2254269E-06  0.2391840E+04  0.7818609E-02  0.8442565E-01
       -1   -1    0    0    0  501  0.00000000000E+00  0.00000000000E+00  0.15661667307E+04  0.15661667307E+04  0.50400001928E-02 0.  1.
        1   -1    0    0  501    0  0.00000000000E+00  0.00000000000E+00 -0.91320087185E+03  0.91320087187E+03  0.50400001928E-02 0. -1.
    10030    2    1    2    0    0  0.00000000000E+00  0.00000000000E+00  0.65296585885E+03  0.24793676026E+04  0.23918401485E+04 0.  0.
        2    1    3    3  502    0 -0.11775781977E+04 -0.15061668810E+03  0.47615875148E+03  0.12791024021E+04  0.25500000920E-02 0. -1.
       -2    1    3    3    0  502  0.11775781977E+04  0.15061668810E+03  0.17680710736E+03  0.12002652005E+04  0.25500000920E-02 0.  1.
</event>
<event>
 5   0  0.5349036E-06  0.2403364E+04  0.7818609E-02  0.8438245E-01
        2   -1    0    0  501    0  0.00000000000E+00  0.00000000000E+00  0.23738442096E+04  0.23738442096E+04  0.25500000920E-02 0.  1.
       -2   -1    0    0    0  501  0.00000000000E+00  0.00000000000E+00 -0.60831289753E+03  0.60831289753E+03  0.25500000920E-02 0. -1.
    10030    2    1    2    0    0  0.00000000000E+00  0.00000000000E+00  0.17655313121E+04  0.29821571071E+04  0.24033643498E+04 0.  0.
        1    1    3    3  502    0 -0.23571902662E+03  0.98553131740E+03  0.81299006837E+02  0.10165849525E+04  0.50400001928E-02 0. -1.
       -1    1    3    3    0  502  0.23571902662E+03 -0.98553131740E+03  0.16842323052E+04  0.19655721546E+04  0.50400001928E-02 0.  1.
</event>
<event>
 5   0  0.5268358E-06  0.2405663E+04  0.7818609E-02  0.8437386E-01
       -2   -1    0    0    0  501  0.00000000000E+00  0.00000000000E+00  0.10898642233E+04  0.10898642233E+04  0.25500000920E-02 0. -1.
        2   -1    0    0  501    0  0.00000000000E+00  0.00000000000E+00 -0.13275083308E+04  0.13275083308E+04  0.25500000920E-02 0.  1.
    10030    2    1    2    0    0  0.00000000000E+00  0.00000000000E+00 -0.23764410751E+03  0.24173725540E+04  0.24056631816E+04 0.  0.
        2    1    3    3  502    0 -0.58147425860E+03  0.51848742984E+03  0.80207866295E+03  0.11181554945E+04  0.25500000920E-02 0. -1.
       -2    1    3    3    0  502  0.58147425860E+03 -0.51848742984E+03 -0.10397227705E+04  0.12992170595E+04  0.25500000920E-02 0.  1.
</event>
<event>
 5   0  0.1796750E-06  0.2411352E+04  0.7818609E-02  0.8435266E-01
       -3   -1    0    0    0  501  0.00000000000E+00  0.00000000000E+00  0.20264780113E+04  0.20264780138E+04  0.10100000352E+00 0. -1.
        3   -1    0    0  501    0  0.00000000000E+00  0.00000000000E+00 -0.71733073446E+03  0.71733074157E+03  0.10100000352E+00 0.  1.
    10030    2    1    2    0    0  0.00000000000E+00  0.00000000000E+00  0.13091472768E+04  0.27438087553E+04  0.24113522956E+04 0.  0.
        5    1    3    3  502    0  0.18592292370E+03 -0.71277349483E+03 -0.43149433696E+03  0.85371121658E+03  0.46999998093E+01 0.  1.
       -5    1    3    3    0  502 -0.18592292370E+03  0.71277349483E+03  0.17406416138E+04  0.18900975388E+04  0.46999998093E+01 0. -1.
</event>
<event>
 5   0  0.2149029E-06  0.2403241E+04  0.7818609E-02  0.8438291E-01
        1   -1    0    0  501    0  0.00000000000E+00  0.00000000000E+00  0.78541306300E+03  0.78541306301E+03  0.50400001928E-02 0.  1.
       -1   -1    0    0    0  501  0.00000000000E+00  0.00000000000E+00 -0.18383846139E+04  0.18383846140E+04  0.50400001928E-02 0. -1.
    10030    2    1    2    0    0  0.00000000000E+00  0.00000000000E+00 -0.10529715509E+04  0.26237976770E+04  0.24032405545E+04 0.  0.
        4    1    3    3  502    0 -0.58545565903E+03  0.88136993672E+03 -0.11482401974E+04  0.15614187324E+04  0.12699999809E+01 0. -1.
       -4    1    3    3    0  502  0.58545565903E+03 -0.88136993672E+03  0.95268646408E+02  0.10623789446E+04  0.12699999809E+01 0.  1.
</event>
<event>
 5   0  0.5371843E-06  0.2399523E+04  0.7818609E-02  0.8439682E-01
        2   -1    0    0  501    0  0.00000000000E+00  0.00000000000E+00  0.12144477090E+04  0.12144477090E+04  0.25500000920E-02 0.  1.
       -2   -1    0    0    0  501  0.00000000000E+00  0.00000000000E+00 -0.11852530664E+04  0.11852530664E+04  0.25500000920E-02 0. -1.
    10030    2    1    2    0    0  0.00000000000E+00  0.00000000000E+00  0.29194642529E+02  0.23997007754E+04  0.23995231785E+04 0.  0.
        4    1    3    3  502    0 -0.11415659258E+04  0.34205860534E+03 -0.12415517546E+03  0.11981623316E+04  0.12699999809E+01 0. -1.
       -4    1    3    3    0  502  0.11415659258E+04 -0.34205860534E+03  0.15334981799E+03  0.12015384438E+04  0.12699999809E+01 0.  1.
</event>
<event>
 5   0  0.5379778E-06  0.2401272E+04  0.7818609E-02  0.8439028E-01
       -2   -1    0    0    0  501  0.00000000000E+00  0.00000000000E+00  0.83366360304E+03  0.83366360304E+03  0.25500000920E-02 0. -1.
        2   -1    0    0  501    0  0.00000000000E+00  0.00000000000E+00 -0.17291467685E+04  0.17291467685E+04  0.25500000920E-02 0.  1.
    10030    2    1    2    0    0  0.00000000000E+00  0.00000000000E+00 -0.89548316541E+03  0.25628103715E+04  0.24012719339E+04 0.  0.
        5    1    3    3  502    0 -0.76576201514E+03 -0.27604500623E+03  0.49419012425E+03  0.95228056696E+03  0.46999998093E+01 0. -1.
       -5    1    3    3    0  502  0.76576201514E+03  0.27604500623E+03 -0.13896732897E+04  0.16105298045E+04  0.46999998093E+01 0.  1.
</event>
<event>
 5   0  0.2297414E-06  0.2394559E+04  0.7818609E-02  0.8441543E-01
       -1   -1    0    0    0  501  0.00000000000E+00  0.00000000000E+00  0.90055660209E+03  0.90055660210E+03  0.50400001928E-02 0.  1.
        1   -1    0    0  501    0  0.00000000000E+00  0.00000000000E+00 -0.15917697037E+04  0.15917697037E+04  0.50400001928E-02 0. -1.
    10030    2    1    2    0    0  0.00000000000E+00  0.00000000000E+00 -0.69121310161E+03  0.24923263058E+04  0.23945594298E+04 0.  0.
        1    1    3    3  502    0  0.87075577114E+03 -0.93207469578E+02 -0.11953815409E+04  0.14818367905E+04  0.50400001928E-02 0. -1.
       -1    1    3    3    0  502 -0.87075577114E+03  0.93207469578E+02  0.50416843928E+03  0.10104895153E+04  0.50400001928E-02 0.  1.
</event>
<event>
 5   0  0.5371843E-06  0.2402101E+04  0.7818609E-02  0.8438717E-01
        2   -1    0    0  501    0  0.00000000000E+00  0.00000000000E+00  0.18054322674E+04  0.18054322674E+04  0.25500000920E-02 0. -1.
       -2   -1    0    0    0  501  0.00000000000E+00  0.00000000000E+00 -0.79899008753E+03  0.79899008753E+03  0.25500000920E-02 0.  1.
    10030    2    1    2    0    0  0.00000000000E+00  0.00000000000E+00  0.10064421799E+04  0.26044223549E+04  0.24021011514E+04 0.  0.
        4    1    3    3  502    0 -0.25414083596E+03  0.11366230686E+04  0.82121817834E+03  0.14250966543E+04  0.12699999809E+01 0. -1.
       -4    1    3    3    0  502  0.25414083596E+03 -0.11366230686E+04  0.18522400153E+03  0.11793257007E+04  0.12699999809E+01 0.  1.
</event>
<event>
 5   0  0.2215700E-06  0.2401089E+04  0.7818609E-02  0.8439096E-01
       -1   -1    0    0    0  501  0.00000000000E+00  0.00000000000E+00  0.11379971936E+04  0.11379971936E+04  0.50400001928E-02 0.  1.
        1   -1    0    0  501    0  0.00000000000E+00  0.00000000000E+00 -0.12665297850E+04  0.12665297850E+04  0.50400001928E-02 0. -1.
    10030    2    1    2    0    0  0.00000000000E+00  0.00000000000E+00 -0.12853259144E+03  0.24045269786E+04  0.24010892037E+04 0.  0.
        3    1    3    3  502    0  0.41389379326E+03  0.10704060973E+04  0.28870117375E+03  0.11833958185E+04  0.10100000352E+00 0.  1.
       -3    1    3    3    0  502 -0.41389379326E+03 -0.10704060973E+04 -0.41723376519E+03  0.12211311602E+04  0.10100000352E+00 0. -1.
</event>
<event>
 5   0  0.2254269E-06  0.2408821E+04  0.7818609E-02  0.8436209E-01
        1   -1    0    0  501    0  0.00000000000E+00  0.00000000000E+00  0.24983577405E+04  0.24983577405E+04  0.50400001928E-02 0.  1.
       -1   -1    0    0    0  501  0.00000000000E+00  0.00000000000E+00 -0.58062315751E+03  0.58062315753E+03  0.50400001928E-02 0. -1.
    10030    2    1    2    0    0  0.00000000000E+00  0.00000000000E+00  0.19177345830E+04  0.30789808980E+04  0.24088207571E+04 0.  0.
        2    1    3    3  502    0 -0.10192823515E+03  0.10081168712E+04  0.12663973742E+03  0.10211398602E+04  0.25500000920E-02 0. -1.
       -2    1    3    3    0  502  0.10192823515E+03 -0.10081168712E+04  0.17910948456E+04  0.20578410378E+04  0.25500000920E-02 0.  1.
</event>
<event>
 5   0  0.2254269E-06  0.2394975E+04  0.7818609E-02  0.8441387E-01
       -1   -1    0    0    0  501  0.00000000000E+00  0.00000000000E+00  0.64457792127E+03  0.64457792129E+03  0.50400001928E-02 0. -1.
        1   -1    0    0  501    0  0.00000000000E+00  0.00000000000E+00 -0.22246742669E+04  0.22246742669E+04  0.50400001928E-02 0.  1.
    10030    2    1    2    0    0  0.00000000000E+00  0.00000000000E+00 -0.15800963456E+04  0.28692521882E+04  0.23949746675E+04 0.  0.
        2    1    3    3  502    0  0.18456474409E+03  0.10536312557E+04 -0.14349546162E+04  0.17897758849E+04  0.25500000920E-02 0.  1.
       -2    1    3    3    0  502 -0.18456474409E+03 -0.10536312557E+04 -0.14514172945E+03  0.10794763033E+04  0.25500000920E-02 0. -1.
</event>
<event>
 5   0  0.2297414E-06  0.2395023E+04  0.7818609E-02  0.8441369E-01
       -1   -1    0    0    0  501  0.00000000000E+00  0.00000000000E+00  0.73076637706E+03  0.73076637708E+03  0.50400001928E-02 0. -1.
        1   -1    0    0  501    0  0.00000000000E+00  0.00000000000E+00 -0.19623693002E+04  0.19623693002E+04  0.50400001928E-02 0.  1.
    10030    2    1    2    0    0  0.00000000000E+00  0.00000000000E+00 -0.12316029231E+04  0.26931356773E+04  0.23950227590E+04 0.  0.
        1    1    3    3  502    0 -0.72395324769E+03 -0.77473134533E+03 -0.12415945888E+04  0.16327504663E+04  0.50400001928E-02 0.  1.
       -1    1    3    3    0  502  0.72395324769E+03  0.77473134533E+03  0.99916656409E+01  0.10603852110E+04  0.50400001928E-02 0. -1.
</event>
<event>
 5   0  0.2149417E-06  0.2397984E+04  0.7818609E-02  0.8440259E-01
        1   -1    0    0  501    0  0.00000000000E+00  0.00000000000E+00  0.97052426259E+03  0.97052426261E+03  0.50400001928E-02 0. -1.
       -1   -1    0    0    0  501  0.00000000000E+00  0.00000000000E+00 -0.14812426040E+04  0.14812426040E+04  0.50400001928E-02 0.  1.
    10030    2    1    2    0    0  0.00000000000E+00  0.00000000000E+00 -0.51071834143E+03  0.24517668666E+04  0.23979840583E+04 0.  0.
        5    1    3    3  502    0  0.77862940418E+03  0.17195603965E+03  0.66011517847E+03  0.10351844123E+04  0.46999998093E+01 0. -1.
       -5    1    3    3    0  502 -0.77862940418E+03 -0.17195603965E+03 -0.11708335199E+04  0.14165824543E+04  0.46999998093E+01 0.  1.
</event>
<event>
 5   0  0.2254269E-06  0.2381857E+04  0.7818609E-02  0.8446327E-01
       -1   -1    0    0    0  501  0.00000000000E+00  0.00000000000E+00  0.62473080905E+03  0.62473080907E+03  0.50400001928E-02 0. -1.
        1   -1    0    0  501    0  0.00000000000E+00  0.00000000000E+00 -0.22702746310E+04  0.22702746310E+04  0.50400001928E-02 0.  1.
    10030    2    1    2    0    0  0.00000000000E+00  0.00000000000E+00 -0.16455438219E+04  0.28950054400E+04  0.23818568446E+04 0.  0.
        2    1    3    3  502    0 -0.73508488569E+03 -0.34866094751E+03 -0.18798532720E+04  0.20483560652E+04  0.25500000920E-02 0.  1.
       -2    1    3    3    0  502  0.73508488569E+03  0.34866094751E+03  0.23430945012E+03  0.84664937484E+03  0.25500000920E-02 0. -1.
</event>
<event>
 5   0  0.5371843E-06  0.2398741E+04  0.7818609E-02  0.8439975E-01
        2   -1    0    0  501    0  0.00000000000E+00  0.00000000000E+00  0.13031857305E+04  0.13031857305E+04  0.25500000920E-02 0.  1.
       -2   -1    0    0    0  501  0.00000000000E+00  0.00000000000E+00 -0.11038251034E+04  0.11038251034E+04  0.25500000920E-02 0. -1.
    10030    2    1    2    0    0  0.00000000000E+00  0.00000000000E+00  0.19936062710E+03  0.24070108340E+04  0.23987406061E+04 0.  0.
        4    1    3    3  502    0  0.57603509763E+03 -0.58588233944E+03 -0.77706715927E+03  0.11308888240E+04  0.12699999809E+01 0. -1.
       -4    1    3    3    0  502 -0.57603509763E+03  0.58588233944E+03  0.97642778637E+03  0.12761220099E+04  0.12699999809E+01 0.  1.
</event>
<event>
 5   0  0.5371843E-06  0.2403196E+04  0.7818609E-02  0.8438308E-01
        2   -1    0    0  501    0  0.00000000000E+00  0.00000000000E+00  0.95253557495E+03  0.95253557495E+03  0.25500000920E-02 0.  1.
       -2   -1    0    0    0  501  0.00000000000E+00  0.00000000000E+00 -0.15157836329E+04  0.15157836329E+04  0.25500000920E-02 0. -1.
    10030    2    1    2    0    0  0.00000000000E+00  0.00000000000E+00 -0.56324805793E+03  0.24683192078E+04  0.24031960671E+04 0.  0.
        4    1    3    3  502    0  0.76551900607E+03 -0.40579958326E+03  0.57348938253E+03  0.10390304785E+04  0.12699999809E+01 0.  1.
       -4    1    3    3    0  502 -0.76551900607E+03  0.40579958326E+03 -0.11367374405E+04  0.14292887294E+04  0.12699999809E+01 0. -1.
</event>
<event>
 5   0  0.5349036E-06  0.2398601E+04  0.7818609E-02  0.8440027E-01
       -2   -1    0    0    0  501  0.00000000000E+00  0.00000000000E+00  0.11590826636E+04  0.11590826636E+04  0.25500000920E-02 0. -1.
        2   -1    0    0  501    0  0.00000000000E+00  0.00000000000E+00 -0.12409143021E+04  0.12409143021E+04  0.25500000920E-02 0.  1.
    10030    2    1    2    0    0  0.00000000000E+00  0.00000000000E+00 -0.81831638444E+02  0.23999969657E+04  0.23986014714E+04 0.  0.
        1    1    3    3  502    0 -0.81571696267E+02 -0.10845429661E+04  0.46478386997E+03  0.11827558635E+04  0.50400001928E-02 0. -1.
       -1    1    3    3    0  502  0.81571696267E+02  0.10845429661E+04 -0.54661550841E+03  0.12172411022E+04  0.50400001928E-02 0.  1.
</event>
<event>
 5   0  0.2149029E-06  0.2398451E+04  0.7818609E-02  0.8440084E-01
        1   -1    0    0  501    0  0.00000000000E+00  0.00000000000E+00  0.12967486011E+04  0.12967486011E+04  0.50400001928E-02 0. -1.
       -1   -1    0    0    0  501  0.00000000000E+00  0.00000000000E+00 -0.11090371443E+04  0.11090371443E+04  0.50400001928E-02 0.  1.
    10030    2    1    2    0    0  0.00000000000E+00  0.00000000000E+00  0.18771145675E+03  0.24057857454E+04  0.23984514716E+04 0.  0.
        4    1    3    3  502    0  0.54454670432E+03  0.54791848693E+02 -0.97646276716E+03  0.11193812614E+04  0.12699999809E+01 0.  1.
       -4    1    3    3    0  502 -0.54454670432E+03 -0.54791848693E+02  0.11641742239E+04  0.12864044840E+04  0.12699999809E+01 0. -1.
</event>
<event>
 5   0  0.2149029E-06  0.2412794E+04  0.7818609E-02  0.8434729E-01
        1   -1    0    0  501    0  0.00000000000E+00  0.00000000000E+00  0.16323761680E+04  0.16323761680E+04  0.50400001928E-02 0.  1.
       -1   -1    0    0    0  501  0.00000000000E+00  0.00000000000E+00 -0.89158021792E+03  0.89158021794E+03  0.50400001928E-02 0. -1.
    10030    2    1    2    0    0  0.00000000000E+00  0.00000000000E+00  0.74079595011E+03  0.25239563860E+04  0.24127944791E+04 0.  0.
        4    1    3    3  502    0  0.25881289489E+03 -0.56160021198E+03 -0.71318996799E+03  0.94393879886E+03  0.12699999809E+01 0. -1.
       -4    1    3    3    0  502 -0.25881289489E+03  0.56160021198E+03  0.14539859181E+04  0.15800175871E+04  0.12699999809E+01 0.  1.
</event>
<event>
 5   0  0.5379778E-06  0.2399276E+04  0.7818609E-02  0.8439775E-01
       -2   -1    0    0    0  501  0.00000000000E+00  0.00000000000E+00  0.92435634255E+03  0.92435634256E+03  0.25500000920E-02 0. -1.
        2   -1    0    0  501    0  0.00000000000E+00  0.00000000000E+00 -0.15569008788E+04  0.15569008788E+04  0.25500000920E-02 0.  1.
    10030    2    1    2    0    0  0.00000000000E+00  0.00000000000E+00 -0.63254453626E+03  0.24812572214E+04  0.23992758925E+04 0.  0.
        5    1    3    3  502    0  0.76471482496E+03  0.68594003864E+03  0.32441755239E+03  0.10772981660E+04  0.46999998093E+01 0. -1.
       -5    1    3    3    0  502 -0.76471482496E+03 -0.68594003864E+03 -0.95696208865E+03  0.14039590554E+04  0.46999998093E+01 0.  1.
</event>
<event>
 5   0  0.2149417E-06  0.2403292E+04  0.7818609E-02  0.8438272E-01
        1   -1    0    0  501    0  0.00000000000E+00  0.00000000000E+00  0.26942176917E+04  0.26942176917E+04  0.50400001928E-02 0. -1.
       -1   -1    0    0    0  501  0.00000000000E+00  0.00000000000E+00 -0.53594527310E+03  0.53594527312E+03  0.50400001928E-02 0.  1.
    10030    2    1    2    0    0  0.00000000000E+00  0.00000000000E+00  0.21582724186E+04  0.32301629648E+04  0.24032921059E+04 0.  0.
        5    1    3    3  502    0 -0.66169988874E+03  0.53495750934E+03  0.22195315345E+04  0.23770503996E+04  0.46999998093E+01 0. -1.
       -5    1    3    3    0  502  0.66169988874E+03 -0.53495750934E+03 -0.61259115968E+02  0.85311256516E+03  0.46999998093E+01 0.  1.
</event>
<event>
 5   0  0.1796750E-06  0.2402998E+04  0.7818609E-02  0.8438382E-01
       -3   -1    0    0    0  501  0.00000000000E+00  0.00000000000E+00  0.23915916996E+04  0.23915917017E+04  0.10100000352E+00 0.  1.
        3   -1    0    0  501    0  0.00000000000E+00  0.00000000000E+00 -0.60361488040E+03  0.60361488885E+03  0.10100000352E+00 0. -1.
    10030    2    1    2    0    0  0.00000000000E+00  0.00000000000E+00  0.17879768192E+04  0.29952065905E+04  0.24029984216E+04 0.  0.
        4    1    3    3  502    0  0.92245441873E+03 -0.46948650805E+03  0.13349421502E+03  0.10436292705E+04  0.12699999809E+01 0. -1.
       -4    1    3    3    0  502 -0.92245441873E+03  0.46948650805E+03  0.16544826041E+04  0.19515773201E+04  0.12699999809E+01 0.  1.
</event>
<event>
 5   0  0.5268358E-06  0.2395109E+04  0.7818609E-02  0.8441337E-01
        2   -1    0    0  501    0  0.00000000000E+00  0.00000000000E+00  0.12270671555E+04  0.12270671555E+04  0.25500000920E-02 0.  1.
       -2   -1    0    0    0  501  0.00000000000E+00  0.00000000000E+00 -0.11687516636E+04  0.11687516636E+04  0.25500000920E-02 0. -1.
    10030    2    1    2    0    0  0.00000000000E+00  0.00000000000E+00  0.58315491923E+02  0.23958188191E+04  0.23951089990E+04 0.  0.
        2    1    3    3  502    0 -0.65895674483E+03  0.98129518716E+03  0.22149718849E+03  0.12025910529E+04  0.25500000920E-02 0.  1.
       -2    1    3    3    0  502  0.65895674483E+03 -0.98129518716E+03 -0.16318169657E+03  0.11932277662E+04  0.25500000920E-02 0. -1.
</event>
<event>
 5   0  0.2215700E-06  0.2399290E+04  0.7818609E-02  0.8439770E-01
        1   -1    0    0  501    0  0.00000000000E+00  0.00000000000E+00  0.89908348435E+03  0.89908348436E+03  0.50400001928E-02 0.  1.
       -1   -1    0    0    0  501  0.00000000000E+00  0.00000000000E+00 -0.16006829377E+04  0.16006829377E+04  0.50400001928E-02 0. -1.
    10030    2    1    2    0    0  0.00000000000E+00  0.00000000000E+00 -0.70159945333E+03  0.24997664221E+04  0.23992895557E+04 0.  0.
        3    1    3    3  502    0  0.31622234833E+03 -0.77315746312E+03 -0.12478912931E+04  0.15016663165E+04  0.10100000352E+00 0. -1.
       -3    1    3    3    0  502 -0.31622234833E+03  0.77315746312E+03  0.54629183979E+03  0.99810010559E+03  0.10100000352E+00 0.  1.
</event>
<event>
 5   0  0.5440503E-06  0.2405547E+04  0.7818609E-02  0.8437430E-01
        2   -1    0    0  501    0  0.00000000000E+00  0.00000000000E+00  0.15683091917E+04  0.15683091917E+04  0.25500000920E-02 0.  1.
       -2   -1    0    0    0  501  0.00000000000E+00  0.00000000000E+00 -0.92243561404E+03  0.92243561404E+03  0.25500000920E-02 0. -1.
    10030    2    1    2    0    0  0.00000000000E+00  0.00000000000E+00  0.64587357768E+03  0.24907448058E+04  0.24055471330E+04 0.  0.
        3    1    3    3  502    0  0.77608970107E+03  0.17744784016E+03  0.12564566915E+04  0.14874429024E+04  0.10100000352E+00 0.  1.
       -3    1    3    3    0  502 -0.77608970107E+03 -0.17744784016E+03 -0.61058311386E+03  0.10033019033E+04  0.10100000352E+00 0. -1.
</event>
<event>
 5   0  0.5371843E-06  0.2392800E+04  0.7818609E-02  0.8442204E-01
       -2   -1    0    0    0  501  0.00000000000E+00  0.00000000000E+00  0.11434680650E+04  0.11434680650E+04  0.25500000920E-02 0.  1.
        2   -1    0    0  501    0  0.00000000000E+00  0.00000000000E+00 -0.12517817305E+04  0.12517817305E+04  0.25500000920E-02 0. -1.
    10030    2    1    2    0    0  0.00000000000E+00  0.00000000000E+00 -0.10831366549E+03  0.23952497955E+04  0.23927995596E+04 0.  0.
        4    1    3    3  502    0 -0.11006933336E+04 -0.46355148866E+03  0.16378240153E+02  0.11944352879E+04  0.12699999809E+01 0.  1.
       -4    1    3    3    0  502  0.11006933336E+04  0.46355148866E+03 -0.12469190564E+03  0.12008145076E+04  0.12699999809E+01 0. -1.
</event>
<event>
 5   0  0.5371843E-06  0.2401561E+04  0.7818609E-02  0.8438919E-01
        2   -1    0    0  501    0  0.00000000000E+00  0.00000000000E+00  0.11136654671E+04  0.11136654671E+04  0.25500000920E-02 0.  1.
       -2   -1    0    0    0  501  0.00000000000E+00  0.00000000000E+00 -0.12947101383E+04  0.12947101384E+04  0.25500000920E-02 0. -1.
    10030    2    1    2    0    0  0.00000000000E+00  0.00000000000E+00 -0.18104467124E+03  0.24083756055E+04  0.24015611348E+04 0.  0.
        4    1    3    3  502    0 -0.80167772294E+03  0.42534647391E+03  0.69800744817E+03  0.11449117018E+04  0.12699999809E+01 0.  1.
       -4    1    3    3    0  502  0.80167772294E+03 -0.42534647391E+03 -0.87905211941E+03  0.12634639037E+04  0.12699999809E+01 0. -1.
</event>
<event>
 5   0  0.2149029E-06  0.2403973E+04  0.7818609E-02  0.8438018E-01
       -1   -1    0    0    0  501  0.00000000000E+00  0.00000000000E+00  0.61742966801E+03  0.61742966803E+03  0.50400001928E-02 0.  1.
        1   -1    0    0  501    0  0.00000000000E+00  0.00000000000E+00 -0.23399773960E+04  0.23399773960E+04  0.50400001928E-02 0. -1.
    10030    2    1    2    0    0  0.00000000000E+00  0.00000000000E+00 -0.17225477280E+04  0.29574070640E+04  0.24039729340E+04 0.  0.
        4    1    3    3  502    0 -0.95989531861E+01 -0.56654144465E+03 -0.21653662710E+04  0.22382747929E+04  0.12699999809E+01 0. -1.
       -4    1    3    3    0  502  0.95989531861E+01  0.56654144465E+03  0.44281854298E+03  0.71913227109E+03  0.12699999809E+01 0.  1.
</event>
<event>
 5   0  0.5349036E-06  0.2410122E+04  0.7818609E-02  0.8435724E-01
        2   -1    0    0  501    0  0.00000000000E+00  0.00000000000E+00  0.16468347787E+04  0.16468347787E+04  0.25500000920E-02 0.  1.
       -2   -1    0    0    0  501  0.00000000000E+00  0.00000000000E+00 -0.88179606080E+03  0.88179606080E+03  0.25500000920E-02 0. -1.
    10030    2    1    2    0    0  0.00000000000E+00  0.00000000000E+00  0.76503871794E+03  0.25286308395E+04  0.24101223377E+04 0.  0.
        1    1    3    3  502    0  0.96692340092E+03  0.27940950296E+03 -0.31275892292E+03  0.10539585748E+04  0.50400001928E-02 0. -1.
       -1    1    3    3    0  502 -0.96692340092E+03 -0.27940950296E+03  0.10777976409E+04  0.14746722647E+04  0.50400001928E-02 0.  1.
</event>
<event>
 5   0  0.2297414E-06  0.2405435E+04  0.7818609E-02  0.8437472E-01
       -1   -1    0    0    0  501  0.00000000000E+00  0.00000000000E+00  0.60078038849E+03  0.60078038851E+03  0.50400001928E-02 0.  1.
        1   -1    0    0  501    0  0.00000000000E+00  0.00000000000E+00 -0.24077505180E+04  0.24077505180E+04  0.50400001928E-02 0. -1.
    10030    2    1    2    0    0  0.00000000000E+00  0.00000000000E+00 -0.18069701295E+04  0.30085309066E+04  0.24054349226E+04 0.  0.
        1    1    3    3  502    0  0.10039326202E+04 -0.61027692044E+03 -0.12253138190E+04  0.16975607737E+04  0.50400001928E-02 0.  1.
       -1    1    3    3    0  502 -0.10039326202E+04  0.61027692044E+03 -0.58165631057E+03  0.13109701328E+04  0.50400001928E-02 0. -1.
</event>
<event>
 5   0  0.2149417E-06  0.2398475E+04  0.7818609E-02  0.8440075E-01
       -1   -1    0    0    0  501  0.00000000000E+00  0.00000000000E+00  0.11312357807E+04  0.11312357807E+04  0.50400001928E-02 0. -1.
        1   -1    0    0  501    0  0.00000000000E+00  0.00000000000E+00 -0.12713272539E+04  0.12713272539E+04  0.50400001928E-02 0.  1.
    10030    2    1    2    0    0  0.00000000000E+00  0.00000000000E+00 -0.14009147316E+03  0.24025630346E+04  0.23984752478E+04 0.  0.
        5    1    3    3  502    0 -0.10260270581E+04 -0.44860838739E+03  0.35983340765E+03  0.11762156182E+04  0.46999998093E+01 0. -1.
       -5    1    3    3    0  502  0.10260270581E+04  0.44860838739E+03 -0.49992488081E+03  0.12263474164E+04  0.46999998093E+01 0.  1.
</event>
<event>
 5   0  0.5349036E-06  0.2410036E+04  0.7818609E-02  0.8435756E-01
        2   -1    0    0  501    0  0.00000000000E+00  0.00000000000E+00  0.25310513868E+04  0.25310513868E+04  0.25500000920E-02 0.  1.
       -2   -1    0    0    0  501  0.00000000000E+00  0.00000000000E+00 -0.57370154873E+03  0.57370154874E+03  0.25500000920E-02 0. -1.
    10030    2    1    2    0    0  0.00000000000E+00  0.00000000000E+00  0.19573498381E+04  0.31047529356E+04  0.24100357678E+04 0.  0.
        1    1    3    3  502    0  0.42203172310E+03 -0.10698116502E+04  0.51515120189E+03  0.12601541585E+04  0.50400001928E-02 0.  1.
       -1    1    3    3    0  502 -0.42203172310E+03  0.10698116502E+04  0.14421986362E+04  0.18445987771E+04  0.50400001928E-02 0. -1.
</event>
<event>
 5   0  0.2149417E-06  0.2400443E+04  0.7818609E-02  0.8439338E-01
       -1   -1    0    0    0  501  0.00000000000E+00  0.00000000000E+00  0.84511392569E+03  0.84511392571E+03  0.50400001928E-02 0. -1.
        1   -1    0    0  501    0  0.00000000000E+00  0.00000000000E+00 -0.17045409685E+04  0.17045409685E+04  0.50400001928E-02 0.  1.
    10030    2    1    2    0    0  0.00000000000E+00  0.00000000000E+00 -0.85942704280E+03  0.25496548942E+04  0.24004427170E+04 0.  0.
        5    1    3    3  502    0 -0.12536412375E+03 -0.80580770826E+03 -0.13650582715E+04  0.15901095562E+04  0.46999998093E+01 0.  1.
       -5    1    3    3    0  502  0.12536412375E+03  0.80580770826E+03  0.50563122869E+03  0.95954533798E+03  0.46999998093E+01 0. -1.
</event>
<event>
 5   0  0.2149417E-06  0.2403308E+04  0.7818609E-02  0.8438266E-01
        1   -1    0    0  501    0  0.00000000000E+00  0.00000000000E+00  0.12495195674E+04  0.12495195674E+04  0.50400001928E-02 0. -1.
       -1   -1    0    0    0  501  0.00000000000E+00  0.00000000000E+00 -0.11556219003E+04  0.11556219003E+04  0.50400001928E-02 0.  1.
    10030    2    1    2    0    0  0.00000000000E+00  0.00000000000E+00  0.93897667098E+02  0.24051414677E+04  0.24033078679E+04 0.  0.
        5    1    3    3  502    0 -0.77206366033E+03  0.30441361463E+03  0.91663437421E+03  0.12365235988E+04  0.46999998093E+01 0. -1.
       -5    1    3    3    0  502  0.77206366033E+03 -0.30441361463E+03 -0.82273670711E+03  0.11686178689E+04  0.46999998093E+01 0.  1.
</event>
<event>
 5   0  0.2149029E-06  0.2398362E+04  0.7818609E-02  0.8440117E-01
        1   -1    0    0  501    0  0.00000000000E+00  0.00000000000E+00  0.14181067664E+04  0.14181067664E+04  0.50400001928E-02 0.  1.
       -1   -1    0    0    0  501  0.00000000000E+00  0.00000000000E+00 -0.10140530560E+04  0.10140530560E+04  0.50400001928E-02 0. -1.
    10030    2    1    2    0    0  0.00000000000E+00  0.00000000000E+00  0.40405371038E+03  0.24321598224E+04  0.23983623581E+04 0.  0.
        4    1    3    3  502    0  0.11044777857E+04 -0.44616107670E+03  0.34218815647E+03  0.12393648505E+04  0.12699999809E+01 0.  1.
       -4    1    3    3    0  502 -0.11044777857E+04  0.44616107670E+03  0.61865553909E+02  0.11927949719E+04  0.12699999809E+01 0. -1.
</event>
<event>
 5   0  0.5379778E-06  0.2379064E+04  0.7818609E-02  0.8447384E-01
       -2   -1    0    0    0  501  0.00000000000E+00  0.00000000000E+00  0.96188835020E+03  0.96188835020E+03  0.25500000920E-02 0. -1.
        2   -1    0    0  501    0  0.00000000000E+00  0.00000000000E+00 -0.14710500035E+04  0.14710500035E+04  0.25500000920E-02 0.  1.
    10030    2    1    2    0    0  0.00000000000E+00  0.00000000000E+00 -0.50916165334E+03  0.24329383538E+04  0.23790635645E+04 0.  0.
        5    1    3    3  502    0 -0.57009577642E+03  0.90580266673E+03  0.27628551437E+03  0.11053702732E+04  0.46999998093E+01 0. -1.
       -5    1    3    3    0  502  0.57009577642E+03 -0.90580266673E+03 -0.78544716771E+03  0.13275680806E+04  0.46999998093E+01 0.  1.
</event>
<event>
 5   0  0.5349036E-06  0.2394487E+04  0.7818609E-02  0.8441570E-01
        2   -1    0    0  501    0  0.00000000000E+00  0.00000000000E+00  0.11978466318E+04  0.11978466318E+04  0.25500000920E-02 0.  1.
       -2   -1    0    0    0  501  0.00000000000E+00  0.00000000000E+00 -0.11966407462E+04  0.11966407462E+04  0.25500000920E-02 0. -1.
    10030    2    1    2    0    0  0.00000000000E+00  0.00000000000E+00  0.12058855849E+01  0.23944873781E+04  0.23944870744E+04 0.  0.
        1    1    3    3  502    0 -0.10327831874E+04 -0.58638391088E+03 -0.15074067340E+03  0.11971674710E+04  0.50400001928E-02 0. -1.
       -1    1    3    3    0  502  0.10327831874E+04  0.58638391088E+03  0.15194655898E+03  0.11973199071E+04  0.50400001928E-02 0.  1.
</event>
<event>
 5   0  0.2254269E-06  0.2388550E+04  0.7818609E-02  0.8443803E-01
       -1   -1    0    0    0  501  0.00000000000E+00  0.00000000000E+00  0.64659966440E+03  0.64659966442E+03  0.50400001928E-02 0.  1.
        1   -1    0    0  501    0  0.00000000000E+00  0.00000000000E+00 -0.22058367211E+04  0.22058367211E+04  0.50400001928E-02 0. -1.
    10030    2    1    2    0    0  0.00000000000E+00  0.00000000000E+00 -0.15592370567E+04  0.28524363856E+04  0.23885504254E+04 0.  0.
        2    1    3    3  502    0 -0.18528161653E+01 -0.80236819636E+03 -0.18360038901E+04  0.20036737359E+04  0.25500000920E-02 0. -1.
       -2    1    3    3    0  502  0.18528161653E+01  0.80236819636E+03  0.27676683334E+03  0.84876264968E+03  0.25500000920E-02 0.  1.
</event>
<event>
 5   0  0.2149417E-06  0.2398136E+04  0.7818609E-02  0.8440202E-01
        1   -1    0    0  501    0  0.00000000000E+00  0.00000000000E+00  0.20222674101E+04  0.20222674101E+04  0.50400001928E-02 0.  1.
       -1   -1    0    0    0  501  0.00000000000E+00  0.00000000000E+00 -0.71096645763E+03  0.71096645764E+03  0.50400001928E-02 0. -1.
    10030    2    1    2    0    0  0.00000000000E+00  0.00000000000E+00  0.13113009525E+04  0.27332338678E+04  0.23981361904E+04 0.  0.
        5    1    3    3  502    0 -0.45288715177E+02  0.98736409993E+03 -0.11802837981E+03  0.99543544340E+03  0.46999998093E+01 0. -1.
       -5    1    3    3    0  502  0.45288715177E+02 -0.98736409993E+03  0.14293293323E+04  0.17377984244E+04  0.46999998093E+01 0.  1.
</event>
<event>
 5   0  0.5440503E-06  0.2396566E+04  0.7818609E-02  0.8440790E-01
        2   -1    0    0  501    0  0.00000000000E+00  0.00000000000E+00  0.14175852056E+04  0.14175852056E+04  0.25500000920E-02 0. -1.
       -2   -1    0    0    0  501  0.00000000000E+00  0.00000000000E+00 -0.10129071340E+04  0.10129071340E+04  0.25500000920E-02 0.  1.
    10030    2    1    2    0    0  0.00000000000E+00  0.00000000000E+00  0.40467807158E+03  0.24304923396E+04  0.23965660164E+04 0.  0.
        3    1    3    3  502    0 -0.40905392999E+03 -0.28005931665E+03 -0.90403234617E+03  0.10310348353E+04  0.10100000352E+00 0.  1.
       -3    1    3    3    0  502  0.40905392999E+03  0.28005931665E+03  0.13087104178E+04  0.13994575043E+04  0.10100000352E+00 0. -1.
</event>
<event>
 5   0  0.5349036E-06  0.2396992E+04  0.7818609E-02  0.8440631E-01
        2   -1    0    0  501    0  0.00000000000E+00  0.00000000000E+00  0.18766285032E+04  0.18766285032E+04  0.25500000920E-02 0. -1.
       -2   -1    0    0    0  501  0.00000000000E+00  0.00000000000E+00 -0.76541106058E+03  0.76541106058E+03  0.25500000920E-02 0.  1.
    10030    2    1    2    0    0  0.00000000000E+00  0.00000000000E+00  0.11112174426E+04  0.26420395638E+04  0.23969916253E+04 0.  0.
        1    1    3    3  502    0  0.96653918735E+02 -0.82962506911E+03  0.15029973201E+04  0.17194826779E+04  0.50400001928E-02 0. -1.
       -1    1    3    3    0  502 -0.96653918735E+02  0.82962506911E+03 -0.39177987747E+03  0.92255688590E+03  0.50400001928E-02 0.  1.
</event>
<event>
 5   0  0.1796750E-06  0.2403623E+04  0.7818609E-02  0.8438148E-01
       -3   -1    0    0    0  501  0.00000000000E+00  0.00000000000E+00  0.14127596116E+04  0.14127596152E+04  0.10100000352E+00 0. -1.
        3   -1    0    0  501    0  0.00000000000E+00  0.00000000000E+00 -0.10223614536E+04  0.10223614585E+04  0.10100000352E+00 0.  1.
    10030    2    1    2    0    0  0.00000000000E+00  0.00000000000E+00  0.39039815807E+03  0.24351210738E+04  0.24036230824E+04 0.  0.
        3    1    3    3  502    0  0.10430414309E+04 -0.11288523590E+02 -0.40952165520E+03  0.11206118211E+04  0.10100000352E+00 0.  1.
       -3    1    3    3    0  502 -0.10430414309E+04  0.11288523590E+02  0.79991981327E+03  0.13145092526E+04  0.10100000352E+00 0. -1.
</event>
<event>
 5   0  0.2254269E-06  0.2404486E+04  0.7818609E-02  0.8437826E-01
        1   -1    0    0  501    0  0.00000000000E+00  0.00000000000E+00  0.11159618801E+04  0.11159618801E+04  0.50400001928E-02 0.  1.
       -1   -1    0    0    0  501  0.00000000000E+00  0.00000000000E+00 -0.12951951811E+04  0.12951951811E+04  0.50400001928E-02 0. -1.
    10030    2    1    2    0    0  0.00000000000E+00  0.00000000000E+00 -0.17923330106E+03  0.24111570612E+04  0.24044861817E+04 0.  0.
        2    1    3    3  502    0 -0.23006436521E+03 -0.75539672434E+03  0.81944938726E+03  0.11380031290E+04  0.25500000920E-02 0.  1.
       -2    1    3    3    0  502  0.23006436521E+03  0.75539672434E+03 -0.99868268832E+03  0.12731539323E+04  0.25500000920E-02 0. -1.
</event>
<event>
 5   0  0.2149417E-06  0.2425752E+04  0.7818609E-02  0.8429925E-01
       -1   -1    0    0    0  501  0.00000000000E+00  0.00000000000E+00  0.62001926944E+03  0.62001926946E+03  0.50400001928E-02 0. -1.
        1   -1    0    0  501    0  0.00000000000E+00  0.00000000000E+00 -0.23726174173E+04  0.23726174173E+04  0.50400001928E-02 0.  1.
    10030    2    1    2    0    0  0.00000000000E+00  0.00000000000E+00 -0.17525981479E+04  0.29926366868E+04  0.24257522691E+04 0.  0.
        5    1    3    3  502    0 -0.72406665583E+03 -0.41378558962E+03 -0.19627596203E+04  0.21325896121E+04  0.46999998093E+01 0.  1.
       -5    1    3    3    0  502  0.72406665583E+03  0.41378558962E+03  0.21016147245E+03  0.86004707473E+03  0.46999998093E+01 0. -1.
</event>
<event>
 5   0  0.2254269E-06  0.2403903E+04  0.7818609E-02  0.8438044E-01
        1   -1    0    0  501    0  0.00000000000E+00  0.00000000000E+00  0.15907984276E+04  0.15907984276E+04  0.50400001928E-02 0.  1.
       -1   -1    0    0    0  501  0.00000000000E+00  0.00000000000E+00 -0.90815258738E+03  0.90815258740E+03  0.50400001928E-02 0. -1.
    10030    2    1    2    0    0  0.00000000000E+00  0.00000000000E+00  0.68264584024E+03  0.24989510150E+04  0.24039032494E+04 0.  0.
        2    1    3    3  502    0  0.50563460070E+03  0.87162964914E+03 -0.33977987276E+03  0.10634166430E+04  0.25500000920E-02 0. -1.
       -2    1    3    3    0  502 -0.50563460070E+03 -0.87162964914E+03  0.10224257130E+04  0.14355343720E+04  0.25500000920E-02 0.  1.
</event>
<event>
 5   0  0.2149417E-06  0.2401625E+04  0.7818609E-02  0.8438895E-01
       -1   -1    0    0    0  501  0.00000000000E+00  0.00000000000E+00  0.69621625747E+03  0.69621625749E+03  0.50400001928E-02 0.  1.
        1   -1    0    0  501    0  0.00000000000E+00  0.00000000000E+00 -0.20711248473E+04  0.20711248473E+04  0.50400001928E-02 0. -1.
    10030    2    1    2    0    0  0.00000000000E+00  0.00000000000E+00 -0.13749085899E+04  0.27673411048E+04  0.24016251081E+04 0.  0.
        5    1    3    3  502    0  0.10679819487E+04  0.58486420385E+02 -0.13163942718E+04  0.16961491895E+04  0.46999998093E+01 0.  1.
       -5    1    3    3    0  502 -0.10679819487E+04 -0.58486420385E+02 -0.58514318086E+02  0.10711919154E+04  0.46999998093E+01 0. -1.
</event>
<event>
 5   0  0.2254269E-06  0.2397278E+04  0.7818609E-02  0.8440523E-01
       -1   -1    0    0    0  501  0.00000000000E+00  0.00000000000E+00  0.17779784970E+04  0.17779784970E+04  0.50400001928E-02 0.  1.
        1   -1    0    0  501    0  0.00000000000E+00  0.00000000000E+00 -0.80807273606E+03  0.80807273608E+03  0.50400001928E-02 0. -1.
    10030    2    1    2    0    0  0.00000000000E+00  0.00000000000E+00  0.96990576094E+03  0.25860512331E+04  0.23972784142E+04 0.  0.
        2    1    3    3  502    0 -0.61124017775E+03 -0.10166305914E+04  0.67049581210E+03  0.13626140129E+04  0.25500000920E-02 0.  1.
       -2    1    3    3    0  502  0.61124017775E+03  0.10166305914E+04  0.29940994885E+03  0.12234372202E+04  0.25500000920E-02 0. -1.
</event>
<event>
 5   0  0.5440503E-06  0.2398403E+04  0.7818609E-02  0.8440102E-01
        2   -1    0    0  501    0  0.00000000000E+00  0.00000000000E+00  0.21592091520E+04  0.21592091520E+04  0.25500000920E-02 0. -1.
       -2   -1    0    0    0  501  0.00000000000E+00  0.00000000000E+00 -0.66602345890E+03  0.66602345891E+03  0.25500000920E-02 0.  1.
    10030    2    1    2    0    0  0.00000000000E+00  0.00000000000E+00  0.14931856931E+04  0.28252326110E+04  0.23984027585E+04 0.  0.
        3    1    3    3  502    0 -0.39537855808E+03 -0.18379765481E+03 -0.56934563598E+03  0.71711940813E+03  0.10100000352E+00 0.  1.
       -3    1    3    3    0  502  0.39537855808E+03  0.18379765481E+03  0.20625313291E+04  0.21081132028E+04  0.10100000352E+00 0. -1.
</event>
<event>
 5   0  0.5268358E-06  0.2454725E+04  0.7818609E-02  0.8419295E-01
       -2   -1    0    0    0  501  0.00000000000E+00  0.00000000000E+00  0.98664809770E+03  0.98664809771E+03  0.25500000920E-02 0.  1.
        2   -1    0    0  501    0  0.00000000000E+00  0.00000000000E+00 -0.15268039036E+04  0.15268039036E+04  0.25500000920E-02 0. -1.
    10030    2    1    2    0    0  0.00000000000E+00  0.00000000000E+00 -0.54015580593E+03  0.25134520013E+04  0.24547245606E+04 0.  0.
        2    1    3    3  502    0  0.99351725445E+03 -0.12903838008E+03  0.45589141427E+03  0.11007108703E+04  0.25500000920E-02 0.  1.
       -2    1    3    3    0  502 -0.99351725445E+03  0.12903838008E+03 -0.99604722020E+03  0.14127411310E+04  0.25500000920E-02 0. -1.
</event>
<event>
 5   0  0.5349036E-06  0.2389824E+04  0.7818609E-02  0.8443323E-01
       -2   -1    0    0    0  501  0.00000000000E+00  0.00000000000E+00  0.70419706233E+03  0.70419706234E+03  0.25500000920E-02 0.  1.
        2   -1    0    0  501    0  0.00000000000E+00  0.00000000000E+00 -0.20275781805E+04  0.20275781805E+04  0.25500000920E-02 0. -1.
    10030    2    1    2    0    0  0.00000000000E+00  0.00000000000E+00 -0.13233811181E+04  0.27317752428E+04  0.23898239252E+04 0.  0.
        1    1    3    3  502    0  0.10726323987E+04  0.19232948334E+03 -0.12220171341E+04  0.16373322109E+04  0.50400001928E-02 0. -1.
       -1    1    3    3    0  502 -0.10726323987E+04 -0.19232948334E+03 -0.10136398404E+03  0.10944430319E+04  0.50400001928E-02 0.  1.
</event>
<event>
 5   0  0.2254269E-06  0.2402461E+04  0.7818609E-02  0.8438583E-01
       -1   -1    0    0    0  501  0.00000000000E+00  0.00000000000E+00  0.13777247203E+04  0.13777247203E+04  0.50400001928E-02 0. -1.
        1   -1    0    0  501    0  0.00000000000E+00  0.00000000000E+00 -0.10473463232E+04  0.10473463232E+04  0.50400001928E-02 0.  1.
    10030    2    1    2    0    0  0.00000000000E+00  0.00000000000E+00  0.33037839712E+03  0.24250710435E+04  0.24024611716E+04 0.  0.
        2    1    3    3  502    0  0.41724217205E+03  0.10797514895E+04  0.48914666157E+03  0.12566697123E+04  0.25500000920E-02 0. -1.
       -2    1    3    3    0  502 -0.41724217205E+03 -0.10797514895E+04 -0.15876826446E+03  0.11684013313E+04  0.25500000920E-02 0.  1.
</event>
<event>
 5   0  0.5371843E-06  0.2400763E+04  0.7818609E-02  0.8439218E-01
       -2   -1    0    0    0  501  0.00000000000E+00  0.00000000000E+00  0.85910929902E+03  0.85910929902E+03  0.25500000920E-02 0. -1.
        2   -1    0    0  501    0  0.00000000000E+00  0.00000000000E+00 -0.16772207657E+04  0.16772207657E+04  0.25500000920E-02 0.  1.
    10030    2    1    2    0    0  0.00000000000E+00  0.00000000000E+00 -0.81811146668E+03  0.25363300647E+04  0.24007631756E+04 0.  0.
        4    1    3    3  502    0 -0.64601105208E+03 -0.94275951660E+03 -0.79692285035E+03  0.13932743548E+04  0.12699999809E+01 0.  1.
       -4    1    3    3    0  502  0.64601105208E+03  0.94275951660E+03 -0.21188616329E+02  0.11430557099E+04  0.12699999809E+01 0. -1.
</event>
<event>
 5   0  0.2297414E-06  0.2402114E+04  0.7818609E-02  0.8438713E-01
        1   -1    0    0  501    0  0.00000000000E+00  0.00000000000E+00  0.11891274957E+04  0.11891274957E+04  0.50400001928E-02 0.  1.
       -1   -1    0    0    0  501  0.00000000000E+00  0.00000000000E+00 -0.12131060077E+04  0.12131060077E+04  0.50400001928E-02 0. -1.
    10030    2    1    2    0    0  0.00000000000E+00  0.00000000000E+00 -0.23978511977E+02  0.24022335034E+04  0.24021138265E+04 0.  0.
        1    1    3    3  502    0 -0.14805782859E+03 -0.52522989803E+03 -0.10819725323E+04  0.12117970651E+04  0.50400001928E-02 0. -1.
       -1    1    3    3    0  502  0.14805782859E+03  0.52522989803E+03  0.10579940203E+04  0.11904364382E+04  0.50400001928E-02 0.  1.
</event>
<event>
 5   0  0.2149029E-06  0.2399075E+04  0.7818609E-02  0.8439850E-01
       -1   -1    0    0    0  501  0.00000000000E+00  0.00000000000E+00  0.61085339436E+03  0.61085339438E+03  0.50400001928E-02 0.  1.
        1   -1    0    0  501    0  0.00000000000E+00  0.00000000000E+00 -0.23555414170E+04  0.23555414170E+04  0.50400001928E-02 0. -1.
    10030    2    1    2    0    0  0.00000000000E+00  0.00000000000E+00 -0.17446880226E+04  0.29663948113E+04  0.23990752136E+04 0.  0.
        4    1    3    3  502    0  0.72908015931E+03  0.57261163565E+03  0.68877638974E+02  0.92961696737E+03  0.12699999809E+01 0.  1.
       -4    1    3    3    0  502 -0.72908015931E+03 -0.57261163565E+03 -0.18135656616E+04  0.20367778440E+04  0.12699999809E+01 0. -1.
</event>
<event>
 5   0  0.5440503E-06  0.2397270E+04  0.7818609E-02  0.8440526E-01
        2   -1    0    0  501    0  0.00000000000E+00  0.00000000000E+00  0.14922287223E+04  0.14922287223E+04  0.25500000920E-02 0.  1.
       -2   -1    0    0    0  501  0.00000000000E+00  0.00000000000E+00 -0.96280553734E+03  0.96280553735E+03  0.25500000920E-02 0. -1.
    10030    2    1    2    0    0  0.00000000000E+00  0.00000000000E+00  0.52942318496E+03  0.24550342596E+04  0.23972701782E+04 0.  0.
        3    1    3    3  502    0 -0.82742754049E+03  0.23462757795E+03  0.11197178829E+04  0.14118975113E+04  0.10100000352E+00 0.  1.
       -3    1    3    3    0  502  0.82742754049E+03 -0.23462757795E+03 -0.59029469791E+03  0.10431367483E+04  0.10100000352E+00 0. -1.
</event>
<event>
 5   0  0.2149417E-06  0.2399860E+04  0.7818609E-02  0.8439556E-01
        1   -1    0    0  501    0  0.00000000000E+00  0.00000000000E+00  0.10888629865E+04  0.10888629865E+04  0.50400001928E-02 0. -1.
       -1   -1    0    0    0  501  0.00000000000E+00  0.00000000000E+00 -0.13223266069E+04  0.13223266069E+04  0.50400001928E-02 0.  1.
    10030    2    1    2    0    0  0.00000000000E+00  0.00000000000E+00 -0.23346362042E+03  0.24111895935E+04  0.23998604113E+04 0.  0.
        5    1    3    3  502    0 -0.80364002627E+03 -0.58121432835E+03 -0.79531862543E+03  0.12712990180E+04  0.46999998093E+01 0.  1.
       -5    1    3    3    0  502  0.80364002627E+03  0.58121432835E+03  0.56185500501E+03  0.11398905754E+04  0.46999998093E+01 0. -1.
</event>
<event>
 5   0  0.5440503E-06  0.2459608E+04  0.7818609E-02  0.8417518E-01
        2   -1    0    0  501    0  0.00000000000E+00  0.00000000000E+00  0.15894016831E+04  0.15894016831E+04  0.25500000920E-02 0. -1.
       -2   -1    0    0    0  501  0.00000000000E+00  0.00000000000E+00 -0.95156405127E+03  0.95156405127E+03  0.25500000920E-02 0.  1.
    10030    2    1    2    0    0  0.00000000000E+00  0.00000000000E+00  0.63783763187E+03  0.25409657344E+04  0.24596076961E+04 0.  0.
        3    1    3    3  502    0  0.67116010325E+03  0.26170920743E+03 -0.71078025808E+03  0.10120060172E+04  0.10100000352E+00 0.  1.
       -3    1    3    3    0  502 -0.67116010325E+03 -0.26170920743E+03  0.13486178899E+04  0.15289597172E+04  0.10100000352E+00 0. -1.
</event>
<event>
 5   0  0.2297414E-06  0.2400700E+04  0.7818609E-02  0.8439242E-01
        1   -1    0    0  501    0  0.00000000000E+00  0.00000000000E+00  0.16784813130E+04  0.16784813130E+04  0.50400001928E-02 0.  1.
       -1   -1    0    0    0  501  0.00000000000E+00  0.00000000000E+00 -0.85841862913E+03  0.85841862915E+03  0.50400001928E-02 0. -1.
    10030    2    1    2    0    0  0.00000000000E+00  0.00000000000E+00  0.82006268384E+03  0.25368999421E+04  0.24006995878E+04 0.  0.
        1    1    3    3  502    0  0.46934868238E+03  0.23882944714E+03  0.15498898424E+04  0.16369136245E+04  0.50400001928E-02 0.  1.
       -1    1    3    3    0  502 -0.46934868238E+03 -0.23882944714E+03 -0.72982715857E+03  0.89998631761E+03  0.50400001928E-02 0. -1.
</event>
<event>
 5   0  0.2149417E-06  0.2403528E+04  0.7818609E-02  0.8438184E-01
       -1   -1    0    0    0  501  0.00000000000E+00  0.00000000000E+00  0.47946640044E+03  0.47946640047E+03  0.50400001928E-02 0. -1.
        1   -1    0    0  501    0  0.00000000000E+00  0.00000000000E+00 -0.30121762354E+04  0.30121762354E+04  0.50400001928E-02 0.  1.
    10030    2    1    2    0    0  0.00000000000E+00  0.00000000000E+00 -0.25327098350E+04  0.34916426359E+04  0.24035284872E+04 0.  0.
        5    1    3    3  502    0  0.23396432842E+03 -0.13159419402E+02  0.44594154179E+03  0.50378410652E+03  0.46999998093E+01 0. -1.
       -5    1    3    3    0  502 -0.23396432842E+03  0.13159419402E+02 -0.29786513768E+04  0.29878585294E+04  0.46999998093E+01 0.  1.
</event>
<event>
 5   0  0.5379778E-06  0.2401246E+04  0.7818609E-02  0.8439037E-01
       -2   -1    0    0    0  501  0.00000000000E+00  0.00000000000E+00  0.78638284340E+03  0.78638284341E+03  0.25500000920E-02 0. -1.
        2   -1    0    0  501    0  0.00000000000E+00  0.00000000000E+00 -0.18330702999E+04  0.18330702999E+04  0.25500000920E-02 0.  1.
    10030    2    1    2    0    0  0.00000000000E+00  0.00000000000E+00 -0.10466874565E+04  0.26194531433E+04  0.24012455390E+04 0.  0.
        5    1    3    3  502    0  0.10469254951E+04  0.58759634274E+03 -0.50996150796E+03  0.13043792715E+04  0.46999998093E+01 0. -1.
       -5    1    3    3    0  502 -0.10469254951E+04 -0.58759634274E+03 -0.53672594851E+03  0.13150738718E+04  0.46999998093E+01 0.  1.
</event>
<event>
 5   0  0.2297414E-06  0.2393031E+04  0.7818609E-02  0.8442117E-01
       -1   -1    0    0    0  501  0.00000000000E+00  0.00000000000E+00  0.59832749788E+03  0.59832749790E+03  0.50400001928E-02 0.  1.
        1   -1    0    0  501    0  0.00000000000E+00  0.00000000000E+00 -0.23927514555E+04  0.23927514555E+04  0.50400001928E-02 0. -1.
    10030    2    1    2    0    0  0.00000000000E+00  0.00000000000E+00 -0.17944239577E+04  0.29910789534E+04  0.23930307073E+04 0.  0.
        1    1    3    3  502    0  0.65837970303E+03 -0.27837393789E+03  0.30211347700E+03  0.77603378513E+03  0.50400001928E-02 0.  1.
       -1    1    3    3    0  502 -0.65837970303E+03  0.27837393789E+03 -0.20965374347E+04  0.22150451683E+04  0.50400001928E-02 0. -1.
</event>
<event>
 5   0  0.5379778E-06  0.2373545E+04  0.7818609E-02  0.8449475E-01
        2   -1    0    0  501    0  0.00000000000E+00  0.00000000000E+00  0.18856674929E+04  0.18856674929E+04  0.25500000920E-02 0.  1.
       -2   -1    0    0    0  501  0.00000000000E+00  0.00000000000E+00 -0.74691276485E+03  0.74691276485E+03  0.25500000920E-02 0. -1.
    10030    2    1    2    0    0  0.00000000000E+00  0.00000000000E+00  0.11387547281E+04  0.26325802578E+04  0.23735451297E+04 0.  0.
        5    1    3    3  502    0  0.82563043275E+03  0.78441652634E+03  0.93962248764E+03  0.14764441769E+04  0.46999998093E+01 0. -1.
       -5    1    3    3    0  502 -0.82563043275E+03 -0.78441652634E+03  0.19913224043E+03  0.11561360809E+04  0.46999998093E+01 0.  1.
</event>
<event>
 5   0  0.2254269E-06  0.2398912E+04  0.7818609E-02  0.8439911E-01
        1   -1    0    0  501    0  0.00000000000E+00  0.00000000000E+00  0.91255632526E+03  0.91255632527E+03  0.50400001928E-02 0. -1.
       -1   -1    0    0    0  501  0.00000000000E+00  0.00000000000E+00 -0.15765546391E+04  0.15765546391E+04  0.50400001928E-02 0.  1.
    10030    2    1    2    0    0  0.00000000000E+00  0.00000000000E+00 -0.66399831388E+03  0.24891109644E+04  0.23989121769E+04 0.  0.
        2    1    3    3  502    0 -0.77856035884E+03 -0.47764567038E+03 -0.11386576779E+04  0.14597407052E+04  0.25500000920E-02 0.  1.
       -2    1    3    3    0  502  0.77856035884E+03  0.47764567038E+03  0.47465936404E+03  0.10293702593E+04  0.25500000920E-02 0. -1.
</event>
<event>
 5   0  0.2215700E-06  0.2398831E+04  0.7818609E-02  0.8439941E-01
        1   -1    0    0  501    0  0.00000000000E+00  0.00000000000E+00  0.15390722756E+04  0.15390722756E+04  0.50400001928E-02 0. -1.
       -1   -1    0    0    0  501  0.00000000000E+00  0.00000000000E+00 -0.93471733950E+03  0.93471733951E+03  0.50400001928E-02 0.  1.
    10030    2    1    2    0    0  0.00000000000E+00  0.00000000000E+00  0.60435493606E+03  0.24737896151E+04  0.23988310009E+04 0.  0.
        3    1    3    3  502    0 -0.11237488513E+04 -0.35086000195E+03  0.53887822059E+03  0.12947215796E+04  0.10100000352E+00 0. -1.
       -3    1    3    3    0  502  0.11237488513E+04  0.35086000195E+03  0.65476715476E+02  0.11790680355E+04  0.10100000352E+00 0.  1.
</event>
<event>
 5   0  0.2149417E-06  0.2434922E+04  0.7818609E-02  0.8426544E-01
       -1   -1    0    0    0  501  0.00000000000E+00  0.00000000000E+00  0.11041226139E+04  0.11041226139E+04  0.50400001928E-02 0. -1.
        1   -1    0    0  501    0  0.00000000000E+00  0.00000000000E+00 -0.13424341082E+04  0.13424341082E+04  0.50400001928E-02 0.  1.
    10030    2    1    2    0    0  0.00000000000E+00  0.00000000000E+00 -0.23831149432E+03  0.24465567221E+04  0.24349224682E+04 0.  0.
        5    1    3    3  502    0 -0.61025023860E+03  0.89146043416E+02  0.93554415556E+03  0.11205433181E+04  0.46999998093E+01 0. -1.
       -5    1    3    3    0  502  0.61025023860E+03 -0.89146043416E+02 -0.11738556499E+04  0.13260134040E+04  0.46999998093E+01 0.  1.
</event>
<event>
 5   0  0.5268358E-06  0.2404864E+04  0.7818609E-02  0.8437685E-01
        2   -1    0    0  501    0  0.00000000000E+00  0.00000000000E+00  0.14670434753E+04  0.14670434753E+04  0.25500000920E-02 0. -1.
       -2   -1    0    0    0  501  0.00000000000E+00  0.00000000000E+00 -0.98554884806E+03  0.98554884806E+03  0.25500000920E-02 0.  1.
    10030    2    1    2    0    0  0.00000000000E+00  0.00000000000E+00  0.48149462723E+03  0.24525923233E+04  0.24048642433E+04 0.  0.
        2    1    3    3  502    0  0.10862020858E+04  0.39458781793E+03  0.57946608784E+03  0.12927936665E+04  0.25500000920E-02 0. -1.
       -2    1    3    3    0  502 -0.10862020858E+04 -0.39458781793E+03 -0.97971460617E+02  0.11597986568E+04  0.25500000920E-02 0.  1.
</event>
<event>
 5   0  0.5349036E-06  0.2390669E+04  0.7818609E-02  0.8443005E-01
        2   -1    0    0  501    0  0.00000000000E+00  0.00000000000E+00  0.81131325928E+03  0.81131325929E+03  0.25500000920E-02 0. -1.
       -2   -1    0    0    0  501  0.00000000000E+00  0.00000000000E+00 -0.17611254918E+04  0.17611254918E+04  0.25500000920E-02 0.  1.
    10030    2    1    2    0    0  0.00000000000E+00  0.00000000000E+00 -0.94981223255E+03  0.25724387511E+04  0.23906689129E+04 0.  0.
        1    1    3    3  502    0 -0.22884634797E+03 -0.11703283685E+04 -0.56354225452E+03  0.13189461755E+04  0.50400001928E-02 0.  1.
       -1    1    3    3    0  502  0.22884634797E+03  0.11703283685E+04 -0.38626997803E+03  0.12534925756E+04  0.50400001928E-02 0. -1.
</event>
<event>
 5   0  0.2297414E-06  0.2402148E+04  0.7818609E-02  0.8438700E-01
        1   -1    0    0  501    0  0.00000000000E+00  0.00000000000E+00  0.11511243770E+04  0.11511243771E+04  0.50400001928E-02 0.  1.
       -1   -1    0    0    0  501  0.00000000000E+00  0.00000000000E+00 -0.12531909457E+04  0.12531909457E+04  0.50400001928E-02 0. -1.
    10030    2    1    2    0    0  0.00000000000E+00  0.00000000000E+00 -0.10206656867E+03  0.24043153228E+04  0.24021479111E+04 0.  0.
        1    1    3    3  502    0  0.54894885636E+03  0.49272067452E+03 -0.99975990176E+03  0.12424324413E+04  0.50400001928E-02 0. -1.
       -1    1    3    3    0  502 -0.54894885636E+03 -0.49272067452E+03  0.89769333308E+03  0.11618828815E+04  0.50400001928E-02 0.  1.
</event>
<event>
 5   0  0.2215700E-06  0.2397010E+04  0.7818609E-02  0.8440624E-01
        1   -1    0    0  501    0  0.00000000000E+00  0.00000000000E+00  0.11160272565E+04  0.11160272565E+04  0.50400001928E-02 0. -1.
       -1   -1    0    0    0  501  0.00000000000E+00  0.00000000000E+00 -0.12870786287E+04  0.12870786287E+04  0.50400001928E-02 0.  1.
    10030    2    1    2    0    0  0.00000000000E+00  0.00000000000E+00 -0.17105137215E+03  0.24031058852E+04  0.23970104972E+04 0.  0.
        3    1    3    3  502    0 -0.98074832396E+03  0.63711303360E+03  0.17712243440E+03  0.11828578357E+04  0.10100000352E+00 0.  1.
       -3    1    3    3    0  502  0.98074832396E+03 -0.63711303360E+03 -0.34817380655E+03  0.12202480495E+04  0.10100000352E+00 0. -1.
</event>
<event>
 5   0  0.2215700E-06  0.2392093E+04  0.7818609E-02  0.8442470E-01
        1   -1    0    0  501    0  0.00000000000E+00  0.00000000000E+00  0.16719076164E+04  0.16719076164E+04  0.50400001928E-02 0. -1.
       -1   -1    0    0    0  501  0.00000000000E+00  0.00000000000E+00 -0.85562586649E+03  0.85562586651E+03  0.50400001928E-02 0.  1.
    10030    2    1    2    0    0  0.00000000000E+00  0.00000000000E+00  0.81628174990E+03  0.25275334829E+04  0.23920931445E+04 0.  0.
        3    1    3    3  502    0 -0.35804499179E+03  0.89233705447E+03  0.11598023767E+04  0.15065202283E+04  0.10100000352E+00 0. -1.
       -3    1    3    3    0  502  0.35804499179E+03 -0.89233705447E+03 -0.34352062681E+03  0.10210132547E+04  0.10100000352E+00 0.  1.
</event>
<event>
 5   0  0.2149029E-06  0.2398184E+04  0.7818609E-02  0.8440184E-01
        1   -1    0    0  501    0  0.00000000000E+00  0.00000000000E+00  0.56990868781E+03  0.56990868784E+03  0.50400001928E-02 0.  1.
       -1   -1    0    0    0  501  0.00000000000E+00  0.00000000000E+00 -0.25228982356E+04  0.25228982356E+04  0.50400001928E-02 0. -1.
    10030    2    1    2    0    0  0.00000000000E+00  0.00000000000E+00 -0.19529895478E+04  0.30928069234E+04  0.23981839988E+04 0.  0.
        4    1    3    3  502    0  0.91550515580E+02 -0.62194152267E+03 -0.22933403370E+04  0.23779411828E+04  0.12699999809E+01 0. -1.
       -4    1    3    3    0  502 -0.91550515580E+02  0.62194152267E+03  0.34035078923E+03  0.71486574065E+03  0.12699999809E+01 0.  1.
</event>
<event>
 5   0  0.5349036E-06  0.2400562E+04  0.7818609E-02  0.8439293E-01
        2   -1    0    0  501    0  0.00000000000E+00  0.00000000000E+00  0.12866295215E+04  0.12866295215E+04  0.25500000920E-02 0. -1.
       -2   -1    0    0    0  501  0.00000000000E+00  0.00000000000E+00 -0.11197271013E+04  0.11197271013E+04  0.25500000920E-02 0.  1.
    10030    2    1    2    0    0  0.00000000000E+00  0.00000000000E+00  0.16690242016E+03  0.24063566228E+04  0.24005615548E+04 0.  0.
        1    1    3    3  502    0  0.10637041905E+04 -0.47457735696E+03  0.37395016417E+03  0.12233270201E+04  0.50400001928E-02 0.  1.
       -1    1    3    3    0  502 -0.10637041905E+04  0.47457735696E+03 -0.20704774400E+03  0.11830296028E+04  0.50400001928E-02 0. -1.
</event>
<event>
 5   0  0.5440503E-06  0.2391992E+04  0.7818609E-02  0.8442508E-01
       -2   -1    0    0    0  501  0.00000000000E+00  0.00000000000E+00  0.86731006891E+03  0.86731006891E+03  0.25500000920E-02 0.  1.
        2   -1    0    0  501    0  0.00000000000E+00  0.00000000000E+00 -0.16492441669E+04  0.16492441669E+04  0.25500000920E-02 0. -1.
    10030    2    1    2    0    0  0.00000000000E+00  0.00000000000E+00 -0.78193409794E+03  0.25165542358E+04  0.23919916990E+04 0.  0.
        3    1    3    3  502    0 -0.28981587687E+03  0.74108838488E+03 -0.13303236599E+04  0.15501504079E+04  0.10100000352E+00 0. -1.
       -3    1    3    3    0  502  0.28981587687E+03 -0.74108838488E+03  0.54838956197E+03  0.96640382789E+03  0.10100000352E+00 0.  1.
</event>
<event>
 5   0  0.2215700E-06  0.2410553E+04  0.7818609E-02  0.8435563E-01
       -1   -1    0    0    0  501  0.00000000000E+00  0.00000000000E+00  0.12579119754E+04  0.12579119754E+04  0.50400001928E-02 0. -1.
        1   -1    0    0  501    0  0.00000000000E+00  0.00000000000E+00 -0.11548434289E+04  0.11548434289E+04  0.50400001928E-02 0.  1.
    10030    2    1    2    0    0  0.00000000000E+00  0.00000000000E+00  0.10306854647E+03  0.24127554043E+04  0.24105529481E+04 0.  0.
        3    1    3    3  502    0  0.62910656822E+03 -0.41265514516E+03  0.99400599622E+03  0.12466383893E+04  0.10100000352E+00 0. -1.
       -3    1    3    3    0  502 -0.62910656822E+03  0.41265514516E+03 -0.89093744975E+03  0.11661170150E+04  0.10100000352E+00 0.  1.
</event>
<event>
 5   0  0.5371843E-06  0.2402758E+04  0.7818609E-02  0.8438472E-01
       -2   -1    0    0    0  501  0.00000000000E+00  0.00000000000E+00  0.23438029633E+04  0.23438029633E+04  0.25500000920E-02 0. -1.
        2   -1    0    0  501    0  0.00000000000E+00  0.00000000000E+00 -0.61579881017E+03  0.61579881018E+03  0.25500000920E-02 0.  1.
    10030    2    1    2    0    0  0.00000000000E+00  0.00000000000E+00  0.17280041531E+04  0.29596017735E+04  0.24027576458E+04 0.  0.
        4    1    3    3  502    0 -0.82116351667E+03  0.48267803178E+02  0.19425205577E+04  0.21095087182E+04  0.12699999809E+01 0. -1.
       -4    1    3    3    0  502  0.82116351667E+03 -0.48267803178E+02 -0.21451640460E+03  0.85009305531E+03  0.12699999809E+01 0.  1.
</event>
<event>
 5   0  0.2215700E-06  0.2397011E+04  0.7818609E-02  0.8440624E-01
        1   -1    0    0  501    0  0.00000000000E+00  0.00000000000E+00  0.26252231470E+04  0.26252231470E+04  0.50400001928E-02 0. -1.
       -1   -1    0    0    0  501  0.00000000000E+00  0.00000000000E+00 -0.54715927086E+03  0.54715927088E+03  0.50400001928E-02 0.  1.
    10030    2    1    2    0    0  0.00000000000E+00  0.00000000000E+00  0.20780638761E+04  0.31723824179E+04  0.23970107910E+04 0.  0.
        3    1    3    3  502    0  0.64023858523E+03 -0.50677765939E+03  0.22001392916E+04  0.23467726679E+04  0.10100000352E+00 0. -1.
       -3    1    3    3    0  502 -0.64023858523E+03  0.50677765939E+03 -0.12207541544E+03  0.82560975002E+03  0.10100000352E+00 0.  1.
</event>
<event>
 5   0  0.2215700E-06  0.2369875E+04  0.7818609E-02  0.8450869E-01
       -1   -1    0    0    0  501  0.00000000000E+00  0.00000000000E+00  0.14056599424E+04  0.14056599424E+04  0.50400001928E-02 0.  1.
        1   -1    0    0  501    0  0.00000000000E+00  0.00000000000E+00 -0.99887375848E+03  0.99887375849E+03  0.50400001928E-02 0. -1.
    10030    2    1    2    0    0  0.00000000000E+00  0.00000000000E+00  0.40678618391E+03  0.24045337009E+04  0.23698749586E+04 0.  0.
        3    1    3    3  502    0 -0.94566865970E+03  0.68570168125E+03  0.14832583012E+01  0.11681088219E+04  0.10100000352E+00 0. -1.
       -3    1    3    3    0  502  0.94566865970E+03 -0.68570168125E+03  0.40530292561E+03  0.12364248790E+04  0.10100000352E+00 0.  1.
</event>
<event>
 5   0  0.5379778E-06  0.2402118E+04  0.7818609E-02  0.8438711E-01
       -2   -1    0    0    0  501  0.00000000000E+00  0.00000000000E+00  0.79354136554E+03  0.79354136554E+03  0.25500000920E-02 0. -1.
        2   -1    0    0  501    0  0.00000000000E+00  0.00000000000E+00 -0.18178540481E+04  0.18178540481E+04  0.25500000920E-02 0.  1.
    10030    2    1    2    0    0  0.00000000000E+00  0.00000000000E+00 -0.10243126826E+04  0.26113954137E+04  0.24021177188E+04 0.  0.
        5    1    3    3  502    0 -0.19216070041E+03 -0.18778297541E+02  0.77654980834E+03  0.80020625721E+03  0.46999998093E+01 0. -1.
       -5    1    3    3    0  502  0.19216070041E+03  0.18778297541E+02 -0.18008624909E+04  0.18111891564E+04  0.46999998093E+01 0.  1.
</event>
<event>
 5   0  0.2149029E-06  0.2391602E+04  0.7818609E-02  0.8442654E-01
       -1   -1    0    0    0  501  0.00000000000E+00  0.00000000000E+00  0.28551818454E+04  0.28551818454E+04  0.50400001928E-02 0. -1.
        1   -1    0    0  501    0  0.00000000000E+00  0.00000000000E+00 -0.50082274373E+03  0.50082274376E+03  0.50400001928E-02 0.  1.
    10030    2    1    2    0    0  0.00000000000E+00  0.00000000000E+00  0.23543591017E+04  0.33560045892E+04  0.23916019784E+04 0.  0.
        4    1    3    3  502    0 -0.19789900223E+03  0.29173784738E+02 -0.47717676840E+03  0.51741125422E+03  0.12699999809E+01 0.  1.
       -4    1    3    3    0  502  0.19789900223E+03 -0.29173784738E+02  0.28315358701E+04  0.28385933349E+04  0.12699999809E+01 0. -1.
</event>
<event>
 5   0  0.2215700E-06  0.2396487E+04  0.7818609E-02  0.8440820E-01
        1   -1    0    0  501    0  0.00000000000E+00  0.00000000000E+00  0.15548363085E+04  0.15548363085E+04  0.50400001928E-02 0.  1.
       -1   -1    0    0    0  501  0.00000000000E+00  0.00000000000E+00 -0.92343330337E+03  0.92343330339E+03  0.50400001928E-02 0. -1.
    10030    2    1    2    0    0  0.00000000000E+00  0.00000000000E+00  0.63140300516E+03  0.24782696119E+04  0.23964871196E+04 0.  0.
        3    1    3    3  502    0 -0.81540251629E+02 -0.23676093686E+03 -0.89607313329E+03  0.93040401131E+03  0.10100000352E+00 0. -1.
       -3    1    3    3    0  502  0.81540251629E+02  0.23676093686E+03  0.15274761384E+04  0.15478656006E+04  0.10100000352E+00 0.  1.
</event>
<event>
 5   0  0.5268358E-06  0.2391586E+04  0.7818609E-02  0.8442660E-01
        2   -1    0    0  501    0  0.00000000000E+00  0.00000000000E+00  0.12833043064E+04  0.12833043064E+04  0.25500000920E-02 0. -1.
       -2   -1    0    0    0  501  0.00000000000E+00  0.00000000000E+00 -0.11142489734E+04  0.11142489734E+04  0.25500000920E-02 0.  1.
    10030    2    1    2    0    0  0.00000000000E+00  0.00000000000E+00  0.16905533305E+03  0.23975532798E+04  0.23915856714E+04 0.  0.
        2    1    3    3  502    0 -0.11750667410E+03  0.11461302055E+04 -0.23642465933E+03  0.11761457758E+04  0.25500000920E-02 0.  1.
       -2    1    3    3    0  502  0.11750667410E+03 -0.11461302055E+04  0.40547999238E+03  0.12214075039E+04  0.25500000920E-02 0. -1.
</event>
<event>
 5   0  0.2297414E-06  0.2455804E+04  0.7818609E-02  0.8418902E-01
       -1   -1    0    0    0  501  0.00000000000E+00  0.00000000000E+00  0.15917413798E+04  0.15917413798E+04  0.50400001928E-02 0. -1.
        1   -1    0    0  501    0  0.00000000000E+00  0.00000000000E+00 -0.94722917837E+03  0.94722917838E+03  0.50400001928E-02 0.  1.
    10030    2    1    2    0    0  0.00000000000E+00  0.00000000000E+00  0.64451220147E+03  0.25389705582E+04  0.24558044543E+04 0.  0.
        1    1    3    3  502    0 -0.53035420875E+03 -0.10153188859E+04 -0.13498335901E+03  0.11534160282E+04  0.50400001928E-02 0.  1.
       -1    1    3    3    0  502  0.53035420875E+03  0.10153188859E+04  0.77949556048E+03  0.13855545300E+04  0.50400001928E-02 0. -1.
</event>
<event>
 5   0  0.5349036E-06  0.2398450E+04  0.7818609E-02  0.8440084E-01
        2   -1    0    0  501    0  0.00000000000E+00  0.00000000000E+00  0.17444072410E+04  0.17444072410E+04  0.25500000920E-02 0. -1.
       -2   -1    0    0    0  501  0.00000000000E+00  0.00000000000E+00 -0.82442968132E+03  0.82442968132E+03  0.25500000920E-02 0.  1.
    10030    2    1    2    0    0  0.00000000000E+00  0.00000000000E+00  0.91997755966E+03  0.25688369223E+04  0.23984504212E+04 0.  0.
        1    1    3    3  502    0 -0.46285506379E+03  0.17183622294E+03  0.16305032784E+04  0.17036148152E+04  0.50400001928E-02 0. -1.
       -1    1    3    3    0  502  0.46285506379E+03 -0.17183622294E+03 -0.71052571876E+03  0.86522210711E+03  0.50400001928E-02 0.  1.
</event>
<event>
 5   0  0.2254269E-06  0.2398894E+04  0.7818609E-02  0.8439918E-01
       -1   -1    0    0    0  501  0.00000000000E+00  0.00000000000E+00  0.11307173089E+04  0.11307173089E+04  0.50400001928E-02 0. -1.
        1   -1    0    0  501    0  0.00000000000E+00  0.00000000000E+00 -0.12723542352E+04  0.12723542352E+04  0.50400001928E-02 0.  1.
    10030    2    1    2    0    0  0.00000000000E+00  0.00000000000E+00 -0.14163692625E+03  0.24030715441E+04  0.23988938758E+04 0.  0.
        2    1    3    3  502    0 -0.88563319239E+03  0.27588848572E+02 -0.88066042868E+03  0.12492678202E+04  0.25500000920E-02 0.  1.
       -2    1    3    3    0  502  0.88563319239E+03 -0.27588848572E+02  0.73902350243E+03  0.11538037239E+04  0.25500000920E-02 0. -1.
</event>
<event>
 5   0  0.2149029E-06  0.2400692E+04  0.7818609E-02  0.8439244E-01
        1   -1    0    0  501    0  0.00000000000E+00  0.00000000000E+00  0.21439230761E+04  0.21439230761E+04  0.50400001928E-02 0.  1.
       -1   -1    0    0    0  501  0.00000000000E+00  0.00000000000E+00 -0.67205344602E+03  0.67205344604E+03  0.50400001928E-02 0. -1.
    10030    2    1    2    0    0  0.00000000000E+00  0.00000000000E+00  0.14718696301E+04  0.28159765221E+04  0.24006923096E+04 0.  0.
        4    1    3    3  502    0 -0.68053540854E+03  0.94253865637E+03  0.10865018381E+04  0.15912245027E+04  0.12699999809E+01 0.  1.
       -4    1    3    3    0  502  0.68053540854E+03 -0.94253865637E+03  0.38536779200E+03  0.12247520194E+04  0.12699999809E+01 0. -1.
</event>
<event>
 5   0  0.5440503E-06  0.2395678E+04  0.7818609E-02  0.8441124E-01
        2   -1    0    0  501    0  0.00000000000E+00  0.00000000000E+00  0.23158501716E+04  0.23158501716E+04  0.25500000920E-02 0. -1.
       -2   -1    0    0    0  501  0.00000000000E+00  0.00000000000E+00 -0.61956413392E+03  0.61956413393E+03  0.25500000920E-02 0.  1.
    10030    2    1    2    0    0  0.00000000000E+00  0.00000000000E+00  0.16962860377E+04  0.29354143055E+04  0.23956775291E+04 0.  0.
        3    1    3    3  502    0 -0.73409450060E+03  0.24096614375E+03  0.19697128772E+04  0.21158280288E+04  0.10100000352E+00 0. -1.
       -3    1    3    3    0  502  0.73409450060E+03 -0.24096614375E+03 -0.27342683959E+03  0.81958627676E+03  0.10100000352E+00 0.  1.
</event>
<event>
 5   0  0.2215700E-06  0.2399713E+04  0.7818609E-02  0.8439611E-01
       -1   -1    0    0    0  501  0.00000000000E+00  0.00000000000E+00  0.54662910337E+03  0.54662910340E+03  0.50400001928E-02 0. -1.
        1   -1    0    0  501    0  0.00000000000E+00  0.00000000000E+00 -0.26336978192E+04  0.26336978192E+04  0.50400001928E-02 0.  1.
    10030    2    1    2    0    0  0.00000000000E+00  0.00000000000E+00 -0.20870687158E+04  0.31803269226E+04  0.23997132141E+04 0.  0.
        3    1    3    3  502    0  0.13771521974E+03  0.59227041698E+03 -0.24143696046E+04  0.24897651147E+04  0.10100000352E+00 0.  1.
       -3    1    3    3    0  502 -0.13771521974E+03 -0.59227041698E+03  0.32730088875E+03  0.69056180792E+03  0.10100000352E+00 0. -1.
</event>
<event>
 5   0  0.5268358E-06  0.2419518E+04  0.7818609E-02  0.8432232E-01
        2   -1    0    0  501    0  0.00000000000E+00  0.00000000000E+00  0.18160093138E+04  0.18160093138E+04  0.25500000920E-02 0. -1.
       -2   -1    0    0    0  501  0.00000000000E+00  0.00000000000E+00 -0.80589689474E+03  0.80589689475E+03  0.25500000920E-02 0.  1.
    10030    2    1    2    0    0  0.00000000000E+00  0.00000000000E+00  0.10101124190E+04  0.26219062085E+04  0.24195175278E+04 0.  0.
        2    1    3    3  502    0 -0.10992791108E+03  0.55281017758E+03 -0.65491990778E+03  0.86406210639E+03  0.25500000920E-02 0.  1.
       -2    1    3    3    0  502  0.10992791108E+03 -0.55281017758E+03  0.16650323268E+04  0.17578441021E+04  0.25500000920E-02 0. -1.
</event>
<event>
 5   0  0.5440503E-06  0.2408863E+04  0.7818609E-02  0.8436193E-01
       -2   -1    0    0    0  501  0.00000000000E+00  0.00000000000E+00  0.95835485589E+03  0.95835485590E+03  0.25500000920E-02 0. -1.
        2   -1    0    0  501    0  0.00000000000E+00  0.00000000000E+00 -0.15136936160E+04  0.15136936160E+04  0.25500000920E-02 0.  1.
    10030    2    1    2    0    0  0.00000000000E+00  0.00000000000E+00 -0.55533876014E+03  0.24720484719E+04  0.24088633230E+04 0.  0.
        3    1    3    3  502    0  0.11364601553E+04  0.62142166016E+02  0.12668655462E+03  0.11451868086E+04  0.10100000352E+00 0. -1.
       -3    1    3    3    0  502 -0.11364601553E+04 -0.62142166016E+02 -0.68202531476E+03  0.13268616633E+04  0.10100000352E+00 0.  1.
</event>
<event>
 5   0  0.5268358E-06  0.2399744E+04  0.7818609E-02  0.8439599E-01
       -2   -1    0    0    0  501  0.00000000000E+00  0.00000000000E+00  0.12800297346E+04  0.12800297346E+04  0.25500000920E-02 0.  1.
        2   -1    0    0  501    0  0.00000000000E+00  0.00000000000E+00 -0.11247339646E+04  0.11247339646E+04  0.25500000920E-02 0. -1.
    10030    2    1    2    0    0  0.00000000000E+00  0.00000000000E+00  0.15529576992E+03  0.24047636992E+04  0.23997440848E+04 0.  0.
        2    1    3    3  502    0 -0.10610686028E+04  0.25007542669E+02 -0.48316633976E+03  0.11661653694E+04  0.25500000920E-02 0. -1.
       -2    1    3    3    0  502  0.10610686028E+04 -0.25007542669E+02  0.63846210969E+03  0.12385983298E+04  0.25500000920E-02 0.  1.
</event>
<event>
 5   0  0.5268358E-06  0.2396725E+04  0.7818609E-02  0.8440731E-01
       -2   -1    0    0    0  501  0.00000000000E+00  0.00000000000E+00  0.10303164426E+04  0.10303164426E+04  0.25500000920E-02 0. -1.
        2   -1    0    0  501    0  0.00000000000E+00  0.00000000000E+00 -0.13938169678E+04  0.13938169678E+04  0.25500000920E-02 0.  1.
    10030    2    1    2    0    0  0.00000000000E+00  0.00000000000E+00 -0.36350052521E+03  0.24241334104E+04  0.23967248819E+04 0.  0.
        2    1    3    3  502    0  0.50715768054E+03 -0.37051138152E+03  0.85050160963E+03  0.10572798044E+04  0.25500000920E-02 0. -1.
       -2    1    3    3    0  502 -0.50715768054E+03  0.37051138152E+03 -0.12140021348E+04  0.13668536060E+04  0.25500000920E-02 0.  1.
</event>
<event>
 5   0  0.2149417E-06  0.2377954E+04  0.7818609E-02  0.8447804E-01
       -1   -1    0    0    0  501  0.00000000000E+00  0.00000000000E+00  0.88087067818E+03  0.88087067819E+03  0.50400001928E-02 0.  1.
        1   -1    0    0  501    0  0.00000000000E+00  0.00000000000E+00 -0.16048505930E+04  0.16048505930E+04  0.50400001928E-02 0. -1.
    10030    2    1    2    0    0  0.00000000000E+00  0.00000000000E+00 -0.72397991484E+03  0.24857212712E+04  0.23779535994E+04 0.  0.
        5    1    3    3  502    0  0.90942938792E+03  0.69152709475E+02 -0.11593158142E+04  0.14750861520E+04  0.46999998093E+01 0. -1.
       -5    1    3    3    0  502 -0.90942938792E+03 -0.69152709475E+02  0.43533589938E+03  0.10106351192E+04  0.46999998093E+01 0.  1.
</event>
<event>
 5   0  0.2297414E-06  0.2407824E+04  0.7818609E-02  0.8436580E-01
        1   -1    0    0  501    0  0.00000000000E+00  0.00000000000E+00  0.10867646530E+04  0.10867646530E+04  0.50400001928E-02 0.  1.
       -1   -1    0    0    0  501  0.00000000000E+00  0.00000000000E+00 -0.13336873808E+04  0.13336873808E+04  0.50400001928E-02 0. -1.
    10030    2    1    2    0    0  0.00000000000E+00  0.00000000000E+00 -0.24692272773E+03  0.24204520338E+04  0.24078241660E+04 0.  0.
        1    1    3    3  502    0  0.26840881558E+03 -0.11090098707E+04 -0.50947802952E+03  0.12496055571E+04  0.50400001928E-02 0. -1.
       -1    1    3    3    0  502 -0.26840881558E+03  0.11090098707E+04  0.26255530179E+03  0.11708464768E+04  0.50400001928E-02 0.  1.
</event>
<event>
 5   0  0.5268358E-06  0.2394828E+04  0.7818609E-02  0.8441442E-01
       -2   -1    0    0    0  501  0.00000000000E+00  0.00000000000E+00  0.71300617324E+03  0.71300617325E+03  0.25500000920E-02 0. -1.
        2   -1    0    0  501    0  0.00000000000E+00  0.00000000000E+00 -0.20109230165E+04  0.20109230165E+04  0.25500000920E-02 0.  1.
    10030    2    1    2    0    0  0.00000000000E+00  0.00000000000E+00 -0.12979168433E+04  0.27239291898E+04  0.23948281982E+04 0.  0.
        2    1    3    3  502    0  0.23154152409E+03  0.11694486009E+04 -0.77652732059E+03  0.14227495166E+04  0.25500000920E-02 0.  1.
       -2    1    3    3    0  502 -0.23154152409E+03 -0.11694486009E+04 -0.52138952269E+03  0.13011796731E+04  0.25500000920E-02 0. -1.
</event>
<event>
 5   0  0.5268358E-06  0.2399564E+04  0.7818609E-02  0.8439667E-01
        2   -1    0    0  501    0  0.00000000000E+00  0.00000000000E+00  0.19405026513E+04  0.19405026513E+04  0.25500000920E-02 0.  1.
       -2   -1    0    0    0  501  0.00000000000E+00  0.00000000000E+00 -0.74180599929E+03  0.74180599930E+03  0.25500000920E-02 0. -1.
    10030    2    1    2    0    0  0.00000000000E+00  0.00000000000E+00  0.11986966520E+04  0.26823086506E+04  0.23995637173E+04 0.  0.
        2    1    3    3  502    0 -0.58834691702E+03 -0.44990175067E+03  0.16544494116E+04  0.18126683468E+04  0.25500000920E-02 0.  1.
       -2    1    3    3    0  502  0.58834691702E+03  0.44990175067E+03 -0.45575275961E+03  0.86964030376E+03  0.25500000920E-02 0. -1.
</event>
<event>
 5   0  0.5440503E-06  0.2379413E+04  0.7818609E-02  0.8447252E-01
        2   -1    0    0  501    0  0.00000000000E+00  0.00000000000E+00  0.11515613860E+04  0.11515613860E+04  0.25500000920E-02 0.  1.
       -2   -1    0    0    0  501  0.00000000000E+00  0.00000000000E+00 -0.12291149117E+04  0.12291149117E+04  0.25500000920E-02 0. -1.
    10030    2    1    2    0    0  0.00000000000E+00  0.00000000000E+00 -0.77553525703E+02  0.23806762977E+04  0.23794127606E+04 0.  0.
        3    1    3    3  502    0 -0.96788509375E+03  0.69017162746E+03  0.88177211495E+01  0.11887876987E+04  0.10100000352E+00 0. -1.
       -3    1    3    3    0  502  0.96788509375E+03 -0.69017162746E+03 -0.86371246853E+02  0.11918885990E+04  0.10100000352E+00 0.  1.
</event>
<event>
 5   0  0.2254269E-06  0.2402964E+04  0.7818609E-02  0.8438395E-01
        1   -1    0    0  501    0  0.00000000000E+00  0.00000000000E+00  0.10951725315E+04  0.10951725315E+04  0.50400001928E-02 0. -1.
       -1   -1    0    0    0  501  0.00000000000E+00  0.00000000000E+00 -0.13181109352E+04  0.13181109352E+04  0.50400001928E-02 0.  1.
    10030    2    1    2    0    0  0.00000000000E+00  0.00000000000E+00 -0.22293840373E+03  0.24132834667E+04  0.24029639113E+04 0.  0.
        2    1    3    3  502    0 -0.24696407498E+03  0.11626596056E+04  0.64755947273E+02  0.11903621069E+04  0.25500000920E-02 0. -1.
       -2    1    3    3    0  502  0.24696407498E+03 -0.11626596056E+04 -0.28769435100E+03  0.12229213599E+04  0.25500000920E-02 0.  1.
</event>
<event>
 5   0  0.2297414E-06  0.2394817E+04  0.7818609E-02  0.8441447E-01
        1   -1    0    0  501    0  0.00000000000E+00  0.00000000000E+00  0.12415284657E+04  0.12415284657E+04  0.50400001928E-02 0.  1.
       -1   -1    0    0    0  501  0.00000000000E+00  0.00000000000E+00 -0.11548561268E+04  0.11548561268E+04  0.50400001928E-02 0. -1.
    10030    2    1    2    0    0  0.00000000000E+00  0.00000000000E+00  0.86672338896E+02  0.23963845925E+04  0.23948166988E+04 0.  0.
        1    1    3    3  502    0 -0.78417666730E+03  0.77405934275E+03 -0.42567725854E+03  0.11812290379E+04  0.50400001928E-02 0. -1.
       -1    1    3    3    0  502  0.78417666730E+03 -0.77405934275E+03  0.51234959744E+03  0.12151555545E+04  0.50400001928E-02 0.  1.
</event>
<event>
 5   0  0.5268358E-06  0.2397561E+04  0.7818609E-02  0.8440417E-01
        2   -1    0    0  501    0  0.00000000000E+00  0.00000000000E+00  0.18407696694E+04  0.18407696694E+04  0.25500000920E-02 0. -1.
       -2   -1    0    0    0  501  0.00000000000E+00  0.00000000000E+00 -0.78069249630E+03  0.78069249630E+03  0.25500000920E-02 0.  1.
    10030    2    1    2    0    0  0.00000000000E+00  0.00000000000E+00  0.10600771731E+04  0.26214621657E+04  0.23975613179E+04 0.  0.
        2    1    3    3  502    0 -0.61575832350E+03 -0.56095150806E+03 -0.41259167291E+03  0.92954655393E+03  0.25500000920E-02 0.  1.
       -2    1    3    3    0  502  0.61575832350E+03  0.56095150806E+03  0.14726688460E+04  0.16919156118E+04  0.25500000920E-02 0. -1.
</event>
<event>
 5   0  0.5379778E-06  0.2399107E+04  0.7818609E-02  0.8439838E-01
       -2   -1    0    0    0  501  0.00000000000E+00  0.00000000000E+00  0.69670311308E+03  0.69670311309E+03  0.25500000920E-02 0. -1.
        2   -1    0    0  501    0  0.00000000000E+00  0.00000000000E+00 -0.20653398111E+04  0.20653398111E+04  0.25500000920E-02 0.  1.
    10030    2    1    2    0    0  0.00000000000E+00  0.00000000000E+00 -0.13686366980E+04  0.27620429242E+04  0.23991070638E+04 0.  0.
        5    1    3    3  502    0  0.33977731770E+03 -0.65867005775E+03  0.40155966722E+03  0.84295143806E+03  0.46999998093E+01 0. -1.
       -5    1    3    3    0  502 -0.33977731770E+03  0.65867005775E+03 -0.17701963652E+04  0.19190914861E+04  0.46999998093E+01 0.  1.
</event>
<event>
 5   0  0.2254269E-06  0.2398941E+04  0.7818609E-02  0.8439900E-01
        1   -1    0    0  501    0  0.00000000000E+00  0.00000000000E+00  0.12928703614E+04  0.12928703614E+04  0.50400001928E-02 0. -1.
       -1   -1    0    0    0  501  0.00000000000E+00  0.00000000000E+00 -0.11128176093E+04  0.11128176093E+04  0.50400001928E-02 0.  1.
    10030    2    1    2    0    0  0.00000000000E+00  0.00000000000E+00  0.18005275207E+03  0.24056879707E+04  0.23989405200E+04 0.  0.
        2    1    3    3  502    0 -0.25865615273E+02  0.11966531697E+04  0.16822690240E+03  0.12086968724E+04  0.25500000920E-02 0.  1.
       -2    1    3    3    0  502  0.25865615273E+02 -0.11966531697E+04  0.11825849672E+02  0.11969910983E+04  0.25500000920E-02 0. -1.
</event>
<event>
 5   0  0.2149417E-06  0.2401107E+04  0.7818609E-02  0.8439089E-01
       -1   -1    0    0    0  501  0.00000000000E+00  0.00000000000E+00  0.11585561814E+04  0.11585561814E+04  0.50400001928E-02 0.  1.
        1   -1    0    0  501    0  0.00000000000E+00  0.00000000000E+00 -0.12440730213E+04  0.12440730213E+04  0.50400001928E-02 0. -1.
    10030    2    1    2    0    0  0.00000000000E+00  0.00000000000E+00 -0.85516839885E+02  0.24026292027E+04  0.24011068189E+04 0.  0.
        5    1    3    3  502    0  0.60153452179E+03 -0.77404435583E+03  0.65073074528E+03  0.11766312245E+04  0.46999998093E+01 0.  1.
       -5    1    3    3    0  502 -0.60153452179E+03  0.77404435583E+03 -0.73624758517E+03  0.12259979781E+04  0.46999998093E+01 0. -1.
</event>
<event>
 5   0  0.5371843E-06  0.2396647E+04  0.7818609E-02  0.8440760E-01
       -2   -1    0    0    0  501  0.00000000000E+00  0.00000000000E+00  0.15363790140E+04  0.15363790140E+04  0.25500000920E-02 0. -1.
        2   -1    0    0  501    0  0.00000000000E+00  0.00000000000E+00 -0.93465205523E+03  0.93465205523E+03  0.25500000920E-02 0.  1.
    10030    2    1    2    0    0  0.00000000000E+00  0.00000000000E+00  0.60172695873E+03  0.24710310692E+04  0.23966474943E+04 0.  0.
        4    1    3    3  502    0 -0.69477114512E+02  0.10002218678E+04 -0.37578822317E+03  0.10707423854E+04  0.12699999809E+01 0.  1.
       -4    1    3    3    0  502  0.69477114512E+02 -0.10002218678E+04  0.97751518190E+03  0.14002886838E+04  0.12699999809E+01 0. -1.
</event>
<event>
 5   0  0.2215700E-06  0.2399473E+04  0.7818609E-02  0.8439701E-01
       -1   -1    0    0    0  501  0.00000000000E+00  0.00000000000E+00  0.61275536579E+03  0.61275536581E+03  0.50400001928E-02 0. -1.
        1   -1    0    0  501    0  0.00000000000E+00  0.00000000000E+00 -0.23490090810E+04  0.23490090810E+04  0.50400001928E-02 0.  1.
    10030    2    1    2    0    0  0.00000000000E+00  0.00000000000E+00 -0.17362537153E+04  0.29617644469E+04  0.23994732078E+04 0.  0.
        3    1    3    3  502    0 -0.49290147282E+03  0.15867681283E+03 -0.22039751356E+04  0.22639868819E+04  0.10100000352E+00 0.  1.
       -3    1    3    3    0  502  0.49290147282E+03 -0.15867681283E+03  0.46772142038E+03  0.69777756493E+03  0.10100000352E+00 0. -1.
</event>
<event>
 5   0  0.2254269E-06  0.2404322E+04  0.7818609E-02  0.8437887E-01
       -1   -1    0    0    0  501  0.00000000000E+00  0.00000000000E+00  0.10075548955E+04  0.10075548955E+04  0.50400001928E-02 0. -1.
        1   -1    0    0  501    0  0.00000000000E+00  0.00000000000E+00 -0.14343550701E+04  0.14343550701E+04  0.50400001928E-02 0.  1.
    10030    2    1    2    0    0  0.00000000000E+00  0.00000000000E+00 -0.42680017461E+03  0.24419099657E+04  0.24043223352E+04 0.  0.
        2    1    3    3  502    0 -0.11780436479E+04  0.21264989474E+03 -0.10129027120E+03  0.12013602845E+04  0.25500000920E-02 0. -1.
       -2    1    3    3    0  502  0.11780436479E+04 -0.21264989474E+03 -0.32550990341E+03  0.12405496812E+04  0.25500000920E-02 0.  1.
</event>
<event>
 5   0  0.5268358E-06  0.2405095E+04  0.7818609E-02  0.8437599E-01
       -2   -1    0    0    0  501  0.00000000000E+00  0.00000000000E+00  0.66144349330E+03  0.66144349330E+03  0.25500000920E-02 0.  1.
        2   -1    0    0  501    0  0.00000000000E+00  0.00000000000E+00 -0.21863090630E+04  0.21863090630E+04  0.25500000920E-02 0. -1.
    10030    2    1    2    0    0  0.00000000000E+00  0.00000000000E+00 -0.15248655697E+04  0.28477525563E+04  0.24050945129E+04 0.  0.
        2    1    3    3  502    0  0.72532188782E+03  0.10401922841E+03  0.36658749295E+03  0.81932791410E+03  0.25500000920E-02 0.  1.
       -2    1    3    3    0  502 -0.72532188782E+03 -0.10401922841E+03 -0.18914530626E+04  0.20284246422E+04  0.25500000920E-02 0. -1.
</event>
<event>
 5   0  0.5379778E-06  0.2402283E+04  0.7818609E-02  0.8438649E-01
        2   -1    0    0  501    0  0.00000000000E+00  0.00000000000E+00  0.13573064207E+04  0.13573064207E+04  0.25500000920E-02 0. -1.
       -2   -1    0    0    0  501  0.00000000000E+00  0.00000000000E+00 -0.10629439202E+04  0.10629439202E+04  0.25500000920E-02 0.  1.
    10030    2    1    2    0    0  0.00000000000E+00  0.00000000000E+00  0.29436250052E+03  0.24202503410E+04  0.24022827542E+04 0.  0.
        5    1    3    3  502    0  0.68565734865E+03 -0.82620826971E+03  0.68969969467E+03  0.12761088760E+04  0.46999998093E+01 0. -1.
       -5    1    3    3    0  502 -0.68565734865E+03  0.82620826971E+03 -0.39533719415E+03  0.11441414649E+04  0.46999998093E+01 0.  1.
</event>
<event>
 5   0  0.2149029E-06  0.2394266E+04  0.7818609E-02  0.8441653E-01
        1   -1    0    0  501    0  0.00000000000E+00  0.00000000000E+00  0.19503388589E+04  0.19503388589E+04  0.50400001928E-02 0.  1.
       -1   -1    0    0    0  501  0.00000000000E+00  0.00000000000E+00 -0.73480945176E+03  0.73480945178E+03  0.50400001928E-02 0. -1.
    10030    2    1    2    0    0  0.00000000000E+00  0.00000000000E+00  0.12155294072E+04  0.26851483107E+04  0.23942660067E+04 0.  0.
        4    1    3    3  502    0  0.92803685537E+03 -0.52920880586E+02  0.14537830658E+04  0.17255549368E+04  0.12699999809E+01 0.  1.
       -4    1    3    3    0  502 -0.92803685537E+03  0.52920880586E+02 -0.23825365864E+03  0.95959337392E+03  0.12699999809E+01 0. -1.
</event>
<event>
 5   0  0.5379778E-06  0.2399244E+04  0.7818609E-02  0.8439787E-01
       -2   -1    0    0    0  501  0.00000000000E+00  0.00000000000E+00  0.69907426820E+03  0.69907426820E+03  0.25500000920E-02 0. -1.
        2   -1    0    0  501    0  0.00000000000E+00  0.00000000000E+00 -0.20585695695E+04  0.20585695695E+04  0.25500000920E-02 0.  1.
    10030    2    1    2    0    0  0.00000000000E+00  0.00000000000E+00 -0.13594953013E+04  0.27576438377E+04  0.23992440604E+04 0.  0.
        5    1    3    3  502    0  0.73328874832E+03  0.63215316425E+02  0.40905124250E+03  0.84205318931E+03  0.46999998093E+01 0. -1.
       -5    1    3    3    0  502 -0.73328874832E+03 -0.63215316425E+02 -0.17685465438E+04  0.19155906484E+04  0.46999998093E+01 0.  1.
</event>
<event>
 5   0  0.2215700E-06  0.2447640E+04  0.7818609E-02  0.8421880E-01
       -1   -1    0    0    0  501  0.00000000000E+00  0.00000000000E+00  0.11558590502E+04  0.11558590502E+04  0.50400001928E-02 0.  1.
        1   -1    0    0  501    0  0.00000000000E+00  0.00000000000E+00 -0.12957767757E+04  0.12957767757E+04  0.50400001928E-02 0. -1.
    10030    2    1    2    0    0  0.00000000000E+00  0.00000000000E+00 -0.13991772555E+03  0.24516358259E+04  0.24476399353E+04 0.  0.
        3    1    3    3  502    0 -0.69082096980E+03 -0.62436913705E+03 -0.86539945398E+03  0.12712146384E+04  0.10100000352E+00 0. -1.
       -3    1    3    3    0  502  0.69082096980E+03  0.62436913705E+03  0.72548172843E+03  0.11804211876E+04  0.10100000352E+00 0.  1.
</event>
<event>
 5   0  0.5268358E-06  0.2401088E+04  0.7818609E-02  0.8439096E-01
        2   -1    0    0  501    0  0.00000000000E+00  0.00000000000E+00  0.23409209331E+04  0.23409209331E+04  0.25500000920E-02 0.  1.
       -2   -1    0    0    0  501  0.00000000000E+00  0.00000000000E+00 -0.61570060088E+03  0.61570060089E+03  0.25500000920E-02 0. -1.
    10030    2    1    2    0    0  0.00000000000E+00  0.00000000000E+00  0.17252203322E+04  0.29566215339E+04  0.24010884408E+04 0.  0.
        2    1    3    3  502    0 -0.17771200566E+03 -0.26994770641E+03  0.22863460235E+04  0.23090758888E+04  0.25500000920E-02 0.  1.
       -2    1    3    3    0  502  0.17771200566E+03  0.26994770641E+03 -0.56112569128E+03  0.64754564517E+03  0.25500000920E-02 0. -1.
</event>
<event>
 5   0  0.5440503E-06  0.2398040E+04  0.7818609E-02  0.8440238E-01
        2   -1    0    0  501    0  0.00000000000E+00  0.00000000000E+00  0.14648400043E+04  0.14648400043E+04  0.25500000920E-02 0.  1.
       -2   -1    0    0    0  501  0.00000000000E+00  0.00000000000E+00 -0.98143783491E+03  0.98143783491E+03  0.25500000920E-02 0. -1.
    10030    2    1    2    0    0  0.00000000000E+00  0.00000000000E+00  0.48340216940E+03  0.24462778392E+04  0.23980403686E+04 0.  0.
        3    1    3    3  502    0  0.93366610043E+02  0.63954123681E+03 -0.78852406686E+03  0.10195589888E+04  0.10100000352E+00 0. -1.
       -3    1    3    3    0  502 -0.93366610043E+02 -0.63954123681E+03  0.12719262363E+04  0.14267188504E+04  0.10100000352E+00 0.  1.
</event>
<event>
 5   0  0.5349036E-06  0.2401833E+04  0.7818609E-02  0.8438818E-01
       -2   -1    0    0    0  501  0.00000000000E+00  0.00000000000E+00  0.54836237237E+03  0.54836237237E+03  0.25500000920E-02 0. -1.
        2   -1    0    0  501    0  0.00000000000E+00  0.00000000000E+00 -0.26300140724E+04  0.26300140724E+04  0.25500000920E-02 0.  1.
    10030    2    1    2    0    0  0.00000000000E+00  0.00000000000E+00 -0.20816517001E+04  0.31783764448E+04  0.24018332633E+04 0.  0.
        1    1    3    3  502    0  0.85798306013E+03  0.63628244133E+02  0.67931155238E+02  0.86301687516E+03  0.50400001928E-02 0. -1.
       -1    1    3    3    0  502 -0.85798306013E+03 -0.63628244133E+02 -0.21495828553E+04  0.23153595697E+04  0.50400001928E-02 0.  1.
</event>
<event>
 5   0  0.2297414E-06  0.2416656E+04  0.7818609E-02  0.8433294E-01
        1   -1    0    0  501    0  0.00000000000E+00  0.00000000000E+00  0.12973432314E+04  0.12973432314E+04  0.50400001928E-02 0.  1.
       -1   -1    0    0    0  501  0.00000000000E+00  0.00000000000E+00 -0.11254202358E+04  0.11254202359E+04  0.50400001928E-02 0. -1.
    10030    2    1    2    0    0  0.00000000000E+00  0.00000000000E+00  0.17192299558E+03  0.24227634673E+04  0.24166558096E+04 0.  0.
        1    1    3    3  502    0 -0.30689634138E+03 -0.19674499804E+03  0.12408983647E+04  0.12933378175E+04  0.50400001928E-02 0.  1.
       -1    1    3    3    0  502  0.30689634138E+03  0.19674499804E+03 -0.10689753691E+04  0.11294256498E+04  0.50400001928E-02 0. -1.
</event>
<event>
 5   0  0.5440503E-06  0.2394978E+04  0.7818609E-02  0.8441386E-01
        2   -1    0    0  501    0  0.00000000000E+00  0.00000000000E+00  0.15754120906E+04  0.15754120906E+04  0.25500000920E-02 0. -1.
       -2   -1    0    0    0  501  0.00000000000E+00  0.00000000000E+00 -0.91022516086E+03  0.91022516086E+03  0.25500000920E-02 0.  1.
    10030    2    1    2    0    0  0.00000000000E+00  0.00000000000E+00  0.66518692976E+03  0.24856372515E+04  0.23949778484E+04 0.  0.
        3    1    3    3  502    0 -0.47507359678E+03  0.70823346385E+03  0.12050639972E+04  0.14763024112E+04  0.10100000352E+00 0. -1.
       -3    1    3    3    0  502  0.47507359678E+03 -0.70823346385E+03 -0.53987706746E+03  0.10093348403E+04  0.10100000352E+00 0.  1.
</event>
<event>
 5   0  0.2149029E-06  0.2403608E+04  0.7818609E-02  0.8438154E-01
       -1   -1    0    0    0  501  0.00000000000E+00  0.00000000000E+00  0.66597393951E+03  0.66597393953E+03  0.50400001928E-02 0. -1.
        1   -1    0    0  501    0  0.00000000000E+00  0.00000000000E+00 -0.21687521997E+04  0.21687521997E+04  0.50400001928E-02 0.  1.
    10030    2    1    2    0    0  0.00000000000E+00  0.00000000000E+00 -0.15027782601E+04  0.28347261392E+04  0.24036076604E+04 0.  0.
        4    1    3    3  502    0 -0.38787773647E+03  0.67479158259E+03 -0.18313522055E+04  0.19898857585E+04  0.12699999809E+01 0.  1.
       -4    1    3    3    0  502  0.38787773647E+03 -0.67479158259E+03  0.32857394535E+03  0.84484038069E+03  0.12699999809E+01 0. -1.
</event>
<event>
 5   0  0.5379778E-06  0.2396914E+04  0.7818609E-02  0.8440660E-01
       -2   -1    0    0    0  501  0.00000000000E+00  0.00000000000E+00  0.67679821045E+03  0.67679821045E+03  0.25500000920E-02 0.  1.
        2   -1    0    0  501    0  0.00000000000E+00  0.00000000000E+00 -0.21221975165E+04  0.21221975165E+04  0.25500000920E-02 0. -1.
    10030    2    1    2    0    0  0.00000000000E+00  0.00000000000E+00 -0.14453993060E+04  0.27989957269E+04  0.23969142508E+04 0.  0.
        5    1    3    3  502    0 -0.50592367743E+03  0.35442709249E+03 -0.19219620688E+04  0.20187960806E+04  0.46999998093E+01 0. -1.
       -5    1    3    3    0  502  0.50592367743E+03 -0.35442709249E+03  0.47656276275E+03  0.78019964632E+03  0.46999998093E+01 0.  1.
</event>
<event>
 5   0  0.2149029E-06  0.2394957E+04  0.7818609E-02  0.8441394E-01
        1   -1    0    0  501    0  0.00000000000E+00  0.00000000000E+00  0.84837682719E+03  0.84837682721E+03  0.50400001928E-02 0. -1.
       -1   -1    0    0    0  501  0.00000000000E+00  0.00000000000E+00 -0.16902328945E+04  0.16902328945E+04  0.50400001928E-02 0.  1.
    10030    2    1    2    0    0  0.00000000000E+00  0.00000000000E+00 -0.84185606732E+03  0.25386097217E+04  0.23949567180E+04 0.  0.
        4    1    3    3  502    0  0.93408781049E+03 -0.63902152549E+03 -0.61998604228E+01  0.11317723264E+04  0.12699999809E+01 0. -1.
       -4    1    3    3    0  502 -0.93408781049E+03  0.63902152549E+03 -0.83565620690E+03  0.14068373953E+04  0.12699999809E+01 0.  1.
</event>
<event>
 5   0  0.2149417E-06  0.2401753E+04  0.7818609E-02  0.8438847E-01
       -1   -1    0    0    0  501  0.00000000000E+00  0.00000000000E+00  0.11874875742E+04  0.11874875742E+04  0.50400001928E-02 0. -1.
        1   -1    0    0  501    0  0.00000000000E+00  0.00000000000E+00 -0.12144168275E+04  0.12144168275E+04  0.50400001928E-02 0.  1.
    10030    2    1    2    0    0  0.00000000000E+00  0.00000000000E+00 -0.26929253244E+02  0.24019044017E+04  0.24017534366E+04 0.  0.
        5    1    3    3  502    0  0.66889775703E+02 -0.10769043094E+04  0.51371712920E+03  0.11950416363E+04  0.46999998093E+01 0. -1.
       -5    1    3    3    0  502 -0.66889775703E+02  0.10769043094E+04 -0.54064638245E+03  0.12068627654E+04  0.46999998093E+01 0.  1.
</event>
<event>
 5   0  0.5349036E-06  0.2399550E+04  0.7818609E-02  0.8439672E-01
        2   -1    0    0  501    0  0.00000000000E+00  0.00000000000E+00  0.12611891773E+04  0.12611891773E+04  0.25500000920E-02 0.  1.
       -2   -1    0    0    0  501  0.00000000000E+00  0.00000000000E+00 -0.11413513986E+04  0.11413513986E+04  0.25500000920E-02 0. -1.
    10030    2    1    2    0    0  0.00000000000E+00  0.00000000000E+00  0.11983777873E+03  0.24025405758E+04  0.23995499839E+04 0.  0.
        1    1    3    3  502    0  0.67203147668E+03 -0.28365863601E+03  0.10136665773E+04  0.12488428474E+04  0.50400001928E-02 0.  1.
       -1    1    3    3    0  502 -0.67203147668E+03  0.28365863601E+03 -0.89382879859E+03  0.11536977285E+04  0.50400001928E-02 0. -1.
</event>
<event>
 5   0  0.5371843E-06  0.2396648E+04  0.7818609E-02  0.8440760E-01
       -2   -1    0    0    0  501  0.00000000000E+00  0.00000000000E+00  0.81187604938E+03  0.81187604938E+03  0.25500000920E-02 0. -1.
        2   -1    0    0  501    0  0.00000000000E+00  0.00000000000E+00 -0.17687184715E+04  0.17687184715E+04  0.25500000920E-02 0.  1.
    10030    2    1    2    0    0  0.00000000000E+00  0.00000000000E+00 -0.95684242211E+03  0.25805945209E+04  0.23966477965E+04 0.  0.
        4    1    3    3  502    0 -0.11307288995E+04  0.16423865379E+03 -0.89512022500E+02  0.11460960669E+04  0.12699999809E+01 0. -1.
       -4    1    3    3    0  502  0.11307288995E+04 -0.16423865379E+03 -0.86733039961E+03  0.14344984540E+04  0.12699999809E+01 0.  1.
</event>
<event>
 5   0  0.5440503E-06  0.2397174E+04  0.7818609E-02  0.8440562E-01
        2   -1    0    0  501    0  0.00000000000E+00  0.00000000000E+00  0.19551819955E+04  0.19551819955E+04  0.25500000920E-02 0. -1.
       -2   -1    0    0    0  501  0.00000000000E+00  0.00000000000E+00 -0.73477072740E+03  0.73477072741E+03  0.25500000920E-02 0.  1.
    10030    2    1    2    0    0  0.00000000000E+00  0.00000000000E+00  0.12204112681E+04  0.26899527229E+04  0.23971737501E+04 0.  0.
        3    1    3    3  502    0  0.60376150660E+03  0.67466977181E+03  0.14915662816E+04  0.17448430418E+04  0.10100000352E+00 0. -1.
       -3    1    3    3    0  502 -0.60376150660E+03 -0.67466977181E+03 -0.27115501349E+03  0.94510968114E+03  0.10100000352E+00 0.  1.
</event>
<event>
 5   0  0.2149029E-06  0.2366779E+04  0.7818609E-02  0.8452047E-01
        1   -1    0    0  501    0  0.00000000000E+00  0.00000000000E+00  0.12817322894E+04  0.12817322894E+04  0.50400001928E-02 0. -1.
       -1   -1    0    0    0  501  0.00000000000E+00  0.00000000000E+00 -0.10925925326E+04  0.10925925326E+04  0.50400001928E-02 0.  1.
    10030    2    1    2    0    0  0.00000000000E+00  0.00000000000E+00  0.18913975677E+03  0.23743248220E+04  0.23667793545E+04 0.  0.
        4    1    3    3  502    0  0.51898522874E+03 -0.66494930857E+03  0.92721976569E+03  0.12534916663E+04  0.12699999809E+01 0. -1.
       -4    1    3    3    0  502 -0.51898522874E+03  0.66494930857E+03 -0.73808000892E+03  0.11208331558E+04  0.12699999809E+01 0.  1.
</event>
<event>
 5   0  0.2254269E-06  0.2402515E+04  0.7818609E-02  0.8438563E-01
        1   -1    0    0  501    0  0.00000000000E+00  0.00000000000E+00  0.22937092981E+04  0.22937092981E+04  0.50400001928E-02 0. -1.
       -1   -1    0    0    0  501  0.00000000000E+00  0.00000000000E+00 -0.62912031966E+03  0.62912031968E+03  0.50400001928E-02 0.  1.
    10030    2    1    2    0    0  0.00000000000E+00  0.00000000000E+00  0.16645889784E+04  0.29228296178E+04  0.24025146217E+04 0.  0.
        2    1    3    3  502    0  0.62082022140E+02  0.17087857399E+03  0.22768748202E+04  0.22841218469E+04  0.25500000920E-02 0. -1.
       -2    1    3    3    0  502 -0.62082022140E+02 -0.17087857399E+03 -0.61228584179E+03  0.63870777088E+03  0.25500000920E-02 0.  1.
</event>
<event>
 5   0  0.5379778E-06  0.2400088E+04  0.7818609E-02  0.8439471E-01
        2   -1    0    0  501    0  0.00000000000E+00  0.00000000000E+00  0.65970359886E+03  0.65970359887E+03  0.25500000920E-02 0.  1.
       -2   -1    0    0    0  501  0.00000000000E+00  0.00000000000E+00 -0.21829580507E+04  0.21829580507E+04  0.25500000920E-02 0. -1.
    10030    2    1    2    0    0  0.00000000000E+00  0.00000000000E+00 -0.15232544518E+04  0.28426616495E+04  0.24000877336E+04 0.  0.
        5    1    3    3  502    0 -0.10891716449E+04 -0.50332609068E+03 -0.78678466826E+03  0.14348115660E+04  0.46999998093E+01 0. -1.
       -5    1    3    3    0  502  0.10891716449E+04  0.50332609068E+03 -0.73646978355E+03  0.14078500836E+04  0.46999998093E+01 0.  1.
</event>
<event>
 5   0  0.2297414E-06  0.2401156E+04  0.7818609E-02  0.8439071E-01
        1   -1    0    0  501    0  0.00000000000E+00  0.00000000000E+00  0.18410671624E+04  0.18410671624E+04  0.50400001928E-02 0. -1.
       -1   -1    0    0    0  501  0.00000000000E+00  0.00000000000E+00 -0.78290884685E+03  0.78290884687E+03  0.50400001928E-02 0.  1.
    10030    2    1    2    0    0  0.00000000000E+00  0.00000000000E+00  0.10581583155E+04  0.26239760093E+04  0.24011561958E+04 0.  0.
        1    1    3    3  502    0  0.64649238449E+03  0.37533790767E+03 -0.49754336048E+03  0.89798682826E+03  0.50400001928E-02 0.  1.
       -1    1    3    3    0  502 -0.64649238449E+03 -0.37533790767E+03  0.15557016760E+04  0.17259891810E+04  0.50400001928E-02 0. -1.
</event>
<event>
 5   0  0.5440503E-06  0.2400751E+04  0.7818609E-02  0.8439223E-01
       -2   -1    0    0    0  501  0.00000000000E+00  0.00000000000E+00  0.20185668489E+04  0.20185668489E+04  0.25500000920E-02 0. -1.
        2   -1    0    0  501    0  0.00000000000E+00  0.00000000000E+00 -0.71382371085E+03  0.71382371086E+03  0.25500000920E-02 0.  1.
    10030    2    1    2    0    0  0.00000000000E+00  0.00000000000E+00  0.13047431380E+04  0.27323905597E+04  0.24007506148E+04 0.  0.
        3    1    3    3  502    0 -0.93836367583E+03  0.38532163300E+03 -0.78081856212E+02  0.10173966461E+04  0.10100000352E+00 0.  1.
       -3    1    3    3    0  502  0.93836367583E+03 -0.38532163300E+03  0.13828249942E+04  0.17149939136E+04  0.10100000352E+00 0. -1.
</event>
<event>
 5   0  0.2254269E-06  0.2394463E+04  0.7818609E-02  0.8441580E-01
        1   -1    0    0  501    0  0.00000000000E+00  0.00000000000E+00  0.16568038020E+04  0.16568038020E+04  0.50400001928E-02 0. -1.
       -1   -1    0    0    0  501  0.00000000000E+00  0.00000000000E+00 -0.86513730271E+03  0.86513730273E+03  0.50400001928E-02 0.  1.
    10030    2    1    2    0    0  0.00000000000E+00  0.00000000000E+00  0.79166649929E+03  0.25219411047E+04  0.23944625889E+04 0.  0.
        2    1    3    3  502    0 -0.42435441001E+03  0.89606705499E+03  0.11026420348E+04  0.14828460099E+04  0.25500000920E-02 0. -1.
       -2    1    3    3    0  502  0.42435441001E+03 -0.89606705499E+03 -0.31097553550E+03  0.10390950948E+04  0.25500000920E-02 0.  1.
</event>
<event>
 5   0  0.2149029E-06  0.2400398E+04  0.7818609E-02  0.8439355E-01
        1   -1    0    0  501    0  0.00000000000E+00  0.00000000000E+00  0.91966241143E+03  0.91966241145E+03  0.50400001928E-02 0.  1.
       -1   -1    0    0    0  501  0.00000000000E+00  0.00000000000E+00 -0.15663108519E+04  0.15663108520E+04  0.50400001928E-02 0. -1.
    10030    2    1    2    0    0  0.00000000000E+00  0.00000000000E+00 -0.64664844052E+03  0.24859732634E+04  0.24003976464E+04 0.  0.
        4    1    3    3  502    0 -0.83290084365E+03  0.77923842354E+03  0.63542595308E+02  0.11423552908E+04  0.12699999809E+01 0.  1.
       -4    1    3    3    0  502  0.83290084365E+03 -0.77923842354E+03 -0.71019103583E+03  0.13436179726E+04  0.12699999809E+01 0. -1.
</event>
<event>
 5   0  0.1796750E-06  0.2399606E+04  0.7818609E-02  0.8439651E-01
        3   -1    0    0  501    0  0.00000000000E+00  0.00000000000E+00  0.88011578457E+03  0.88011579036E+03  0.10100000352E+00 0. -1.
       -3   -1    0    0    0  501  0.00000000000E+00  0.00000000000E+00 -0.16356109678E+04  0.16356109709E+04  0.10100000352E+00 0.  1.
    10030    2    1    2    0    0  0.00000000000E+00  0.00000000000E+00 -0.75549518324E+03  0.25157267613E+04  0.23996058355E+04 0.  0.
        3    1    3    3  502    0  0.30862901199E+03  0.97214521801E+03 -0.10401526415E+04  0.14567895249E+04  0.10100000352E+00 0.  1.
       -3    1    3    3    0  502 -0.30862901199E+03 -0.97214521801E+03  0.28465745826E+03  0.10589372364E+04  0.10100000352E+00 0. -1.
</event>
<event>
 5   0  0.5371843E-06  0.2402553E+04  0.7818609E-02  0.8438548E-01
        2   -1    0    0  501    0  0.00000000000E+00  0.00000000000E+00  0.21697429451E+04  0.21697429451E+04  0.25500000920E-02 0. -1.
       -2   -1    0    0    0  501  0.00000000000E+00  0.00000000000E+00 -0.66508583866E+03  0.66508583866E+03  0.25500000920E-02 0.  1.
    10030    2    1    2    0    0  0.00000000000E+00  0.00000000000E+00  0.15046571065E+04  0.28348287838E+04  0.24025530640E+04 0.  0.
        4    1    3    3  502    0  0.75993193096E+02  0.93691315153E+03 -0.13023723572E+03  0.94897026791E+03  0.12699999809E+01 0.  1.
       -4    1    3    3    0  502 -0.75993193096E+02 -0.93691315153E+03  0.16348943422E+04  0.18858585159E+04  0.12699999809E+01 0. -1.
</event>
<event>
 5   0  0.2149417E-06  0.2392410E+04  0.7818609E-02  0.8442351E-01
        1   -1    0    0  501    0  0.00000000000E+00  0.00000000000E+00  0.13946503925E+04  0.13946503925E+04  0.50400001928E-02 0.  1.
       -1   -1    0    0    0  501  0.00000000000E+00  0.00000000000E+00 -0.10259963011E+04  0.10259963012E+04  0.50400001928E-02 0. -1.
    10030    2    1    2    0    0  0.00000000000E+00  0.00000000000E+00  0.36865409132E+03  0.24206466936E+04  0.23924097844E+04 0.  0.
        5    1    3    3  502    0 -0.10912993096E+04  0.34804087531E+03 -0.16444036372E+03  0.11572075688E+04  0.46999998093E+01 0. -1.
       -5    1    3    3    0  502  0.10912993096E+04 -0.34804087531E+03  0.53309445503E+03  0.12634391248E+04  0.46999998093E+01 0.  1.
</event>
<event>
 5   0  0.5268358E-06  0.2420848E+04  0.7818609E-02  0.8431739E-01
       -2   -1    0    0    0  501  0.00000000000E+00  0.00000000000E+00  0.75205468810E+03  0.75205468810E+03  0.25500000920E-02 0.  1.
        2   -1    0    0  501    0  0.00000000000E+00  0.00000000000E+00 -0.19481645990E+04  0.19481645990E+04  0.25500000920E-02 0. -1.
    10030    2    1    2    0    0  0.00000000000E+00  0.00000000000E+00 -0.11961099109E+04  0.27002192871E+04  0.24208480497E+04 0.  0.
        2    1    3    3  502    0 -0.95090978128E+03  0.29276102046E+03  0.17083500027E+03  0.10095162329E+04  0.25500000920E-02 0.  1.
       -2    1    3    3    0  502  0.95090978128E+03 -0.29276102046E+03 -0.13669449112E+04  0.16907030542E+04  0.25500000920E-02 0. -1.
</event>
<event>
 5   0  0.2149029E-06  0.2400139E+04  0.7818609E-02  0.8439452E-01
       -1   -1    0    0    0  501  0.00000000000E+00  0.00000000000E+00  0.15706913485E+04  0.15706913485E+04  0.50400001928E-02 0.  1.
        1   -1    0    0  501    0  0.00000000000E+00  0.00000000000E+00 -0.91689971229E+03  0.91689971231E+03  0.50400001928E-02 0. -1.
    10030    2    1    2    0    0  0.00000000000E+00  0.00000000000E+00  0.65379163618E+03  0.24875910608E+04  0.24001387006E+04 0.  0.
        4    1    3    3  502    0  0.63228314827E+03  0.74931270675E+03  0.10441467252E+04  0.14323042654E+04  0.12699999809E+01 0.  1.
       -4    1    3    3    0  502 -0.63228314827E+03 -0.74931270675E+03 -0.39035508901E+03  0.10552867954E+04  0.12699999809E+01 0. -1.
</event>
<event>
 5   0  0.2297414E-06  0.2403999E+04  0.7818609E-02  0.8438008E-01
       -1   -1    0    0    0  501  0.00000000000E+00  0.00000000000E+00  0.12780439834E+04  0.12780439834E+04  0.50400001928E-02 0.  1.
        1   -1    0    0  501    0  0.00000000000E+00  0.00000000000E+00 -0.11304796886E+04  0.11304796886E+04  0.50400001928E-02 0. -1.
    10030    2    1    2    0    0  0.00000000000E+00  0.00000000000E+00  0.14756429481E+03  0.24085236720E+04  0.24039989720E+04 0.  0.
        1    1    3    3  502    0 -0.36364006333E+03  0.90854419666E+03 -0.62546851835E+03  0.11614204753E+04  0.50400001928E-02 0. -1.
       -1    1    3    3    0  502  0.36364006333E+03 -0.90854419666E+03  0.77303281316E+03  0.12471031967E+04  0.50400001928E-02 0.  1.
</event>
<event>
 5   0  0.5268358E-06  0.2403525E+04  0.7818609E-02  0.8438185E-01
       -2   -1    0    0    0  501  0.00000000000E+00  0.00000000000E+00  0.98069957289E+03  0.98069957289E+03  0.25500000920E-02 0.  1.
        2   -1    0    0  501    0  0.00000000000E+00  0.00000000000E+00 -0.14726554579E+04  0.14726554579E+04  0.25500000920E-02 0. -1.
    10030    2    1    2    0    0  0.00000000000E+00  0.00000000000E+00 -0.49195588502E+03  0.24533550308E+04  0.24035245608E+04 0.  0.
        2    1    3    3  502    0  0.58842174983E+03  0.82212666762E+03 -0.90913988848E+03  0.13596572179E+04  0.25500000920E-02 0. -1.
       -2    1    3    3    0  502 -0.58842174983E+03 -0.82212666762E+03  0.41718400346E+03  0.10936978129E+04  0.25500000920E-02 0.  1.
</event>
<event>
 5   0  0.5349036E-06  0.2402230E+04  0.7818609E-02  0.8438669E-01
       -2   -1    0    0    0  501  0.00000000000E+00  0.00000000000E+00  0.66949852177E+03  0.66949852178E+03  0.25500000920E-02 0. -1.
        2   -1    0    0  501    0  0.00000000000E+00  0.00000000000E+00 -0.21548630442E+04  0.21548630442E+04  0.25500000920E-02 0.  1.
    10030    2    1    2    0    0  0.00000000000E+00  0.00000000000E+00 -0.14853645225E+04  0.28243615660E+04  0.24022303160E+04 0.  0.
        1    1    3    3  502    0  0.86091043583E+03  0.47084184514E+03 -0.15570944787E+04  0.18404896189E+04  0.50400001928E-02 0.  1.
       -1    1    3    3    0  502 -0.86091043583E+03 -0.47084184514E+03  0.71729956238E+02  0.98387194711E+03  0.50400001928E-02 0. -1.
</event>
<event>
 5   0  0.2254269E-06  0.2339802E+04  0.7818609E-02  0.8462391E-01
        1   -1    0    0  501    0  0.00000000000E+00  0.00000000000E+00  0.18104867821E+04  0.18104867821E+04  0.50400001928E-02 0. -1.
       -1   -1    0    0    0  501  0.00000000000E+00  0.00000000000E+00 -0.75596702265E+03  0.75596702266E+03  0.50400001928E-02 0.  1.
    10030    2    1    2    0    0  0.00000000000E+00  0.00000000000E+00  0.10545197594E+04  0.25664538047E+04  0.23398019593E+04 0.  0.
        2    1    3    3  502    0 -0.10182050596E+04 -0.12596289198E+03 -0.89390770421E+02  0.10298538263E+04  0.25500000920E-02 0.  1.
       -2    1    3    3    0  502  0.10182050596E+04  0.12596289198E+03  0.11439105298E+04  0.15365999785E+04  0.25500000920E-02 0. -1.
</event>
<event>
 5   0  0.2215700E-06  0.2401711E+04  0.7818609E-02  0.8438863E-01
       -1   -1    0    0    0  501  0.00000000000E+00  0.00000000000E+00  0.11166101258E+04  0.11166101258E+04  0.50400001928E-02 0.  1.
        1   -1    0    0  501    0  0.00000000000E+00  0.00000000000E+00 -0.12914570797E+04  0.12914570797E+04  0.50400001928E-02 0. -1.
    10030    2    1    2    0    0  0.00000000000E+00  0.00000000000E+00 -0.17484695389E+03  0.24080672055E+04  0.24017111002E+04 0.  0.
        3    1    3    3  502    0 -0.43331358648E+03  0.72725640926E+03  0.76652971659E+03  0.11420290564E+04  0.10100000352E+00 0.  1.
       -3    1    3    3    0  502  0.43331358648E+03 -0.72725640926E+03 -0.94137667048E+03  0.12660381491E+04  0.10100000352E+00 0. -1.
</event>
<event>
 5   0  0.2297414E-06  0.2400703E+04  0.7818609E-02  0.8439240E-01
        1   -1    0    0  501    0  0.00000000000E+00  0.00000000000E+00  0.12856561716E+04  0.12856561716E+04  0.50400001928E-02 0. -1.
       -1   -1    0    0    0  501  0.00000000000E+00  0.00000000000E+00 -0.11207072282E+04  0.11207072283E+04  0.50400001928E-02 0.  1.
    10030    2    1    2    0    0  0.00000000000E+00  0.00000000000E+00  0.16494894338E+03  0.24063633999E+04  0.24007033674E+04 0.  0.
        1    1    3    3  502    0  0.42000107835E+03  0.92769631964E+03 -0.55449428135E+03  0.11595194157E+04  0.50400001928E-02 0.  1.
       -1    1    3    3    0  502 -0.42000107835E+03 -0.92769631964E+03  0.71944322474E+03  0.12468439842E+04  0.50400001928E-02 0. -1.
</event>
<event>
 5   0  0.5371843E-06  0.2398397E+04  0.7818609E-02  0.8440104E-01
       -2   -1    0    0    0  501  0.00000000000E+00  0.00000000000E+00  0.13784702529E+04  0.13784702529E+04  0.25500000920E-02 0. -1.
        2   -1    0    0  501    0  0.00000000000E+00  0.00000000000E+00 -0.10432414043E+04  0.10432414043E+04  0.25500000920E-02 0.  1.
    10030    2    1    2    0    0  0.00000000000E+00  0.00000000000E+00  0.33522884862E+03  0.24217116572E+04  0.23983971668E+04 0.  0.
        4    1    3    3  502    0  0.99775469837E+03  0.56836956401E+03  0.51668769055E+03  0.12591767874E+04  0.12699999809E+01 0.  1.
       -4    1    3    3    0  502 -0.99775469837E+03 -0.56836956401E+03 -0.18145884192E+03  0.11625348699E+04  0.12699999809E+01 0. -1.
</event>
<event>
 5   0  0.2215700E-06  0.2401304E+04  0.7818609E-02  0.8439016E-01
       -1   -1    0    0    0  501  0.00000000000E+00  0.00000000000E+00  0.87217268434E+03  0.87217268435E+03  0.50400001928E-02 0. -1.
        1   -1    0    0  501    0  0.00000000000E+00  0.00000000000E+00 -0.16528436386E+04  0.16528436386E+04  0.50400001928E-02 0.  1.
    10030    2    1    2    0    0  0.00000000000E+00  0.00000000000E+00 -0.78067095429E+03  0.25250163230E+04  0.24013038734E+04 0.  0.
        3    1    3    3  502    0  0.76650320759E+03  0.42586569046E+03  0.47208713506E+03  0.99586898077E+03  0.10100000352E+00 0. -1.
       -3    1    3    3    0  502 -0.76650320759E+03 -0.42586569046E+03 -0.12527580893E+04  0.15291473422E+04  0.10100000352E+00 0.  1.
</event>
<event>
 5   0  0.2297414E-06  0.2399810E+04  0.7818609E-02  0.8439575E-01
       -1   -1    0    0    0  501  0.00000000000E+00  0.00000000000E+00  0.68061810712E+03  0.68061810714E+03  0.50400001928E-02 0.  1.
        1   -1    0    0  501    0  0.00000000000E+00  0.00000000000E+00 -0.21153889960E+04  0.21153889960E+04  0.50400001928E-02 0. -1.
    10030    2    1    2    0    0  0.00000000000E+00  0.00000000000E+00 -0.14347708888E+04  0.27960071031E+04  0.23998100377E+04 0.  0.
        1    1    3    3  502    0 -0.68741818271E+03  0.21185436140E+03  0.40155853864E+03  0.82381750912E+03  0.50400001928E-02 0.  1.
       -1    1    3    3    0  502  0.68741818271E+03 -0.21185436140E+03 -0.18363294275E+04  0.19721895940E+04  0.50400001928E-02 0. -1.
</event>
<event>
 5   0  0.2297414E-06  0.2402048E+04  0.7818609E-02  0.8438737E-01
        1   -1    0    0  501    0  0.00000000000E+00  0.00000000000E+00  0.11289068497E+04  0.11289068497E+04  0.50400001928E-02 0.  1.
       -1   -1    0    0    0  501  0.00000000000E+00  0.00000000000E+00 -0.12777479573E+04  0.12777479573E+04  0.50400001928E-02 0. -1.
    10030    2    1    2    0    0  0.00000000000E+00  0.00000000000E+00 -0.14884110757E+03  0.24066548070E+04  0.24020478107E+04 0.  0.
        1    1    3    3  502    0 -0.33941270895E+03 -0.11472781193E+04  0.30710917638E+02  0.11968254803E+04  0.50400001928E-02 0.  1.
       -1    1    3    3    0  502  0.33941270895E+03  0.11472781193E+04 -0.17955202520E+03  0.12098293267E+04  0.50400001928E-02 0. -1.
</event>
<event>
 5   0  0.5371843E-06  0.2384949E+04  0.7818609E-02  0.8445160E-01
        2   -1    0    0  501    0  0.00000000000E+00  0.00000000000E+00  0.13499901629E+04  0.13499901629E+04  0.25500000920E-02 0.  1.
       -2   -1    0    0    0  501  0.00000000000E+00  0.00000000000E+00 -0.10533378452E+04  0.10533378452E+04  0.25500000920E-02 0. -1.
    10030    2    1    2    0    0  0.00000000000E+00  0.00000000000E+00  0.29665231773E+03  0.24033280082E+04  0.23849492484E+04 0.  0.
        4    1    3    3  502    0  0.23556475293E+03 -0.56608415349E+03  0.11789746286E+04  0.13288810366E+04  0.12699999809E+01 0.  1.
       -4    1    3    3    0  502 -0.23556475293E+03  0.56608415349E+03 -0.88232231084E+03  0.10744469716E+04  0.12699999809E+01 0. -1.
</event>
<event>
 5   0  0.5440503E-06  0.2412727E+04  0.7818609E-02  0.8434754E-01
        2   -1    0    0  501    0  0.00000000000E+00  0.00000000000E+00  0.17629863929E+04  0.17629863929E+04  0.25500000920E-02 0.  1.
       -2   -1    0    0    0  501  0.00000000000E+00  0.00000000000E+00 -0.82548159883E+03  0.82548159883E+03  0.25500000920E-02 0. -1.
    10030    2    1    2    0    0  0.00000000000E+00  0.00000000000E+00  0.93750479405E+03  0.25884679917E+04  0.24127269438E+04 0.  0.
        3    1    3    3  502    0  0.95599475535E+03 -0.53897807411E+02  0.12560159897E+04  0.15793692166E+04  0.10100000352E+00 0.  1.
       -3    1    3    3    0  502 -0.95599475535E+03  0.53897807411E+02 -0.31851119565E+03  0.10090987751E+04  0.10100000352E+00 0. -1.
</event>
<event>
 5   0  0.5379778E-06  0.2397296E+04  0.7818609E-02  0.8440516E-01
        2   -1    0    0  501    0  0.00000000000E+00  0.00000000000E+00  0.87426997889E+03  0.87426997889E+03  0.25500000920E-02 0.  1.
       -2   -1    0    0    0  501  0.00000000000E+00  0.00000000000E+00 -0.16433794909E+04  0.16433794909E+04  0.25500000920E-02 0. -1.
    10030    2    1    2    0    0  0.00000000000E+00  0.00000000000E+00 -0.76910951202E+03  0.25176494698E+04  0.23972962711E+04 0.  0.
        5    1    3    3  502    0 -0.10505501598E+04 -0.10736103008E+03  0.21097023946E+03  0.10768995129E+04  0.46999998093E+01 0.  1.
       -5    1    3    3    0  502  0.10505501598E+04  0.10736103008E+03 -0.98007975149E+03  0.14407499569E+04  0.46999998093E+01 0. -1.
</event>
<event>
 5   0  0.5440503E-06  0.2446514E+04  0.7818609E-02  0.8422292E-01
       -2   -1    0    0    0  501  0.00000000000E+00  0.00000000000E+00  0.81409078098E+03  0.81409078099E+03  0.25500000920E-02 0.  1.
        2   -1    0    0  501    0  0.00000000000E+00  0.00000000000E+00 -0.18380723507E+04  0.18380723507E+04  0.25500000920E-02 0. -1.
    10030    2    1    2    0    0  0.00000000000E+00  0.00000000000E+00 -0.10239815697E+04  0.26521631316E+04  0.24465140551E+04 0.  0.
        3    1    3    3  502    0 -0.10384031554E+04 -0.62436825796E+03 -0.69416708005E+03  0.13964185547E+04  0.10100000352E+00 0. -1.
       -3    1    3    3    0  502  0.10384031554E+04  0.62436825796E+03 -0.32981448962E+03  0.12557445769E+04  0.10100000352E+00 0.  1.
</event>
<event>
 5   0  0.2149417E-06  0.2404166E+04  0.7818609E-02  0.8437945E-01
        1   -1    0    0  501    0  0.00000000000E+00  0.00000000000E+00  0.87079829071E+03  0.87079829072E+03  0.50400001928E-02 0.  1.
       -1   -1    0    0    0  501  0.00000000000E+00  0.00000000000E+00 -0.16594016324E+04  0.16594016324E+04  0.50400001928E-02 0. -1.
    10030    2    1    2    0    0  0.00000000000E+00  0.00000000000E+00 -0.78860334169E+03  0.25301999231E+04  0.24041664710E+04 0.  0.
        5    1    3    3  502    0  0.33244223574E+03 -0.42056793296E+03 -0.15266162078E+04  0.16180155630E+04  0.46999998093E+01 0. -1.
       -5    1    3    3    0  502 -0.33244223574E+03  0.42056793296E+03  0.73801286608E+03  0.91218436011E+03  0.46999998093E+01 0.  1.
</event>
<event>
 5   0  0.5379778E-06  0.2401751E+04  0.7818609E-02  0.8438848E-01
        2   -1    0    0  501    0  0.00000000000E+00  0.00000000000E+00  0.21820931321E+04  0.21820931321E+04  0.25500000920E-02 0.  1.
       -2   -1    0    0    0  501  0.00000000000E+00  0.00000000000E+00 -0.66088003211E+03  0.66088003211E+03  0.25500000920E-02 0. -1.
    10030    2    1    2    0    0  0.00000000000E+00  0.00000000000E+00  0.15212131000E+04  0.28429731642E+04  0.24017508440E+04 0.  0.
        5    1    3    3  502    0  0.11210299583E+02 -0.29721093200E+03 -0.61658115945E+03  0.68458339528E+03  0.46999998093E+01 0. -1.
       -5    1    3    3    0  502 -0.11210299583E+02  0.29721093200E+03  0.21377942594E+04  0.21583897689E+04  0.46999998093E+01 0.  1.
</event>
<event>
 5   0  0.5268358E-06  0.2398563E+04  0.7818609E-02  0.8440042E-01
       -2   -1    0    0    0  501  0.00000000000E+00  0.00000000000E+00  0.10133484339E+04  0.10133484339E+04  0.25500000920E-02 0. -1.
        2   -1    0    0  501    0  0.00000000000E+00  0.00000000000E+00 -0.14193307308E+04  0.14193307308E+04  0.25500000920E-02 0.  1.
    10030    2    1    2    0    0  0.00000000000E+00  0.00000000000E+00 -0.40598229691E+03  0.24326791647E+04  0.23985633810E+04 0.  0.
        2    1    3    3  502    0 -0.35514167256E+03  0.11173438469E+03 -0.13592353852E+04  0.14093016045E+04  0.25500000920E-02 0.  1.
       -2    1    3    3    0  502  0.35514167256E+03 -0.11173438469E+03  0.95325308824E+03  0.10233775601E+04  0.25500000920E-02 0. -1.
</event>
<event>
 5   0  0.5379778E-06  0.2406215E+04  0.7818609E-02  0.8437180E-01
        2   -1    0    0  501    0  0.00000000000E+00  0.00000000000E+00  0.19830163904E+04  0.19830163904E+04  0.25500000920E-02 0. -1.
       -2   -1    0    0    0  501  0.00000000000E+00  0.00000000000E+00 -0.72993252283E+03  0.72993252283E+03  0.25500000920E-02 0.  1.
    10030    2    1    2    0    0  0.00000000000E+00  0.00000000000E+00  0.12530838675E+04  0.27129489132E+04  0.24062154157E+04 0.  0.
        5    1    3    3  502    0  0.10463031733E+04 -0.58310948241E+03  0.75349721507E+03  0.14151138265E+04  0.46999998093E+01 0. -1.
       -5    1    3    3    0  502 -0.10463031733E+04  0.58310948241E+03  0.49958665246E+03  0.12978350867E+04  0.46999998093E+01 0.  1.
</event>
<event>
 5   0  0.2297414E-06  0.2400404E+04  0.7818609E-02  0.8439353E-01
       -1   -1    0    0    0  501  0.00000000000E+00  0.00000000000E+00  0.66244200352E+03  0.66244200354E+03  0.50400001928E-02 0.  1.
        1   -1    0    0  501    0  0.00000000000E+00  0.00000000000E+00 -0.21745062490E+04  0.21745062490E+04  0.50400001928E-02 0. -1.
    10030    2    1    2    0    0  0.00000000000E+00  0.00000000000E+00 -0.15120642455E+04  0.28369482525E+04  0.24004035296E+04 0.  0.
        1    1    3    3  502    0  0.10960473157E+04 -0.48758698600E+03 -0.71144142850E+03  0.13947077448E+04  0.50400001928E-02 0. -1.
       -1    1    3    3    0  502 -0.10960473157E+04  0.48758698600E+03 -0.80062281696E+03  0.14422405077E+04  0.50400001928E-02 0.  1.
</event>
<event>
 5   0  0.5268358E-06  0.2375201E+04  0.7818609E-02  0.8448847E-01
       -2   -1    0    0    0  501  0.00000000000E+00  0.00000000000E+00  0.11749801468E+04  0.11749801468E+04  0.25500000920E-02 0.  1.
        2   -1    0    0  501    0  0.00000000000E+00  0.00000000000E+00 -0.12003562133E+04  0.12003562133E+04  0.25500000920E-02 0. -1.
    10030    2    1    2    0    0  0.00000000000E+00  0.00000000000E+00 -0.25376066526E+02  0.23753363601E+04  0.23752008081E+04 0.  0.
        2    1    3    3  502    0  0.38647984098E+03  0.19727101143E+03 -0.11182429597E+04  0.11994789854E+04  0.25500000920E-02 0. -1.
       -2    1    3    3    0  502 -0.38647984098E+03 -0.19727101143E+03  0.10928668932E+04  0.11758573747E+04  0.25500000920E-02 0.  1.
</event>
<event>
 5   0  0.2149417E-06  0.2408804E+04  0.7818609E-02  0.8436215E-01
       -1   -1    0    0    0  501  0.00000000000E+00  0.00000000000E+00  0.13724610178E+04  0.13724610178E+04  0.50400001928E-02 0.  1.
        1   -1    0    0  501    0  0.00000000000E+00  0.00000000000E+00 -0.10569216606E+04  0.10569216607E+04  0.50400001928E-02 0. -1.
    10030    2    1    2    0    0  0.00000000000E+00  0.00000000000E+00  0.31553935715E+03  0.24293826785E+04  0.24088036683E+04 0.  0.
        5    1    3    3  502    0 -0.96878993293E+03  0.71915070676E+02 -0.56023660361E+03  0.11214333924E+04  0.46999998093E+01 0. -1.
       -5    1    3    3    0  502  0.96878993293E+03 -0.71915070676E+02  0.87577596076E+03  0.13079492861E+04  0.46999998093E+01 0.  1.
</event>
<event>
 5   0  0.2215700E-06  0.2399774E+04  0.7818609E-02  0.8439588E-01
        1   -1    0    0  501    0  0.00000000000E+00  0.00000000000E+00  0.12484308639E+04  0.12484308639E+04  0.50400001928E-02 0.  1.
       -1   -1    0    0    0  501  0.00000000000E+00  0.00000000000E+00 -0.11532304655E+04  0.11532304655E+04  0.50400001928E-02 0. -1.
    10030    2    1    2    0    0  0.00000000000E+00  0.00000000000E+00  0.95200398345E+02  0.24016613294E+04  0.23997737446E+04 0.  0.
        3    1    3    3  502    0 -0.18753000343E+03 -0.75088949631E+03 -0.87003210978E+03  0.11644562766E+04  0.10100000352E+00 0. -1.
       -3    1    3    3    0  502  0.18753000343E+03  0.75088949631E+03  0.96523250812E+03  0.12372050528E+04  0.10100000352E+00 0.  1.
</event>
<event>
 5   0  0.5371843E-06  0.2390034E+04  0.7818609E-02  0.8443244E-01
        2   -1    0    0  501    0  0.00000000000E+00  0.00000000000E+00  0.81951287726E+03  0.81951287727E+03  0.25500000920E-02 0.  1.
       -2   -1    0    0    0  501  0.00000000000E+00  0.00000000000E+00 -0.17425782532E+04  0.17425782532E+04  0.25500000920E-02 0. -1.
    10030    2    1    2    0    0  0.00000000000E+00  0.00000000000E+00 -0.92306537591E+03  0.25620911304E+04  0.23900337388E+04 0.  0.
        4    1    3    3  502    0 -0.71761674861E+03  0.31152822152E+03 -0.14299137435E+04  0.16299320714E+04  0.12699999809E+01 0. -1.
       -4    1    3    3    0  502  0.71761674861E+03 -0.31152822152E+03  0.50684836759E+03  0.93215905902E+03  0.12699999809E+01 0.  1.
</event>
<event>
 5   0  0.2149417E-06  0.2399353E+04  0.7818609E-02  0.8439746E-01
       -1   -1    0    0    0  501  0.00000000000E+00  0.00000000000E+00  0.96527188162E+03  0.96527188163E+03  0.50400001928E-02 0.  1.
        1   -1    0    0  501    0  0.00000000000E+00  0.00000000000E+00 -0.14910039468E+04  0.14910039468E+04  0.50400001928E-02 0. -1.
    10030    2    1    2    0    0  0.00000000000E+00  0.00000000000E+00 -0.52573206520E+03  0.24562758285E+04  0.23993534006E+04 0.  0.
        5    1    3    3  502    0 -0.40058562347E+03 -0.64923686309E+03 -0.12106956280E+04  0.14310078057E+04  0.46999998093E+01 0. -1.
       -5    1    3    3    0  502  0.40058562347E+03  0.64923686309E+03  0.68496356285E+03  0.10252680228E+04  0.46999998093E+01 0.  1.
</event>
<event>
 5   0  0.2297414E-06  0.2405955E+04  0.7818609E-02  0.8437277E-01
       -1   -1    0    0    0  501  0.00000000000E+00  0.00000000000E+00  0.17104622687E+04  0.17104622687E+04  0.50400001928E-02 0. -1.
        1   -1    0    0  501    0  0.00000000000E+00  0.00000000000E+00 -0.84606084011E+03  0.84606084013E+03  0.50400001928E-02 0.  1.
    10030    2    1    2    0    0  0.00000000000E+00  0.00000000000E+00  0.86440142861E+03  0.25565231089E+04  0.24059552316E+04 0.  0.
        1    1    3    3  502    0  0.24249258865E+03 -0.15369896760E+03  0.16735254491E+04  0.16979733381E+04  0.50400001928E-02 0. -1.
       -1    1    3    3    0  502 -0.24249258865E+03  0.15369896760E+03 -0.80912402051E+03  0.85854977071E+03  0.50400001928E-02 0.  1.
</event>
<event>
 5   0  0.2149417E-06  0.2405587E+04  0.7818609E-02  0.8437415E-01
        1   -1    0    0  501    0  0.00000000000E+00  0.00000000000E+00  0.17742038912E+04  0.17742038913E+04  0.50400001928E-02 0. -1.
       -1   -1    0    0    0  501  0.00000000000E+00  0.00000000000E+00 -0.81541505578E+03  0.81541505579E+03  0.50400001928E-02 0.  1.
    10030    2    1    2    0    0  0.00000000000E+00  0.00000000000E+00  0.95878883547E+03  0.25896189470E+04  0.24055873004E+04 0.  0.
        5    1    3    3  502    0  0.76098787955E+03 -0.81999106898E+03  0.37772679514E+01  0.11187154526E+04  0.46999998093E+01 0.  1.
       -5    1    3    3    0  502 -0.76098787955E+03  0.81999106898E+03  0.95501156752E+03  0.14709034945E+04  0.46999998093E+01 0. -1.
</event>
<event>
 5   0  0.5379778E-06  0.2401074E+04  0.7818609E-02  0.8439101E-01
       -2   -1    0    0    0  501  0.00000000000E+00  0.00000000000E+00  0.13651526915E+04  0.13651526915E+04  0.25500000920E-02 0. -1.
        2   -1    0    0  501    0  0.00000000000E+00  0.00000000000E+00 -0.10557717593E+04  0.10557717593E+04  0.25500000920E-02 0.  1.
    10030    2    1    2    0    0  0.00000000000E+00  0.00000000000E+00  0.30938093215E+03  0.24209244508E+04  0.24010744752E+04 0.  0.
        5    1    3    3  502    0  0.64891749766E+03  0.70515938727E+03  0.88380347462E+03  0.13036388886E+04  0.46999998093E+01 0. -1.
       -5    1    3    3    0  502 -0.64891749766E+03 -0.70515938727E+03 -0.57442254247E+03  0.11172855622E+04  0.46999998093E+01 0.  1.
</event>
<event>
 5   0  0.2297414E-06  0.2408483E+04  0.7818609E-02  0.8436334E-01
        1   -1    0    0  501    0  0.00000000000E+00  0.00000000000E+00  0.13316513404E+04  0.13316513404E+04  0.50400001928E-02 0. -1.
       -1   -1    0    0    0  501  0.00000000000E+00  0.00000000000E+00 -0.10890221032E+04  0.10890221032E+04  0.50400001928E-02 0.  1.
    10030    2    1    2    0    0  0.00000000000E+00  0.00000000000E+00  0.24262923718E+03  0.24206734435E+04  0.24084831271E+04 0.  0.
        1    1    3    3  502    0 -0.81889811093E+03 -0.13730059270E+02  0.10086279544E+04  0.12992740208E+04  0.50400001928E-02 0. -1.
       -1    1    3    3    0  502  0.81889811093E+03  0.13730059270E+02 -0.76599871722E+03  0.11213994228E+04  0.50400001928E-02 0.  1.
</event>
<event>
 5   0  0.1796750E-06  0.2400241E+04  0.7818609E-02  0.8439413E-01
       -3   -1    0    0    0  501  0.00000000000E+00  0.00000000000E+00  0.99285424956E+03  0.99285425470E+03  0.10100000352E+00 0. -1.
        3   -1    0    0  501    0  0.00000000000E+00  0.00000000000E+00 -0.14506556285E+04  0.14506556321E+04  0.10100000352E+00 0.  1.
    10030    2    1    2    0    0  0.00000000000E+00  0.00000000000E+00 -0.45780137897E+03  0.24435098868E+04  0.24002413345E+04 0.  0.
        4    1    3    3  502    0 -0.82321835352E+02  0.87796127319E+03  0.59983506618E+03  0.10664879752E+04  0.12699999809E+01 0. -1.
       -4    1    3    3    0  502  0.82321835352E+02 -0.87796127319E+03 -0.10576364452E+04  0.13770219115E+04  0.12699999809E+01 0.  1.
</event>
<event>
 5   0  0.5379778E-06  0.2403762E+04  0.7818609E-02  0.8438096E-01
       -2   -1    0    0    0  501  0.00000000000E+00  0.00000000000E+00  0.18720001786E+04  0.18720001786E+04  0.25500000920E-02 0.  1.
        2   -1    0    0  501    0  0.00000000000E+00  0.00000000000E+00 -0.77164431894E+03  0.77164431894E+03  0.25500000920E-02 0. -1.
    10030    2    1    2    0    0  0.00000000000E+00  0.00000000000E+00  0.11003558597E+04  0.26436444975E+04  0.24037623035E+04 0.  0.
        5    1    3    3  502    0  0.56609739008E+03  0.66806563439E+03 -0.35521297740E+03  0.94497423045E+03  0.46999998093E+01 0. -1.
       -5    1    3    3    0  502 -0.56609739008E+03 -0.66806563439E+03  0.14555688371E+04  0.16986702671E+04  0.46999998093E+01 0.  1.
</event>
<event>
 5   0  0.2149417E-06  0.2400892E+04  0.7818609E-02  0.8439170E-01
       -1   -1    0    0    0  501  0.00000000000E+00  0.00000000000E+00  0.84953292946E+03  0.84953292948E+03  0.50400001928E-02 0.  1.
        1   -1    0    0  501    0  0.00000000000E+00  0.00000000000E+00 -0.16963095015E+04  0.16963095015E+04  0.50400001928E-02 0. -1.
    10030    2    1    2    0    0  0.00000000000E+00  0.00000000000E+00 -0.84677657207E+03  0.25458424310E+04  0.24008921510E+04 0.  0.
        5    1    3    3  502    0 -0.12284301196E+03 -0.11540256420E+04 -0.74880912785E+03  0.13811599429E+04  0.46999998093E+01 0. -1.
       -5    1    3    3    0  502  0.12284301196E+03  0.11540256420E+04 -0.97967444221E+02  0.11646824881E+04  0.46999998093E+01 0.  1.
</event>
<event>
 5   0  0.5371843E-06  0.2402828E+04  0.7818609E-02  0.8438446E-01
        2   -1    0    0  501    0  0.00000000000E+00  0.00000000000E+00  0.16025953948E+04  0.16025953948E+04  0.25500000920E-02 0. -1.
       -2   -1    0    0    0  501  0.00000000000E+00  0.00000000000E+00 -0.90066100924E+03  0.90066100924E+03  0.25500000920E-02 0.  1.
    10030    2    1    2    0    0  0.00000000000E+00  0.00000000000E+00  0.70193438554E+03  0.25032564040E+04  0.24028276556E+04 0.  0.
        4    1    3    3  502    0  0.49728091237E+03 -0.10639435172E+04  0.61478949310E+03  0.13256062188E+04  0.12699999809E+01 0. -1.
       -4    1    3    3    0  502 -0.49728091237E+03  0.10639435172E+04  0.87144892447E+02  0.11776501852E+04  0.12699999809E+01 0.  1.
</event>
<event>
 5   0  0.2149029E-06  0.2404415E+04  0.7818609E-02  0.8437852E-01
       -1   -1    0    0    0  501  0.00000000000E+00  0.00000000000E+00  0.84738546547E+03  0.84738546549E+03  0.50400001928E-02 0. -1.
        1   -1    0    0  501    0  0.00000000000E+00  0.00000000000E+00 -0.17056028977E+04  0.17056028977E+04  0.50400001928E-02 0.  1.
    10030    2    1    2    0    0  0.00000000000E+00  0.00000000000E+00 -0.85821743223E+03  0.25529883632E+04  0.24044151933E+04 0.  0.
        4    1    3    3  502    0 -0.47433261822E+03  0.60118793099E+03  0.55491690946E+03  0.94570225250E+03  0.12699999809E+01 0. -1.
       -4    1    3    3    0  502  0.47433261822E+03 -0.60118793099E+03 -0.14131343417E+04  0.16072861107E+04  0.12699999809E+01 0.  1.
</event>
<event>
 5   0  0.2254269E-06  0.2382803E+04  0.7818609E-02  0.8445970E-01
       -1   -1    0    0    0  501  0.00000000000E+00  0.00000000000E+00  0.78825754225E+03  0.78825754227E+03  0.50400001928E-02 0.  1.
        1   -1    0    0  501    0  0.00000000000E+00  0.00000000000E+00 -0.18007282521E+04  0.18007282521E+04  0.50400001928E-02 0. -1.
    10030    2    1    2    0    0  0.00000000000E+00  0.00000000000E+00 -0.10124707098E+04  0.25889857944E+04  0.23828030773E+04 0.  0.
        2    1    3    3  502    0 -0.58746133691E+03  0.73924180794E+03  0.28316278863E+03  0.98578417407E+03  0.25500000920E-02 0.  1.
       -2    1    3    3    0  502  0.58746133691E+03 -0.73924180794E+03 -0.12956334985E+04  0.16032016203E+04  0.25500000920E-02 0. -1.
</event>
<event>
 5   0  0.2215700E-06  0.2400146E+04  0.7818609E-02  0.8439449E-01
        1   -1    0    0  501    0  0.00000000000E+00  0.00000000000E+00  0.17024041869E+04  0.17024041869E+04  0.50400001928E-02 0.  1.
       -1   -1    0    0    0  501  0.00000000000E+00  0.00000000000E+00 -0.84596522632E+03  0.84596522633E+03  0.50400001928E-02 0. -1.
    10030    2    1    2    0    0  0.00000000000E+00  0.00000000000E+00  0.85643896061E+03  0.25483694133E+04  0.24001456150E+04 0.  0.
        3    1    3    3  502    0 -0.10739134160E+04  0.92933871954E+02  0.98828756009E+03  0.14624086437E+04  0.10100000352E+00 0.  1.
       -3    1    3    3    0  502  0.10739134160E+04 -0.92933871954E+02 -0.13184859947E+03  0.10859607695E+04  0.10100000352E+00 0. -1.
</event>
<event>
 5   0  0.5440503E-06  0.2401171E+04  0.7818609E-02  0.8439065E-01
        2   -1    0    0  501    0  0.00000000000E+00  0.00000000000E+00  0.15343109154E+04  0.15343109154E+04  0.25500000920E-02 0. -1.
       -2   -1    0    0    0  501  0.00000000000E+00  0.00000000000E+00 -0.93944785157E+03  0.93944785158E+03  0.25500000920E-02 0.  1.
    10030    2    1    2    0    0  0.00000000000E+00  0.00000000000E+00  0.59486306382E+03  0.24737587670E+04  0.24011706254E+04 0.  0.
        3    1    3    3  502    0  0.24447838202E+03 -0.48663761858E+03  0.13997390839E+04  0.15019505199E+04  0.10100000352E+00 0. -1.
       -3    1    3    3    0  502 -0.24447838202E+03  0.48663761858E+03 -0.80487602009E+03  0.97180824704E+03  0.10100000352E+00 0.  1.
</event>
<event>
 5   0  0.2254269E-06  0.2398558E+04  0.7818609E-02  0.8440044E-01
        1   -1    0    0  501    0  0.00000000000E+00  0.00000000000E+00  0.10972695941E+04  0.10972695941E+04  0.50400001928E-02 0. -1.
       -1   -1    0    0    0  501  0.00000000000E+00  0.00000000000E+00 -0.13107716859E+04  0.13107716859E+04  0.50400001928E-02 0.  1.
    10030    2    1    2    0    0  0.00000000000E+00  0.00000000000E+00 -0.21350209182E+03  0.24080412801E+04  0.23985578299E+04 0.  0.
        2    1    3    3  502    0  0.13518511724E+03 -0.27813221420E+03 -0.12700547189E+04  0.13071616325E+04  0.25500000920E-02 0.  1.
       -2    1    3    3    0  502 -0.13518511724E+03  0.27813221420E+03  0.10565526271E+04  0.11008796475E+04  0.25500000920E-02 0. -1.
</event>
<event>
 5   0  0.2149029E-06  0.2396699E+04  0.7818609E-02  0.8440740E-01
        1   -1    0    0  501    0  0.00000000000E+00  0.00000000000E+00  0.10214597545E+04  0.10214597545E+04  0.50400001928E-02 0.  1.
       -1   -1    0    0    0  501  0.00000000000E+00  0.00000000000E+00 -0.14058721172E+04  0.14058721172E+04  0.50400001928E-02 0. -1.
    10030    2    1    2    0    0  0.00000000000E+00  0.00000000000E+00 -0.38441236269E+03  0.24273318716E+04  0.23966992199E+04 0.  0.
        4    1    3    3  502    0 -0.65817428636E+03 -0.11327869098E+03 -0.11999182276E+04  0.13732555548E+04  0.12699999809E+01 0. -1.
       -4    1    3    3    0  502  0.65817428636E+03  0.11327869098E+03  0.81550586492E+03  0.10540763168E+04  0.12699999809E+01 0.  1.
</event>
<event>
 5   0  0.5379778E-06  0.2409853E+04  0.7818609E-02  0.8435824E-01
       -2   -1    0    0    0  501  0.00000000000E+00  0.00000000000E+00  0.12109096338E+04  0.12109096338E+04  0.25500000920E-02 0.  1.
        2   -1    0    0  501    0  0.00000000000E+00  0.00000000000E+00 -0.11989733829E+04  0.11989733829E+04  0.25500000920E-02 0. -1.
    10030    2    1    2    0    0  0.00000000000E+00  0.00000000000E+00  0.11936250910E+02  0.24098830167E+04  0.24098534562E+04 0.  0.
        5    1    3    3  502    0  0.11709582757E+04 -0.25720088702E+03  0.12651316622E+03  0.12055385730E+04  0.46999998093E+01 0. -1.
       -5    1    3    3    0  502 -0.11709582757E+04  0.25720088702E+03 -0.11457691531E+03  0.12043444438E+04  0.46999998093E+01 0.  1.
</event>
<event>
 5   0  0.5371843E-06  0.2392881E+04  0.7818609E-02  0.8442173E-01
        2   -1    0    0  501    0  0.00000000000E+00  0.00000000000E+00  0.15777610243E+04  0.15777610243E+04  0.25500000920E-02 0. -1.
       -2   -1    0    0    0  501  0.00000000000E+00  0.00000000000E+00 -0.90727953573E+03  0.90727953574E+03  0.25500000920E-02 0.  1.
    10030    2    1    2    0    0  0.00000000000E+00  0.00000000000E+00  0.67048148859E+03  0.24850405601E+04  0.23928813507E+04 0.  0.
        4    1    3    3  502    0  0.69001580646E+03  0.47570241112E+03 -0.55149086259E+03  0.10032738318E+04  0.12699999809E+01 0.  1.
       -4    1    3    3    0  502 -0.69001580646E+03 -0.47570241112E+03  0.12219723512E+04  0.14817667283E+04  0.12699999809E+01 0. -1.
</event>
<event>
 5   0  0.2254269E-06  0.2399542E+04  0.7818609E-02  0.8439675E-01
       -1   -1    0    0    0  501  0.00000000000E+00  0.00000000000E+00  0.85106154113E+03  0.85106154115E+03  0.50400001928E-02 0.  1.
        1   -1    0    0  501    0  0.00000000000E+00  0.00000000000E+00 -0.16913588956E+04  0.16913588956E+04  0.50400001928E-02 0. -1.
    10030    2    1    2    0    0  0.00000000000E+00  0.00000000000E+00 -0.84029735444E+03  0.25424204367E+04  0.23995420466E+04 0.  0.
        2    1    3    3  502    0  0.27643161061E+03 -0.92935327322E+03 -0.11688637247E+04  0.15186686106E+04  0.25500000920E-02 0. -1.
       -2    1    3    3    0  502 -0.27643161061E+03  0.92935327322E+03  0.32856637031E+03  0.10237518261E+04  0.25500000920E-02 0.  1.
</event>
<event>
 5   0  0.2215700E-06  0.2399091E+04  0.7818609E-02  0.8439844E-01
       -1   -1    0    0    0  501  0.00000000000E+00  0.00000000000E+00  0.79563218515E+03  0.79563218517E+03  0.50400001928E-02 0.  1.
        1   -1    0    0  501    0  0.00000000000E+00  0.00000000000E+00 -0.18085107961E+04  0.18085107961E+04  0.50400001928E-02 0. -1.
    10030    2    1    2    0    0  0.00000000000E+00  0.00000000000E+00 -0.10128786110E+04  0.26041429813E+04  0.23990909917E+04 0.  0.
        3    1    3    3  502    0 -0.64627774045E+03  0.49932199368E+03 -0.14601178367E+04  0.16730037294E+04  0.10100000352E+00 0. -1.
       -3    1    3    3    0  502  0.64627774045E+03 -0.49932199368E+03  0.44723922577E+03  0.93113925191E+03  0.10100000352E+00 0.  1.
</event>
<event>
 5   0  0.2149417E-06  0.2400337E+04  0.7818609E-02  0.8439377E-01
       -1   -1    0    0    0  501  0.00000000000E+00  0.00000000000E+00  0.72236719851E+03  0.72236719852E+03  0.50400001928E-02 0.  1.
        1   -1    0    0  501    0  0.00000000000E+00  0.00000000000E+00 -0.19940066621E+04  0.19940066621E+04  0.50400001928E-02 0. -1.
    10030    2    1    2    0    0  0.00000000000E+00  0.00000000000E+00 -0.12716394636E+04  0.27163738607E+04  0.24003374816E+04 0.  0.
        5    1    3    3  502    0 -0.75354075887E+03 -0.74636884456E+03 -0.12714608084E+04  0.16557550557E+04  0.46999998093E+01 0.  1.
       -5    1    3    3    0  502  0.75354075887E+03  0.74636884456E+03 -0.17865524802E+00  0.10606188049E+04  0.46999998093E+01 0. -1.
</event>
<event>
 5   0  0.5268358E-06  0.2395619E+04  0.7818609E-02  0.8441145E-01
       -2   -1    0    0    0  501  0.00000000000E+00  0.00000000000E+00  0.95560066626E+03  0.95560066626E+03  0.25500000920E-02 0. -1.
        2   -1    0    0  501    0  0.00000000000E+00  0.00000000000E+00 -0.15014094565E+04  0.15014094565E+04  0.25500000920E-02 0.  1.
    10030    2    1    2    0    0  0.00000000000E+00  0.00000000000E+00 -0.54580879028E+03  0.24570101228E+04  0.23956192327E+04 0.  0.
        2    1    3    3  502    0 -0.83902145785E+03 -0.20202286254E+03  0.57903099778E+03  0.10392531646E+04  0.25500000920E-02 0. -1.
       -2    1    3    3    0  502  0.83902145785E+03  0.20202286254E+03 -0.11248397881E+04  0.14177569582E+04  0.25500000920E-02 0.  1.
</event>
<event>
 5   0  0.2297414E-06  0.2399324E+04  0.7818609E-02  0.8439757E-01
        1   -1    0    0  501    0  0.00000000000E+00  0.00000000000E+00  0.11660821316E+04  0.11660821317E+04  0.50400001928E-02 0. -1.
       -1   -1    0    0    0  501  0.00000000000E+00  0.00000000000E+00 -0.12342084128E+04  0.12342084129E+04  0.50400001928E-02 0.  1.
    10030    2    1    2    0    0  0.00000000000E+00  0.00000000000E+00 -0.68126281199E+02  0.24002905445E+04  0.23993235521E+04 0.  0.
        1    1    3    3  502    0  0.83014780302E+03  0.41130895819E+03 -0.79651723651E+03  0.12217856367E+04  0.50400001928E-02 0.  1.
       -1    1    3    3    0  502 -0.83014780302E+03 -0.41130895819E+03  0.72839095531E+03  0.11785049078E+04  0.50400001928E-02 0. -1.
</event>
<event>
 5   0  0.5379778E-06  0.2398178E+04  0.7818609E-02  0.8440186E-01
        2   -1    0    0  501    0  0.00000000000E+00  0.00000000000E+00  0.12680849598E+04  0.12680849598E+04  0.25500000920E-02 0. -1.
       -2   -1    0    0    0  501  0.00000000000E+00  0.00000000000E+00 -0.11338470456E+04  0.11338470456E+04  0.25500000920E-02 0.  1.
    10030    2    1    2    0    0  0.00000000000E+00  0.00000000000E+00  0.13423791426E+03  0.24019320054E+04  0.23981779627E+04 0.  0.
        5    1    3    3  502    0 -0.22026634419E+03 -0.58542384990E+03 -0.95749463225E+03  0.11437029366E+04  0.46999998093E+01 0.  1.
       -5    1    3    3    0  502  0.22026634419E+03  0.58542384990E+03  0.10917325465E+04  0.12582290688E+04  0.46999998093E+01 0. -1.
</event>
<event>
 5   0  0.2215700E-06  0.2400134E+04  0.7818609E-02  0.8439454E-01
       -1   -1    0    0    0  501  0.00000000000E+00  0.00000000000E+00  0.70661502437E+03  0.70661502439E+03  0.50400001928E-02 0.  1.
        1   -1    0    0  501    0  0.00000000000E+00  0.00000000000E+00 -0.20381115580E+04  0.20381115580E+04  0.50400001928E-02 0. -1.
    10030    2    1    2    0    0  0.00000000000E+00  0.00000000000E+00 -0.13314965336E+04  0.27447265824E+04  0.24001335365E+04 0.  0.
        3    1    3    3  502    0  0.53027084618E+03 -0.92525747458E+03 -0.12950993902E+04  0.16776683240E+04  0.10100000352E+00 0. -1.
       -3    1    3    3    0  502 -0.53027084618E+03  0.92525747458E+03 -0.36397143414E+02  0.10670582584E+04  0.10100000352E+00 0.  1.
</event>
<event>
 5   0  0.5268358E-06  0.2391903E+04  0.7818609E-02  0.8442541E-01
        2   -1    0    0  501    0  0.00000000000E+00  0.00000000000E+00  0.90148670349E+03  0.90148670350E+03  0.25500000920E-02 0.  1.
       -2   -1    0    0    0  501  0.00000000000E+00  0.00000000000E+00 -0.15866011362E+04  0.15866011362E+04  0.25500000920E-02 0. -1.
    10030    2    1    2    0    0  0.00000000000E+00  0.00000000000E+00 -0.68511443275E+03  0.24880878397E+04  0.23919028643E+04 0.  0.
        2    1    3    3  502    0 -0.10911022646E+04 -0.91079390010E+02  0.15793563040E+03  0.11062293028E+04  0.25500000920E-02 0.  1.
       -2    1    3    3    0  502  0.10911022646E+04  0.91079390010E+02 -0.84305006315E+03  0.13818585369E+04  0.25500000920E-02 0. -1.
</event>
<event>
 5   0  0.5379778E-06  0.2403739E+04  0.7818609E-02  0.8438105E-01
       -2   -1    0    0    0  501  0.00000000000E+00  0.00000000000E+00  0.84186400133E+03  0.84186400133E+03  0.25500000920E-02 0. -1.
        2   -1    0    0  501    0  0.00000000000E+00  0.00000000000E+00 -0.17158239654E+04  0.17158239654E+04  0.25500000920E-02 0.  1.
    10030    2    1    2    0    0  0.00000000000E+00  0.00000000000E+00 -0.87395996412E+03  0.25576879668E+04  0.24037391116E+04 0.  0.
        5    1    3    3  502    0 -0.99192336776E+02 -0.67990607581E+03 -0.14862157597E+04  0.16373670223E+04  0.46999998093E+01 0.  1.
       -5    1    3    3    0  502  0.99192336776E+02  0.67990607581E+03  0.61225579554E+03  0.92032094444E+03  0.46999998093E+01 0. -1.
</event>
<event>
 5   0  0.2297414E-06  0.2388823E+04  0.7818609E-02  0.8443700E-01
       -1   -1    0    0    0  501  0.00000000000E+00  0.00000000000E+00  0.71460022939E+03  0.71460022940E+03  0.50400001928E-02 0.  1.
        1   -1    0    0  501    0  0.00000000000E+00  0.00000000000E+00 -0.19963869827E+04  0.19963869827E+04  0.50400001928E-02 0. -1.
    10030    2    1    2    0    0  0.00000000000E+00  0.00000000000E+00 -0.12817867533E+04  0.27109872121E+04  0.23888228028E+04 0.  0.
        1    1    3    3  502    0 -0.25673013146E+03 -0.10407976913E+04 -0.12386641072E+04  0.16381266633E+04  0.50400001928E-02 0. -1.
       -1    1    3    3    0  502  0.25673013146E+03  0.10407976913E+04 -0.43122646183E+02  0.10728605488E+04  0.50400001928E-02 0.  1.
</event>
<event>
 5   0  0.2149029E-06  0.2399756E+04  0.7818609E-02  0.8439595E-01
        1   -1    0    0  501    0  0.00000000000E+00  0.00000000000E+00  0.98736325800E+03  0.98736325802E+03  0.50400001928E-02 0. -1.
       -1   -1    0    0    0  501  0.00000000000E+00  0.00000000000E+00 -0.14581328426E+04  0.14581328426E+04  0.50400001928E-02 0.  1.
    10030    2    1    2    0    0  0.00000000000E+00  0.00000000000E+00 -0.47076958459E+03  0.24454961006E+04  0.23997556493E+04 0.  0.
        4    1    3    3  502    0 -0.11145528130E+04  0.20758527290E+03  0.16502371353E+03  0.11456675161E+04  0.12699999809E+01 0. -1.
       -4    1    3    3    0  502  0.11145528130E+04 -0.20758527290E+03 -0.63579329812E+03  0.12998285846E+04  0.12699999809E+01 0.  1.
</event>
<event>
 5   0  0.5440503E-06  0.2401345E+04  0.7818609E-02  0.8439000E-01
       -2   -1    0    0    0  501  0.00000000000E+00  0.00000000000E+00  0.98999864162E+03  0.98999864163E+03  0.25500000920E-02 0.  1.
        2   -1    0    0  501    0  0.00000000000E+00  0.00000000000E+00 -0.14561779996E+04  0.14561779996E+04  0.25500000920E-02 0. -1.
    10030    2    1    2    0    0  0.00000000000E+00  0.00000000000E+00 -0.46617935801E+03  0.24461766413E+04  0.24013448246E+04 0.  0.
        3    1    3    3  502    0 -0.11600946156E+03 -0.28188595379E+03  0.94992566451E+03  0.99763553686E+03  0.10100000352E+00 0.  1.
       -3    1    3    3    0  502  0.11600946156E+03  0.28188595379E+03 -0.14161050225E+04  0.14485411044E+04  0.10100000352E+00 0. -1.
</event>
<event>
 5   0  0.2149417E-06  0.2400366E+04  0.7818609E-02  0.8439366E-01
        1   -1    0    0  501    0  0.00000000000E+00  0.00000000000E+00  0.14948015618E+04  0.14948015618E+04  0.50400001928E-02 0.  1.
       -1   -1    0    0    0  501  0.00000000000E+00  0.00000000000E+00 -0.96363256636E+03  0.96363256638E+03  0.50400001928E-02 0. -1.
    10030    2    1    2    0    0  0.00000000000E+00  0.00000000000E+00  0.53116899540E+03  0.24584341282E+04  0.24003661931E+04 0.  0.
        5    1    3    3  502    0  0.32732233128E+03 -0.48320406814E+03 -0.80849447301E+03  0.99715168501E+03  0.46999998093E+01 0. -1.
       -5    1    3    3    0  502 -0.32732233128E+03  0.48320406814E+03  0.13396634684E+04  0.14612824431E+04  0.46999998093E+01 0.  1.
</event>
<event>
 5   0  0.5349036E-06  0.2406226E+04  0.7818609E-02  0.8437176E-01
       -2   -1    0    0    0  501  0.00000000000E+00  0.00000000000E+00  0.92421848269E+03  0.92421848269E+03  0.25500000920E-02 0.  1.
        2   -1    0    0  501    0  0.00000000000E+00  0.00000000000E+00 -0.15661672372E+04  0.15661672372E+04  0.25500000920E-02 0. -1.
    10030    2    1    2    0    0  0.00000000000E+00  0.00000000000E+00 -0.64194875453E+03  0.24903857199E+04  0.24062258478E+04 0.  0.
        1    1    3    3  502    0  0.20894867370E+03  0.83903788088E+03 -0.11867962511E+04  0.14683764693E+04  0.50400001928E-02 0. -1.
       -1    1    3    3    0  502 -0.20894867370E+03 -0.83903788088E+03  0.54484749661E+03  0.10220092506E+04  0.50400001928E-02 0.  1.
</event>
<event>
 5   0  0.2297414E-06  0.2405928E+04  0.7818609E-02  0.8437288E-01
       -1   -1    0    0    0  501  0.00000000000E+00  0.00000000000E+00  0.89741992656E+03  0.89741992658E+03  0.50400001928E-02 0. -1.
        1   -1    0    0  501    0  0.00000000000E+00  0.00000000000E+00 -0.16125362413E+04  0.16125362413E+04  0.50400001928E-02 0.  1.
    10030    2    1    2    0    0  0.00000000000E+00  0.00000000000E+00 -0.71511631470E+03  0.25099561679E+04  0.24059278088E+04 0.  0.
        1    1    3    3  502    0 -0.24335790414E+03 -0.66498794202E+03  0.65695567295E+03  0.96593104764E+03  0.50400001928E-02 0. -1.
       -1    1    3    3    0  502  0.24335790414E+03  0.66498794202E+03 -0.13720719877E+04  0.15440251202E+04  0.50400001928E-02 0.  1.
</event>
<event>
 5   0  0.5268358E-06  0.2397069E+04  0.7818609E-02  0.8440602E-01
       -2   -1    0    0    0  501  0.00000000000E+00  0.00000000000E+00  0.90105814113E+03  0.90105814113E+03  0.25500000920E-02 0.  1.
        2   -1    0    0  501    0  0.00000000000E+00  0.00000000000E+00 -0.15942196296E+04  0.15942196296E+04  0.25500000920E-02 0. -1.
    10030    2    1    2    0    0  0.00000000000E+00  0.00000000000E+00 -0.69316148849E+03  0.24952777707E+04  0.23970686899E+04 0.  0.
        2    1    3    3  502    0 -0.16233782086E+03  0.10568769102E+04  0.21702783231E+03  0.10910744482E+04  0.25500000920E-02 0.  1.
       -2    1    3    3    0  502  0.16233782086E+03 -0.10568769102E+04 -0.91018932080E+03  0.14042033226E+04  0.25500000920E-02 0. -1.
</event>
<event>
 5   0  0.2215700E-06  0.2393786E+04  0.7818609E-02  0.8441834E-01
        1   -1    0    0  501    0  0.00000000000E+00  0.00000000000E+00  0.22718829925E+04  0.22718829925E+04  0.50400001928E-02 0. -1.
       -1   -1    0    0    0  501  0.00000000000E+00  0.00000000000E+00 -0.63055752163E+03  0.63055752165E+03  0.50400001928E-02 0.  1.
    10030    2    1    2    0    0  0.00000000000E+00  0.00000000000E+00  0.16413254708E+04  0.29024405141E+04  0.23937860466E+04 0.  0.
        3    1    3    3  502    0 -0.21280792693E+03  0.63456231943E+03 -0.38245216840E+03  0.77086070228E+03  0.10100000352E+00 0.  1.
       -3    1    3    3    0  502  0.21280792693E+03 -0.63456231943E+03  0.20237776392E+04  0.21315798119E+04  0.10100000352E+00 0. -1.
</event>
<event>
 5   0  0.5371843E-06  0.2399702E+04  0.7818609E-02  0.8439615E-01
       -2   -1    0    0    0  501  0.00000000000E+00  0.00000000000E+00  0.56196908368E+03  0.56196908368E+03  0.25500000920E-02 0.  1.
        2   -1    0    0  501    0  0.00000000000E+00  0.00000000000E+00 -0.25617829598E+04  0.25617829598E+04  0.25500000920E-02 0. -1.
    10030    2    1    2    0    0  0.00000000000E+00  0.00000000000E+00 -0.19998138761E+04  0.31237520435E+04  0.23997023336E+04 0.  0.
        4    1    3    3  502    0  0.40341177561E+03 -0.62413084402E+03 -0.22261295165E+04  0.23468989344E+04  0.12699999809E+01 0. -1.
       -4    1    3    3    0  502 -0.40341177561E+03  0.62413084402E+03  0.22631564036E+03  0.77685310911E+03  0.12699999809E+01 0.  1.
</event>
<event>
 5   0  0.5349036E-06  0.2397772E+04  0.7818609E-02  0.8440338E-01
        2   -1    0    0  501    0  0.00000000000E+00  0.00000000000E+00  0.14105295039E+04  0.14105295040E+04  0.25500000920E-02 0.  1.
       -2   -1    0    0    0  501  0.00000000000E+00  0.00000000000E+00 -0.10189986916E+04  0.10189986916E+04  0.25500000920E-02 0. -1.
    10030    2    1    2    0    0  0.00000000000E+00  0.00000000000E+00  0.39153081239E+03  0.24295281955E+04  0.23977720650E+04 0.  0.
        1    1    3    3  502    0 -0.55417677516E+03  0.91454571485E+03  0.74499783321E+03  0.13032756939E+04  0.50400001928E-02 0.  1.
       -1    1    3    3    0  502  0.55417677516E+03 -0.91454571485E+03 -0.35346702082E+03  0.11262525017E+04  0.50400001928E-02 0. -1.
</event>
<event>
 5   0  0.2215700E-06  0.2392741E+04  0.7818609E-02  0.8442226E-01
       -1   -1    0    0    0  501  0.00000000000E+00  0.00000000000E+00  0.95750250155E+03  0.95750250156E+03  0.50400001928E-02 0.  1.
        1   -1    0    0  501    0  0.00000000000E+00  0.00000000000E+00 -0.14948290848E+04  0.14948290848E+04  0.50400001928E-02 0. -1.
    10030    2    1    2    0    0  0.00000000000E+00  0.00000000000E+00 -0.53732658327E+03  0.24523315864E+04  0.23927411796E+04 0.  0.
        3    1    3    3  502    0 -0.82553692879E+03 -0.31434796439E+02 -0.11555483065E+04  0.14204897979E+04  0.10100000352E+00 0. -1.
       -3    1    3    3    0  502  0.82553692879E+03  0.31434796439E+02  0.61822172319E+03  0.10318417885E+04  0.10100000352E+00 0.  1.
</event>
<event>
 5   0  0.2149417E-06  0.2401659E+04  0.7818609E-02  0.8438883E-01
       -1   -1    0    0    0  501  0.00000000000E+00  0.00000000000E+00  0.95694431433E+03  0.95694431435E+03  0.50400001928E-02 0. -1.
        1   -1    0    0  501    0  0.00000000000E+00  0.00000000000E+00 -0.15068704897E+04  0.15068704898E+04  0.50400001928E-02 0.  1.
    10030    2    1    2    0    0  0.00000000000E+00  0.00000000000E+00 -0.54992617541E+03  0.24638148041E+04  0.24016587165E+04 0.  0.
        5    1    3    3  502    0  0.95036415983E+03 -0.68679371645E+02  0.47474442092E+03  0.10645718612E+04  0.46999998093E+01 0. -1.
       -5    1    3    3    0  502 -0.95036415983E+03  0.68679371645E+02 -0.10246705963E+04  0.13992429429E+04  0.46999998093E+01 0.  1.
</event>
<event>
 5   0  0.2215700E-06  0.2392954E+04  0.7818609E-02  0.8442146E-01
       -1   -1    0    0    0  501  0.00000000000E+00  0.00000000000E+00  0.16732214239E+04  0.16732214239E+04  0.50400001928E-02 0.  1.
        1   -1    0    0  501    0  0.00000000000E+00  0.00000000000E+00 -0.85556919824E+03  0.85556919826E+03  0.50400001928E-02 0. -1.
    10030    2    1    2    0    0  0.00000000000E+00  0.00000000000E+00  0.81765222566E+03  0.25287906222E+04  0.23929535826E+04 0.  0.
        3    1    3    3  502    0  0.83881580584E+03 -0.63419981030E+03  0.10119562664E+04  0.14594097611E+04  0.10100000352E+00 0.  1.
       -3    1    3    3    0  502 -0.83881580584E+03  0.63419981030E+03 -0.19430404077E+03  0.10693808610E+04  0.10100000352E+00 0. -1.
</event>
<event>
 5   0  0.1796750E-06  0.2418432E+04  0.7818609E-02  0.8432635E-01
       -3   -1    0    0    0  501  0.00000000000E+00  0.00000000000E+00  0.13364680663E+04  0.13364680701E+04  0.10100000352E+00 0. -1.
        3   -1    0    0  501    0  0.00000000000E+00  0.00000000000E+00 -0.10940799096E+04  0.10940799142E+04  0.10100000352E+00 0.  1.
    10030    2    1    2    0    0  0.00000000000E+00  0.00000000000E+00  0.24238815671E+03  0.24305479844E+04  0.24184316169E+04 0.  0.
        4    1    3    3  502    0  0.11706496754E+04 -0.25840181566E+03 -0.37740867905E+02  0.11994240896E+04  0.12699999809E+01 0.  1.
       -4    1    3    3    0  502 -0.11706496754E+04  0.25840181566E+03  0.28012902462E+03  0.12311238947E+04  0.12699999809E+01 0. -1.
</event>
<event>
 5   0  0.5268358E-06  0.2400272E+04  0.7818609E-02  0.8439402E-01
       -2   -1    0    0    0  501  0.00000000000E+00  0.00000000000E+00  0.16128154488E+04  0.16128154488E+04  0.25500000920E-02 0. -1.
        2   -1    0    0  501    0  0.00000000000E+00  0.00000000000E+00 -0.89305079788E+03  0.89305079788E+03  0.25500000920E-02 0.  1.
    10030    2    1    2    0    0  0.00000000000E+00  0.00000000000E+00  0.71976465092E+03  0.25058662467E+04  0.24002717541E+04 0.  0.
        2    1    3    3  502    0  0.64309805065E+03 -0.92270858204E+03  0.79706466326E+03  0.13785058243E+04  0.25500000920E-02 0.  1.
       -2    1    3    3    0  502 -0.64309805065E+03  0.92270858204E+03 -0.77300012333E+02  0.11273604224E+04  0.25500000920E-02 0. -1.
</event>
<event>
 5   0  0.2215700E-06  0.2401718E+04  0.7818609E-02  0.8438861E-01
        1   -1    0    0  501    0  0.00000000000E+00  0.00000000000E+00  0.12130773797E+04  0.12130773797E+04  0.50400001928E-02 0.  1.
       -1   -1    0    0    0  501  0.00000000000E+00  0.00000000000E+00 -0.11887633190E+04  0.11887633190E+04  0.50400001928E-02 0. -1.
    10030    2    1    2    0    0  0.00000000000E+00  0.00000000000E+00  0.24314060683E+02  0.24018406987E+04  0.24017176287E+04 0.  0.
        3    1    3    3  502    0  0.11012521891E+04 -0.15274442418E+02 -0.46648236035E+03  0.11960750375E+04  0.10100000352E+00 0. -1.
       -3    1    3    3    0  502 -0.11012521891E+04  0.15274442418E+02  0.49079642104E+03  0.12057656612E+04  0.10100000352E+00 0.  1.
</event>
<event>
 5   0  0.5349036E-06  0.2400859E+04  0.7818609E-02  0.8439182E-01
       -2   -1    0    0    0  501  0.00000000000E+00  0.00000000000E+00  0.10404152415E+04  0.10404152415E+04  0.25500000920E-02 0.  1.
        2   -1    0    0  501    0  0.00000000000E+00  0.00000000000E+00 -0.13850536791E+04  0.13850536791E+04  0.25500000920E-02 0. -1.
    10030    2    1    2    0    0  0.00000000000E+00  0.00000000000E+00 -0.34463843759E+03  0.24254689207E+04  0.24008589780E+04 0.  0.
        1    1    3    3  502    0 -0.27170163576E+03  0.82134026050E+03  0.66844310085E+03  0.10932693088E+04  0.50400001928E-02 0.  1.
       -1    1    3    3    0  502  0.27170163576E+03 -0.82134026050E+03 -0.10130815384E+04  0.13321996119E+04  0.50400001928E-02 0. -1.
</event>
<event>
 5   0  0.5371843E-06  0.2401680E+04  0.7818609E-02  0.8438875E-01
       -2   -1    0    0    0  501  0.00000000000E+00  0.00000000000E+00  0.72861808302E+03  0.72861808302E+03  0.25500000920E-02 0. -1.
        2   -1    0    0  501    0  0.00000000000E+00  0.00000000000E+00 -0.19791123878E+04  0.19791123878E+04  0.25500000920E-02 0.  1.
    10030    2    1    2    0    0  0.00000000000E+00  0.00000000000E+00 -0.12504943048E+04  0.27077304708E+04  0.24016803068E+04 0.  0.
        4    1    3    3  502    0 -0.38020601097E+03  0.69846852116E+03  0.38919115162E+03  0.88537350945E+03  0.12699999809E+01 0. -1.
       -4    1    3    3    0  502  0.38020601097E+03 -0.69846852116E+03 -0.16396854564E+04  0.18223569614E+04  0.12699999809E+01 0.  1.
</event>
<event>
 5   0  0.2149417E-06  0.2410391E+04  0.7818609E-02  0.8435624E-01
       -1   -1    0    0    0  501  0.00000000000E+00  0.00000000000E+00  0.20134147799E+04  0.20134147799E+04  0.50400001928E-02 0. -1.
        1   -1    0    0  501    0  0.00000000000E+00  0.00000000000E+00 -0.72140922711E+03  0.72140922713E+03  0.50400001928E-02 0.  1.
    10030    2    1    2    0    0  0.00000000000E+00  0.00000000000E+00  0.12920055528E+04  0.27348240071E+04  0.24103908399E+04 0.  0.
        5    1    3    3  502    0  0.46644399747E+02 -0.31744574546E+03  0.19640549730E+04  0.19900958590E+04  0.46999998093E+01 0. -1.
       -5    1    3    3    0  502 -0.46644399747E+02  0.31744574546E+03 -0.67204942015E+03  0.74472814802E+03  0.46999998093E+01 0.  1.
</event>
<event>
 5   0  0.5440503E-06  0.2399705E+04  0.7818609E-02  0.8439614E-01
       -2   -1    0    0    0  501  0.00000000000E+00  0.00000000000E+00  0.93845134934E+03  0.93845134934E+03  0.25500000920E-02 0.  1.
        2   -1    0    0  501    0  0.00000000000E+00  0.00000000000E+00 -0.15340651874E+04  0.15340651874E+04  0.25500000920E-02 0. -1.
    10030    2    1    2    0    0  0.00000000000E+00  0.00000000000E+00 -0.59561383801E+03  0.24725165367E+04  0.23997046027E+04 0.  0.
        3    1    3    3  502    0 -0.41442443581E+03  0.16694185744E+02 -0.14578545705E+04  0.15157065243E+04  0.10100000352E+00 0. -1.
       -3    1    3    3    0  502  0.41442443581E+03 -0.16694185744E+02  0.86224073250E+03  0.95681001240E+03  0.10100000352E+00 0.  1.
</event>
<event>
 5   0  0.5440503E-06  0.2400826E+04  0.7818609E-02  0.8439195E-01
       -2   -1    0    0    0  501  0.00000000000E+00  0.00000000000E+00  0.66041627316E+03  0.66041627317E+03  0.25500000920E-02 0. -1.
        2   -1    0    0  501    0  0.00000000000E+00  0.00000000000E+00 -0.21819432646E+04  0.21819432646E+04  0.25500000920E-02 0.  1.
    10030    2    1    2    0    0  0.00000000000E+00  0.00000000000E+00 -0.15215269914E+04  0.28423595377E+04  0.24008255572E+04 0.  0.
        3    1    3    3  502    0 -0.60626704976E+03  0.10307243982E+04 -0.88514896967E+03  0.14877638352E+04  0.10100000352E+00 0.  1.
       -3    1    3    3    0  502  0.60626704976E+03 -0.10307243982E+04 -0.63637802174E+03  0.13545957025E+04  0.10100000352E+00 0. -1.
</event>
<event>
 5   0  0.2254269E-06  0.2400111E+04  0.7818609E-02  0.8439462E-01
        1   -1    0    0  501    0  0.00000000000E+00  0.00000000000E+00  0.15411837505E+04  0.15411837505E+04  0.50400001928E-02 0.  1.
       -1   -1    0    0    0  501  0.00000000000E+00  0.00000000000E+00 -0.93443327263E+03  0.93443327264E+03  0.50400001928E-02 0. -1.
    10030    2    1    2    0    0  0.00000000000E+00  0.00000000000E+00  0.60675047784E+03  0.24756170231E+04  0.24001111438E+04 0.  0.
        2    1    3    3  502    0 -0.10376190373E+04 -0.44003146268E+03 -0.12172170009E+03  0.11336212449E+04  0.25500000920E-02 0. -1.
       -2    1    3    3    0  502  0.10376190373E+04  0.44003146268E+03  0.72847217793E+03  0.13419957782E+04  0.25500000920E-02 0.  1.
</event>
<event>
 5   0  0.2149417E-06  0.2398786E+04  0.7818609E-02  0.8439958E-01
       -1   -1    0    0    0  501  0.00000000000E+00  0.00000000000E+00  0.97021490092E+03  0.97021490094E+03  0.50400001928E-02 0. -1.
        1   -1    0    0  501    0  0.00000000000E+00  0.00000000000E+00 -0.14827057249E+04  0.14827057249E+04  0.50400001928E-02 0.  1.
    10030    2    1    2    0    0  0.00000000000E+00  0.00000000000E+00 -0.51249082398E+03  0.24529206258E+04  0.23987856828E+04 0.  0.
        5    1    3    3  502    0  0.41512242846E+03  0.30621171058E+03 -0.13634689160E+04  0.14577934755E+04  0.46999998093E+01 0.  1.
       -5    1    3    3    0  502 -0.41512242846E+03 -0.30621171058E+03  0.85097809201E+03  0.99512715036E+03  0.46999998093E+01 0. -1.
</event>
<event>
 5   0  0.2297414E-06  0.2378973E+04  0.7818609E-02  0.8447418E-01
       -1   -1    0    0    0  501  0.00000000000E+00  0.00000000000E+00  0.78932949383E+03  0.78932949385E+03  0.50400001928E-02 0.  1.
        1   -1    0    0  501    0  0.00000000000E+00  0.00000000000E+00 -0.17925058894E+04  0.17925058894E+04  0.50400001928E-02 0. -1.
    10030    2    1    2    0    0  0.00000000000E+00  0.00000000000E+00 -0.10031763956E+04  0.25818353833E+04  0.23789726912E+04 0.  0.
        1    1    3    3  502    0  0.63875419641E+03  0.65813602717E+03 -0.13236264810E+04  0.16103220221E+04  0.50400001928E-02 0. -1.
       -1    1    3    3    0  502 -0.63875419641E+03 -0.65813602717E+03  0.32045008539E+03  0.97151336118E+03  0.50400001928E-02 0.  1.
</event>
<event>
 5   0  0.5379778E-06  0.2409776E+04  0.7818609E-02  0.8435853E-01
        2   -1    0    0  501    0  0.00000000000E+00  0.00000000000E+00  0.14367202521E+04  0.14367202521E+04  0.25500000920E-02 0. -1.
       -2   -1    0    0    0  501  0.00000000000E+00  0.00000000000E+00 -0.10104644262E+04  0.10104644262E+04  0.25500000920E-02 0.  1.
    10030    2    1    2    0    0  0.00000000000E+00  0.00000000000E+00  0.42625582584E+03  0.24471846783E+04  0.24097756785E+04 0.  0.
        5    1    3    3  502    0  0.48958391978E+03 -0.10895421305E+04  0.52758250656E+02  0.11956588107E+04  0.46999998093E+01 0. -1.
       -5    1    3    3    0  502 -0.48958391978E+03  0.10895421305E+04  0.37349757519E+03  0.12515258676E+04  0.46999998093E+01 0.  1.
</event>
<event>
 5   0  0.5440503E-06  0.2400349E+04  0.7818609E-02  0.8439373E-01
       -2   -1    0    0    0  501  0.00000000000E+00  0.00000000000E+00  0.59803659916E+03  0.59803659916E+03  0.25500000920E-02 0.  1.
        2   -1    0    0  501    0  0.00000000000E+00  0.00000000000E+00 -0.24085788519E+04  0.24085788519E+04  0.25500000920E-02 0. -1.
    10030    2    1    2    0    0  0.00000000000E+00  0.00000000000E+00 -0.18105422527E+04  0.30066154510E+04  0.24003485625E+04 0.  0.
        3    1    3    3  502    0  0.11431563921E+04  0.50857966692E+02 -0.13586706207E+04  0.17763386319E+04  0.10100000352E+00 0. -1.
       -3    1    3    3    0  502 -0.11431563921E+04 -0.50857966692E+02 -0.45187163207E+03  0.12302768191E+04  0.10100000352E+00 0.  1.
</event>
<event>
 5   0  0.5371843E-06  0.2405082E+04  0.7818609E-02  0.8437603E-01
       -2   -1    0    0    0  501  0.00000000000E+00  0.00000000000E+00  0.17593282510E+04  0.17593282510E+04  0.25500000920E-02 0. -1.
        2   -1    0    0  501    0  0.00000000000E+00  0.00000000000E+00 -0.82196439345E+03  0.82196439345E+03  0.25500000920E-02 0.  1.
    10030    2    1    2    0    0  0.00000000000E+00  0.00000000000E+00  0.93736385752E+03  0.25812926444E+04  0.24050822678E+04 0.  0.
        4    1    3    3  502    0 -0.11421049328E+04 -0.37315000896E+03  0.52190292016E+03  0.13099728538E+04  0.12699999809E+01 0.  1.
       -4    1    3    3    0  502  0.11421049328E+04  0.37315000896E+03  0.41546093736E+03  0.12713197906E+04  0.12699999809E+01 0. -1.
</event>
<event>
 5   0  0.5440503E-06  0.2401775E+04  0.7818609E-02  0.8438839E-01
        2   -1    0    0  501    0  0.00000000000E+00  0.00000000000E+00  0.14335458652E+04  0.14335458652E+04  0.25500000920E-02 0. -1.
       -2   -1    0    0    0  501  0.00000000000E+00  0.00000000000E+00 -0.10059886542E+04  0.10059886542E+04  0.25500000920E-02 0.  1.
    10030    2    1    2    0    0  0.00000000000E+00  0.00000000000E+00  0.42755721091E+03  0.24395345194E+04  0.24017750733E+04 0.  0.
        3    1    3    3  502    0 -0.79515835444E+03  0.78843581220E+03 -0.22688888383E+03  0.11425350824E+04  0.10100000352E+00 0.  1.
       -3    1    3    3    0  502  0.79515835444E+03 -0.78843581220E+03  0.65444609474E+03  0.12969994371E+04  0.10100000352E+00 0. -1.
</event>
<event>
 5   0  0.2149417E-06  0.2404198E+04  0.7818609E-02  0.8437934E-01
        1   -1    0    0  501    0  0.00000000000E+00  0.00000000000E+00  0.17651895619E+04  0.17651895619E+04  0.50400001928E-02 0.  1.
       -1   -1    0    0    0  501  0.00000000000E+00  0.00000000000E+00 -0.81863253617E+03  0.81863253618E+03  0.50400001928E-02 0. -1.
    10030    2    1    2    0    0  0.00000000000E+00  0.00000000000E+00  0.94655702575E+03  0.25838220981E+04  0.24041976690E+04 0.  0.
        5    1    3    3  502    0 -0.10030225415E+04 -0.61005556273E+03  0.19551667859E+03  0.11901558176E+04  0.46999998093E+01 0.  1.
       -5    1    3    3    0  502  0.10030225415E+04  0.61005556273E+03  0.75104034717E+03  0.13936662805E+04  0.46999998093E+01 0. -1.
</event>
<event>
 5   0  0.2149029E-06  0.2408451E+04  0.7818609E-02  0.8436346E-01
        1   -1    0    0  501    0  0.00000000000E+00  0.00000000000E+00  0.25235449296E+04  0.25235449296E+04  0.50400001928E-02 0. -1.
       -1   -1    0    0    0  501  0.00000000000E+00  0.00000000000E+00 -0.57465151635E+03  0.57465151637E+03  0.50400001928E-02 0.  1.
    10030    2    1    2    0    0  0.00000000000E+00  0.00000000000E+00  0.19488934133E+04  0.30981964460E+04  0.24084508884E+04 0.  0.
        4    1    3    3  502    0  0.84830627293E+03  0.68324027911E+03  0.16350485858E+04  0.19646440651E+04  0.12699999809E+01 0.  1.
       -4    1    3    3    0  502 -0.84830627293E+03 -0.68324027911E+03  0.31384482754E+03  0.11335523810E+04  0.12699999809E+01 0. -1.
</event>
<event>
 5   0  0.2149417E-06  0.2406976E+04  0.7818609E-02  0.8436897E-01
       -1   -1    0    0    0  501  0.00000000000E+00  0.00000000000E+00  0.20591985431E+04  0.20591985431E+04  0.50400001928E-02 0. -1.
        1   -1    0    0  501    0  0.00000000000E+00  0.00000000000E+00 -0.70337227054E+03  0.70337227056E+03  0.50400001928E-02 0.  1.
    10030    2    1    2    0    0  0.00000000000E+00  0.00000000000E+00  0.13558262726E+04  0.27625708137E+04  0.24069758244E+04 0.  0.
        5    1    3    3  502    0  0.72892213796E+03  0.28682361484E+02  0.17765126917E+04  0.19204607767E+04  0.46999998093E+01 0. -1.
       -5    1    3    3    0  502 -0.72892213796E+03 -0.28682361484E+02 -0.42068641916E+03  0.84211003695E+03  0.46999998093E+01 0.  1.
</event>
<event>
 5   0  0.2149029E-06  0.2401588E+04  0.7818609E-02  0.8438909E-01
       -1   -1    0    0    0  501  0.00000000000E+00  0.00000000000E+00  0.14805049639E+04  0.14805049639E+04  0.50400001928E-02 0.  1.
        1   -1    0    0  501    0  0.00000000000E+00  0.00000000000E+00 -0.97392870097E+03  0.97392870099E+03  0.50400001928E-02 0. -1.
    10030    2    1    2    0    0  0.00000000000E+00  0.00000000000E+00  0.50657626288E+03  0.24544336649E+04  0.24015880382E+04 0.  0.
        4    1    3    3  502    0 -0.23708378599E+02 -0.29975293935E+03  0.14414054498E+04  0.14724351244E+04  0.12699999809E+01 0.  1.
       -4    1    3    3    0  502  0.23708378599E+02  0.29975293935E+03 -0.93482918693E+03  0.98199854047E+03  0.12699999809E+01 0. -1.
</event>
<event>
 5   0  0.5440503E-06  0.2398440E+04  0.7818609E-02  0.8440088E-01
       -2   -1    0    0    0  501  0.00000000000E+00  0.00000000000E+00  0.87104264986E+03  0.87104264986E+03  0.25500000920E-02 0. -1.
        2   -1    0    0  501    0  0.00000000000E+00  0.00000000000E+00 -0.16510420754E+04  0.16510420754E+04  0.25500000920E-02 0.  1.
    10030    2    1    2    0    0  0.00000000000E+00  0.00000000000E+00 -0.77999942558E+03  0.25220847253E+04  0.23984395464E+04 0.  0.
        3    1    3    3  502    0  0.12676505563E+03 -0.54657569833E+03 -0.15045031690E+04  0.16057223200E+04  0.10100000352E+00 0.  1.
       -3    1    3    3    0  502 -0.12676505563E+03  0.54657569833E+03  0.72450374343E+03  0.91636240526E+03  0.10100000352E+00 0. -1.
</event>
<event>
 5   0  0.2215700E-06  0.2399124E+04  0.7818609E-02  0.8439832E-01
       -1   -1    0    0    0  501  0.00000000000E+00  0.00000000000E+00  0.10616349910E+04  0.10616349910E+04  0.50400001928E-02 0.  1.
        1   -1    0    0  501    0  0.00000000000E+00  0.00000000000E+00 -0.13554079558E+04  0.13554079558E+04  0.50400001928E-02 0. -1.
    10030    2    1    2    0    0  0.00000000000E+00  0.00000000000E+00 -0.29377296476E+03  0.24170429468E+04  0.23991236008E+04 0.  0.
        3    1    3    3  502    0 -0.99005224596E+03 -0.25464119113E+03 -0.77919108409E+03  0.12853732305E+04  0.10100000352E+00 0. -1.
       -3    1    3    3    0  502  0.99005224596E+03  0.25464119113E+03  0.48541811933E+03  0.11316697163E+04  0.10100000352E+00 0.  1.
</event>
<event>
 5   0  0.2254269E-06  0.2398261E+04  0.7818609E-02  0.8440155E-01
        1   -1    0    0  501    0  0.00000000000E+00  0.00000000000E+00  0.15086565227E+04  0.15086565227E+04  0.50400001928E-02 0.  1.
       -1   -1    0    0    0  501  0.00000000000E+00  0.00000000000E+00 -0.95310873995E+03  0.95310873996E+03  0.50400001928E-02 0. -1.
    10030    2    1    2    0    0  0.00000000000E+00  0.00000000000E+00  0.55554778276E+03  0.24617652627E+04  0.23982608010E+04 0.  0.
        2    1    3    3  502    0 -0.83078451025E+03 -0.83894958686E+03  0.49278250216E+03  0.12794037307E+04  0.25500000920E-02 0.  1.
       -2    1    3    3    0  502  0.83078451025E+03  0.83894958686E+03  0.62765280595E+02  0.11823615319E+04  0.25500000920E-02 0. -1.
</event>
<event>
 5   0  0.5440503E-06  0.2401713E+04  0.7818609E-02  0.8438863E-01
       -2   -1    0    0    0  501  0.00000000000E+00  0.00000000000E+00  0.98354099889E+03  0.98354099889E+03  0.25500000920E-02 0. -1.
        2   -1    0    0  501    0  0.00000000000E+00  0.00000000000E+00 -0.14661878960E+04  0.14661878960E+04  0.25500000920E-02 0.  1.
    10030    2    1    2    0    0  0.00000000000E+00  0.00000000000E+00 -0.48264689714E+03  0.24497288949E+04  0.24017126455E+04 0.  0.
        3    1    3    3  502    0  0.49090011667E+02 -0.10365437986E+03  0.97794174878E+03  0.98464416614E+03  0.10100000352E+00 0. -1.
       -3    1    3    3    0  502 -0.49090011667E+02  0.10365437986E+03 -0.14605886459E+04  0.14650847288E+04  0.10100000352E+00 0.  1.
</event>
<event>
 5   0  0.2215700E-06  0.2400458E+04  0.7818609E-02  0.8439332E-01
        1   -1    0    0  501    0  0.00000000000E+00  0.00000000000E+00  0.20631899506E+04  0.20631899507E+04  0.50400001928E-02 0.  1.
       -1   -1    0    0    0  501  0.00000000000E+00  0.00000000000E+00 -0.69821481310E+03  0.69821481312E+03  0.50400001928E-02 0. -1.
    10030    2    1    2    0    0  0.00000000000E+00  0.00000000000E+00  0.13649751375E+04  0.27614047638E+04  0.24004581111E+04 0.  0.
        3    1    3    3  502    0 -0.11549820356E+04  0.48229472133E+02  0.10538975213E+04  0.15642920380E+04  0.10100000352E+00 0.  1.
       -3    1    3    3    0  502  0.11549820356E+04 -0.48229472133E+02  0.31107761623E+03  0.11971127257E+04  0.10100000352E+00 0. -1.
</event>
<event>
 5   0  0.5371843E-06  0.2403605E+04  0.7818609E-02  0.8438155E-01
       -2   -1    0    0    0  501  0.00000000000E+00  0.00000000000E+00  0.65448974555E+03  0.65448974555E+03  0.25500000920E-02 0.  1.
        2   -1    0    0  501    0  0.00000000000E+00  0.00000000000E+00 -0.22068017490E+04  0.22068017490E+04  0.25500000920E-02 0. -1.
    10030    2    1    2    0    0  0.00000000000E+00  0.00000000000E+00 -0.15523120035E+04  0.28612914946E+04  0.24036048887E+04 0.  0.
        4    1    3    3  502    0  0.92926524406E+03 -0.57299402968E+03 -0.13742991920E+04  0.17551512567E+04  0.12699999809E+01 0. -1.
       -4    1    3    3    0  502 -0.92926524406E+03  0.57299402968E+03 -0.17801281145E+03  0.11061402379E+04  0.12699999809E+01 0.  1.
</event>
<event>
 5   0  0.2254269E-06  0.2397814E+04  0.7818609E-02  0.8440322E-01
       -1   -1    0    0    0  501  0.00000000000E+00  0.00000000000E+00  0.99664437582E+03  0.99664437583E+03  0.50400001928E-02 0. -1.
        1   -1    0    0  501    0  0.00000000000E+00  0.00000000000E+00 -0.14422181054E+04  0.14422181054E+04  0.50400001928E-02 0.  1.
    10030    2    1    2    0    0  0.00000000000E+00  0.00000000000E+00 -0.44557372960E+03  0.24388624812E+04  0.23978144745E+04 0.  0.
        2    1    3    3  502    0 -0.73496293438E+03  0.21443743516E+03  0.71562572816E+03  0.10479857400E+04  0.25500000920E-02 0. -1.
       -2    1    3    3    0  502  0.73496293438E+03 -0.21443743516E+03 -0.11611994578E+04  0.13908767412E+04  0.25500000920E-02 0.  1.
</event>
<event>
 5   0  0.2254269E-06  0.2402062E+04  0.7818609E-02  0.8438732E-01
        1   -1    0    0  501    0  0.00000000000E+00  0.00000000000E+00  0.16195629589E+04  0.16195629589E+04  0.50400001928E-02 0. -1.
       -1   -1    0    0    0  501  0.00000000000E+00  0.00000000000E+00 -0.89065694189E+03  0.89065694191E+03  0.50400001928E-02 0.  1.
    10030    2    1    2    0    0  0.00000000000E+00  0.00000000000E+00  0.72890601698E+03  0.25102199008E+04  0.24020616080E+04 0.  0.
        2    1    3    3  502    0 -0.34074003330E+03  0.19283949498E+03 -0.82209442749E+03  0.91056580697E+03  0.25500000920E-02 0.  1.
       -2    1    3    3    0  502  0.34074003330E+03 -0.19283949498E+03  0.15510004445E+04  0.15996540938E+04  0.25500000920E-02 0. -1.
</event>
<event>
 5   0  0.2149029E-06  0.2393771E+04  0.7818609E-02  0.8441839E-01
        1   -1    0    0  501    0  0.00000000000E+00  0.00000000000E+00  0.12717268151E+04  0.12717268151E+04  0.50400001928E-02 0.  1.
       -1   -1    0    0    0  501  0.00000000000E+00  0.00000000000E+00 -0.11264486215E+04  0.11264486215E+04  0.50400001928E-02 0. -1.
    10030    2    1    2    0    0  0.00000000000E+00  0.00000000000E+00  0.14527819363E+03  0.23981754366E+04  0.23937710148E+04 0.  0.
        4    1    3    3  502    0  0.20494476366E+03 -0.39548134341E+03 -0.10403169198E+04  0.11316663624E+04  0.12699999809E+01 0. -1.
       -4    1    3    3    0  502 -0.20494476366E+03  0.39548134341E+03  0.11855951135E+04  0.12665090742E+04  0.12699999809E+01 0.  1.
</event>
<event>
 5   0  0.2215700E-06  0.2406255E+04  0.7818609E-02  0.8437165E-01
       -1   -1    0    0    0  501  0.00000000000E+00  0.00000000000E+00  0.23136786506E+04  0.23136786506E+04  0.50400001928E-02 0.  1.
        1   -1    0    0  501    0  0.00000000000E+00  0.00000000000E+00 -0.62563414164E+03  0.62563414166E+03  0.50400001928E-02 0. -1.
    10030    2    1    2    0    0  0.00000000000E+00  0.00000000000E+00  0.16880445089E+04  0.29393127922E+04  0.24062554782E+04 0.  0.
        3    1    3    3  502    0 -0.49015150731E+03  0.93056663098E+03  0.15576650086E+04  0.18795007433E+04  0.10100000352E+00 0.  1.
       -3    1    3    3    0  502  0.49015150731E+03 -0.93056663098E+03  0.13037950036E+03  0.10598120490E+04  0.10100000352E+00 0. -1.
</event>
<event>
 5   0  0.2149417E-06  0.2396716E+04  0.7818609E-02  0.8440734E-01
        1   -1    0    0  501    0  0.00000000000E+00  0.00000000000E+00  0.14518035582E+04  0.14518035582E+04  0.50400001928E-02 0.  1.
       -1   -1    0    0    0  501  0.00000000000E+00  0.00000000000E+00 -0.98915729931E+03  0.98915729933E+03  0.50400001928E-02 0. -1.
    10030    2    1    2    0    0  0.00000000000E+00  0.00000000000E+00  0.46264625890E+03  0.24409608576E+04  0.23967161591E+04 0.  0.
        5    1    3    3  502    0  0.47775973794E+03 -0.57089303443E+03 -0.72509037798E+03  0.10392070873E+04  0.46999998093E+01 0. -1.
       -5    1    3    3    0  502 -0.47775973794E+03  0.57089303443E+03  0.11877366369E+04  0.14017537703E+04  0.46999998093E+01 0.  1.
</event>
<event>
 5   0  0.5440503E-06  0.2399841E+04  0.7818609E-02  0.8439563E-01
       -2   -1    0    0    0  501  0.00000000000E+00  0.00000000000E+00  0.92207064202E+03  0.92207064203E+03  0.25500000920E-02 0. -1.
        2   -1    0    0  501    0  0.00000000000E+00  0.00000000000E+00 -0.15614949962E+04  0.15614949962E+04  0.25500000920E-02 0.  1.
    10030    2    1    2    0    0  0.00000000000E+00  0.00000000000E+00 -0.63942435414E+03  0.24835656382E+04  0.23998405727E+04 0.  0.
        3    1    3    3  502    0 -0.33649777263E+03  0.10280066374E+04 -0.85723679157E+03  0.13801751064E+04  0.10100000352E+00 0.  1.
       -3    1    3    3    0  502  0.33649777263E+03 -0.10280066374E+04  0.21781243743E+03  0.11033905317E+04  0.10100000352E+00 0. -1.
</event>
<event>
 5   0  0.2297414E-06  0.2399089E+04  0.7818609E-02  0.8439845E-01
        1   -1    0    0  501    0  0.00000000000E+00  0.00000000000E+00  0.16263249873E+04  0.16263249873E+04  0.50400001928E-02 0. -1.
       -1   -1    0    0    0  501  0.00000000000E+00  0.00000000000E+00 -0.88475948478E+03  0.88475948480E+03  0.50400001928E-02 0.  1.
    10030    2    1    2    0    0  0.00000000000E+00  0.00000000000E+00  0.74156550248E+03  0.25110844721E+04  0.23990885418E+04 0.  0.
        1    1    3    3  502    0  0.86158774325E+03  0.23408636584E+03  0.12092903106E+04  0.15031676292E+04  0.50400001928E-02 0. -1.
       -1    1    3    3    0  502 -0.86158774325E+03 -0.23408636584E+03 -0.46772480815E+03  0.10079168429E+04  0.50400001928E-02 0.  1.
</event>
<event>
 5   0  0.5349036E-06  0.2401528E+04  0.7818609E-02  0.8438932E-01
        2   -1    0    0  501    0  0.00000000000E+00  0.00000000000E+00  0.11583761189E+04  0.11583761189E+04  0.25500000920E-02 0. -1.
       -2   -1    0    0    0  501  0.00000000000E+00  0.00000000000E+00 -0.12447027635E+04  0.12447027635E+04  0.25500000920E-02 0.  1.
    10030    2    1    2    0    0  0.00000000000E+00  0.00000000000E+00 -0.86326644516E+02  0.24030788824E+04  0.24015278107E+04 0.  0.
        1    1    3    3  502    0  0.26931809012E+03  0.94493592091E+03  0.64749825023E+03  0.11767285636E+04  0.50400001928E-02 0. -1.
       -1    1    3    3    0  502 -0.26931809012E+03 -0.94493592091E+03 -0.73382489474E+03  0.12263503188E+04  0.50400001928E-02 0.  1.
</event>
<event>
 5   0  0.2215700E-06  0.2401639E+04  0.7818609E-02  0.8438890E-01
       -1   -1    0    0    0  501  0.00000000000E+00  0.00000000000E+00  0.77423060025E+03  0.77423060027E+03  0.50400001928E-02 0.  1.
        1   -1    0    0  501    0  0.00000000000E+00  0.00000000000E+00 -0.18624516545E+04  0.18624516545E+04  0.50400001928E-02 0. -1.
    10030    2    1    2    0    0  0.00000000000E+00  0.00000000000E+00 -0.10882210543E+04  0.26366822548E+04  0.24016386593E+04 0.  0.
        3    1    3    3  502    0 -0.91452824735E+03 -0.56655155209E+03 -0.11298254005E+04  0.15600794923E+04  0.10100000352E+00 0. -1.
       -3    1    3    3    0  502  0.91452824735E+03  0.56655155209E+03  0.41604346274E+02  0.10766027625E+04  0.10100000352E+00 0.  1.
</event>
<event>
 5   0  0.2254269E-06  0.2400506E+04  0.7818609E-02  0.8439314E-01
        1   -1    0    0  501    0  0.00000000000E+00  0.00000000000E+00  0.20225815905E+04  0.20225815905E+04  0.50400001928E-02 0. -1.
       -1   -1    0    0    0  501  0.00000000000E+00  0.00000000000E+00 -0.71226175483E+03  0.71226175485E+03  0.50400001928E-02 0.  1.
    10030    2    1    2    0    0  0.00000000000E+00  0.00000000000E+00  0.13103198356E+04  0.27348433453E+04  0.24005062074E+04 0.  0.
        2    1    3    3  502    0  0.91079467706E+03 -0.51729828139E+03 -0.12522033946E+02  0.10475214828E+04  0.25500000920E-02 0.  1.
       -2    1    3    3    0  502 -0.91079467706E+03  0.51729828139E+03  0.13228418696E+04  0.16873218625E+04  0.25500000920E-02 0. -1.
</event>
<event>
 5   0  0.2149417E-06  0.2393656E+04  0.7818609E-02  0.8441883E-01
        1   -1    0    0  501    0  0.00000000000E+00  0.00000000000E+00  0.84113677723E+03  0.84113677724E+03  0.50400001928E-02 0.  1.
       -1   -1    0    0    0  501  0.00000000000E+00  0.00000000000E+00 -0.17029300727E+04  0.17029300727E+04  0.50400001928E-02 0. -1.
    10030    2    1    2    0    0  0.00000000000E+00  0.00000000000E+00 -0.86179329550E+03  0.25440668500E+04  0.23936558761E+04 0.  0.
        5    1    3    3  502    0 -0.52682496000E+02  0.84460230470E+03 -0.13303902292E+04  0.15767335699E+04  0.46999998093E+01 0. -1.
       -5    1    3    3    0  502  0.52682496000E+02 -0.84460230470E+03  0.46859693370E+03  0.96733328008E+03  0.46999998093E+01 0.  1.
</event>
<event>
 5   0  0.5379778E-06  0.2396446E+04  0.7818609E-02  0.8440835E-01
        2   -1    0    0  501    0  0.00000000000E+00  0.00000000000E+00  0.14186806823E+04  0.14186806823E+04  0.25500000920E-02 0.  1.
       -2   -1    0    0    0  501  0.00000000000E+00  0.00000000000E+00 -0.10120232442E+04  0.10120232442E+04  0.25500000920E-02 0. -1.
    10030    2    1    2    0    0  0.00000000000E+00  0.00000000000E+00  0.40665743810E+03  0.24307039265E+04  0.23964455567E+04 0.  0.
        5    1    3    3  502    0  0.45179649309E+03  0.96494660490E+03  0.75931969005E+03  0.13083694062E+04  0.46999998093E+01 0.  1.
       -5    1    3    3    0  502 -0.45179649309E+03 -0.96494660490E+03 -0.35266225196E+03  0.11223345203E+04  0.46999998093E+01 0. -1.
</event>
<event>
 5   0  0.5379778E-06  0.2401249E+04  0.7818609E-02  0.8439036E-01
       -2   -1    0    0    0  501  0.00000000000E+00  0.00000000000E+00  0.11104414833E+04  0.11104414833E+04  0.25500000920E-02 0.  1.
        2   -1    0    0  501    0  0.00000000000E+00  0.00000000000E+00 -0.12981320413E+04  0.12981320413E+04  0.25500000920E-02 0. -1.
    10030    2    1    2    0    0  0.00000000000E+00  0.00000000000E+00 -0.18769055800E+03  0.24085735246E+04  0.24012493993E+04 0.  0.
        5    1    3    3  502    0  0.11896811963E+04 -0.19521478850E+02 -0.25481886403E+03  0.12168307937E+04  0.46999998093E+01 0. -1.
       -5    1    3    3    0  502 -0.11896811963E+04  0.19521478850E+02  0.67128306035E+02  0.11917427309E+04  0.46999998093E+01 0.  1.
</event>
<event>
 5   0  0.5379778E-06  0.2399057E+04  0.7818609E-02  0.8439857E-01
       -2   -1    0    0    0  501  0.00000000000E+00  0.00000000000E+00  0.89971997520E+03  0.89971997520E+03  0.25500000920E-02 0. -1.
        2   -1    0    0  501    0  0.00000000000E+00  0.00000000000E+00 -0.15992402757E+04  0.15992402757E+04  0.25500000920E-02 0.  1.
    10030    2    1    2    0    0  0.00000000000E+00  0.00000000000E+00 -0.69952030048E+03  0.24989602509E+04  0.23990568323E+04 0.  0.
        5    1    3    3  502    0  0.53733597754E+02 -0.10908212234E+04  0.16694936731E+03  0.11048404511E+04  0.46999998093E+01 0. -1.
       -5    1    3    3    0  502 -0.53733597754E+02  0.10908212234E+04 -0.86646966779E+03  0.13941197998E+04  0.46999998093E+01 0.  1.
</event>
<event>
 5   0  0.2149029E-06  0.2392615E+04  0.7818609E-02  0.8442274E-01
       -1   -1    0    0    0  501  0.00000000000E+00  0.00000000000E+00  0.14714315840E+04  0.14714315840E+04  0.50400001928E-02 0. -1.
        1   -1    0    0  501    0  0.00000000000E+00  0.00000000000E+00 -0.97262542097E+03  0.97262542098E+03  0.50400001928E-02 0.  1.
    10030    2    1    2    0    0  0.00000000000E+00  0.00000000000E+00  0.49880616301E+03  0.24440570050E+04  0.23926151080E+04 0.  0.
        4    1    3    3  502    0  0.78146753819E+03  0.70768059654E+03  0.82693192407E+03  0.13398960258E+04  0.12699999809E+01 0. -1.
       -4    1    3    3    0  502 -0.78146753819E+03 -0.70768059654E+03 -0.32812576106E+03  0.11041609792E+04  0.12699999809E+01 0.  1.
</event>
<event>
 5   0  0.5268358E-06  0.2408972E+04  0.7818609E-02  0.8436152E-01
        2   -1    0    0  501    0  0.00000000000E+00  0.00000000000E+00  0.15632685124E+04  0.15632685124E+04  0.25500000920E-02 0.  1.
       -2   -1    0    0    0  501  0.00000000000E+00  0.00000000000E+00 -0.92804725296E+03  0.92804725296E+03  0.25500000920E-02 0. -1.
    10030    2    1    2    0    0  0.00000000000E+00  0.00000000000E+00  0.63522125939E+03  0.24913157653E+04  0.24089724353E+04 0.  0.
        2    1    3    3  502    0  0.71749909004E+03 -0.89951381789E+03 -0.50733842517E+02  0.11517395433E+04  0.25500000920E-02 0. -1.
       -2    1    3    3    0  502 -0.71749909004E+03  0.89951381789E+03  0.68595510191E+03  0.13395762220E+04  0.25500000920E-02 0.  1.
</event>
<event>
 5   0  0.5440503E-06  0.2400346E+04  0.7818609E-02  0.8439374E-01
        2   -1    0    0  501    0  0.00000000000E+00  0.00000000000E+00  0.11014746973E+04  0.11014746973E+04  0.25500000920E-02 0.  1.
       -2   -1    0    0    0  501  0.00000000000E+00  0.00000000000E+00 -0.13077154576E+04  0.13077154576E+04  0.25500000920E-02 0. -1.
    10030    2    1    2    0    0  0.00000000000E+00  0.00000000000E+00 -0.20624076035E+03  0.24091901549E+04  0.24003462148E+04 0.  0.
        3    1    3    3  502    0 -0.10738992914E+04  0.24408170886E+03  0.37569065670E+03  0.11636060538E+04  0.10100000352E+00 0.  1.
       -3    1    3    3    0  502  0.10738992914E+04 -0.24408170886E+03 -0.58193141706E+03  0.12455841011E+04  0.10100000352E+00 0. -1.
</event>
<event>
 5   0  0.2215700E-06  0.2402521E+04  0.7818609E-02  0.8438560E-01
       -1   -1    0    0    0  501  0.00000000000E+00  0.00000000000E+00  0.10465442166E+04  0.10465442166E+04  0.50400001928E-02 0.  1.
        1   -1    0    0  501    0  0.00000000000E+00  0.00000000000E+00 -0.13788492858E+04  0.13788492858E+04  0.50400001928E-02 0. -1.
    10030    2    1    2    0    0  0.00000000000E+00  0.00000000000E+00 -0.33230506919E+03  0.24253935024E+04  0.24025209640E+04 0.  0.
        3    1    3    3  502    0  0.67117669092E+03  0.99619686753E+03 -0.15419127046E+03  0.12110579290E+04  0.10100000352E+00 0. -1.
       -3    1    3    3    0  502 -0.67117669092E+03 -0.99619686753E+03 -0.17811379874E+03  0.12143355734E+04  0.10100000352E+00 0.  1.
</event>
<event>
 5   0  0.5440503E-06  0.2412413E+04  0.7818609E-02  0.8434871E-01
       -2   -1    0    0    0  501  0.00000000000E+00  0.00000000000E+00  0.13523062670E+04  0.13523062670E+04  0.25500000920E-02 0.  1.
        2   -1    0    0  501    0  0.00000000000E+00  0.00000000000E+00 -0.10758907774E+04  0.10758907774E+04  0.25500000920E-02 0. -1.
    10030    2    1    2    0    0  0.00000000000E+00  0.00000000000E+00  0.27641548959E+03  0.24281970444E+04  0.24124127680E+04 0.  0.
        3    1    3    3  502    0 -0.15082772868E+03 -0.19292369821E+03  0.13270220050E+04  0.13494280155E+04  0.10100000352E+00 0.  1.
       -3    1    3    3    0  502  0.15082772868E+03  0.19292369821E+03 -0.10506065154E+04  0.10787690288E+04  0.10100000352E+00 0. -1.
</event>
<event>
 5   0  0.2297414E-06  0.2369032E+04  0.7818609E-02  0.8451189E-01
       -1   -1    0    0    0  501  0.00000000000E+00  0.00000000000E+00  0.11250280975E+04  0.11250280976E+04  0.50400001928E-02 0. -1.
        1   -1    0    0  501    0  0.00000000000E+00  0.00000000000E+00 -0.12471498043E+04  0.12471498043E+04  0.50400001928E-02 0.  1.
    10030    2    1    2    0    0  0.00000000000E+00  0.00000000000E+00 -0.12212170678E+03  0.23721779019E+04  0.23690323524E+04 0.  0.
        1    1    3    3  502    0 -0.12239723647E+03  0.93856308062E+03 -0.77418399552E+03  0.12228011280E+04  0.50400001928E-02 0.  1.
       -1    1    3    3    0  502  0.12239723647E+03 -0.93856308062E+03  0.65206228874E+03  0.11493767738E+04  0.50400001928E-02 0. -1.
</event>
<event>
 5   0  0.5379778E-06  0.2397519E+04  0.7818609E-02  0.8440433E-01
        2   -1    0    0  501    0  0.00000000000E+00  0.00000000000E+00  0.20591897525E+04  0.20591897525E+04  0.25500000920E-02 0. -1.
       -2   -1    0    0    0  501  0.00000000000E+00  0.00000000000E+00 -0.69785927983E+03  0.69785927983E+03  0.25500000920E-02 0.  1.
    10030    2    1    2    0    0  0.00000000000E+00  0.00000000000E+00  0.13613304727E+04  0.27570490324E+04  0.23975192827E+04 0.  0.
        5    1    3    3  502    0  0.11450305806E+04 -0.32101952861E+03  0.50681964640E+03  0.12926858908E+04  0.46999998093E+01 0.  1.
       -5    1    3    3    0  502 -0.11450305806E+04  0.32101952861E+03  0.85451082630E+03  0.14643631416E+04  0.46999998093E+01 0. -1.
</event>
<event>
 5   0  0.2215700E-06  0.2400856E+04  0.7818609E-02  0.8439183E-01
       -1   -1    0    0    0  501  0.00000000000E+00  0.00000000000E+00  0.61586180708E+03  0.61586180710E+03  0.50400001928E-02 0.  1.
        1   -1    0    0  501    0  0.00000000000E+00  0.00000000000E+00 -0.23398553038E+04  0.23398553038E+04  0.50400001928E-02 0. -1.
    10030    2    1    2    0    0  0.00000000000E+00  0.00000000000E+00 -0.17239934967E+04  0.29557171109E+04  0.24008561104E+04 0.  0.
        3    1    3    3  502    0  0.11709232253E+03 -0.16034406773E+03 -0.23195009374E+04  0.23279831273E+04  0.10100000352E+00 0. -1.
       -3    1    3    3    0  502 -0.11709232253E+03  0.16034406773E+03  0.59550744070E+03  0.62773398361E+03  0.10100000352E+00 0.  1.
</event>
<event>
 5   0  0.5268358E-06  0.2397944E+04  0.7818609E-02  0.8440274E-01
       -2   -1    0    0    0  501  0.00000000000E+00  0.00000000000E+00  0.11786304093E+04  0.11786304093E+04  0.25500000920E-02 0.  1.
        2   -1    0    0  501    0  0.00000000000E+00  0.00000000000E+00 -0.12196651573E+04  0.12196651573E+04  0.25500000920E-02 0. -1.
    10030    2    1    2    0    0  0.00000000000E+00  0.00000000000E+00 -0.41034748022E+02  0.23982955666E+04  0.23979444894E+04 0.  0.
        2    1    3    3  502    0 -0.45297230754E+03  0.48114953016E+03 -0.10210865850E+04  0.12162674853E+04  0.25500000920E-02 0. -1.
       -2    1    3    3    0  502  0.45297230754E+03 -0.48114953016E+03  0.98005183697E+03  0.11820280813E+04  0.25500000920E-02 0.  1.
</event>
<event>
 5   0  0.2149417E-06  0.2408192E+04  0.7818609E-02  0.8436443E-01
       -1   -1    0    0    0  501  0.00000000000E+00  0.00000000000E+00  0.63933010023E+03  0.63933010025E+03  0.50400001928E-02 0. -1.
        1   -1    0    0  501    0  0.00000000000E+00  0.00000000000E+00 -0.22677598194E+04  0.22677598194E+04  0.50400001928E-02 0.  1.
    10030    2    1    2    0    0  0.00000000000E+00  0.00000000000E+00 -0.16284297192E+04  0.29070899197E+04  0.24081919464E+04 0.  0.
        5    1    3    3  502    0 -0.84364778695E+02  0.80653560868E+03  0.26023698335E+03  0.85168214814E+03  0.46999998093E+01 0. -1.
       -5    1    3    3    0  502  0.84364778695E+02 -0.80653560868E+03 -0.18886667025E+04  0.20554077715E+04  0.46999998093E+01 0.  1.
</event>
<event>
 5   0  0.2254269E-06  0.2398422E+04  0.7818609E-02  0.8440095E-01
       -1   -1    0    0    0  501  0.00000000000E+00  0.00000000000E+00  0.11479698365E+04  0.11479698365E+04  0.50400001928E-02 0.  1.
        1   -1    0    0  501    0  0.00000000000E+00  0.00000000000E+00 -0.12527393568E+04  0.12527393568E+04  0.50400001928E-02 0. -1.
    10030    2    1    2    0    0  0.00000000000E+00  0.00000000000E+00 -0.10476952024E+03  0.24007091933E+04  0.23984219767E+04 0.  0.
        2    1    3    3  502    0 -0.40725779050E+02 -0.88825160914E+03 -0.85779952785E+03  0.12355037597E+04  0.25500000920E-02 0. -1.
       -2    1    3    3    0  502  0.40725779050E+02  0.88825160914E+03  0.75303000760E+03  0.11652054336E+04  0.25500000920E-02 0.  1.
</event>
<event>
 5   0  0.2149417E-06  0.2405295E+04  0.7818609E-02  0.8437524E-01
        1   -1    0    0  501    0  0.00000000000E+00  0.00000000000E+00  0.19703804648E+04  0.19703804648E+04  0.50400001928E-02 0. -1.
       -1   -1    0    0    0  501  0.00000000000E+00  0.00000000000E+00 -0.73405188621E+03  0.73405188622E+03  0.50400001928E-02 0.  1.
    10030    2    1    2    0    0  0.00000000000E+00  0.00000000000E+00  0.12363285786E+04  0.27044323510E+04  0.24052954053E+04 0.  0.
        5    1    3    3  502    0 -0.78503890949E+03 -0.39114691490E+03  0.15433319594E+04  0.17751556623E+04  0.46999998093E+01 0. -1.
       -5    1    3    3    0  502  0.78503890949E+03  0.39114691490E+03 -0.30700338079E+03  0.92927668875E+03  0.46999998093E+01 0.  1.
</event>
<event>
 5   0  0.5379778E-06  0.2400554E+04  0.7818609E-02  0.8439296E-01
        2   -1    0    0  501    0  0.00000000000E+00  0.00000000000E+00  0.31351286896E+04  0.31351286896E+04  0.25500000920E-02 0.  1.
       -2   -1    0    0    0  501  0.00000000000E+00  0.00000000000E+00 -0.45952341789E+03  0.45952341790E+03  0.25500000920E-02 0. -1.
    10030    2    1    2    0    0  0.00000000000E+00  0.00000000000E+00  0.26756052717E+04  0.35946521075E+04  0.24005541452E+04 0.  0.
        5    1    3    3  502    0 -0.74926761631E+03  0.85700239935E+03  0.76801702771E+03  0.13732178699E+04  0.46999998093E+01 0. -1.
       -5    1    3    3    0  502  0.74926761631E+03 -0.85700239935E+03  0.19075882440E+04  0.22214342376E+04  0.46999998093E+01 0.  1.
</event>
<event>
 5   0  0.2149417E-06  0.2399487E+04  0.7818609E-02  0.8439696E-01
        1   -1    0    0  501    0  0.00000000000E+00  0.00000000000E+00  0.17221054523E+04  0.17221054523E+04  0.50400001928E-02 0. -1.
       -1   -1    0    0    0  501  0.00000000000E+00  0.00000000000E+00 -0.83582840575E+03  0.83582840577E+03  0.50400001928E-02 0.  1.
    10030    2    1    2    0    0  0.00000000000E+00  0.00000000000E+00  0.88627704658E+03  0.25579338581E+04  0.23994871575E+04 0.  0.
        5    1    3    3  502    0  0.39646975489E+01 -0.10589667056E+04  0.10442305692E+04  0.14872342701E+04  0.46999998093E+01 0. -1.
       -5    1    3    3    0  502 -0.39646975489E+01  0.10589667056E+04 -0.15795352262E+03  0.10706995880E+04  0.46999998093E+01 0.  1.
</event>
<event>
 5   0  0.5349036E-06  0.2397344E+04  0.7818609E-02  0.8440499E-01
        2   -1    0    0  501    0  0.00000000000E+00  0.00000000000E+00  0.17880984023E+04  0.17880984023E+04  0.25500000920E-02 0.  1.
       -2   -1    0    0    0  501  0.00000000000E+00  0.00000000000E+00 -0.80354340810E+03  0.80354340810E+03  0.25500000920E-02 0. -1.
    10030    2    1    2    0    0  0.00000000000E+00  0.00000000000E+00  0.98455499423E+03  0.25916418104E+04  0.23973441006E+04 0.  0.
        1    1    3    3  502    0  0.45009489887E+03 -0.49700234111E+03  0.15663933401E+04  0.17038734815E+04  0.50400001928E-02 0.  1.
       -1    1    3    3    0  502 -0.45009489887E+03  0.49700234111E+03 -0.58183834588E+03  0.88776832891E+03  0.50400001928E-02 0. -1.
</event>
<event>
 5   0  0.5379778E-06  0.2399810E+04  0.7818609E-02  0.8439575E-01
        2   -1    0    0  501    0  0.00000000000E+00  0.00000000000E+00  0.88476338972E+03  0.88476338972E+03  0.25500000920E-02 0.  1.
       -2   -1    0    0    0  501  0.00000000000E+00  0.00000000000E+00 -0.16272954416E+04  0.16272954416E+04  0.25500000920E-02 0. -1.
    10030    2    1    2    0    0  0.00000000000E+00  0.00000000000E+00 -0.74253205189E+03  0.25120588313E+04  0.23998095183E+04 0.  0.
        5    1    3    3  502    0 -0.21332031900E+03  0.11518769195E+04 -0.99460562893E+02  0.11756872415E+04  0.46999998093E+01 0.  1.
       -5    1    3    3    0  502  0.21332031900E+03 -0.11518769195E+04 -0.64307148900E+03  0.13363715899E+04  0.46999998093E+01 0. -1.
</event>
<event>
 5   0  0.5379778E-06  0.2395794E+04  0.7818609E-02  0.8441080E-01
       -2   -1    0    0    0  501  0.00000000000E+00  0.00000000000E+00  0.61517650077E+03  0.61517650077E+03  0.25500000920E-02 0.  1.
        2   -1    0    0  501    0  0.00000000000E+00  0.00000000000E+00 -0.23325952010E+04  0.23325952010E+04  0.25500000920E-02 0. -1.
    10030    2    1    2    0    0  0.00000000000E+00  0.00000000000E+00 -0.17174187003E+04  0.29477717018E+04  0.23957944432E+04 0.  0.
        5    1    3    3  502    0  0.37600768354E+03  0.11258987806E+04 -0.66067388450E+03  0.13585072374E+04  0.46999998093E+01 0.  1.
       -5    1    3    3    0  502 -0.37600768354E+03 -0.11258987806E+04 -0.10567448158E+04  0.15892644644E+04  0.46999998093E+01 0. -1.
</event>
<event>
 5   0  0.2149417E-06  0.2394652E+04  0.7818609E-02  0.8441508E-01
        1   -1    0    0  501    0  0.00000000000E+00  0.00000000000E+00  0.23382977269E+04  0.23382977269E+04  0.50400001928E-02 0. -1.
       -1   -1    0    0    0  501  0.00000000000E+00  0.00000000000E+00 -0.61309128022E+03  0.61309128024E+03  0.50400001928E-02 0.  1.
    10030    2    1    2    0    0  0.00000000000E+00  0.00000000000E+00  0.17252064466E+04  0.29513890071E+04  0.23946523313E+04 0.  0.
        5    1    3    3  502    0 -0.17816330351E+03  0.81491272496E+03 -0.19600806029E+03  0.85689331992E+03  0.46999998093E+01 0.  1.
       -5    1    3    3    0  502  0.17816330351E+03 -0.81491272496E+03  0.19212145069E+04  0.20944956872E+04  0.46999998093E+01 0. -1.
</event>
<event>
 5   0  0.2149417E-06  0.2398344E+04  0.7818609E-02  0.8440124E-01
       -1   -1    0    0    0  501  0.00000000000E+00  0.00000000000E+00  0.74041028316E+03  0.74041028318E+03  0.50400001928E-02 0.  1.
        1   -1    0    0  501    0  0.00000000000E+00  0.00000000000E+00 -0.19421848193E+04  0.19421848194E+04  0.50400001928E-02 0. -1.
    10030    2    1    2    0    0  0.00000000000E+00  0.00000000000E+00 -0.12017745362E+04  0.26825951025E+04  0.23983441055E+04 0.  0.
        5    1    3    3  502    0  0.72236689512E+03  0.93448329734E+03 -0.83260869475E+03  0.14451063258E+04  0.46999998093E+01 0. -1.
       -5    1    3    3    0  502 -0.72236689512E+03 -0.93448329734E+03 -0.36916584143E+03  0.12374887768E+04  0.46999998093E+01 0.  1.
</event>
<event>
 5   0  0.5379778E-06  0.2403161E+04  0.7818609E-02  0.8438321E-01
        2   -1    0    0  501    0  0.00000000000E+00  0.00000000000E+00  0.17015795393E+04  0.17015795393E+04  0.25500000920E-02 0. -1.
       -2   -1    0    0    0  501  0.00000000000E+00  0.00000000000E+00 -0.84850298572E+03  0.84850298572E+03  0.25500000920E-02 0.  1.
    10030    2    1    2    0    0  0.00000000000E+00  0.00000000000E+00  0.85307655354E+03  0.25500825250E+04  0.24031606850E+04 0.  0.
        5    1    3    3  502    0  0.67323709312E+03  0.29291497456E+03 -0.58278416018E+03  0.93739363835E+03  0.46999998093E+01 0.  1.
       -5    1    3    3    0  502 -0.67323709312E+03 -0.29291497456E+03  0.14358607137E+04  0.16126888866E+04  0.46999998093E+01 0. -1.
</event>
<event>
 5   0  0.2149029E-06  0.2397163E+04  0.7818609E-02  0.8440567E-01
       -1   -1    0    0    0  501  0.00000000000E+00  0.00000000000E+00  0.97814869113E+03  0.97814869114E+03  0.50400001928E-02 0.  1.
        1   -1    0    0  501    0  0.00000000000E+00  0.00000000000E+00 -0.14686901283E+04  0.14686901283E+04  0.50400001928E-02 0. -1.
    10030    2    1    2    0    0  0.00000000000E+00  0.00000000000E+00 -0.49054143718E+03  0.24468388195E+04  0.23971627619E+04 0.  0.
        4    1    3    3  502    0  0.63902166486E+03  0.51005694014E+03  0.64929777040E+03  0.10440766150E+04  0.12699999809E+01 0.  1.
       -4    1    3    3    0  502 -0.63902166486E+03 -0.51005694014E+03 -0.11398392076E+04  0.14027622045E+04  0.12699999809E+01 0. -1.
</event>
<event>
 5   0  0.5349036E-06  0.2403111E+04  0.7818609E-02  0.8438340E-01
        2   -1    0    0  501    0  0.00000000000E+00  0.00000000000E+00  0.11364613909E+04  0.11364613909E+04  0.25500000920E-02 0.  1.
       -2   -1    0    0    0  501  0.00000000000E+00  0.00000000000E+00 -0.12703785130E+04  0.12703785130E+04  0.25500000920E-02 0. -1.
    10030    2    1    2    0    0  0.00000000000E+00  0.00000000000E+00 -0.13391712203E+03  0.24068399039E+04  0.24031114263E+04 0.  0.
        1    1    3    3  502    0 -0.97421211075E+03  0.29438555436E+01  0.63743784909E+03  0.11642271748E+04  0.50400001928E-02 0.  1.
       -1    1    3    3    0  502  0.97421211075E+03 -0.29438555436E+01 -0.77135497112E+03  0.12426127291E+04  0.50400001928E-02 0. -1.
</event>
<event>
 5   0  0.2149417E-06  0.2399929E+04  0.7818609E-02  0.8439530E-01
        1   -1    0    0  501    0  0.00000000000E+00  0.00000000000E+00  0.21231902435E+04  0.21231902435E+04  0.50400001928E-02 0.  1.
       -1   -1    0    0    0  501  0.00000000000E+00  0.00000000000E+00 -0.67818478311E+03  0.67818478313E+03  0.50400001928E-02 0. -1.
    10030    2    1    2    0    0  0.00000000000E+00  0.00000000000E+00  0.14450054604E+04  0.28013750266E+04  0.23999294280E+04 0.  0.
        5    1    3    3  502    0  0.76830687495E+03 -0.70653800736E+03  0.14134675804E+04  0.17571010502E+04  0.46999998093E+01 0.  1.
       -5    1    3    3    0  502 -0.76830687495E+03  0.70653800736E+03  0.31537880025E+02  0.10442739764E+04  0.46999998093E+01 0. -1.
</event>
<event>
 5   0  0.2297414E-06  0.2401907E+04  0.7818609E-02  0.8438790E-01
       -1   -1    0    0    0  501  0.00000000000E+00  0.00000000000E+00  0.10756903191E+04  0.10756903191E+04  0.50400001928E-02 0. -1.
        1   -1    0    0  501    0  0.00000000000E+00  0.00000000000E+00 -0.13408030280E+04  0.13408030280E+04  0.50400001928E-02 0.  1.
    10030    2    1    2    0    0  0.00000000000E+00  0.00000000000E+00 -0.26511270889E+03  0.24164933472E+04  0.24019066070E+04 0.  0.
        1    1    3    3  502    0  0.21689595563E+03 -0.90502845747E+03  0.63111101176E+03  0.11244649722E+04  0.50400001928E-02 0. -1.
       -1    1    3    3    0  502 -0.21689595563E+03  0.90502845747E+03 -0.89622372066E+03  0.12920283750E+04  0.50400001928E-02 0.  1.
</event>
<event>
 5   0  0.2297414E-06  0.2398182E+04  0.7818609E-02  0.8440184E-01
        1   -1    0    0  501    0  0.00000000000E+00  0.00000000000E+00  0.16697132075E+04  0.16697132075E+04  0.50400001928E-02 0.  1.
       -1   -1    0    0    0  501  0.00000000000E+00  0.00000000000E+00 -0.86111778199E+03  0.86111778201E+03  0.50400001928E-02 0. -1.
    10030    2    1    2    0    0  0.00000000000E+00  0.00000000000E+00  0.80859542552E+03  0.25308309895E+04  0.23981824233E+04 0.  0.
        1    1    3    3  502    0  0.32698970545E+03  0.56862611089E+03  0.14635923594E+04  0.16038580099E+04  0.50400001928E-02 0.  1.
       -1    1    3    3    0  502 -0.32698970545E+03 -0.56862611089E+03 -0.65499693390E+03  0.92697297959E+03  0.50400001928E-02 0. -1.
</event>
<event>
 5   0  0.2149029E-06  0.2401209E+04  0.7818609E-02  0.8439051E-01
        1   -1    0    0  501    0  0.00000000000E+00  0.00000000000E+00  0.10207802116E+04  0.10207802116E+04  0.50400001928E-02 0.  1.
       -1   -1    0    0    0  501  0.00000000000E+00  0.00000000000E+00 -0.14121075583E+04  0.14121075584E+04  0.50400001928E-02 0. -1.
    10030    2    1    2    0    0  0.00000000000E+00  0.00000000000E+00 -0.39132734676E+03  0.24328877700E+04  0.24012092389E+04 0.  0.
        4    1    3    3  502    0 -0.90375973111E+03  0.70969932719E+03  0.15676876618E+03  0.11597555111E+04  0.12699999809E+01 0. -1.
       -4    1    3    3    0  502  0.90375973111E+03 -0.70969932719E+03 -0.54809611294E+03  0.12731322588E+04  0.12699999809E+01 0.  1.
</event>
<event>
 5   0  0.5371843E-06  0.2409636E+04  0.7818609E-02  0.8435905E-01
        2   -1    0    0  501    0  0.00000000000E+00  0.00000000000E+00  0.20272516890E+04  0.20272516890E+04  0.25500000920E-02 0.  1.
       -2   -1    0    0    0  501  0.00000000000E+00  0.00000000000E+00 -0.71603667499E+03  0.71603667500E+03  0.25500000920E-02 0. -1.
    10030    2    1    2    0    0  0.00000000000E+00  0.00000000000E+00  0.13112150140E+04  0.27432883640E+04  0.24096361209E+04 0.  0.
        4    1    3    3  502    0  0.61095107019E+03  0.10270998085E+04  0.82972102861E+03  0.14548655694E+04  0.12699999809E+01 0.  1.
       -4    1    3    3    0  502 -0.61095107019E+03 -0.10270998085E+04  0.48149398543E+03  0.12884227946E+04  0.12699999809E+01 0. -1.
</event>
<event>
 5   0  0.5440503E-06  0.2343929E+04  0.7818609E-02  0.8460799E-01
       -2   -1    0    0    0  501  0.00000000000E+00  0.00000000000E+00  0.15902426552E+04  0.15902426552E+04  0.25500000920E-02 0. -1.
        2   -1    0    0  501    0  0.00000000000E+00  0.00000000000E+00 -0.86370530949E+03  0.86370530949E+03  0.25500000920E-02 0.  1.
    10030    2    1    2    0    0  0.00000000000E+00  0.00000000000E+00  0.72653734573E+03  0.24539479647E+04  0.23439292009E+04 0.  0.
        3    1    3    3  502    0 -0.67557154098E+03  0.90557291111E+03  0.68940584738E+03  0.13235330132E+04  0.10100000352E+00 0.  1.
       -3    1    3    3    0  502  0.67557154098E+03 -0.90557291111E+03  0.37131498352E+02  0.11304149516E+04  0.10100000352E+00 0. -1.
</event>
<event>
 5   0  0.2297414E-06  0.2399893E+04  0.7818609E-02  0.8439544E-01
       -1   -1    0    0    0  501  0.00000000000E+00  0.00000000000E+00  0.24290187966E+04  0.24290187966E+04  0.50400001928E-02 0.  1.
        1   -1    0    0  501    0  0.00000000000E+00  0.00000000000E+00 -0.59277919148E+03  0.59277919150E+03  0.50400001928E-02 0. -1.
    10030    2    1    2    0    0  0.00000000000E+00  0.00000000000E+00  0.18362396051E+04  0.30217979881E+04  0.23998931629E+04 0.  0.
        1    1    3    3  502    0  0.10524857554E+02 -0.11801684882E+04  0.64525147869E+03  0.13450865786E+04  0.50400001928E-02 0.  1.
       -1    1    3    3    0  502 -0.10524857554E+02  0.11801684882E+04  0.11909881264E+04  0.16767114094E+04  0.50400001928E-02 0. -1.
</event>
<event>
 5   0  0.5379778E-06  0.2400879E+04  0.7818609E-02  0.8439174E-01
        2   -1    0    0  501    0  0.00000000000E+00  0.00000000000E+00  0.24389585368E+04  0.24389585368E+04  0.25500000920E-02 0. -1.
       -2   -1    0    0    0  501  0.00000000000E+00  0.00000000000E+00 -0.59084868748E+03  0.59084868749E+03  0.25500000920E-02 0.  1.
    10030    2    1    2    0    0  0.00000000000E+00  0.00000000000E+00  0.18481098493E+04  0.30298072243E+04  0.24008793808E+04 0.  0.
        5    1    3    3  502    0  0.10955778554E+04 -0.19979437659E+02  0.30538257628E+03  0.11375282955E+04  0.46999998093E+01 0.  1.
       -5    1    3    3    0  502 -0.10955778554E+04  0.19979437659E+02  0.15427272730E+04  0.18922789287E+04  0.46999998093E+01 0. -1.
</event>
<event>
 5   0  0.5440503E-06  0.2398232E+04  0.7818609E-02  0.8440166E-01
       -2   -1    0    0    0  501  0.00000000000E+00  0.00000000000E+00  0.10103432330E+04  0.10103432330E+04  0.25500000920E-02 0. -1.
        2   -1    0    0  501    0  0.00000000000E+00  0.00000000000E+00 -0.14231593433E+04  0.14231593433E+04  0.25500000920E-02 0.  1.
    10030    2    1    2    0    0  0.00000000000E+00  0.00000000000E+00 -0.41281611025E+03  0.24335025763E+04  0.23982321923E+04 0.  0.
        3    1    3    3  502    0 -0.32305388920E+03 -0.22810831256E+03 -0.13550822598E+04  0.14116108382E+04  0.10100000352E+00 0.  1.
       -3    1    3    3    0  502  0.32305388920E+03  0.22810831256E+03  0.94226614956E+03  0.10218917381E+04  0.10100000352E+00 0. -1.
</event>
<event>
 5   0  0.5371843E-06  0.2396460E+04  0.7818609E-02  0.8440830E-01
        2   -1    0    0  501    0  0.00000000000E+00  0.00000000000E+00  0.12942365322E+04  0.12942365322E+04  0.25500000920E-02 0.  1.
       -2   -1    0    0    0  501  0.00000000000E+00  0.00000000000E+00 -0.11093451039E+04  0.11093451039E+04  0.25500000920E-02 0. -1.
    10030    2    1    2    0    0  0.00000000000E+00  0.00000000000E+00  0.18489142831E+03  0.24035816361E+04  0.23964598559E+04 0.  0.
        4    1    3    3  502    0 -0.26064190848E+03  0.51352681080E+03  0.11463344536E+04  0.12828594164E+04  0.12699999809E+01 0.  1.
       -4    1    3    3    0  502  0.26064190848E+03 -0.51352681080E+03 -0.96144302528E+03  0.11207222197E+04  0.12699999809E+01 0. -1.
</event>
<event>
 5   0  0.5268358E-06  0.2422839E+04  0.7818609E-02  0.8431002E-01
        2   -1    0    0  501    0  0.00000000000E+00  0.00000000000E+00  0.19863982212E+04  0.19863982212E+04  0.25500000920E-02 0.  1.
       -2   -1    0    0    0  501  0.00000000000E+00  0.00000000000E+00 -0.73879278557E+03  0.73879278558E+03  0.25500000920E-02 0. -1.
    10030    2    1    2    0    0  0.00000000000E+00  0.00000000000E+00  0.12476054356E+04  0.27251910068E+04  0.24228385626E+04 0.  0.
        2    1    3    3  502    0 -0.10764012092E+03  0.48422097534E+03  0.18669303154E+04  0.19317052443E+04  0.25500000920E-02 0.  1.
       -2    1    3    3    0  502  0.10764012092E+03 -0.48422097534E+03 -0.61932487971E+03  0.79348576246E+03  0.25500000920E-02 0. -1.
</event>
<event>
 5   0  0.5268358E-06  0.2403264E+04  0.7818609E-02  0.8438282E-01
       -2   -1    0    0    0  501  0.00000000000E+00  0.00000000000E+00  0.85468184669E+03  0.85468184670E+03  0.25500000920E-02 0. -1.
        2   -1    0    0  501    0  0.00000000000E+00  0.00000000000E+00 -0.16894236884E+04  0.16894236884E+04  0.25500000920E-02 0.  1.
    10030    2    1    2    0    0  0.00000000000E+00  0.00000000000E+00 -0.83474184173E+03  0.25441055351E+04  0.24032642450E+04 0.  0.
        2    1    3    3  502    0  0.78303776472E+02 -0.30958725511E+03 -0.16436824050E+04  0.16744155991E+04  0.25500000920E-02 0.  1.
       -2    1    3    3    0  502 -0.78303776472E+02  0.30958725511E+03  0.80894056327E+03  0.86968993604E+03  0.25500000920E-02 0. -1.
</event>
<event>
 5   0  0.5268358E-06  0.2394786E+04  0.7818609E-02  0.8441458E-01
       -2   -1    0    0    0  501  0.00000000000E+00  0.00000000000E+00  0.18420157798E+04  0.18420157798E+04  0.25500000920E-02 0.  1.
        2   -1    0    0  501    0  0.00000000000E+00  0.00000000000E+00 -0.77835903391E+03  0.77835903392E+03  0.25500000920E-02 0. -1.
    10030    2    1    2    0    0  0.00000000000E+00  0.00000000000E+00  0.10636567459E+04  0.26203748137E+04  0.23947856880E+04 0.  0.
        2    1    3    3  502    0 -0.22626055030E+03 -0.11243624154E+04  0.90827924964E+03  0.14629955137E+04  0.25500000920E-02 0.  1.
       -2    1    3    3    0  502  0.22626055030E+03  0.11243624154E+04  0.15537749624E+03  0.11573793000E+04  0.25500000920E-02 0. -1.
</event>
<event>
 5   0  0.5440503E-06  0.2403375E+04  0.7818609E-02  0.8438241E-01
        2   -1    0    0  501    0  0.00000000000E+00  0.00000000000E+00  0.26248581254E+04  0.26248581254E+04  0.25500000920E-02 0.  1.
       -2   -1    0    0    0  501  0.00000000000E+00  0.00000000000E+00 -0.55014506205E+03  0.55014506206E+03  0.25500000920E-02 0. -1.
    10030    2    1    2    0    0  0.00000000000E+00  0.00000000000E+00  0.20747130634E+04  0.31750031875E+04  0.24033749073E+04 0.  0.
        3    1    3    3  502    0  0.81935814169E+03  0.34818521472E+03  0.21036347224E+04  0.22842635057E+04  0.10100000352E+00 0.  1.
       -3    1    3    3    0  502 -0.81935814169E+03 -0.34818521472E+03 -0.28921659028E+02  0.89073968176E+03  0.10100000352E+00 0. -1.
</event>
<event>
 5   0  0.5371843E-06  0.2403319E+04  0.7818609E-02  0.8438262E-01
        2   -1    0    0  501    0  0.00000000000E+00  0.00000000000E+00  0.15726085484E+04  0.15726085484E+04  0.25500000920E-02 0.  1.
       -2   -1    0    0    0  501  0.00000000000E+00  0.00000000000E+00 -0.91821053211E+03  0.91821053211E+03  0.25500000920E-02 0. -1.
    10030    2    1    2    0    0  0.00000000000E+00  0.00000000000E+00  0.65439801629E+03  0.24908190805E+04  0.24033191482E+04 0.  0.
        4    1    3    3  502    0 -0.73748106380E+03  0.77498051585E+03  0.89440018806E+03  0.13944269177E+04  0.12699999809E+01 0.  1.
       -4    1    3    3    0  502  0.73748106380E+03 -0.77498051585E+03 -0.24000217177E+03  0.10963921628E+04  0.12699999809E+01 0. -1.
</event>
<event>
 5   0  0.5349036E-06  0.2400456E+04  0.7818609E-02  0.8439333E-01
        2   -1    0    0  501    0  0.00000000000E+00  0.00000000000E+00  0.21245118165E+04  0.21245118165E+04  0.25500000920E-02 0. -1.
       -2   -1    0    0    0  501  0.00000000000E+00  0.00000000000E+00 -0.67806018633E+03  0.67806018633E+03  0.25500000920E-02 0.  1.
    10030    2    1    2    0    0  0.00000000000E+00  0.00000000000E+00  0.14464516302E+04  0.28025720029E+04  0.24004556886E+04 0.  0.
        1    1    3    3  502    0 -0.47925627667E+03  0.81650734817E+02 -0.55795733202E+03  0.74004716445E+03  0.50400001928E-02 0.  1.
       -1    1    3    3    0  502  0.47925627667E+03 -0.81650734817E+02  0.20044089622E+04  0.20625248384E+04  0.50400001928E-02 0. -1.
</event>
<event>
 5   0  0.2297414E-06  0.2398954E+04  0.7818609E-02  0.8439895E-01
        1   -1    0    0  501    0  0.00000000000E+00  0.00000000000E+00  0.21475571262E+04  0.21475571262E+04  0.50400001928E-02 0.  1.
       -1   -1    0    0    0  501  0.00000000000E+00  0.00000000000E+00 -0.66994472488E+03  0.66994472490E+03  0.50400001928E-02 0. -1.
    10030    2    1    2    0    0  0.00000000000E+00  0.00000000000E+00  0.14776124013E+04  0.28175018511E+04  0.23989535786E+04 0.  0.
        1    1    3    3  502    0  0.10688312550E+04  0.21857710637E+03  0.13243579647E+04  0.17158380524E+04  0.50400001928E-02 0.  1.
       -1    1    3    3    0  502 -0.10688312550E+04 -0.21857710637E+03  0.15325443658E+03  0.11016637988E+04  0.50400001928E-02 0. -1.
</event>
<event>
 5   0  0.2215700E-06  0.2402115E+04  0.7818609E-02  0.8438712E-01
        1   -1    0    0  501    0  0.00000000000E+00  0.00000000000E+00  0.86408027086E+03  0.86408027087E+03  0.50400001928E-02 0. -1.
       -1   -1    0    0    0  501  0.00000000000E+00  0.00000000000E+00 -0.16694510302E+04  0.16694510302E+04  0.50400001928E-02 0.  1.
    10030    2    1    2    0    0  0.00000000000E+00  0.00000000000E+00 -0.80537075933E+03  0.25335313011E+04  0.24021154830E+04 0.  0.
        3    1    3    3  502    0  0.16070350517E+03 -0.14454394518E+03 -0.16487692497E+04  0.16628766092E+04  0.10100000352E+00 0.  1.
       -3    1    3    3    0  502 -0.16070350517E+03  0.14454394518E+03  0.84339849036E+03  0.87065469183E+03  0.10100000352E+00 0. -1.
</event>
<event>
 5   0  0.2297414E-06  0.2403844E+04  0.7818609E-02  0.8438066E-01
        1   -1    0    0  501    0  0.00000000000E+00  0.00000000000E+00  0.16705734156E+04  0.16705734156E+04  0.50400001928E-02 0.  1.
       -1   -1    0    0    0  501  0.00000000000E+00  0.00000000000E+00 -0.86474284663E+03  0.86474284664E+03  0.50400001928E-02 0. -1.
    10030    2    1    2    0    0  0.00000000000E+00  0.00000000000E+00  0.80583056897E+03  0.25353162622E+04  0.24038439308E+04 0.  0.
        1    1    3    3  502    0  0.11224364139E+04  0.42448220636E+03  0.47419692897E+03  0.12903144478E+04  0.50400001928E-02 0.  1.
       -1    1    3    3    0  502 -0.11224364139E+04 -0.42448220636E+03  0.33163364000E+03  0.12450018144E+04  0.50400001928E-02 0. -1.
</event>
<event>
 5   0  0.5371843E-06  0.2328151E+04  0.7818609E-02  0.8466903E-01
        2   -1    0    0  501    0  0.00000000000E+00  0.00000000000E+00  0.98766226172E+03  0.98766226173E+03  0.25500000920E-02 0.  1.
       -2   -1    0    0    0  501  0.00000000000E+00  0.00000000000E+00 -0.13719994446E+04  0.13719994446E+04  0.25500000920E-02 0. -1.
    10030    2    1    2    0    0  0.00000000000E+00  0.00000000000E+00 -0.38433718287E+03  0.23596617063E+04  0.23281512619E+04 0.  0.
        4    1    3    3  502    0  0.45581359754E+02  0.82432857851E+03 -0.10239311252E+04  0.13153067429E+04  0.12699999809E+01 0. -1.
       -4    1    3    3    0  502 -0.45581359754E+02 -0.82432857851E+03  0.63959394236E+03  0.10443549635E+04  0.12699999809E+01 0.  1.
</event>
<event>
 5   0  0.5268358E-06  0.2397508E+04  0.7818609E-02  0.8440437E-01
       -2   -1    0    0    0  501  0.00000000000E+00  0.00000000000E+00  0.11193034037E+04  0.11193034038E+04  0.25500000920E-02 0. -1.
        2   -1    0    0  501    0  0.00000000000E+00  0.00000000000E+00 -0.12838441254E+04  0.12838441254E+04  0.25500000920E-02 0.  1.
    10030    2    1    2    0    0  0.00000000000E+00  0.00000000000E+00 -0.16454072169E+03  0.24031475292E+04  0.23975079558E+04 0.  0.
        2    1    3    3  502    0 -0.32214034066E+02  0.11196065748E+04 -0.51042202217E+03  0.12308888118E+04  0.25500000920E-02 0.  1.
       -2    1    3    3    0  502  0.32214034066E+02 -0.11196065748E+04  0.34588130049E+03  0.11722587174E+04  0.25500000920E-02 0. -1.
</event>
<event>
 5   0  0.5268358E-06  0.2401900E+04  0.7818609E-02  0.8438793E-01
        2   -1    0    0  501    0  0.00000000000E+00  0.00000000000E+00  0.15312498760E+04  0.15312498760E+04  0.25500000920E-02 0. -1.
       -2   -1    0    0    0  501  0.00000000000E+00  0.00000000000E+00 -0.94189779835E+03  0.94189779835E+03  0.25500000920E-02 0.  1.
    10030    2    1    2    0    0  0.00000000000E+00  0.00000000000E+00  0.58935207767E+03  0.24731476744E+04  0.24018999871E+04 0.  0.
        2    1    3    3  502    0 -0.77170105745E+03 -0.77350667118E+03  0.80790476254E+03  0.13588764468E+04  0.25500000920E-02 0.  1.
       -2    1    3    3    0  502  0.77170105745E+03  0.77350667118E+03 -0.21855268487E+03  0.11142712275E+04  0.25500000920E-02 0. -1.
</event>
<event>
 5   0  0.5349036E-06  0.2402879E+04  0.7818609E-02  0.8438427E-01
        2   -1    0    0  501    0  0.00000000000E+00  0.00000000000E+00  0.13844739973E+04  0.13844739973E+04  0.25500000920E-02 0. -1.
       -2   -1    0    0    0  501  0.00000000000E+00  0.00000000000E+00 -0.10426028791E+04  0.10426028791E+04  0.25500000920E-02 0.  1.
    10030    2    1    2    0    0  0.00000000000E+00  0.00000000000E+00  0.34187111815E+03  0.24270768764E+04  0.24028787532E+04 0.  0.
        1    1    3    3  502    0 -0.34515418233E+03 -0.96336567641E+02 -0.98736666076E+03  0.10503832951E+04  0.50400001928E-02 0.  1.
       -1    1    3    3    0  502  0.34515418233E+03  0.96336567641E+02  0.13292377789E+04  0.13766935813E+04  0.50400001928E-02 0. -1.
</event>
<event>
 5   0  0.5379778E-06  0.2392083E+04  0.7818609E-02  0.8442474E-01
        2   -1    0    0  501    0  0.00000000000E+00  0.00000000000E+00  0.26521024911E+04  0.26521024911E+04  0.25500000920E-02 0.  1.
       -2   -1    0    0    0  501  0.00000000000E+00  0.00000000000E+00 -0.53938901742E+03  0.53938901743E+03  0.25500000920E-02 0. -1.
    10030    2    1    2    0    0  0.00000000000E+00  0.00000000000E+00  0.21127134737E+04  0.31914915085E+04  0.23920827384E+04 0.  0.
        5    1    3    3  502    0  0.68997078468E+02  0.54470550898E+01  0.26494161271E+04  0.26503241635E+04  0.46999998093E+01 0.  1.
       -5    1    3    3    0  502 -0.68997078468E+02 -0.54470550898E+01 -0.53670265336E+03  0.54116734507E+03  0.46999998093E+01 0. -1.
</event>
<event>
 5   0  0.2254269E-06  0.2397961E+04  0.7818609E-02  0.8440267E-01
        1   -1    0    0  501    0  0.00000000000E+00  0.00000000000E+00  0.12574805394E+04  0.12574805394E+04  0.50400001928E-02 0.  1.
       -1   -1    0    0    0  501  0.00000000000E+00  0.00000000000E+00 -0.11432017298E+04  0.11432017299E+04  0.50400001928E-02 0. -1.
    10030    2    1    2    0    0  0.00000000000E+00  0.00000000000E+00  0.11427880955E+03  0.24006822693E+04  0.23979607402E+04 0.  0.
        2    1    3    3  502    0  0.86901605341E+03 -0.82425055246E+03  0.25242725095E+01  0.11977413102E+04  0.25500000920E-02 0.  1.
       -2    1    3    3    0  502 -0.86901605341E+03  0.82425055246E+03  0.11175453704E+03  0.12029409590E+04  0.25500000920E-02 0. -1.
</event>
<event>
 5   0  0.2215700E-06  0.2401364E+04  0.7818609E-02  0.8438993E-01
        1   -1    0    0  501    0  0.00000000000E+00  0.00000000000E+00  0.72890245131E+03  0.72890245133E+03  0.50400001928E-02 0.  1.
       -1   -1    0    0    0  501  0.00000000000E+00  0.00000000000E+00 -0.19778194326E+04  0.19778194326E+04  0.50400001928E-02 0. -1.
    10030    2    1    2    0    0  0.00000000000E+00  0.00000000000E+00 -0.12489169813E+04  0.27067218839E+04  0.24013641396E+04 0.  0.
        3    1    3    3  502    0 -0.36282396196E+03  0.35234498505E+02 -0.19139388890E+04  0.19483441118E+04  0.10100000352E+00 0. -1.
       -3    1    3    3    0  502  0.36282396196E+03 -0.35234498505E+02  0.66502190770E+03  0.75837777207E+03  0.10100000352E+00 0.  1.
</event>
<event>
 5   0  0.2297414E-06  0.2398819E+04  0.7818609E-02  0.8439946E-01
       -1   -1    0    0    0  501  0.00000000000E+00  0.00000000000E+00  0.12432878262E+04  0.12432878263E+04  0.50400001928E-02 0. -1.
        1   -1    0    0  501    0  0.00000000000E+00  0.00000000000E+00 -0.11570799204E+04  0.11570799204E+04  0.50400001928E-02 0.  1.
    10030    2    1    2    0    0  0.00000000000E+00  0.00000000000E+00  0.86207905821E+02  0.24003677467E+04  0.23988191921E+04 0.  0.
        1    1    3    3  502    0  0.50250333335E+03 -0.10184128132E+04 -0.34303260229E+03  0.11863159884E+04  0.50400001928E-02 0.  1.
       -1    1    3    3    0  502 -0.50250333335E+03  0.10184128132E+04  0.42924050812E+03  0.12140517583E+04  0.50400001928E-02 0. -1.
</event>
<event>
 5   0  0.2254269E-06  0.2405031E+04  0.7818609E-02  0.8437622E-01
        1   -1    0    0  501    0  0.00000000000E+00  0.00000000000E+00  0.10631396913E+04  0.10631396913E+04  0.50400001928E-02 0. -1.
       -1   -1    0    0    0  501  0.00000000000E+00  0.00000000000E+00 -0.13601630796E+04  0.13601630796E+04  0.50400001928E-02 0.  1.
    10030    2    1    2    0    0  0.00000000000E+00  0.00000000000E+00 -0.29702338834E+03  0.24233027709E+04  0.24050308576E+04 0.  0.
        2    1    3    3  502    0 -0.90703563794E+03  0.75855371310E+03  0.72071536217E+02  0.11846145747E+04  0.25500000920E-02 0. -1.
       -2    1    3    3    0  502  0.90703563794E+03 -0.75855371310E+03 -0.36909492456E+03  0.12386881962E+04  0.25500000920E-02 0.  1.
</event>
<event>
 5   0  0.5440503E-06  0.2399815E+04  0.7818609E-02  0.8439573E-01
       -2   -1    0    0    0  501  0.00000000000E+00  0.00000000000E+00  0.95438435754E+03  0.95438435755E+03  0.25500000920E-02 0. -1.
        2   -1    0    0  501    0  0.00000000000E+00  0.00000000000E+00 -0.15085939897E+04  0.15085939897E+04  0.25500000920E-02 0.  1.
    10030    2    1    2    0    0  0.00000000000E+00  0.00000000000E+00 -0.55420963218E+03  0.24629783473E+04  0.23998154143E+04 0.  0.
        3    1    3    3  502    0 -0.88284592686E+03  0.14397286432E+03  0.54371591177E+03  0.10467913446E+04  0.10100000352E+00 0. -1.
       -3    1    3    3    0  502  0.88284592686E+03 -0.14397286432E+03 -0.10979255440E+04  0.14161870027E+04  0.10100000352E+00 0.  1.
</event>
<event>
 5   0  0.2254269E-06  0.2397122E+04  0.7818609E-02  0.8440582E-01
       -1   -1    0    0    0  501  0.00000000000E+00  0.00000000000E+00  0.15114704844E+04  0.15114704844E+04  0.50400001928E-02 0. -1.
        1   -1    0    0  501    0  0.00000000000E+00  0.00000000000E+00 -0.95043110571E+03  0.95043110572E+03  0.50400001928E-02 0.  1.
    10030    2    1    2    0    0  0.00000000000E+00  0.00000000000E+00  0.56103937868E+03  0.24619015901E+04  0.23971220776E+04 0.  0.
        2    1    3    3  502    0  0.98028912654E+03  0.43671073470E+03 -0.26763165641E+03  0.11060333363E+04  0.25500000920E-02 0.  1.
       -2    1    3    3    0  502 -0.98028912654E+03 -0.43671073470E+03  0.82867103508E+03  0.13558682539E+04  0.25500000920E-02 0. -1.
</event>
<event>
 5   0  0.5379778E-06  0.2354111E+04  0.7818609E-02  0.8456886E-01
       -2   -1    0    0    0  501  0.00000000000E+00  0.00000000000E+00  0.88792338559E+03  0.88792338559E+03  0.25500000920E-02 0. -1.
        2   -1    0    0  501    0  0.00000000000E+00  0.00000000000E+00 -0.15603363963E+04  0.15603363963E+04  0.25500000920E-02 0.  1.
    10030    2    1    2    0    0  0.00000000000E+00  0.00000000000E+00 -0.67241301071E+03  0.24482597819E+04  0.23541105970E+04 0.  0.
        5    1    3    3  502    0  0.62412609364E+03  0.78131347067E+02 -0.13708820511E+04  0.15083028794E+04  0.46999998093E+01 0.  1.
       -5    1    3    3    0  502 -0.62412609364E+03 -0.78131347067E+02  0.69846904036E+03  0.93995690247E+03  0.46999998093E+01 0. -1.
</event>
<event>
 5   0  0.5349036E-06  0.2399346E+04  0.7818609E-02  0.8439749E-01
        2   -1    0    0  501    0  0.00000000000E+00  0.00000000000E+00  0.19290650898E+04  0.19290650898E+04  0.25500000920E-02 0. -1.
       -2   -1    0    0    0  501  0.00000000000E+00  0.00000000000E+00 -0.74606857495E+03  0.74606857496E+03  0.25500000920E-02 0.  1.
    10030    2    1    2    0    0  0.00000000000E+00  0.00000000000E+00  0.11829965149E+04  0.26751336648E+04  0.23993456129E+04 0.  0.
        1    1    3    3  502    0  0.59925783911E+03 -0.10392756972E+04  0.58781555754E+03  0.13359382703E+04  0.50400001928E-02 0.  1.
       -1    1    3    3    0  502 -0.59925783911E+03  0.10392756972E+04  0.59518095731E+03  0.13391953944E+04  0.50400001928E-02 0. -1.
</event>
<event>
 5   0  0.2149417E-06  0.2413652E+04  0.7818609E-02  0.8434410E-01
        1   -1    0    0  501    0  0.00000000000E+00  0.00000000000E+00  0.15554564748E+04  0.15554564748E+04  0.50400001928E-02 0. -1.
       -1   -1    0    0    0  501  0.00000000000E+00  0.00000000000E+00 -0.93633542435E+03  0.93633542437E+03  0.50400001928E-02 0.  1.
    10030    2    1    2    0    0  0.00000000000E+00  0.00000000000E+00  0.61912105043E+03  0.24917918992E+04  0.24136520034E+04 0.  0.
        5    1    3    3  502    0  0.19313074383E+03 -0.11780959526E+04  0.49190641232E+03  0.12912023723E+04  0.46999998093E+01 0. -1.
       -5    1    3    3    0  502 -0.19313074383E+03  0.11780959526E+04  0.12721463811E+03  0.12005895268E+04  0.46999998093E+01 0.  1.
</event>
<event>
 5   0  0.2215700E-06  0.2408471E+04  0.7818609E-02  0.8436339E-01
       -1   -1    0    0    0  501  0.00000000000E+00  0.00000000000E+00  0.61857594333E+03  0.61857594335E+03  0.50400001928E-02 0. -1.
        1   -1    0    0  501    0  0.00000000000E+00  0.00000000000E+00 -0.23443906017E+04  0.23443906017E+04  0.50400001928E-02 0.  1.
    10030    2    1    2    0    0  0.00000000000E+00  0.00000000000E+00 -0.17258146584E+04  0.29629665450E+04  0.24084714057E+04 0.  0.
        3    1    3    3  502    0  0.11969629795E+04  0.14107827096E+01 -0.10254707976E+04  0.15761702737E+04  0.10100000352E+00 0.  1.
       -3    1    3    3    0  502 -0.11969629795E+04 -0.14107827096E+01 -0.70034386072E+03  0.13867962713E+04  0.10100000352E+00 0. -1.
</event>
<event>
 5   0  0.2297414E-06  0.2400649E+04  0.7818609E-02  0.8439261E-01
        1   -1    0    0  501    0  0.00000000000E+00  0.00000000000E+00  0.21227868688E+04  0.21227868688E+04  0.50400001928E-02 0. -1.
       -1   -1    0    0    0  501  0.00000000000E+00  0.00000000000E+00 -0.67872060982E+03  0.67872060984E+03  0.50400001928E-02 0.  1.
    10030    2    1    2    0    0  0.00000000000E+00  0.00000000000E+00  0.14440662590E+04  0.28015074786E+04  0.24006492440E+04 0.  0.
        1    1    3    3  502    0  0.90149572230E+02 -0.10940171291E+04  0.12886838276E+04  0.16928397537E+04  0.50400001928E-02 0. -1.
       -1    1    3    3    0  502 -0.90149572230E+02  0.10940171291E+04  0.15538243132E+03  0.11086677249E+04  0.50400001928E-02 0.  1.
</event>
<event>
 5   0  0.2149417E-06  0.2399838E+04  0.7818609E-02  0.8439564E-01
        1   -1    0    0  501    0  0.00000000000E+00  0.00000000000E+00  0.10781392638E+04  0.10781392639E+04  0.50400001928E-02 0.  1.
       -1   -1    0    0    0  501  0.00000000000E+00  0.00000000000E+00 -0.13354542330E+04  0.13354542330E+04  0.50400001928E-02 0. -1.
    10030    2    1    2    0    0  0.00000000000E+00  0.00000000000E+00 -0.25731496914E+03  0.24135934968E+04  0.23998380309E+04 0.  0.
        5    1    3    3  502    0  0.59525541702E+03 -0.98311218181E+03 -0.47551831113E+03  0.12437758350E+04  0.46999998093E+01 0.  1.
       -5    1    3    3    0  502 -0.59525541702E+03  0.98311218181E+03  0.21820334200E+03  0.11698176618E+04  0.46999998093E+01 0. -1.
</event>
<event>
 5   0  0.5268358E-06  0.2385848E+04  0.7818609E-02  0.8444821E-01
       -2   -1    0    0    0  501  0.00000000000E+00  0.00000000000E+00  0.11978730071E+04  0.11978730071E+04  0.25500000920E-02 0. -1.
        2   -1    0    0  501    0  0.00000000000E+00  0.00000000000E+00 -0.11879952308E+04  0.11879952308E+04  0.25500000920E-02 0.  1.
    10030    2    1    2    0    0  0.00000000000E+00  0.00000000000E+00  0.98777763104E+01  0.23858682379E+04  0.23858477902E+04 0.  0.
        2    1    3    3  502    0 -0.61003766147E+03  0.90053963350E+03  0.49478983747E+03  0.11949621597E+04  0.25500000920E-02 0. -1.
       -2    1    3    3    0  502  0.61003766147E+03 -0.90053963350E+03 -0.48491206116E+03  0.11909060782E+04  0.25500000920E-02 0.  1.
</event>
<event>
 5   0  0.2254269E-06  0.2401549E+04  0.7818609E-02  0.8438924E-01
       -1   -1    0    0    0  501  0.00000000000E+00  0.00000000000E+00  0.24992793824E+04  0.24992793824E+04  0.50400001928E-02 0. -1.
        1   -1    0    0  501    0  0.00000000000E+00  0.00000000000E+00 -0.57691015703E+03  0.57691015705E+03  0.50400001928E-02 0.  1.
    10030    2    1    2    0    0  0.00000000000E+00  0.00000000000E+00  0.19223692254E+04  0.30761895395E+04  0.24015492175E+04 0.  0.
        2    1    3    3  502    0 -0.36142467386E+02  0.80826044275E+03  0.20977201513E+04  0.22483373978E+04  0.25500000920E-02 0. -1.
       -2    1    3    3    0  502  0.36142467386E+02 -0.80826044275E+03 -0.17535092588E+03  0.82785214168E+03  0.25500000920E-02 0.  1.
</event>
<event>
 5   0  0.5379778E-06  0.2402560E+04  0.7818609E-02  0.8438546E-01
        2   -1    0    0  501    0  0.00000000000E+00  0.00000000000E+00  0.33437699747E+04  0.33437699747E+04  0.25500000920E-02 0.  1.
       -2   -1    0    0    0  501  0.00000000000E+00  0.00000000000E+00 -0.43157075409E+03  0.43157075410E+03  0.25500000920E-02 0. -1.
    10030    2    1    2    0    0  0.00000000000E+00  0.00000000000E+00  0.29121992206E+04  0.37753407288E+04  0.24025597429E+04 0.  0.
        5    1    3    3  502    0 -0.92060319428E+03 -0.60335774512E+03  0.22121623891E+04  0.24708774425E+04  0.46999998093E+01 0.  1.
       -5    1    3    3    0  502  0.92060319428E+03  0.60335774512E+03  0.70003683147E+03  0.13044632863E+04  0.46999998093E+01 0. -1.
</event>
<event>
 5   0  0.2215700E-06  0.2419588E+04  0.7818609E-02  0.8432206E-01
        1   -1    0    0  501    0  0.00000000000E+00  0.00000000000E+00  0.14802948462E+04  0.14802948462E+04  0.50400001928E-02 0. -1.
       -1   -1    0    0    0  501  0.00000000000E+00  0.00000000000E+00 -0.98872289544E+03  0.98872289545E+03  0.50400001928E-02 0.  1.
    10030    2    1    2    0    0  0.00000000000E+00  0.00000000000E+00  0.49157195077E+03  0.24690177417E+04  0.24195879041E+04 0.  0.
        3    1    3    3  502    0 -0.59617357787E+03  0.56515518622E+02  0.13184430232E+04  0.14480707698E+04  0.10100000352E+00 0. -1.
       -3    1    3    3    0  502  0.59617357787E+03 -0.56515518622E+02 -0.82687107240E+03  0.10209469719E+04  0.10100000352E+00 0.  1.
</event>
<event>
 5   0  0.5379778E-06  0.2407600E+04  0.7818609E-02  0.8436664E-01
        2   -1    0    0  501    0  0.00000000000E+00  0.00000000000E+00  0.10857819142E+04  0.10857819142E+04  0.25500000920E-02 0. -1.
       -2   -1    0    0    0  501  0.00000000000E+00  0.00000000000E+00 -0.13346464806E+04  0.13346464806E+04  0.25500000920E-02 0.  1.
    10030    2    1    2    0    0  0.00000000000E+00  0.00000000000E+00 -0.24886456637E+03  0.24204283948E+04  0.24076004739E+04 0.  0.
        5    1    3    3  502    0 -0.36702704713E+03 -0.11454045857E+04 -0.17421787457E+03  0.12153330721E+04  0.46999998093E+01 0.  1.
       -5    1    3    3    0  502  0.36702704713E+03  0.11454045857E+04 -0.74646691805E+02  0.12050953227E+04  0.46999998093E+01 0. -1.
</event>
<event>
 5   0  0.5379778E-06  0.2394843E+04  0.7818609E-02  0.8441437E-01
       -2   -1    0    0    0  501  0.00000000000E+00  0.00000000000E+00  0.52122601795E+03  0.52122601795E+03  0.25500000920E-02 0.  1.
        2   -1    0    0  501    0  0.00000000000E+00  0.00000000000E+00 -0.27508561028E+04  0.27508561028E+04  0.25500000920E-02 0. -1.
    10030    2    1    2    0    0  0.00000000000E+00  0.00000000000E+00 -0.22296300848E+04  0.32720821207E+04  0.23948426023E+04 0.  0.
        5    1    3    3  502    0 -0.10951606517E+04 -0.19695012257E+03 -0.17191314256E+04  0.20478283991E+04  0.46999998093E+01 0. -1.
       -5    1    3    3    0  502  0.10951606517E+04  0.19695012257E+03 -0.51049865922E+03  0.12242537216E+04  0.46999998093E+01 0.  1.
</event>
<event>
 5   0  0.1796750E-06  0.2401008E+04  0.7818609E-02  0.8439126E-01
        4   -1    0    0  501    0  0.00000000000E+00  0.00000000000E+00  0.16193525949E+04  0.16193530929E+04  0.12699999809E+01 0. -1.
       -4   -1    0    0    0  501  0.00000000000E+00  0.00000000000E+00 -0.88999054749E+03  0.88999145362E+03  0.12699999809E+01 0.  1.
    10030    2    1    2    0    0  0.00000000000E+00  0.00000000000E+00  0.72936204744E+03  0.25093445466E+04  0.24010083417E+04 0.  0.
        4    1    3    3  502    0  0.80029180003E+03 -0.87327898048E+03  0.16061323921E+03  0.11953582595E+04  0.12699999809E+01 0. -1.
       -4    1    3    3    0  502 -0.80029180003E+03  0.87327898048E+03  0.56874880823E+03  0.13139862871E+04  0.12699999809E+01 0.  1.
</event>
<event>
 5   0  0.5440503E-06  0.2399910E+04  0.7818609E-02  0.8439537E-01
       -2   -1    0    0    0  501  0.00000000000E+00  0.00000000000E+00  0.12626942387E+04  0.12626942387E+04  0.25500000920E-02 0. -1.
        2   -1    0    0  501    0  0.00000000000E+00  0.00000000000E+00 -0.11403333674E+04  0.11403333674E+04  0.25500000920E-02 0.  1.
    10030    2    1    2    0    0  0.00000000000E+00  0.00000000000E+00  0.12236087129E+03  0.24030276061E+04  0.23999103093E+04 0.  0.
        3    1    3    3  502    0  0.18987137538E+02 -0.83605264707E+03 -0.80048823639E+03  0.11576380984E+04  0.10100000352E+00 0.  1.
       -3    1    3    3    0  502 -0.18987137538E+02  0.83605264707E+03  0.92284910768E+03  0.12453895077E+04  0.10100000352E+00 0. -1.
</event>
<event>
 5   0  0.2297414E-06  0.2393547E+04  0.7818609E-02  0.8441923E-01
        1   -1    0    0  501    0  0.00000000000E+00  0.00000000000E+00  0.15468798538E+04  0.15468798538E+04  0.50400001928E-02 0. -1.
       -1   -1    0    0    0  501  0.00000000000E+00  0.00000000000E+00 -0.92590679767E+03  0.92590679768E+03  0.50400001928E-02 0.  1.
    10030    2    1    2    0    0  0.00000000000E+00  0.00000000000E+00  0.62097305609E+03  0.24727866514E+04  0.23935468007E+04 0.  0.
        1    1    3    3  502    0  0.40547597353E+03  0.28911293538E+03 -0.81378186009E+03  0.95406392361E+03  0.50400001928E-02 0.  1.
       -1    1    3    3    0  502 -0.40547597353E+03 -0.28911293538E+03  0.14347549162E+04  0.15187227278E+04  0.50400001928E-02 0. -1.
</event>
<event>
 5   0  0.2149029E-06  0.2401886E+04  0.7818609E-02  0.8438798E-01
        1   -1    0    0  501    0  0.00000000000E+00  0.00000000000E+00  0.27979165222E+04  0.27979165222E+04  0.50400001928E-02 0.  1.
       -1   -1    0    0    0  501  0.00000000000E+00  0.00000000000E+00 -0.51547791580E+03  0.51547791582E+03  0.50400001928E-02 0. -1.
    10030    2    1    2    0    0  0.00000000000E+00  0.00000000000E+00  0.22824386064E+04  0.33133944381E+04  0.24018860735E+04 0.  0.
        4    1    3    3  502    0 -0.54060481817E+03  0.92955101381E+03  0.40355093845E+03  0.11485528414E+04  0.12699999809E+01 0.  1.
       -4    1    3    3    0  502  0.54060481817E+03 -0.92955101381E+03  0.18788876680E+04  0.21648415966E+04  0.12699999809E+01 0. -1.
</event>
<event>
 5   0  0.2149417E-06  0.2403728E+04  0.7818609E-02  0.8438109E-01
        1   -1    0    0  501    0  0.00000000000E+00  0.00000000000E+00  0.15982956243E+04  0.15982956243E+04  0.50400001928E-02 0. -1.
       -1   -1    0    0    0  501  0.00000000000E+00  0.00000000000E+00 -0.90376078363E+03  0.90376078365E+03  0.50400001928E-02 0.  1.
    10030    2    1    2    0    0  0.00000000000E+00  0.00000000000E+00  0.69453484067E+03  0.25020564080E+04  0.24037278597E+04 0.  0.
        5    1    3    3  502    0 -0.10407491610E+04 -0.39690439362E+03 -0.12259894544E+03  0.11206000648E+04  0.46999998093E+01 0.  1.
       -5    1    3    3    0  502  0.10407491610E+04  0.39690439362E+03  0.81713378611E+03  0.13814563432E+04  0.46999998093E+01 0. -1.
</event>
<event>
 5   0  0.5268358E-06  0.2404306E+04  0.7818609E-02  0.8437893E-01
       -2   -1    0    0    0  501  0.00000000000E+00  0.00000000000E+00  0.81869636610E+03  0.81869636610E+03  0.25500000920E-02 0. -1.
        2   -1    0    0  501    0  0.00000000000E+00  0.00000000000E+00 -0.17652111185E+04  0.17652111185E+04  0.25500000920E-02 0.  1.
    10030    2    1    2    0    0  0.00000000000E+00  0.00000000000E+00 -0.94651475244E+03  0.25839074846E+04  0.24043060772E+04 0.  0.
        2    1    3    3  502    0  0.87876850399E+03 -0.51070876124E+03 -0.11631731964E+04  0.15446777681E+04  0.25500000920E-02 0.  1.
       -2    1    3    3    0  502 -0.87876850399E+03  0.51070876124E+03  0.21665844396E+03  0.10392297166E+04  0.25500000920E-02 0. -1.
</event>
<event>
 5   0  0.2215700E-06  0.2403422E+04  0.7818609E-02  0.8438224E-01
        1   -1    0    0  501    0  0.00000000000E+00  0.00000000000E+00  0.12565050110E+04  0.12565050111E+04  0.50400001928E-02 0. -1.
       -1   -1    0    0    0  501  0.00000000000E+00  0.00000000000E+00 -0.11493060691E+04  0.11493060691E+04  0.50400001928E-02 0.  1.
    10030    2    1    2    0    0  0.00000000000E+00  0.00000000000E+00  0.10719894191E+03  0.24058110802E+04  0.24034215902E+04 0.  0.
        3    1    3    3  502    0 -0.54536791945E+02 -0.84769801271E+03 -0.79727071033E+03  0.11649921794E+04  0.10100000352E+00 0.  1.
       -3    1    3    3    0  502  0.54536791945E+02  0.84769801271E+03  0.90446965224E+03  0.12408189007E+04  0.10100000352E+00 0. -1.
</event>
<event>
 5   0  0.2149029E-06  0.2400370E+04  0.7818609E-02  0.8439365E-01
       -1   -1    0    0    0  501  0.00000000000E+00  0.00000000000E+00  0.23484987323E+04  0.23484987323E+04  0.50400001928E-02 0.  1.
        1   -1    0    0  501    0  0.00000000000E+00  0.00000000000E+00 -0.61334674003E+03  0.61334674005E+03  0.50400001928E-02 0. -1.
    10030    2    1    2    0    0  0.00000000000E+00  0.00000000000E+00  0.17351519923E+04  0.29618454724E+04  0.24003700060E+04 0.  0.
        4    1    3    3  502    0 -0.59329964837E+03 -0.98062784441E+03  0.42818030260E+03  0.12235094713E+04  0.12699999809E+01 0. -1.
       -4    1    3    3    0  502  0.59329964837E+03  0.98062784441E+03  0.13069716897E+04  0.17383360010E+04  0.12699999809E+01 0.  1.
</event>
<event>
 5   0  0.5371843E-06  0.2398219E+04  0.7818609E-02  0.8440171E-01
        2   -1    0    0  501    0  0.00000000000E+00  0.00000000000E+00  0.99235123983E+03  0.99235123983E+03  0.25500000920E-02 0. -1.
       -2   -1    0    0    0  501  0.00000000000E+00  0.00000000000E+00 -0.14489456904E+04  0.14489456904E+04  0.25500000920E-02 0.  1.
    10030    2    1    2    0    0  0.00000000000E+00  0.00000000000E+00 -0.45659445055E+03  0.24412969302E+04  0.23982185491E+04 0.  0.
        4    1    3    3  502    0  0.17329223475E+02  0.83382323975E+03  0.64874713594E+03  0.10566153304E+04  0.12699999809E+01 0. -1.
       -4    1    3    3    0  502 -0.17329223475E+02 -0.83382323975E+03 -0.11053415865E+04  0.13846815998E+04  0.12699999809E+01 0.  1.
</event>
<event>
 5   0  0.2149029E-06  0.2400009E+04  0.7818609E-02  0.8439500E-01
        1   -1    0    0  501    0  0.00000000000E+00  0.00000000000E+00  0.19206820665E+04  0.19206820665E+04  0.50400001928E-02 0. -1.
       -1   -1    0    0    0  501  0.00000000000E+00  0.00000000000E+00 -0.74973907861E+03  0.74973907863E+03  0.50400001928E-02 0.  1.
    10030    2    1    2    0    0  0.00000000000E+00  0.00000000000E+00  0.11709429879E+04  0.26704211452E+04  0.24000086691E+04 0.  0.
        4    1    3    3  502    0 -0.23892698362E+03 -0.54128116201E+03 -0.57615824905E+03  0.82585188787E+03  0.12699999809E+01 0.  1.
       -4    1    3    3    0  502  0.23892698362E+03  0.54128116201E+03  0.17471012370E+04  0.18445692573E+04  0.12699999809E+01 0. -1.
</event>
<event>
 5   0  0.2149029E-06  0.2402347E+04  0.7818609E-02  0.8438625E-01
        1   -1    0    0  501    0  0.00000000000E+00  0.00000000000E+00  0.17806974389E+04  0.17806974389E+04  0.50400001928E-02 0.  1.
       -1   -1    0    0    0  501  0.00000000000E+00  0.00000000000E+00 -0.81025416400E+03  0.81025416402E+03  0.50400001928E-02 0. -1.
    10030    2    1    2    0    0  0.00000000000E+00  0.00000000000E+00  0.97044327485E+03  0.25909516029E+04  0.24023467815E+04 0.  0.
        4    1    3    3  502    0  0.10784657575E+03 -0.98146340057E+03 -0.25252443422E+03  0.10191523406E+04  0.12699999809E+01 0. -1.
       -4    1    3    3    0  502 -0.10784657575E+03  0.98146340057E+03  0.12229677091E+04  0.15717992623E+04  0.12699999809E+01 0.  1.
</event>
<event>
 5   0  0.2297414E-06  0.2418510E+04  0.7818609E-02  0.8432606E-01
       -1   -1    0    0    0  501  0.00000000000E+00  0.00000000000E+00  0.55806351307E+03  0.55806351309E+03  0.50400001928E-02 0.  1.
        1   -1    0    0  501    0  0.00000000000E+00  0.00000000000E+00 -0.26203078975E+04  0.26203078975E+04  0.50400001928E-02 0. -1.
    10030    2    1    2    0    0  0.00000000000E+00  0.00000000000E+00 -0.20622443844E+04  0.31783714106E+04  0.24185104760E+04 0.  0.
        1    1    3    3  502    0 -0.90075666434E+03  0.63079747615E+03 -0.16921852034E+04  0.20181077243E+04  0.50400001928E-02 0. -1.
       -1    1    3    3    0  502  0.90075666434E+03 -0.63079747615E+03 -0.37005918105E+03  0.11602636863E+04  0.50400001928E-02 0.  1.
</event>
<event>
 5   0  0.5349036E-06  0.2386022E+04  0.7818609E-02  0.8444755E-01
       -2   -1    0    0    0  501  0.00000000000E+00  0.00000000000E+00  0.97000202174E+03  0.97000202175E+03  0.25500000920E-02 0. -1.
        2   -1    0    0  501    0  0.00000000000E+00  0.00000000000E+00 -0.14672913591E+04  0.14672913591E+04  0.25500000920E-02 0.  1.
    10030    2    1    2    0    0  0.00000000000E+00  0.00000000000E+00 -0.49728933737E+03  0.24372933809E+04  0.23860222839E+04 0.  0.
        1    1    3    3  502    0 -0.73895776394E+03  0.62530227900E+03  0.46362930201E+03  0.10733189865E+04  0.50400001928E-02 0. -1.
       -1    1    3    3    0  502  0.73895776394E+03 -0.62530227900E+03 -0.96091863937E+03  0.13639743944E+04  0.50400001928E-02 0.  1.
</event>
<event>
 5   0  0.2215700E-06  0.2396188E+04  0.7818609E-02  0.8440932E-01
        1   -1    0    0  501    0  0.00000000000E+00  0.00000000000E+00  0.91606103517E+03  0.91606103518E+03  0.50400001928E-02 0.  1.
       -1   -1    0    0    0  501  0.00000000000E+00  0.00000000000E+00 -0.15669580021E+04  0.15669580021E+04  0.50400001928E-02 0. -1.
    10030    2    1    2    0    0  0.00000000000E+00  0.00000000000E+00 -0.65089696696E+03  0.24830190373E+04  0.23961879472E+04 0.  0.
        3    1    3    3  502    0 -0.87227166210E+03  0.56865927474E+02 -0.11744914079E+04  0.14640770689E+04  0.10100000352E+00 0. -1.
       -3    1    3    3    0  502  0.87227166210E+03 -0.56865927474E+02  0.52359444096E+03  0.10189419684E+04  0.10100000352E+00 0.  1.
</event>
<event>
 5   0  0.5268358E-06  0.2399517E+04  0.7818609E-02  0.8439684E-01
        2   -1    0    0  501    0  0.00000000000E+00  0.00000000000E+00  0.25911854559E+04  0.25911854559E+04  0.25500000920E-02 0.  1.
       -2   -1    0    0    0  501  0.00000000000E+00  0.00000000000E+00 -0.55550671816E+03  0.55550671816E+03  0.25500000920E-02 0. -1.
    10030    2    1    2    0    0  0.00000000000E+00  0.00000000000E+00  0.20356787377E+04  0.31466921741E+04  0.23995173921E+04 0.  0.
        2    1    3    3  502    0 -0.11295720783E+04 -0.19506450091E+03  0.14822951579E+04  0.18738148720E+04  0.25500000920E-02 0.  1.
       -2    1    3    3    0  502  0.11295720783E+04  0.19506450091E+03  0.55338357985E+03  0.12728773020E+04  0.25500000920E-02 0. -1.
</event>
<event>
 5   0  0.5379778E-06  0.2397343E+04  0.7818609E-02  0.8440499E-01
       -2   -1    0    0    0  501  0.00000000000E+00  0.00000000000E+00  0.15079661317E+04  0.15079661318E+04  0.25500000920E-02 0. -1.
        2   -1    0    0  501    0  0.00000000000E+00  0.00000000000E+00 -0.95281537272E+03  0.95281537273E+03  0.25500000920E-02 0.  1.
    10030    2    1    2    0    0  0.00000000000E+00  0.00000000000E+00  0.55515075903E+03  0.24607815045E+04  0.23973429558E+04 0.  0.
        5    1    3    3  502    0 -0.92601128642E+03 -0.13066382814E+02  0.10587147264E+04  0.14066152974E+04  0.46999998093E+01 0. -1.
       -5    1    3    3    0  502  0.92601128642E+03  0.13066382814E+02 -0.50356396737E+03  0.10541662071E+04  0.46999998093E+01 0.  1.
</event>
<event>
 5   0  0.2149417E-06  0.2397094E+04  0.7818609E-02  0.8440592E-01
        1   -1    0    0  501    0  0.00000000000E+00  0.00000000000E+00  0.26512452256E+04  0.26512452256E+04  0.50400001928E-02 0.  1.
       -1   -1    0    0    0  501  0.00000000000E+00  0.00000000000E+00 -0.54182654486E+03  0.54182654488E+03  0.50400001928E-02 0. -1.
    10030    2    1    2    0    0  0.00000000000E+00  0.00000000000E+00  0.21094186807E+04  0.31930717704E+04  0.23970941076E+04 0.  0.
        5    1    3    3  502    0 -0.13653738719E+03  0.66435274664E+03  0.23710145153E+04  0.24661181951E+04  0.46999998093E+01 0.  1.
       -5    1    3    3    0  502  0.13653738719E+03 -0.66435274664E+03 -0.26159583463E+03  0.72695357538E+03  0.46999998093E+01 0. -1.
</event>
<event>
 5   0  0.5371843E-06  0.2398066E+04  0.7818609E-02  0.8440228E-01
        2   -1    0    0  501    0  0.00000000000E+00  0.00000000000E+00  0.10703027346E+04  0.10703027346E+04  0.25500000920E-02 0. -1.
       -2   -1    0    0    0  501  0.00000000000E+00  0.00000000000E+00 -0.13432466212E+04  0.13432466212E+04  0.25500000920E-02 0.  1.
    10030    2    1    2    0    0  0.00000000000E+00  0.00000000000E+00 -0.27294388653E+03  0.24135493558E+04  0.23980663309E+04 0.  0.
        4    1    3    3  502    0 -0.48095828603E+03 -0.93030773834E+03  0.45115174389E+03  0.11403213888E+04  0.12699999809E+01 0. -1.
       -4    1    3    3    0  502  0.48095828603E+03  0.93030773834E+03 -0.72409563042E+03  0.12732279669E+04  0.12699999809E+01 0.  1.
</event>
<event>
 5   0  0.5371843E-06  0.2397088E+04  0.7818609E-02  0.8440594E-01
       -2   -1    0    0    0  501  0.00000000000E+00  0.00000000000E+00  0.86838780199E+03  0.86838780200E+03  0.25500000920E-02 0. -1.
        2   -1    0    0  501    0  0.00000000000E+00  0.00000000000E+00 -0.16542242943E+04  0.16542242943E+04  0.25500000920E-02 0.  1.
    10030    2    1    2    0    0  0.00000000000E+00  0.00000000000E+00 -0.78583649228E+03  0.25226120963E+04  0.23970883996E+04 0.  0.
        4    1    3    3  502    0 -0.10998518057E+04  0.47042139233E+03 -0.31461560062E+03  0.12369134448E+04  0.12699999809E+01 0. -1.
       -4    1    3    3    0  502  0.10998518057E+04 -0.47042139233E+03 -0.47122089166E+03  0.12856986515E+04  0.12699999809E+01 0.  1.
</event>
<event>
 5   0  0.5268358E-06  0.2399593E+04  0.7818609E-02  0.8439656E-01
       -2   -1    0    0    0  501  0.00000000000E+00  0.00000000000E+00  0.67191259863E+03  0.67191259863E+03  0.25500000920E-02 0. -1.
        2   -1    0    0  501    0  0.00000000000E+00  0.00000000000E+00 -0.21424088279E+04  0.21424088279E+04  0.25500000920E-02 0.  1.
    10030    2    1    2    0    0  0.00000000000E+00  0.00000000000E+00 -0.14704962293E+04  0.28143214266E+04  0.23995928679E+04 0.  0.
        2    1    3    3  502    0 -0.52941815465E+02 -0.49193642676E+03 -0.20171856828E+04  0.20769791435E+04  0.25500000920E-02 0.  1.
       -2    1    3    3    0  502  0.52941815465E+02  0.49193642676E+03  0.54668945348E+03  0.73734228304E+03  0.25500000920E-02 0. -1.
</event>
<event>
 5   0  0.2149417E-06  0.2404124E+04  0.7818609E-02  0.8437961E-01
       -1   -1    0    0    0  501  0.00000000000E+00  0.00000000000E+00  0.85502370933E+03  0.85502370935E+03  0.50400001928E-02 0. -1.
        1   -1    0    0  501    0  0.00000000000E+00  0.00000000000E+00 -0.16899571381E+04  0.16899571381E+04  0.50400001928E-02 0.  1.
    10030    2    1    2    0    0  0.00000000000E+00  0.00000000000E+00 -0.83493342880E+03  0.25449808475E+04  0.24041243070E+04 0.  0.
        5    1    3    3  502    0 -0.74808163723E+03  0.87473056398E+03 -0.78440450537E+03  0.13928719301E+04  0.46999998093E+01 0.  1.
       -5    1    3    3    0  502  0.74808163723E+03 -0.87473056398E+03 -0.50528923430E+02  0.11521089174E+04  0.46999998093E+01 0. -1.
</event>
<event>
 5   0  0.5440503E-06  0.2400455E+04  0.7818609E-02  0.8439333E-01
        2   -1    0    0  501    0  0.00000000000E+00  0.00000000000E+00  0.17042855531E+04  0.17042855531E+04  0.25500000920E-02 0. -1.
       -2   -1    0    0    0  501  0.00000000000E+00  0.00000000000E+00 -0.84524922436E+03  0.84524922437E+03  0.25500000920E-02 0.  1.
    10030    2    1    2    0    0  0.00000000000E+00  0.00000000000E+00  0.85903632876E+03  0.25495347775E+04  0.24004549918E+04 0.  0.
        3    1    3    3  502    0 -0.13786273566E+03  0.91387946858E+03 -0.38378245293E+03  0.10007351290E+04  0.10100000352E+00 0. -1.
       -3    1    3    3    0  502  0.13786273566E+03 -0.91387946858E+03  0.12428187817E+04  0.15487996485E+04  0.10100000352E+00 0.  1.
</event>
<event>
 5   0  0.1796750E-06  0.2418073E+04  0.7818609E-02  0.8432768E-01
       -3   -1    0    0    0  501  0.00000000000E+00  0.00000000000E+00  0.14363344817E+04  0.14363344852E+04  0.10100000352E+00 0.  1.
        3   -1    0    0  501    0  0.00000000000E+00  0.00000000000E+00 -0.10177079214E+04  0.10177079265E+04  0.10100000352E+00 0. -1.
    10030    2    1    2    0    0  0.00000000000E+00  0.00000000000E+00  0.41862656025E+03  0.24540424117E+04  0.24180727784E+04 0.  0.
        5    1    3    3  502    0 -0.42153395530E+03 -0.74352458323E+03  0.10771516958E+04  0.13750627430E+04  0.46999998093E+01 0.  1.
       -5    1    3    3    0  502  0.42153395530E+03  0.74352458323E+03 -0.65852513557E+03  0.10789796687E+04  0.46999998093E+01 0. -1.
</event>
<event>
 5   0  0.2215700E-06  0.2402937E+04  0.7818609E-02  0.8438405E-01
        1   -1    0    0  501    0  0.00000000000E+00  0.00000000000E+00  0.12099468627E+04  0.12099468627E+04  0.50400001928E-02 0.  1.
       -1   -1    0    0    0  501  0.00000000000E+00  0.00000000000E+00 -0.11930490816E+04  0.11930490816E+04  0.50400001928E-02 0. -1.
    10030    2    1    2    0    0  0.00000000000E+00  0.00000000000E+00  0.16897781102E+02  0.24029959444E+04  0.24029365314E+04 0.  0.
        3    1    3    3  502    0 -0.67268297248E+03  0.45294164541E+03  0.89496247169E+03  0.12077319038E+04  0.10100000352E+00 0.  1.
       -3    1    3    3    0  502  0.67268297248E+03 -0.45294164541E+03 -0.87806469059E+03  0.11952640406E+04  0.10100000352E+00 0. -1.
</event>
<event>
 5   0  0.5371843E-06  0.2401777E+04  0.7818609E-02  0.8438839E-01
       -2   -1    0    0    0  501  0.00000000000E+00  0.00000000000E+00  0.49851916434E+03  0.49851916434E+03  0.25500000920E-02 0. -1.
        2   -1    0    0  501    0  0.00000000000E+00  0.00000000000E+00 -0.28928333826E+04  0.28928333826E+04  0.25500000920E-02 0.  1.
    10030    2    1    2    0    0  0.00000000000E+00  0.00000000000E+00 -0.23943142183E+04  0.33913525470E+04  0.24017767427E+04 0.  0.
        4    1    3    3  502    0  0.84141565215E+03 -0.80748694451E+03 -0.79253121297E+03  0.14100080857E+04  0.12699999809E+01 0. -1.
       -4    1    3    3    0  502 -0.84141565215E+03  0.80748694451E+03 -0.16017830053E+04  0.19813444613E+04  0.12699999809E+01 0.  1.
</event>
<event>
 5   0  0.2149029E-06  0.2398467E+04  0.7818609E-02  0.8440078E-01
        1   -1    0    0  501    0  0.00000000000E+00  0.00000000000E+00  0.46502472415E+03  0.46502472418E+03  0.50400001928E-02 0.  1.
       -1   -1    0    0    0  501  0.00000000000E+00  0.00000000000E+00 -0.30926548921E+04  0.30926548921E+04  0.50400001928E-02 0. -1.
    10030    2    1    2    0    0  0.00000000000E+00  0.00000000000E+00 -0.26276301680E+04  0.35576796163E+04  0.23984670005E+04 0.  0.
        4    1    3    3  502    0 -0.11934114348E+04  0.48558076456E+02 -0.11542596132E+04  0.16609953664E+04  0.12699999809E+01 0.  1.
       -4    1    3    3    0  502  0.11934114348E+04 -0.48558076456E+02 -0.14733705547E+04  0.18966842499E+04  0.12699999809E+01 0. -1.
</event>
<event>
 5   0  0.2215700E-06  0.2395473E+04  0.7818609E-02  0.8441200E-01
       -1   -1    0    0    0  501  0.00000000000E+00  0.00000000000E+00  0.23062800318E+04  0.23062800318E+04  0.50400001928E-02 0.  1.
        1   -1    0    0  501    0  0.00000000000E+00  0.00000000000E+00 -0.62202878336E+03  0.62202878338E+03  0.50400001928E-02 0. -1.
    10030    2    1    2    0    0  0.00000000000E+00  0.00000000000E+00  0.16842512485E+04  0.29283088152E+04  0.23954728655E+04 0.  0.
        3    1    3    3  502    0  0.49623951137E+02  0.78229524193E+03 -0.26491975799E+03  0.82742423849E+03  0.10100000352E+00 0. -1.
       -3    1    3    3    0  502 -0.49623951137E+02 -0.78229524193E+03  0.19491710065E+04  0.21008845767E+04  0.10100000352E+00 0.  1.
</event>
<event>
 5   0  0.5268358E-06  0.2409254E+04  0.7818609E-02  0.8436047E-01
       -2   -1    0    0    0  501  0.00000000000E+00  0.00000000000E+00  0.85060897619E+03  0.85060897619E+03  0.25500000920E-02 0.  1.
        2   -1    0    0  501    0  0.00000000000E+00  0.00000000000E+00 -0.17059849778E+04  0.17059849778E+04  0.25500000920E-02 0. -1.
    10030    2    1    2    0    0  0.00000000000E+00  0.00000000000E+00 -0.85537600165E+03  0.25565939540E+04  0.24092539388E+04 0.  0.
        2    1    3    3  502    0 -0.10752270447E+03  0.31649854185E+01  0.84550226321E+03  0.85231756183E+03  0.25500000920E-02 0.  1.
       -2    1    3    3    0  502  0.10752270447E+03 -0.31649854185E+01 -0.17008782649E+04  0.17042763922E+04  0.25500000920E-02 0. -1.
</event>
<event>
 5   0  0.2215700E-06  0.2398759E+04  0.7818609E-02  0.8439968E-01
        1   -1    0    0  501    0  0.00000000000E+00  0.00000000000E+00  0.20241827146E+04  0.20241827146E+04  0.50400001928E-02 0.  1.
       -1   -1    0    0    0  501  0.00000000000E+00  0.00000000000E+00 -0.71066269200E+03  0.71066269202E+03  0.50400001928E-02 0. -1.
    10030    2    1    2    0    0  0.00000000000E+00  0.00000000000E+00  0.13135200226E+04  0.27348454066E+04  0.23987589600E+04 0.  0.
        3    1    3    3  502    0  0.11993481546E+04 -0.82735780897E+01  0.65970645341E+03  0.13688378512E+04  0.10100000352E+00 0.  1.
       -3    1    3    3    0  502 -0.11993481546E+04  0.82735780897E+01  0.65381356919E+03  0.13660075554E+04  0.10100000352E+00 0. -1.
</event>
<event>
 5   0  0.5349036E-06  0.2389826E+04  0.7818609E-02  0.8443322E-01
       -2   -1    0    0    0  501  0.00000000000E+00  0.00000000000E+00  0.15955859778E+04  0.15955859778E+04  0.25500000920E-02 0.  1.
        2   -1    0    0  501    0  0.00000000000E+00  0.00000000000E+00 -0.89485424870E+03  0.89485424870E+03  0.25500000920E-02 0. -1.
    10030    2    1    2    0    0  0.00000000000E+00  0.00000000000E+00  0.70073172912E+03  0.24904402265E+04  0.23898258442E+04 0.  0.
        1    1    3    3  502    0  0.61656751068E+03 -0.98740246179E+03  0.69389086879E+02  0.11661620651E+04  0.50400001928E-02 0.  1.
       -1    1    3    3    0  502 -0.61656751068E+03  0.98740246179E+03  0.63134264224E+03  0.13242781614E+04  0.50400001928E-02 0. -1.
</event>
<event>
 5   0  0.5349036E-06  0.2391605E+04  0.7818609E-02  0.8442653E-01
       -2   -1    0    0    0  501  0.00000000000E+00  0.00000000000E+00  0.14985842257E+04  0.14985842257E+04  0.25500000920E-02 0.  1.
        2   -1    0    0  501    0  0.00000000000E+00  0.00000000000E+00 -0.95419622821E+03  0.95419622821E+03  0.25500000920E-02 0. -1.
    10030    2    1    2    0    0  0.00000000000E+00  0.00000000000E+00  0.54438799748E+03  0.24527804539E+04  0.23916048301E+04 0.  0.
        1    1    3    3  502    0 -0.21167457491E+03  0.52160927513E+03  0.13541977050E+04  0.14665380274E+04  0.50400001928E-02 0.  1.
       -1    1    3    3    0  502  0.21167457491E+03 -0.52160927513E+03 -0.80980970748E+03  0.98624242654E+03  0.50400001928E-02 0. -1.
</event>
<event>
 5   0  0.5440503E-06  0.2400590E+04  0.7818609E-02  0.8439283E-01
       -2   -1    0    0    0  501  0.00000000000E+00  0.00000000000E+00  0.12191118139E+04  0.12191118140E+04  0.25500000920E-02 0. -1.
        2   -1    0    0  501    0  0.00000000000E+00  0.00000000000E+00 -0.11817686429E+04  0.11817686429E+04  0.25500000920E-02 0.  1.
    10030    2    1    2    0    0  0.00000000000E+00  0.00000000000E+00  0.37343171046E+02  0.24008804569E+04  0.24005900224E+04 0.  0.
        3    1    3    3  502    0 -0.11896435135E+04  0.14796294859E+03  0.78372864154E+02  0.12013688190E+04  0.10100000352E+00 0. -1.
       -3    1    3    3    0  502  0.11896435135E+04 -0.14796294859E+03 -0.41029693108E+02  0.11995116378E+04  0.10100000352E+00 0.  1.
</event>
<event>
 5   0  0.5440503E-06  0.2401298E+04  0.7818609E-02  0.8439018E-01
       -2   -1    0    0    0  501  0.00000000000E+00  0.00000000000E+00  0.50620051739E+03  0.50620051740E+03  0.25500000920E-02 0. -1.
        2   -1    0    0  501    0  0.00000000000E+00  0.00000000000E+00 -0.28477997945E+04  0.28477997945E+04  0.25500000920E-02 0.  1.
    10030    2    1    2    0    0  0.00000000000E+00  0.00000000000E+00 -0.23415992772E+04  0.33540003119E+04  0.24012977570E+04 0.  0.
        3    1    3    3  502    0  0.15824780416E+03  0.11882444306E+04 -0.12654338703E+04  0.17430691566E+04  0.10100000352E+00 0.  1.
       -3    1    3    3    0  502 -0.15824780416E+03 -0.11882444306E+04 -0.10761654068E+04  0.16109311554E+04  0.10100000352E+00 0. -1.
</event>
<event>
 5   0  0.5379778E-06  0.2400289E+04  0.7818609E-02  0.8439395E-01
        2   -1    0    0  501    0  0.00000000000E+00  0.00000000000E+00  0.17595476190E+04  0.17595476190E+04  0.25500000920E-02 0.  1.
       -2   -1    0    0    0  501  0.00000000000E+00  0.00000000000E+00 -0.81858950593E+03  0.81858950594E+03  0.25500000920E-02 0. -1.
    10030    2    1    2    0    0  0.00000000000E+00  0.00000000000E+00  0.94095811302E+03  0.25781371249E+04  0.24002893293E+04 0.  0.
        5    1    3    3  502    0  0.79271178564E+03  0.88639168959E+03  0.29647934575E+03  0.12255628482E+04  0.46999998093E+01 0. -1.
       -5    1    3    3    0  502 -0.79271178564E+03 -0.88639168959E+03  0.64447876727E+03  0.13525742767E+04  0.46999998093E+01 0.  1.
</event>
<event>
 5   0  0.2215700E-06  0.2402184E+04  0.7818609E-02  0.8438686E-01
        1   -1    0    0  501    0  0.00000000000E+00  0.00000000000E+00  0.86857482259E+03  0.86857482261E+03  0.50400001928E-02 0. -1.
       -1   -1    0    0    0  501  0.00000000000E+00  0.00000000000E+00 -0.16609066022E+04  0.16609066022E+04  0.50400001928E-02 0.  1.
    10030    2    1    2    0    0  0.00000000000E+00  0.00000000000E+00 -0.79233177964E+03  0.25294814248E+04  0.24021837210E+04 0.  0.
        3    1    3    3  502    0 -0.23553186624E+03 -0.84637975391E+03 -0.12585839051E+04  0.15348835149E+04  0.10100000352E+00 0.  1.
       -3    1    3    3    0  502  0.23553186624E+03  0.84637975391E+03  0.46625212546E+03  0.99459790998E+03  0.10100000352E+00 0. -1.
</event>
<event>
 5   0  0.2149029E-06  0.2402062E+04  0.7818609E-02  0.8438732E-01
        1   -1    0    0  501    0  0.00000000000E+00  0.00000000000E+00  0.15395983732E+04  0.15395983732E+04  0.50400001928E-02 0.  1.
       -1   -1    0    0    0  501  0.00000000000E+00  0.00000000000E+00 -0.93691709313E+03  0.93691709314E+03  0.50400001928E-02 0. -1.
    10030    2    1    2    0    0  0.00000000000E+00  0.00000000000E+00  0.60268128005E+03  0.24765154663E+04  0.24020624741E+04 0.  0.
        4    1    3    3  502    0 -0.52806773155E+03  0.46285782893E+03 -0.70322225548E+03  0.99378873631E+03  0.12699999809E+01 0. -1.
       -4    1    3    3    0  502  0.52806773155E+03 -0.46285782893E+03  0.13059035355E+04  0.14827267300E+04  0.12699999809E+01 0.  1.
</event>
<event>
 5   0  0.5371843E-06  0.2401578E+04  0.7818609E-02  0.8438913E-01
        2   -1    0    0  501    0  0.00000000000E+00  0.00000000000E+00  0.15667926208E+04  0.15667926208E+04  0.25500000920E-02 0. -1.
       -2   -1    0    0    0  501  0.00000000000E+00  0.00000000000E+00 -0.92028418285E+03  0.92028418286E+03  0.25500000920E-02 0.  1.
    10030    2    1    2    0    0  0.00000000000E+00  0.00000000000E+00  0.64650843796E+03  0.24870768037E+04  0.24015782034E+04 0.  0.
        4    1    3    3  502    0 -0.93259653714E+03  0.73689657617E+03  0.14647258084E+03  0.11975845252E+04  0.12699999809E+01 0. -1.
       -4    1    3    3    0  502  0.93259653714E+03 -0.73689657617E+03  0.50003585711E+03  0.12894922785E+04  0.12699999809E+01 0.  1.
</event>
<event>
 5   0  0.2215700E-06  0.2420885E+04  0.7818609E-02  0.8431726E-01
        1   -1    0    0  501    0  0.00000000000E+00  0.00000000000E+00  0.89580335457E+03  0.89580335459E+03  0.50400001928E-02 0.  1.
       -1   -1    0    0    0  501  0.00000000000E+00  0.00000000000E+00 -0.16355948696E+04  0.16355948696E+04  0.50400001928E-02 0. -1.
    10030    2    1    2    0    0  0.00000000000E+00  0.00000000000E+00 -0.73979151498E+03  0.25313982242E+04  0.24208852686E+04 0.  0.
        3    1    3    3  502    0  0.13941085899E+02  0.89184800225E+03 -0.12255313561E+04  0.15157553655E+04  0.10100000352E+00 0. -1.
       -3    1    3    3    0  502 -0.13941085899E+02 -0.89184800225E+03  0.48573984109E+03  0.10156428587E+04  0.10100000352E+00 0.  1.
</event>
<event>
 5   0  0.2149029E-06  0.2399854E+04  0.7818609E-02  0.8439558E-01
       -1   -1    0    0    0  501  0.00000000000E+00  0.00000000000E+00  0.10840956269E+04  0.10840956269E+04  0.50400001928E-02 0.  1.
        1   -1    0    0  501    0  0.00000000000E+00  0.00000000000E+00 -0.13281349434E+04  0.13281349434E+04  0.50400001928E-02 0. -1.
    10030    2    1    2    0    0  0.00000000000E+00  0.00000000000E+00 -0.24403931646E+03  0.24122305703E+04  0.23998543990E+04 0.  0.
        4    1    3    3  502    0 -0.72824867253E+03 -0.93677780521E+03 -0.30161646057E+03  0.12242846432E+04  0.12699999809E+01 0. -1.
       -4    1    3    3    0  502  0.72824867253E+03  0.93677780521E+03  0.57577144117E+02  0.11879459271E+04  0.12699999809E+01 0.  1.
</event>
<event>
 5   0  0.2149417E-06  0.2395690E+04  0.7818609E-02  0.8441119E-01
       -1   -1    0    0    0  501  0.00000000000E+00  0.00000000000E+00  0.11854922073E+04  0.11854922073E+04  0.50400001928E-02 0.  1.
        1   -1    0    0  501    0  0.00000000000E+00  0.00000000000E+00 -0.12103263622E+04  0.12103263622E+04  0.50400001928E-02 0. -1.
    10030    2    1    2    0    0  0.00000000000E+00  0.00000000000E+00 -0.24834154906E+02  0.23958185695E+04  0.23956898552E+04 0.  0.
        5    1    3    3  502    0  0.11963759822E+04  0.59007407607E+02 -0.16025008615E+02  0.11979466832E+04  0.46999998093E+01 0. -1.
       -5    1    3    3    0  502 -0.11963759822E+04 -0.59007407607E+02 -0.88091462913E+01  0.11978718863E+04  0.46999998093E+01 0.  1.
</event>
<event>
 5   0  0.2215700E-06  0.2402403E+04  0.7818609E-02  0.8438605E-01
       -1   -1    0    0    0  501  0.00000000000E+00  0.00000000000E+00  0.96782374088E+03  0.96782374089E+03  0.50400001928E-02 0. -1.
        1   -1    0    0  501    0  0.00000000000E+00  0.00000000000E+00 -0.14908547313E+04  0.14908547313E+04  0.50400001928E-02 0.  1.
    10030    2    1    2    0    0  0.00000000000E+00  0.00000000000E+00 -0.52303099042E+03  0.24586784722E+04  0.24024026334E+04 0.  0.
        3    1    3    3  502    0  0.42636242571E+03  0.51626020528E+03  0.75912954407E+03  0.10122189449E+04  0.10100000352E+00 0. -1.
       -3    1    3    3    0  502 -0.42636242571E+03 -0.51626020528E+03 -0.12821605345E+04  0.14464595273E+04  0.10100000352E+00 0.  1.
</event>
<event>
 5   0  0.2149417E-06  0.2403343E+04  0.7818609E-02  0.8438253E-01
       -1   -1    0    0    0  501  0.00000000000E+00  0.00000000000E+00  0.18127461710E+04  0.18127461710E+04  0.50400001928E-02 0. -1.
        1   -1    0    0  501    0  0.00000000000E+00  0.00000000000E+00 -0.79658938638E+03  0.79658938640E+03  0.50400001928E-02 0.  1.
    10030    2    1    2    0    0  0.00000000000E+00  0.00000000000E+00  0.10161567846E+04  0.26093355574E+04  0.24033429718E+04 0.  0.
        5    1    3    3  502    0  0.10854248139E+04  0.28179416482E+03  0.97687080482E+03  0.14872301897E+04  0.46999998093E+01 0.  1.
       -5    1    3    3    0  502 -0.10854248139E+04 -0.28179416482E+03  0.39285979752E+02  0.11221053676E+04  0.46999998093E+01 0. -1.
</event>
<event>
 5   0  0.2254269E-06  0.2400798E+04  0.7818609E-02  0.8439205E-01
       -1   -1    0    0    0  501  0.00000000000E+00  0.00000000000E+00  0.10075148228E+04  0.10075148228E+04  0.50400001928E-02 0.  1.
        1   -1    0    0  501    0  0.00000000000E+00  0.00000000000E+00 -0.14302098649E+04  0.14302098649E+04  0.50400001928E-02 0. -1.
    10030    2    1    2    0    0  0.00000000000E+00  0.00000000000E+00 -0.42269504213E+03  0.24377246877E+04  0.24007978995E+04 0.  0.
        2    1    3    3  502    0 -0.40280553365E+03  0.56514318097E+03 -0.12058605310E+04  0.13913082811E+04  0.25500000920E-02 0. -1.
       -2    1    3    3    0  502  0.40280553365E+03 -0.56514318097E+03  0.78316548885E+03  0.10464164065E+04  0.25500000920E-02 0.  1.
</event>
<event>
 5   0  0.2254269E-06  0.2407047E+04  0.7818609E-02  0.8436870E-01
       -1   -1    0    0    0  501  0.00000000000E+00  0.00000000000E+00  0.60193066626E+03  0.60193066628E+03  0.50400001928E-02 0. -1.
        1   -1    0    0  501    0  0.00000000000E+00  0.00000000000E+00 -0.24063715880E+04  0.24063715880E+04  0.50400001928E-02 0.  1.
    10030    2    1    2    0    0  0.00000000000E+00  0.00000000000E+00 -0.18044409218E+04  0.30083022543E+04  0.24070470318E+04 0.  0.
        2    1    3    3  502    0  0.65061672078E+03 -0.28120090428E+02 -0.21671507433E+04  0.22628820564E+04  0.25500000920E-02 0.  1.
       -2    1    3    3    0  502 -0.65061672078E+03  0.28120090428E+02  0.36270982153E+03  0.74542019794E+03  0.25500000920E-02 0. -1.
</event>
<event>
 5   0  0.5379778E-06  0.2427934E+04  0.7818609E-02  0.8429119E-01
        2   -1    0    0  501    0  0.00000000000E+00  0.00000000000E+00  0.20497091927E+04  0.20497091927E+04  0.25500000920E-02 0. -1.
       -2   -1    0    0    0  501  0.00000000000E+00  0.00000000000E+00 -0.71898754979E+03  0.71898754979E+03  0.25500000920E-02 0.  1.
    10030    2    1    2    0    0  0.00000000000E+00  0.00000000000E+00  0.13307216429E+04  0.27686967425E+04  0.24279335990E+04 0.  0.
        5    1    3    3  502    0  0.49518186532E+03 -0.37910357420E+03  0.18530619181E+04  0.19551944052E+04  0.46999998093E+01 0. -1.
       -5    1    3    3    0  502 -0.49518186532E+03  0.37910357420E+03 -0.52234027520E+03  0.81350233731E+03  0.46999998093E+01 0.  1.
</event>
<event>
 5   0  0.2215700E-06  0.2400478E+04  0.7818609E-02  0.8439325E-01
       -1   -1    0    0    0  501  0.00000000000E+00  0.00000000000E+00  0.10579063232E+04  0.10579063232E+04  0.50400001928E-02 0. -1.
        1   -1    0    0  501    0  0.00000000000E+00  0.00000000000E+00 -0.13617214610E+04  0.13617214610E+04  0.50400001928E-02 0.  1.
    10030    2    1    2    0    0  0.00000000000E+00  0.00000000000E+00 -0.30381513781E+03  0.24196277843E+04  0.24004780725E+04 0.  0.
        3    1    3    3  502    0 -0.11417573748E+04 -0.36981015359E+03 -0.16631429074E+03  0.12116228399E+04  0.10100000352E+00 0. -1.
       -3    1    3    3    0  502  0.11417573748E+04  0.36981015359E+03 -0.13750084706E+03  0.12080049444E+04  0.10100000352E+00 0.  1.
</event>
<event>
 5   0  0.5379778E-06  0.2425336E+04  0.7818609E-02  0.8430079E-01
       -2   -1    0    0    0  501  0.00000000000E+00  0.00000000000E+00  0.17707015999E+04  0.17707015999E+04  0.25500000920E-02 0. -1.
        2   -1    0    0  501    0  0.00000000000E+00  0.00000000000E+00 -0.83049757592E+03  0.83049757593E+03  0.25500000920E-02 0.  1.
    10030    2    1    2    0    0  0.00000000000E+00  0.00000000000E+00  0.94020402402E+03  0.26011991759E+04  0.24253357594E+04 0.  0.
        5    1    3    3  502    0  0.36898086040E+03  0.75280067412E+03 -0.46960707223E+03  0.96094152922E+03  0.46999998093E+01 0.  1.
       -5    1    3    3    0  502 -0.36898086040E+03 -0.75280067412E+03  0.14098110963E+04  0.16402576467E+04  0.46999998093E+01 0. -1.
</event>
<event>
 5   0  0.2215700E-06  0.2399199E+04  0.7818609E-02  0.8439804E-01
       -1   -1    0    0    0  501  0.00000000000E+00  0.00000000000E+00  0.10606488232E+04  0.10606488232E+04  0.50400001928E-02 0.  1.
        1   -1    0    0  501    0  0.00000000000E+00  0.00000000000E+00 -0.13567533880E+04  0.13567533881E+04  0.50400001928E-02 0. -1.
    10030    2    1    2    0    0  0.00000000000E+00  0.00000000000E+00 -0.29610456486E+03  0.24174022113E+04  0.23991989367E+04 0.  0.
        3    1    3    3  502    0  0.63539141782E+03  0.13031310861E+03  0.86873010406E+03  0.10841567064E+04  0.10100000352E+00 0.  1.
       -3    1    3    3    0  502 -0.63539141782E+03 -0.13031310861E+03 -0.11648346689E+04  0.13332455049E+04  0.10100000352E+00 0. -1.
</event>
<event>
 5   0  0.5371843E-06  0.2394226E+04  0.7818609E-02  0.8441668E-01
        2   -1    0    0  501    0  0.00000000000E+00  0.00000000000E+00  0.15011198239E+04  0.15011198239E+04  0.25500000920E-02 0.  1.
       -2   -1    0    0    0  501  0.00000000000E+00  0.00000000000E+00 -0.95467396551E+03  0.95467396551E+03  0.25500000920E-02 0. -1.
    10030    2    1    2    0    0  0.00000000000E+00  0.00000000000E+00  0.54644585837E+03  0.24557937894E+04  0.23942264011E+04 0.  0.
        4    1    3    3  502    0  0.56881569206E+03  0.59800612731E+03 -0.61620606243E+03  0.10299874485E+04  0.12699999809E+01 0. -1.
       -4    1    3    3    0  502 -0.56881569206E+03 -0.59800612731E+03  0.11626519208E+04  0.14258063409E+04  0.12699999809E+01 0.  1.
</event>
<event>
 5   0  0.2149029E-06  0.2405319E+04  0.7818609E-02  0.8437515E-01
       -1   -1    0    0    0  501  0.00000000000E+00  0.00000000000E+00  0.87110740314E+03  0.87110740316E+03  0.50400001928E-02 0.  1.
        1   -1    0    0  501    0  0.00000000000E+00  0.00000000000E+00 -0.16604041233E+04  0.16604041233E+04  0.50400001928E-02 0. -1.
    10030    2    1    2    0    0  0.00000000000E+00  0.00000000000E+00 -0.78929672016E+03  0.25315115265E+04  0.24053193751E+04 0.  0.
        4    1    3    3  502    0  0.63269793261E+03 -0.96095106845E+03 -0.76324377778E+03  0.13806796540E+04  0.12699999809E+01 0.  1.
       -4    1    3    3    0  502 -0.63269793261E+03  0.96095106845E+03 -0.26052942381E+02  0.11508318724E+04  0.12699999809E+01 0. -1.
</event>
<event>
 5   0  0.5371843E-06  0.2399206E+04  0.7818609E-02  0.8439801E-01
       -2   -1    0    0    0  501  0.00000000000E+00  0.00000000000E+00  0.63547008284E+03  0.63547008285E+03  0.25500000920E-02 0. -1.
        2   -1    0    0  501    0  0.00000000000E+00  0.00000000000E+00 -0.22645404404E+04  0.22645404404E+04  0.25500000920E-02 0.  1.
    10030    2    1    2    0    0  0.00000000000E+00  0.00000000000E+00 -0.16290703575E+04  0.29000105232E+04  0.23992062865E+04 0.  0.
        4    1    3    3  502    0  0.11235785491E+04 -0.87800506167E+02 -0.13113077534E+04  0.17290654475E+04  0.12699999809E+01 0. -1.
       -4    1    3    3    0  502 -0.11235785491E+04  0.87800506167E+02 -0.31776260416E+03  0.11709450757E+04  0.12699999809E+01 0.  1.
</event>
<event>
 5   0  0.5268358E-06  0.2376266E+04  0.7818609E-02  0.8448443E-01
        2   -1    0    0  501    0  0.00000000000E+00  0.00000000000E+00  0.20074922755E+04  0.20074922755E+04  0.25500000920E-02 0.  1.
       -2   -1    0    0    0  501  0.00000000000E+00  0.00000000000E+00 -0.70319582403E+03  0.70319582403E+03  0.25500000920E-02 0. -1.
    10030    2    1    2    0    0  0.00000000000E+00  0.00000000000E+00  0.13042964515E+04  0.27106880995E+04  0.23762661340E+04 0.  0.
        2    1    3    3  502    0  0.68973302420E+03 -0.74292499214E+03 -0.54730630003E+02  0.10152165436E+04  0.25500000920E-02 0. -1.
       -2    1    3    3    0  502 -0.68973302420E+03  0.74292499214E+03  0.13590270815E+04  0.16954715559E+04  0.25500000920E-02 0.  1.
</event>
<event>
 5   0  0.2297414E-06  0.2390980E+04  0.7818609E-02  0.8442888E-01
        1   -1    0    0  501    0  0.00000000000E+00  0.00000000000E+00  0.13102102422E+04  0.13102102422E+04  0.50400001928E-02 0.  1.
       -1   -1    0    0    0  501  0.00000000000E+00  0.00000000000E+00 -0.10908145941E+04  0.10908145941E+04  0.50400001928E-02 0. -1.
    10030    2    1    2    0    0  0.00000000000E+00  0.00000000000E+00  0.21939564809E+03  0.24010248363E+04  0.23909800949E+04 0.  0.
        1    1    3    3  502    0 -0.22136404064E+03  0.14225118336E+03 -0.10613741891E+04  0.10935047357E+04  0.50400001928E-02 0. -1.
       -1    1    3    3    0  502  0.22136404064E+03 -0.14225118336E+03  0.12807698372E+04  0.13075201006E+04  0.50400001928E-02 0.  1.
</event>
<event>
 5   0  0.2297414E-06  0.2403013E+04  0.7818609E-02  0.8438376E-01
       -1   -1    0    0    0  501  0.00000000000E+00  0.00000000000E+00  0.12633758025E+04  0.12633758025E+04  0.50400001928E-02 0.  1.
        1   -1    0    0  501    0  0.00000000000E+00  0.00000000000E+00 -0.11426672795E+04  0.11426672796E+04  0.50400001928E-02 0. -1.
    10030    2    1    2    0    0  0.00000000000E+00  0.00000000000E+00  0.12070852294E+03  0.24060430821E+04  0.24030132678E+04 0.  0.
        1    1    3    3  502    0 -0.23008211970E+03 -0.30800477339E+03 -0.10794190295E+04  0.11458403744E+04  0.50400001928E-02 0. -1.
       -1    1    3    3    0  502  0.23008211970E+03  0.30800477339E+03  0.12001275525E+04  0.12602027077E+04  0.50400001928E-02 0.  1.
</event>
<event>
 5   0  0.5379778E-06  0.2408199E+04  0.7818609E-02  0.8436440E-01
       -2   -1    0    0    0  501  0.00000000000E+00  0.00000000000E+00  0.88221072101E+03  0.88221072101E+03  0.25500000920E-02 0.  1.
        2   -1    0    0  501    0  0.00000000000E+00  0.00000000000E+00 -0.16434350125E+04  0.16434350125E+04  0.25500000920E-02 0. -1.
    10030    2    1    2    0    0  0.00000000000E+00  0.00000000000E+00 -0.76122429150E+03  0.25256457335E+04  0.24081993168E+04 0.  0.
        5    1    3    3  502    0  0.93194476775E+03  0.76206751152E+03 -0.35566212091E+03  0.12553029820E+04  0.46999998093E+01 0.  1.
       -5    1    3    3    0  502 -0.93194476775E+03 -0.76206751152E+03 -0.40556217059E+03  0.12703427516E+04  0.46999998093E+01 0. -1.
</event>
<event>
 5   0  0.5440503E-06  0.2398806E+04  0.7818609E-02  0.8439951E-01
       -2   -1    0    0    0  501  0.00000000000E+00  0.00000000000E+00  0.12228990453E+04  0.12228990453E+04  0.25500000920E-02 0.  1.
        2   -1    0    0  501    0  0.00000000000E+00  0.00000000000E+00 -0.11763582406E+04  0.11763582406E+04  0.25500000920E-02 0. -1.
    10030    2    1    2    0    0  0.00000000000E+00  0.00000000000E+00  0.46540804666E+02  0.23992572859E+04  0.23988058440E+04 0.  0.
        3    1    3    3  502    0  0.10733741284E+04 -0.42939945865E+03 -0.29624463502E+03  0.11934306887E+04  0.10100000352E+00 0.  1.
       -3    1    3    3    0  502 -0.10733741284E+04  0.42939945865E+03  0.34278543968E+03  0.12058265972E+04  0.10100000352E+00 0. -1.
</event>
<event>
 5   0  0.5379778E-06  0.2375556E+04  0.7818609E-02  0.8448712E-01
       -2   -1    0    0    0  501  0.00000000000E+00  0.00000000000E+00  0.12784607820E+04  0.12784607820E+04  0.25500000920E-02 0.  1.
        2   -1    0    0  501    0  0.00000000000E+00  0.00000000000E+00 -0.11035270502E+04  0.11035270502E+04  0.25500000920E-02 0. -1.
    10030    2    1    2    0    0  0.00000000000E+00  0.00000000000E+00  0.17493373179E+03  0.23819878322E+04  0.23755555608E+04 0.  0.
        5    1    3    3  502    0  0.27900084973E+03 -0.10874026104E+04 -0.30153726839E+03  0.11624253634E+04  0.46999998093E+01 0.  1.
       -5    1    3    3    0  502 -0.27900084973E+03  0.10874026104E+04  0.47647100018E+03  0.12195624688E+04  0.46999998093E+01 0. -1.
</event>
<event>
 5   0  0.2254269E-06  0.2396253E+04  0.7818609E-02  0.8440908E-01
       -1   -1    0    0    0  501  0.00000000000E+00  0.00000000000E+00  0.12001350613E+04  0.12001350613E+04  0.50400001928E-02 0.  1.
        1   -1    0    0  501    0  0.00000000000E+00  0.00000000000E+00 -0.11961210010E+04  0.11961210010E+04  0.50400001928E-02 0. -1.
    10030    2    1    2    0    0  0.00000000000E+00  0.00000000000E+00  0.40140603004E+01  0.23962560623E+04  0.23962527003E+04 0.  0.
        2    1    3    3  502    0 -0.12603337918E+03 -0.92404206251E+03  0.75418399905E+03  0.11993880316E+04  0.25500000920E-02 0.  1.
       -2    1    3    3    0  502  0.12603337918E+03  0.92404206251E+03 -0.75016993875E+03  0.11968680307E+04  0.25500000920E-02 0. -1.
</event>
<event>
 5   0  0.5371843E-06  0.2401996E+04  0.7818609E-02  0.8438757E-01
       -2   -1    0    0    0  501  0.00000000000E+00  0.00000000000E+00  0.70209817382E+03  0.70209817382E+03  0.25500000920E-02 0.  1.
        2   -1    0    0  501    0  0.00000000000E+00  0.00000000000E+00 -0.20544082048E+04  0.20544082048E+04  0.25500000920E-02 0. -1.
    10030    2    1    2    0    0  0.00000000000E+00  0.00000000000E+00 -0.13523100310E+04  0.27565063786E+04  0.24019960440E+04 0.  0.
        4    1    3    3  502    0 -0.63778359503E+03 -0.37715486478E+03  0.40853352729E+03  0.84611758162E+03  0.12699999809E+01 0.  1.
       -4    1    3    3    0  502  0.63778359503E+03  0.37715486478E+03 -0.17608435583E+04  0.19103887970E+04  0.12699999809E+01 0. -1.
</event>
<event>
 5   0  0.2215700E-06  0.2400728E+04  0.7818609E-02  0.8439231E-01
        1   -1    0    0  501    0  0.00000000000E+00  0.00000000000E+00  0.19427659102E+04  0.19427659102E+04  0.50400001928E-02 0. -1.
       -1   -1    0    0    0  501  0.00000000000E+00  0.00000000000E+00 -0.74166129400E+03  0.74166129402E+03  0.50400001928E-02 0.  1.
    10030    2    1    2    0    0  0.00000000000E+00  0.00000000000E+00  0.12011046162E+04  0.26844272042E+04  0.24007284552E+04 0.  0.
        3    1    3    3  502    0 -0.55294122378E+03  0.10654079988E+04  0.59383694733E+03  0.13392089198E+04  0.10100000352E+00 0. -1.
       -3    1    3    3    0  502  0.55294122378E+03 -0.10654079988E+04  0.60726766886E+03  0.13452182844E+04  0.10100000352E+00 0.  1.
</event>
<event>
 5   0  0.5440503E-06  0.2399730E+04  0.7818609E-02  0.8439604E-01
        2   -1    0    0  501    0  0.00000000000E+00  0.00000000000E+00  0.26152559690E+04  0.26152559690E+04  0.25500000920E-02 0. -1.
       -2   -1    0    0    0  501  0.00000000000E+00  0.00000000000E+00 -0.55049162510E+03  0.55049162511E+03  0.25500000920E-02 0.  1.
    10030    2    1    2    0    0  0.00000000000E+00  0.00000000000E+00  0.20647643439E+04  0.31657475941E+04  0.23997304086E+04 0.  0.
        3    1    3    3  502    0  0.35138955947E+03  0.85568784367E+03  0.20405209609E+04  0.22404022207E+04  0.10100000352E+00 0. -1.
       -3    1    3    3    0  502 -0.35138955947E+03 -0.85568784367E+03  0.24243382979E+02  0.92534537343E+03  0.10100000352E+00 0.  1.
</event>
<event>
 5   0  0.2297414E-06  0.2392902E+04  0.7818609E-02  0.8442166E-01
        1   -1    0    0  501    0  0.00000000000E+00  0.00000000000E+00  0.14371707385E+04  0.14371707385E+04  0.50400001928E-02 0.  1.
       -1   -1    0    0    0  501  0.00000000000E+00  0.00000000000E+00 -0.99605078273E+03  0.99605078274E+03  0.50400001928E-02 0. -1.
    10030    2    1    2    0    0  0.00000000000E+00  0.00000000000E+00  0.44111995572E+03  0.24332215212E+04  0.23929020364E+04 0.  0.
        1    1    3    3  502    0 -0.11691988754E+04 -0.25218503983E+03  0.19053734198E+03  0.12111679418E+04  0.50400001928E-02 0.  1.
       -1    1    3    3    0  502  0.11691988754E+04  0.25218503983E+03  0.25058261374E+03  0.12220535794E+04  0.50400001928E-02 0. -1.
</event>
<event>
 5   0  0.5379778E-06  0.2410380E+04  0.7818609E-02  0.8435628E-01
        2   -1    0    0  501    0  0.00000000000E+00  0.00000000000E+00  0.60517293372E+03  0.60517293372E+03  0.25500000920E-02 0. -1.
       -2   -1    0    0    0  501  0.00000000000E+00  0.00000000000E+00 -0.24001125367E+04  0.24001125367E+04  0.25500000920E-02 0.  1.
    10030    2    1    2    0    0  0.00000000000E+00  0.00000000000E+00 -0.17949396030E+04  0.30052854704E+04  0.24103801734E+04 0.  0.
        5    1    3    3  502    0  0.10713588271E+04 -0.14520186797E+02 -0.15854111073E+04  0.19135232011E+04  0.46999998093E+01 0.  1.
       -5    1    3    3    0  502 -0.10713588271E+04  0.14520186797E+02 -0.20952849569E+03  0.10917622693E+04  0.46999998093E+01 0. -1.
</event>
<event>
 5   0  0.2149029E-06  0.2400195E+04  0.7818609E-02  0.8439431E-01
       -1   -1    0    0    0  501  0.00000000000E+00  0.00000000000E+00  0.76610844029E+03  0.76610844031E+03  0.50400001928E-02 0. -1.
        1   -1    0    0  501    0  0.00000000000E+00  0.00000000000E+00 -0.18799347913E+04  0.18799347913E+04  0.50400001928E-02 0.  1.
    10030    2    1    2    0    0  0.00000000000E+00  0.00000000000E+00 -0.11138263510E+04  0.26460432316E+04  0.24001949178E+04 0.  0.
        4    1    3    3  502    0 -0.34653372238E+03  0.46358343946E+03  0.60207270587E+03  0.83515769896E+03  0.12699999809E+01 0. -1.
       -4    1    3    3    0  502  0.34653372238E+03 -0.46358343946E+03 -0.17158990568E+04  0.18108855326E+04  0.12699999809E+01 0.  1.
</event>
<event>
 5   0  0.5268358E-06  0.2403764E+04  0.7818609E-02  0.8438096E-01
        2   -1    0    0  501    0  0.00000000000E+00  0.00000000000E+00  0.13330529960E+04  0.13330529960E+04  0.25500000920E-02 0. -1.
       -2   -1    0    0    0  501  0.00000000000E+00  0.00000000000E+00 -0.10836185090E+04  0.10836185090E+04  0.25500000920E-02 0.  1.
    10030    2    1    2    0    0  0.00000000000E+00  0.00000000000E+00  0.24943448706E+03  0.24166715050E+04  0.24037644643E+04 0.  0.
        2    1    3    3  502    0 -0.78285989907E+03  0.70683453725E+03 -0.45460264474E+03  0.11485417925E+04  0.25500000920E-02 0.  1.
       -2    1    3    3    0  502  0.78285989907E+03 -0.70683453725E+03  0.70403713180E+03  0.12681297124E+04  0.25500000920E-02 0. -1.
</event>
<event>
 5   0  0.5440503E-06  0.2403520E+04  0.7818609E-02  0.8438187E-01
       -2   -1    0    0    0  501  0.00000000000E+00  0.00000000000E+00  0.10480505744E+04  0.10480505744E+04  0.25500000920E-02 0.  1.
        2   -1    0    0  501    0  0.00000000000E+00  0.00000000000E+00 -0.13780126959E+04  0.13780126959E+04  0.25500000920E-02 0. -1.
    10030    2    1    2    0    0  0.00000000000E+00  0.00000000000E+00 -0.32996212149E+03  0.24260632703E+04  0.24035199166E+04 0.  0.
        3    1    3    3  502    0  0.64471748982E+03 -0.40105689187E+03 -0.11052327667E+04  0.13409126560E+04  0.10100000352E+00 0. -1.
       -3    1    3    3    0  502 -0.64471748982E+03  0.40105689187E+03  0.77527064519E+03  0.10851506143E+04  0.10100000352E+00 0.  1.
</event>
<event>
 5   0  0.2149417E-06  0.2404319E+04  0.7818609E-02  0.8437888E-01
       -1   -1    0    0    0  501  0.00000000000E+00  0.00000000000E+00  0.68343483720E+03  0.68343483722E+03  0.50400001928E-02 0.  1.
        1   -1    0    0  501    0  0.00000000000E+00  0.00000000000E+00 -0.21145944419E+04  0.21145944419E+04  0.50400001928E-02 0. -1.
    10030    2    1    2    0    0  0.00000000000E+00  0.00000000000E+00 -0.14311596047E+04  0.27980292791E+04  0.24043190372E+04 0.  0.
        5    1    3    3  502    0 -0.78760238044E+03 -0.87029758190E+03 -0.41338511313E+03  0.12444455522E+04  0.46999998093E+01 0.  1.
       -5    1    3    3    0  502  0.78760238044E+03  0.87029758190E+03 -0.10177744916E+04  0.15535837269E+04  0.46999998093E+01 0. -1.
</event>
<event>
 5   0  0.2254269E-06  0.2398778E+04  0.7818609E-02  0.8439961E-01
        1   -1    0    0  501    0  0.00000000000E+00  0.00000000000E+00  0.12079033545E+04  0.12079033545E+04  0.50400001928E-02 0. -1.
       -1   -1    0    0    0  501  0.00000000000E+00  0.00000000000E+00 -0.11909343828E+04  0.11909343828E+04  0.50400001928E-02 0.  1.
    10030    2    1    2    0    0  0.00000000000E+00  0.00000000000E+00  0.16968971728E+02  0.23988377373E+04  0.23987777187E+04 0.  0.
        2    1    3    3  502    0 -0.24888729661E+03 -0.78326531318E+03 -0.86508427767E+03  0.11932393912E+04  0.25500000920E-02 0.  1.
       -2    1    3    3    0  502  0.24888729661E+03  0.78326531318E+03  0.88205324940E+03  0.12055983461E+04  0.25500000920E-02 0. -1.
</event>
<event>
 5   0  0.5349036E-06  0.2411599E+04  0.7818609E-02  0.8435174E-01
        2   -1    0    0  501    0  0.00000000000E+00  0.00000000000E+00  0.21440807774E+04  0.21440807774E+04  0.25500000920E-02 0.  1.
       -2   -1    0    0    0  501  0.00000000000E+00  0.00000000000E+00 -0.67812370959E+03  0.67812370959E+03  0.25500000920E-02 0. -1.
    10030    2    1    2    0    0  0.00000000000E+00  0.00000000000E+00  0.14659570678E+04  0.28222044870E+04  0.24115986486E+04 0.  0.
        1    1    3    3  502    0  0.89567655891E+03 -0.67173489561E+03  0.20898327350E+03  0.11389197851E+04  0.50400001928E-02 0. -1.
       -1    1    3    3    0  502 -0.89567655891E+03  0.67173489561E+03  0.12569737943E+04  0.16832847019E+04  0.50400001928E-02 0.  1.
</event>
<event>
 5   0  0.5268358E-06  0.2395363E+04  0.7818609E-02  0.8441242E-01
        2   -1    0    0  501    0  0.00000000000E+00  0.00000000000E+00  0.23018238987E+04  0.23018238987E+04  0.25500000920E-02 0. -1.
       -2   -1    0    0    0  501  0.00000000000E+00  0.00000000000E+00 -0.62317555930E+03  0.62317555931E+03  0.25500000920E-02 0.  1.
    10030    2    1    2    0    0  0.00000000000E+00  0.00000000000E+00  0.16786483394E+04  0.29249994580E+04  0.23953625158E+04 0.  0.
        2    1    3    3  502    0 -0.99757923855E+03  0.30198884653E+03  0.11889162367E+03  0.10490456705E+04  0.25500000920E-02 0.  1.
       -2    1    3    3    0  502  0.99757923855E+03 -0.30198884653E+03  0.15597567157E+04  0.18759537875E+04  0.25500000920E-02 0. -1.
</event>
<event>
 5   0  0.2254269E-06  0.2401275E+04  0.7818609E-02  0.8439027E-01
        1   -1    0    0  501    0  0.00000000000E+00  0.00000000000E+00  0.92682398242E+03  0.92682398243E+03  0.50400001928E-02 0. -1.
       -1   -1    0    0    0  501  0.00000000000E+00  0.00000000000E+00 -0.15553438699E+04  0.15553438699E+04  0.50400001928E-02 0.  1.
    10030    2    1    2    0    0  0.00000000000E+00  0.00000000000E+00 -0.62851988748E+03  0.24821678523E+04  0.24012746611E+04 0.  0.
        2    1    3    3  502    0 -0.49209373304E+03 -0.10129547366E+04 -0.74457263305E+03  0.13500451645E+04  0.25500000920E-02 0. -1.
       -2    1    3    3    0  502  0.49209373304E+03  0.10129547366E+04  0.11605274557E+03  0.11321226878E+04  0.25500000920E-02 0.  1.
</event>
<event>
 5   0  0.5371843E-06  0.2401135E+04  0.7818609E-02  0.8439079E-01
        2   -1    0    0  501    0  0.00000000000E+00  0.00000000000E+00  0.11002017923E+04  0.11002017923E+04  0.25500000920E-02 0.  1.
       -2   -1    0    0    0  501  0.00000000000E+00  0.00000000000E+00 -0.13100887118E+04  0.13100887118E+04  0.25500000920E-02 0. -1.
    10030    2    1    2    0    0  0.00000000000E+00  0.00000000000E+00 -0.20988691948E+03  0.24102905041E+04  0.24011346891E+04 0.  0.
        4    1    3    3  502    0  0.88408384972E+03  0.25924643462E+03 -0.87764967355E+03  0.12724321316E+04  0.12699999809E+01 0. -1.
       -4    1    3    3    0  502 -0.88408384972E+03 -0.25924643462E+03  0.66776275407E+03  0.11378583725E+04  0.12699999809E+01 0.  1.
</event>
<event>
 5   0  0.5379778E-06  0.2393957E+04  0.7818609E-02  0.8441770E-01
       -2   -1    0    0    0  501  0.00000000000E+00  0.00000000000E+00  0.84819131462E+03  0.84819131462E+03  0.25500000920E-02 0.  1.
        2   -1    0    0  501    0  0.00000000000E+00  0.00000000000E+00 -0.16891909380E+04  0.16891909380E+04  0.25500000920E-02 0. -1.
    10030    2    1    2    0    0  0.00000000000E+00  0.00000000000E+00 -0.84099962341E+03  0.25373822527E+04  0.23939566265E+04 0.  0.
        5    1    3    3  502    0  0.10745855224E+03  0.11889391091E+04 -0.51297031699E+03  0.12993399023E+04  0.46999998093E+01 0. -1.
       -5    1    3    3    0  502 -0.10745855224E+03 -0.11889391091E+04 -0.32802930643E+03  0.12380423504E+04  0.46999998093E+01 0.  1.
</event>
<event>
 5   0  0.5371843E-06  0.2399754E+04  0.7818609E-02  0.8439596E-01
        2   -1    0    0  501    0  0.00000000000E+00  0.00000000000E+00  0.21920887810E+04  0.21920887810E+04  0.25500000920E-02 0.  1.
       -2   -1    0    0    0  501  0.00000000000E+00  0.00000000000E+00 -0.65677285472E+03  0.65677285473E+03  0.25500000920E-02 0. -1.
    10030    2    1    2    0    0  0.00000000000E+00  0.00000000000E+00  0.15353159263E+04  0.28488616357E+04  0.23997536595E+04 0.  0.
        4    1    3    3  502    0 -0.20632131040E+03  0.12871875082E+03  0.21625264044E+04  0.21761569481E+04  0.12699999809E+01 0.  1.
       -4    1    3    3    0  502  0.20632131040E+03 -0.12871875082E+03 -0.62721047817E+03  0.67270468763E+03  0.12699999809E+01 0. -1.
</event>
<event>
 5   0  0.5268358E-06  0.2401184E+04  0.7818609E-02  0.8439060E-01
       -2   -1    0    0    0  501  0.00000000000E+00  0.00000000000E+00  0.14054567214E+04  0.14054567214E+04  0.25500000920E-02 0. -1.
        2   -1    0    0  501    0  0.00000000000E+00  0.00000000000E+00 -0.10255890798E+04  0.10255890798E+04  0.25500000920E-02 0.  1.
    10030    2    1    2    0    0  0.00000000000E+00  0.00000000000E+00  0.37986764166E+03  0.24310458012E+04  0.24011839293E+04 0.  0.
        2    1    3    3  502    0  0.34981905396E+02 -0.54413816472E+03  0.12728673284E+04  0.13847387160E+04  0.25500000920E-02 0. -1.
       -2    1    3    3    0  502 -0.34981905396E+02  0.54413816472E+03 -0.89299968673E+03  0.10463070852E+04  0.25500000920E-02 0.  1.
</event>
<event>
 5   0  0.2254269E-06  0.2398302E+04  0.7818609E-02  0.8440140E-01
        1   -1    0    0  501    0  0.00000000000E+00  0.00000000000E+00  0.11236722861E+04  0.11236722861E+04  0.50400001928E-02 0. -1.
       -1   -1    0    0    0  501  0.00000000000E+00  0.00000000000E+00 -0.12796994866E+04  0.12796994867E+04  0.50400001928E-02 0.  1.
    10030    2    1    2    0    0  0.00000000000E+00  0.00000000000E+00 -0.15602720055E+03  0.24033717727E+04  0.23983017722E+04 0.  0.
        2    1    3    3  502    0  0.18836901033E+03 -0.94697753549E+02  0.11049531303E+04  0.11248875361E+04  0.25500000920E-02 0. -1.
       -2    1    3    3    0  502 -0.18836901033E+03  0.94697753549E+02 -0.12609803309E+04  0.12784842367E+04  0.25500000920E-02 0.  1.
</event>
<event>
 5   0  0.2297414E-06  0.2397625E+04  0.7818609E-02  0.8440393E-01
       -1   -1    0    0    0  501  0.00000000000E+00  0.00000000000E+00  0.16457246980E+04  0.16457246980E+04  0.50400001928E-02 0. -1.
        1   -1    0    0  501    0  0.00000000000E+00  0.00000000000E+00 -0.87326381796E+03  0.87326381797E+03  0.50400001928E-02 0.  1.
    10030    2    1    2    0    0  0.00000000000E+00  0.00000000000E+00  0.77246088001E+03  0.25189885160E+04  0.23976253528E+04 0.  0.
        1    1    3    3  502    0  0.17755125063E+03  0.46605568444E+03 -0.75909721496E+03  0.90827359831E+03  0.50400001928E-02 0.  1.
       -1    1    3    3    0  502 -0.17755125063E+03 -0.46605568444E+03  0.15315580950E+04  0.16107149176E+04  0.50400001928E-02 0. -1.
</event>
<event>
 5   0  0.5440503E-06  0.2401590E+04  0.7818609E-02  0.8438908E-01
       -2   -1    0    0    0  501  0.00000000000E+00  0.00000000000E+00  0.11500063717E+04  0.11500063717E+04  0.25500000920E-02 0.  1.
        2   -1    0    0  501    0  0.00000000000E+00  0.00000000000E+00 -0.12538271034E+04  0.12538271034E+04  0.25500000920E-02 0. -1.
    10030    2    1    2    0    0  0.00000000000E+00  0.00000000000E+00 -0.10382073171E+03  0.24038334752E+04  0.24015904380E+04 0.  0.
        3    1    3    3  502    0 -0.19890731618E+03 -0.28346959688E+03 -0.12027624816E+04  0.12516216402E+04  0.10100000352E+00 0. -1.
       -3    1    3    3    0  502  0.19890731618E+03  0.28346959688E+03  0.10989417499E+04  0.11522118350E+04  0.10100000352E+00 0.  1.
</event>
<event>
 5   0  0.2297414E-06  0.2399889E+04  0.7818609E-02  0.8439545E-01
       -1   -1    0    0    0  501  0.00000000000E+00  0.00000000000E+00  0.13500412578E+04  0.13500412578E+04  0.50400001928E-02 0.  1.
        1   -1    0    0  501    0  0.00000000000E+00  0.00000000000E+00 -0.10665349982E+04  0.10665349982E+04  0.50400001928E-02 0. -1.
    10030    2    1    2    0    0  0.00000000000E+00  0.00000000000E+00  0.28350625958E+03  0.24165762560E+04  0.23998885394E+04 0.  0.
        1    1    3    3  502    0  0.91158316050E+03  0.63436376439E+03  0.59929691334E+03  0.12619659403E+04  0.50400001928E-02 0. -1.
       -1    1    3    3    0  502 -0.91158316050E+03 -0.63436376439E+03 -0.31579065376E+03  0.11546103157E+04  0.50400001928E-02 0.  1.
</event>
<event>
 5   0  0.5268358E-06  0.2398296E+04  0.7818609E-02  0.8440142E-01
       -2   -1    0    0    0  501  0.00000000000E+00  0.00000000000E+00  0.12555087421E+04  0.12555087421E+04  0.25500000920E-02 0. -1.
        2   -1    0    0  501    0  0.00000000000E+00  0.00000000000E+00 -0.11453177480E+04  0.11453177480E+04  0.25500000920E-02 0.  1.
    10030    2    1    2    0    0  0.00000000000E+00  0.00000000000E+00  0.11019099407E+03  0.24008264901E+04  0.23982964329E+04 0.  0.
        2    1    3    3  502    0 -0.56869042733E+03  0.10552485682E+04  0.23469412477E+02  0.11989616992E+04  0.25500000920E-02 0. -1.
       -2    1    3    3    0  502  0.56869042733E+03 -0.10552485682E+04  0.86721581593E+02  0.12018647909E+04  0.25500000920E-02 0.  1.
</event>
<event>
 5   0  0.5379778E-06  0.2400564E+04  0.7818609E-02  0.8439292E-01
        2   -1    0    0  501    0  0.00000000000E+00  0.00000000000E+00  0.24102973146E+04  0.24102973146E+04  0.25500000920E-02 0. -1.
       -2   -1    0    0    0  501  0.00000000000E+00  0.00000000000E+00 -0.59771744356E+03  0.59771744357E+03  0.25500000920E-02 0.  1.
    10030    2    1    2    0    0  0.00000000000E+00  0.00000000000E+00  0.18125798711E+04  0.30080147582E+04  0.24005638914E+04 0.  0.
        5    1    3    3  502    0 -0.90443682719E+03  0.64202483528E+03  0.14811260472E+04  0.18503940989E+04  0.46999998093E+01 0. -1.
       -5    1    3    3    0  502  0.90443682719E+03 -0.64202483528E+03  0.33145382386E+03  0.11576206593E+04  0.46999998093E+01 0.  1.
</event>
<event>
 5   0  0.2215700E-06  0.2397030E+04  0.7818609E-02  0.8440616E-01
       -1   -1    0    0    0  501  0.00000000000E+00  0.00000000000E+00  0.76881230780E+03  0.76881230782E+03  0.50400001928E-02 0. -1.
        1   -1    0    0  501    0  0.00000000000E+00  0.00000000000E+00 -0.18683862404E+04  0.18683862405E+04  0.50400001928E-02 0.  1.
    10030    2    1    2    0    0  0.00000000000E+00  0.00000000000E+00 -0.10995739326E+04  0.26371985483E+04  0.23970301103E+04 0.  0.
        3    1    3    3  502    0  0.10235193608E+04 -0.99837352441E+02  0.12741712954E+03  0.10362405676E+04  0.10100000352E+00 0. -1.
       -3    1    3    3    0  502 -0.10235193608E+04  0.99837352441E+02 -0.12269910622E+04  0.16009579806E+04  0.10100000352E+00 0.  1.
</event>
<event>
 5   0  0.2297414E-06  0.2400067E+04  0.7818609E-02  0.8439479E-01
       -1   -1    0    0    0  501  0.00000000000E+00  0.00000000000E+00  0.15067685706E+04  0.15067685706E+04  0.50400001928E-02 0. -1.
        1   -1    0    0  501    0  0.00000000000E+00  0.00000000000E+00 -0.95574062627E+03  0.95574062628E+03  0.50400001928E-02 0.  1.
    10030    2    1    2    0    0  0.00000000000E+00  0.00000000000E+00  0.55102794434E+03  0.24625091969E+04  0.24000666135E+04 0.  0.
        1    1    3    3  502    0 -0.40117015488E+03 -0.10188197485E+04  0.77935912616E+03  0.13439984452E+04  0.50400001928E-02 0. -1.
       -1    1    3    3    0  502  0.40117015488E+03  0.10188197485E+04 -0.22833118182E+03  0.11185107517E+04  0.50400001928E-02 0.  1.
</event>
<event>
 5   0  0.2149417E-06  0.2399798E+04  0.7818609E-02  0.8439579E-01
        1   -1    0    0  501    0  0.00000000000E+00  0.00000000000E+00  0.11384000755E+04  0.11384000755E+04  0.50400001928E-02 0.  1.
       -1   -1    0    0    0  501  0.00000000000E+00  0.00000000000E+00 -0.12647206763E+04  0.12647206763E+04  0.50400001928E-02 0. -1.
    10030    2    1    2    0    0  0.00000000000E+00  0.00000000000E+00 -0.12632060078E+03  0.24031207518E+04  0.23997984194E+04 0.  0.
        5    1    3    3  502    0 -0.11900615871E+04 -0.48031301365E+02 -0.20890366348E+03  0.12092214097E+04  0.46999998093E+01 0. -1.
       -5    1    3    3    0  502  0.11900615871E+04  0.48031301365E+02  0.82583062709E+02  0.11938993422E+04  0.46999998093E+01 0.  1.
</event>
<event>
 5   0  0.1796750E-06  0.2395364E+04  0.7818609E-02  0.8441241E-01
       -3   -1    0    0    0  501  0.00000000000E+00  0.00000000000E+00  0.10846166065E+04  0.10846166112E+04  0.10100000352E+00 0.  1.
        3   -1    0    0  501    0  0.00000000000E+00  0.00000000000E+00 -0.13225342909E+04  0.13225342948E+04  0.10100000352E+00 0. -1.
    10030    2    1    2    0    0  0.00000000000E+00  0.00000000000E+00 -0.23791768441E+03  0.24071509060E+04  0.23953644106E+04 0.  0.
        5    1    3    3  502    0  0.62538916595E+03 -0.96804547443E+03 -0.44644104008E+03  0.12359430981E+04  0.46999998093E+01 0. -1.
       -5    1    3    3    0  502 -0.62538916595E+03  0.96804547443E+03  0.20852335568E+03  0.11712078079E+04  0.46999998093E+01 0.  1.
</event>
<event>
 5   0  0.2215700E-06  0.2414692E+04  0.7818609E-02  0.8434024E-01
       -1   -1    0    0    0  501  0.00000000000E+00  0.00000000000E+00  0.11094956455E+04  0.11094956455E+04  0.50400001928E-02 0.  1.
        1   -1    0    0  501    0  0.00000000000E+00  0.00000000000E+00 -0.13138257832E+04  0.13138257832E+04  0.50400001928E-02 0. -1.
    10030    2    1    2    0    0  0.00000000000E+00  0.00000000000E+00 -0.20433013764E+03  0.24233214287E+04  0.24146916867E+04 0.  0.
        3    1    3    3  502    0 -0.88304748064E+03  0.32902232955E+03 -0.85961766071E+03  0.12755277650E+04  0.10100000352E+00 0. -1.
       -3    1    3    3    0  502  0.88304748064E+03 -0.32902232955E+03  0.65528752306E+03  0.11477936637E+04  0.10100000352E+00 0.  1.
</event>
<event>
 5   0  0.5379778E-06  0.2415883E+04  0.7818609E-02  0.8433581E-01
        2   -1    0    0  501    0  0.00000000000E+00  0.00000000000E+00  0.19094315695E+04  0.19094315695E+04  0.25500000920E-02 0. -1.
       -2   -1    0    0    0  501  0.00000000000E+00  0.00000000000E+00 -0.76416604517E+03  0.76416604518E+03  0.25500000920E-02 0.  1.
    10030    2    1    2    0    0  0.00000000000E+00  0.00000000000E+00  0.11452655243E+04  0.26735976147E+04  0.24158830857E+04 0.  0.
        5    1    3    3  502    0  0.73994311327E+02  0.21127907936E+03  0.18862643245E+04  0.18995076203E+04  0.46999998093E+01 0. -1.
       -5    1    3    3    0  502 -0.73994311327E+02 -0.21127907936E+03 -0.74099880022E+03  0.77408999439E+03  0.46999998093E+01 0.  1.
</event>
<event>
 5   0  0.1796750E-06  0.2399939E+04  0.7818609E-02  0.8439526E-01
       -3   -1    0    0    0  501  0.00000000000E+00  0.00000000000E+00  0.78301428112E+03  0.78301428763E+03  0.10100000352E+00 0. -1.
        3   -1    0    0  501    0  0.00000000000E+00  0.00000000000E+00 -0.18389540940E+04  0.18389540968E+04  0.10100000352E+00 0.  1.
    10030    2    1    2    0    0  0.00000000000E+00  0.00000000000E+00 -0.10559398129E+04  0.26219683845E+04  0.23999394410E+04 0.  0.
        5    1    3    3  502    0 -0.76143430839E+03 -0.64011338022E+03 -0.12611585016E+04  0.16062596931E+04  0.46999998093E+01 0. -1.
       -5    1    3    3    0  502  0.76143430839E+03  0.64011338022E+03  0.20521868865E+03  0.10157086914E+04  0.46999998093E+01 0.  1.
</event>
<event>
 5   0  0.5379778E-06  0.2406820E+04  0.7818609E-02  0.8436955E-01
       -2   -1    0    0    0  501  0.00000000000E+00  0.00000000000E+00  0.79583320621E+03  0.79583320621E+03  0.25500000920E-02 0. -1.
        2   -1    0    0  501    0  0.00000000000E+00  0.00000000000E+00 -0.18197220403E+04  0.18197220403E+04  0.25500000920E-02 0.  1.
    10030    2    1    2    0    0  0.00000000000E+00  0.00000000000E+00 -0.10238888340E+04  0.26155552465E+04  0.24068196656E+04 0.  0.
        5    1    3    3  502    0 -0.55828521578E+03 -0.69030533229E+03 -0.13947848475E+04  0.16533755456E+04  0.46999998093E+01 0.  1.
       -5    1    3    3    0  502  0.55828521578E+03  0.69030533229E+03  0.37089601347E+03  0.96217970086E+03  0.46999998093E+01 0. -1.
</event>
<event>
 5   0  0.2297414E-06  0.2398590E+04  0.7818609E-02  0.8440032E-01
       -1   -1    0    0    0  501  0.00000000000E+00  0.00000000000E+00  0.92254173946E+03  0.92254173947E+03  0.50400001928E-02 0.  1.
        1   -1    0    0  501    0  0.00000000000E+00  0.00000000000E+00 -0.15590709029E+04  0.15590709029E+04  0.50400001928E-02 0. -1.
    10030    2    1    2    0    0  0.00000000000E+00  0.00000000000E+00 -0.63652916348E+03  0.24816126424E+04  0.23985895712E+04 0.  0.
        1    1    3    3  502    0  0.97200490723E+03 -0.71671187929E+02 -0.10412939822E+04  0.14262620574E+04  0.50400001928E-02 0. -1.
       -1    1    3    3    0  502 -0.97200490723E+03  0.71671187929E+02  0.40476481873E+03  0.10553505851E+04  0.50400001928E-02 0.  1.
</event>
<event>
 5   0  0.2149417E-06  0.2397996E+04  0.7818609E-02  0.8440254E-01
        1   -1    0    0  501    0  0.00000000000E+00  0.00000000000E+00  0.13714624603E+04  0.13714624603E+04  0.50400001928E-02 0. -1.
       -1   -1    0    0    0  501  0.00000000000E+00  0.00000000000E+00 -0.10482213157E+04  0.10482213157E+04  0.50400001928E-02 0.  1.
    10030    2    1    2    0    0  0.00000000000E+00  0.00000000000E+00  0.32324114464E+03  0.24196837760E+04  0.23979959838E+04 0.  0.
        5    1    3    3  502    0  0.37995372516E+03  0.76343138633E+03 -0.68884368881E+03  0.10962299177E+04  0.46999998093E+01 0.  1.
       -5    1    3    3    0  502 -0.37995372516E+03 -0.76343138633E+03  0.10120848334E+04  0.13234538583E+04  0.46999998093E+01 0. -1.
</event>
<event>
 5   0  0.5440503E-06  0.2399663E+04  0.7818609E-02  0.8439630E-01
        2   -1    0    0  501    0  0.00000000000E+00  0.00000000000E+00  0.15901138904E+04  0.15901138904E+04  0.25500000920E-02 0.  1.
       -2   -1    0    0    0  501  0.00000000000E+00  0.00000000000E+00 -0.90534088512E+03  0.90534088512E+03  0.25500000920E-02 0. -1.
    10030    2    1    2    0    0  0.00000000000E+00  0.00000000000E+00  0.68477300528E+03  0.24954547755E+04  0.23996625738E+04 0.  0.
        3    1    3    3  502    0 -0.77689234579E+03 -0.91408757120E+03  0.36510586604E+03  0.12539617651E+04  0.10100000352E+00 0.  1.
       -3    1    3    3    0  502  0.77689234579E+03  0.91408757120E+03  0.31966713924E+03  0.12414930104E+04  0.10100000352E+00 0. -1.
</event>
<event>
 5   0  0.5379778E-06  0.2402266E+04  0.7818609E-02  0.8438656E-01
       -2   -1    0    0    0  501  0.00000000000E+00  0.00000000000E+00  0.57138782875E+03  0.57138782875E+03  0.25500000920E-02 0. -1.
        2   -1    0    0  501    0  0.00000000000E+00  0.00000000000E+00 -0.25249418108E+04  0.25249418108E+04  0.25500000920E-02 0.  1.
    10030    2    1    2    0    0  0.00000000000E+00  0.00000000000E+00 -0.19535539821E+04  0.30963296396E+04  0.24022664457E+04 0.  0.
        5    1    3    3  502    0 -0.63312730160E+03 -0.27815897444E+03 -0.22425965519E+04  0.23468029274E+04  0.46999998093E+01 0.  1.
       -5    1    3    3    0  502  0.63312730160E+03  0.27815897444E+03  0.28904256989E+03  0.74952671220E+03  0.46999998093E+01 0. -1.
</event>
<event>
 5   0  0.5371843E-06  0.2401887E+04  0.7818609E-02  0.8438798E-01
        2   -1    0    0  501    0  0.00000000000E+00  0.00000000000E+00  0.86467096794E+03  0.86467096794E+03  0.25500000920E-02 0.  1.
       -2   -1    0    0    0  501  0.00000000000E+00  0.00000000000E+00 -0.16679926471E+04  0.16679926471E+04  0.25500000920E-02 0. -1.
    10030    2    1    2    0    0  0.00000000000E+00  0.00000000000E+00 -0.80332167917E+03  0.25326636150E+04  0.24018866057E+04 0.  0.
        4    1    3    3  502    0  0.66080951989E+03 -0.87170923893E+03 -0.92434892410E+03  0.14321203739E+04  0.12699999809E+01 0. -1.
       -4    1    3    3    0  502 -0.66080951989E+03  0.87170923893E+03  0.12102724494E+03  0.11005432412E+04  0.12699999809E+01 0.  1.
</event>
<event>
 5   0  0.2215700E-06  0.2402216E+04  0.7818609E-02  0.8438674E-01
       -1   -1    0    0    0  501  0.00000000000E+00  0.00000000000E+00  0.18112012476E+04  0.18112012476E+04  0.50400001928E-02 0.  1.
        1   -1    0    0  501    0  0.00000000000E+00  0.00000000000E+00 -0.79652147924E+03  0.79652147925E+03  0.50400001928E-02 0. -1.
    10030    2    1    2    0    0  0.00000000000E+00  0.00000000000E+00  0.10146797683E+04  0.26077227268E+04  0.24022162242E+04 0.  0.
        3    1    3    3  502    0 -0.24138234529E+03  0.14864727555E+03  0.17743660185E+04  0.17968684501E+04  0.10100000352E+00 0.  1.
       -3    1    3    3    0  502  0.24138234529E+03 -0.14864727555E+03 -0.75968625018E+03  0.81085427671E+03  0.10100000352E+00 0. -1.
</event>
<event>
 5   0  0.2149029E-06  0.2397652E+04  0.7818609E-02  0.8440383E-01
        1   -1    0    0  501    0  0.00000000000E+00  0.00000000000E+00  0.15889825721E+04  0.15889825721E+04  0.50400001928E-02 0.  1.
       -1   -1    0    0    0  501  0.00000000000E+00  0.00000000000E+00 -0.90446830277E+03  0.90446830278E+03  0.50400001928E-02 0. -1.
    10030    2    1    2    0    0  0.00000000000E+00  0.00000000000E+00  0.68451426933E+03  0.24934508749E+04  0.23976524937E+04 0.  0.
        4    1    3    3  502    0 -0.95320786423E+03  0.59278780901E+03  0.78000304371E+03  0.13668975748E+04  0.12699999809E+01 0.  1.
       -4    1    3    3    0  502  0.95320786423E+03 -0.59278780901E+03 -0.95488774387E+02  0.11265533001E+04  0.12699999809E+01 0. -1.
</event>
<event>
 5   0  0.2149029E-06  0.2400209E+04  0.7818609E-02  0.8439425E-01
        1   -1    0    0  501    0  0.00000000000E+00  0.00000000000E+00  0.18692150629E+04  0.18692150629E+04  0.50400001928E-02 0.  1.
       -1   -1    0    0    0  501  0.00000000000E+00  0.00000000000E+00 -0.77051121428E+03  0.77051121430E+03  0.50400001928E-02 0. -1.
    10030    2    1    2    0    0  0.00000000000E+00  0.00000000000E+00  0.10987038487E+04  0.26397262772E+04  0.24002092975E+04 0.  0.
        4    1    3    3  502    0  0.10748579727E+04 -0.22961798025E+03  0.19388361439E+02  0.10992823113E+04  0.12699999809E+01 0. -1.
       -4    1    3    3    0  502 -0.10748579727E+04  0.22961798025E+03  0.10793154872E+04  0.15404439660E+04  0.12699999809E+01 0.  1.
</event>
<event>
 5   0  0.2149029E-06  0.2400010E+04  0.7818609E-02  0.8439500E-01
       -1   -1    0    0    0  501  0.00000000000E+00  0.00000000000E+00  0.10179533175E+04  0.10179533175E+04  0.50400001928E-02 0. -1.
        1   -1    0    0  501    0  0.00000000000E+00  0.00000000000E+00 -0.14146152471E+04  0.14146152471E+04  0.50400001928E-02 0.  1.
    10030    2    1    2    0    0  0.00000000000E+00  0.00000000000E+00 -0.39666192964E+03  0.24325685646E+04  0.24000102364E+04 0.  0.
        4    1    3    3  502    0 -0.39597407615E+03  0.66060827045E+03 -0.11310384802E+04  0.13683743686E+04  0.12699999809E+01 0.  1.
       -4    1    3    3    0  502  0.39597407615E+03 -0.66060827045E+03  0.73437655053E+03  0.10641941960E+04  0.12699999809E+01 0. -1.
</event>
<event>
 5   0  0.2297414E-06  0.2384584E+04  0.7818609E-02  0.8445298E-01
        1   -1    0    0  501    0  0.00000000000E+00  0.00000000000E+00  0.13219920950E+04  0.13219920950E+04  0.50400001928E-02 0.  1.
       -1   -1    0    0    0  501  0.00000000000E+00  0.00000000000E+00 -0.10753164510E+04  0.10753164510E+04  0.50400001928E-02 0. -1.
    10030    2    1    2    0    0  0.00000000000E+00  0.00000000000E+00  0.24667564404E+03  0.23973085460E+04  0.23845836936E+04 0.  0.
        1    1    3    3  502    0 -0.86994226013E+03  0.17130959700E+03  0.92471971571E+03  0.12811139944E+04  0.50400001928E-02 0.  1.
       -1    1    3    3    0  502  0.86994226013E+03 -0.17130959700E+03 -0.67804407167E+03  0.11161945516E+04  0.50400001928E-02 0. -1.
</event>
<event>
 5   0  0.2149417E-06  0.2388607E+04  0.7818609E-02  0.8443781E-01
       -1   -1    0    0    0  501  0.00000000000E+00  0.00000000000E+00  0.13429295428E+04  0.13429295428E+04  0.50400001928E-02 0. -1.
        1   -1    0    0  501    0  0.00000000000E+00  0.00000000000E+00 -0.10621265545E+04  0.10621265545E+04  0.50400001928E-02 0.  1.
    10030    2    1    2    0    0  0.00000000000E+00  0.00000000000E+00  0.28080298829E+03  0.24050560973E+04  0.23886072329E+04 0.  0.
        5    1    3    3  502    0 -0.40455681166E+03 -0.33776645402E+03 -0.93870013723E+03  0.10765372399E+04  0.46999998093E+01 0.  1.
       -5    1    3    3    0  502  0.40455681166E+03  0.33776645402E+03  0.12195031255E+04  0.13285188574E+04  0.46999998093E+01 0. -1.
</event>
<event>
 5   0  0.5371843E-06  0.2401802E+04  0.7818609E-02  0.8438829E-01
        2   -1    0    0  501    0  0.00000000000E+00  0.00000000000E+00  0.15372591505E+04  0.15372591505E+04  0.25500000920E-02 0. -1.
       -2   -1    0    0    0  501  0.00000000000E+00  0.00000000000E+00 -0.93813932812E+03  0.93813932813E+03  0.25500000920E-02 0.  1.
    10030    2    1    2    0    0  0.00000000000E+00  0.00000000000E+00  0.59911982236E+03  0.24753984786E+04  0.24018020456E+04 0.  0.
        4    1    3    3  502    0  0.19297517406E+03 -0.78447014646E+03  0.12153414925E+04  0.14593455331E+04  0.12699999809E+01 0. -1.
       -4    1    3    3    0  502 -0.19297517406E+03  0.78447014646E+03 -0.61622167017E+03  0.10160529456E+04  0.12699999809E+01 0.  1.
</event>
<event>
 5   0  0.2149417E-06  0.2397232E+04  0.7818609E-02  0.8440540E-01
       -1   -1    0    0    0  501  0.00000000000E+00  0.00000000000E+00  0.85440598671E+03  0.85440598672E+03  0.50400001928E-02 0. -1.
        1   -1    0    0  501    0  0.00000000000E+00  0.00000000000E+00 -0.16814967272E+04  0.16814967272E+04  0.50400001928E-02 0.  1.
    10030    2    1    2    0    0  0.00000000000E+00  0.00000000000E+00 -0.82709074047E+03  0.25359027139E+04  0.23972324630E+04 0.  0.
        5    1    3    3  502    0  0.44020753099E+03  0.11937046234E+03 -0.15860982319E+04  0.16503822796E+04  0.46999998093E+01 0.  1.
       -5    1    3    3    0  502 -0.44020753099E+03 -0.11937046234E+03  0.75900749140E+03  0.88552043433E+03  0.46999998093E+01 0. -1.
</event>
<event>
 5   0  0.5371843E-06  0.2385460E+04  0.7818609E-02  0.8444967E-01
        2   -1    0    0  501    0  0.00000000000E+00  0.00000000000E+00  0.19729668128E+04  0.19729668128E+04  0.25500000920E-02 0. -1.
       -2   -1    0    0    0  501  0.00000000000E+00  0.00000000000E+00 -0.72104844528E+03  0.72104844528E+03  0.25500000920E-02 0.  1.
    10030    2    1    2    0    0  0.00000000000E+00  0.00000000000E+00  0.12519183675E+04  0.26940152580E+04  0.23854598323E+04 0.  0.
        4    1    3    3  502    0  0.30477035553E+03  0.18517242309E+03  0.19113488127E+04  0.19443327113E+04  0.12699999809E+01 0. -1.
       -4    1    3    3    0  502 -0.30477035553E+03 -0.18517242309E+03 -0.65943044518E+03  0.74968254669E+03  0.12699999809E+01 0.  1.
</event>
<event>
 5   0  0.2297414E-06  0.2373041E+04  0.7818609E-02  0.8449666E-01
       -1   -1    0    0    0  501  0.00000000000E+00  0.00000000000E+00  0.11600664684E+04  0.11600664684E+04  0.50400001928E-02 0. -1.
        1   -1    0    0  501    0  0.00000000000E+00  0.00000000000E+00 -0.12135775486E+04  0.12135775487E+04  0.50400001928E-02 0.  1.
    10030    2    1    2    0    0  0.00000000000E+00  0.00000000000E+00 -0.53511080272E+02  0.23736440170E+04  0.23730407674E+04 0.  0.
        1    1    3    3  502    0  0.10858036556E+04 -0.28539866459E+03 -0.41079147538E+03  0.11954796579E+04  0.50400001928E-02 0.  1.
       -1    1    3    3    0  502 -0.10858036556E+04  0.28539866459E+03  0.35728039511E+03  0.11781643591E+04  0.50400001928E-02 0. -1.
</event>
<event>
 5   0  0.5349036E-06  0.2414435E+04  0.7818609E-02  0.8434119E-01
       -2   -1    0    0    0  501  0.00000000000E+00  0.00000000000E+00  0.13265075466E+04  0.13265075466E+04  0.25500000920E-02 0.  1.
        2   -1    0    0  501    0  0.00000000000E+00  0.00000000000E+00 -0.10986548229E+04  0.10986548229E+04  0.25500000920E-02 0. -1.
    10030    2    1    2    0    0  0.00000000000E+00  0.00000000000E+00  0.22785272363E+03  0.24251623695E+04  0.24144348520E+04 0.  0.
        1    1    3    3  502    0 -0.59240579500E+03 -0.68587021712E+03 -0.68712019223E+03  0.11373199810E+04  0.50400001928E-02 0.  1.
       -1    1    3    3    0  502  0.59240579500E+03  0.68587021712E+03  0.91497291586E+03  0.12878423884E+04  0.50400001928E-02 0. -1.
</event>
<event>
 5   0  0.2215700E-06  0.2401529E+04  0.7818609E-02  0.8438931E-01
       -1   -1    0    0    0  501  0.00000000000E+00  0.00000000000E+00  0.28553467957E+04  0.28553467958E+04  0.50400001928E-02 0. -1.
        1   -1    0    0  501    0  0.00000000000E+00  0.00000000000E+00 -0.50495996462E+03  0.50495996464E+03  0.50400001928E-02 0.  1.
    10030    2    1    2    0    0  0.00000000000E+00  0.00000000000E+00  0.23503868311E+04  0.33603067604E+04  0.24015293602E+04 0.  0.
        3    1    3    3  502    0  0.65448927440E+03  0.13319886572E+03 -0.22105756573E+03  0.70353720989E+03  0.10100000352E+00 0.  1.
       -3    1    3    3    0  502 -0.65448927440E+03 -0.13319886572E+03  0.25714443969E+04  0.26567695505E+04  0.10100000352E+00 0. -1.
</event>
<event>
 5   0  0.5268358E-06  0.2401483E+04  0.7818609E-02  0.8438949E-01
       -2   -1    0    0    0  501  0.00000000000E+00  0.00000000000E+00  0.12513188903E+04  0.12513188903E+04  0.25500000920E-02 0. -1.
        2   -1    0    0  501    0  0.00000000000E+00  0.00000000000E+00 -0.11522082269E+04  0.11522082269E+04  0.25500000920E-02 0.  1.
    10030    2    1    2    0    0  0.00000000000E+00  0.00000000000E+00  0.99110663394E+02  0.24035271173E+04  0.24014828086E+04 0.  0.
        2    1    3    3  502    0  0.10114704612E+03 -0.11945457883E+04  0.11750682960E+03  0.12045655732E+04  0.25500000920E-02 0. -1.
       -2    1    3    3    0  502 -0.10114704612E+03  0.11945457883E+04 -0.18396166207E+02  0.11989615441E+04  0.25500000920E-02 0.  1.
</event>
<event>
 5   0  0.2297414E-06  0.2397183E+04  0.7818609E-02  0.8440559E-01
       -1   -1    0    0    0  501  0.00000000000E+00  0.00000000000E+00  0.61969600468E+03  0.61969600470E+03  0.50400001928E-02 0.  1.
        1   -1    0    0  501    0  0.00000000000E+00  0.00000000000E+00 -0.23182678919E+04  0.23182678919E+04  0.50400001928E-02 0. -1.
    10030    2    1    2    0    0  0.00000000000E+00  0.00000000000E+00 -0.16985718872E+04  0.29379638966E+04  0.23971828052E+04 0.  0.
        1    1    3    3  502    0  0.10180424071E+04  0.91777574690E+02 -0.82152702742E+02  0.10254669827E+04  0.50400001928E-02 0.  1.
       -1    1    3    3    0  502 -0.10180424071E+04 -0.91777574690E+02 -0.16164191845E+04  0.19124969139E+04  0.50400001928E-02 0. -1.
</event>
<event>
 5   0  0.2149417E-06  0.2403840E+04  0.7818609E-02  0.8438067E-01
       -1   -1    0    0    0  501  0.00000000000E+00  0.00000000000E+00  0.16317056129E+04  0.16317056129E+04  0.50400001928E-02 0. -1.
        1   -1    0    0  501    0  0.00000000000E+00  0.00000000000E+00 -0.88533868076E+03  0.88533868077E+03  0.50400001928E-02 0.  1.
    10030    2    1    2    0    0  0.00000000000E+00  0.00000000000E+00  0.74636693211E+03  0.25170442937E+04  0.24038403397E+04 0.  0.
        5    1    3    3  502    0  0.79937304778E+03  0.35248275498E+03 -0.49112732782E+03  0.10022322606E+04  0.46999998093E+01 0.  1.
       -5    1    3    3    0  502 -0.79937304778E+03 -0.35248275498E+03  0.12374942599E+04  0.15148120330E+04  0.46999998093E+01 0. -1.
</event>
<event>
 5   0  0.2297414E-06  0.2396816E+04  0.7818609E-02  0.8440696E-01
        1   -1    0    0  501    0  0.00000000000E+00  0.00000000000E+00  0.15509556169E+04  0.15509556169E+04  0.50400001928E-02 0. -1.
       -1   -1    0    0    0  501  0.00000000000E+00  0.00000000000E+00 -0.92599813281E+03  0.92599813283E+03  0.50400001928E-02 0.  1.
    10030    2    1    2    0    0  0.00000000000E+00  0.00000000000E+00  0.62495748407E+03  0.24769537497E+04  0.23968162260E+04 0.  0.
        1    1    3    3  502    0  0.79414783764E+03 -0.87484064146E+03  0.10536571228E+03  0.11862204135E+04  0.50400001928E-02 0. -1.
       -1    1    3    3    0  502 -0.79414783764E+03  0.87484064146E+03  0.51959177178E+03  0.12907333362E+04  0.50400001928E-02 0.  1.
</event>
<event>
 5   0  0.5379778E-06  0.2402274E+04  0.7818609E-02  0.8438653E-01
       -2   -1    0    0    0  501  0.00000000000E+00  0.00000000000E+00  0.88633053551E+03  0.88633053551E+03  0.25500000920E-02 0.  1.
        2   -1    0    0  501    0  0.00000000000E+00  0.00000000000E+00 -0.16277567375E+04  0.16277567375E+04  0.25500000920E-02 0. -1.
    10030    2    1    2    0    0  0.00000000000E+00  0.00000000000E+00 -0.74142620198E+03  0.25140872730E+04  0.24022743397E+04 0.  0.
        5    1    3    3  502    0 -0.72478344305E+03 -0.40094853245E+02 -0.13722239129E+04  0.15523978851E+04  0.46999998093E+01 0. -1.
       -5    1    3    3    0  502  0.72478344305E+03  0.40094853245E+02  0.63079771095E+03  0.96168938786E+03  0.46999998093E+01 0.  1.
</event>
<event>
 5   0  0.5440503E-06  0.2405815E+04  0.7818609E-02  0.8437330E-01
       -2   -1    0    0    0  501  0.00000000000E+00  0.00000000000E+00  0.11544665111E+04  0.11544665111E+04  0.25500000920E-02 0.  1.
        2   -1    0    0  501    0  0.00000000000E+00  0.00000000000E+00 -0.12533808844E+04  0.12533808844E+04  0.25500000920E-02 0. -1.
    10030    2    1    2    0    0  0.00000000000E+00  0.00000000000E+00 -0.98914373341E+02  0.24078473955E+04  0.24058148363E+04 0.  0.
        3    1    3    3  502    0  0.33662114569E+03 -0.10760179412E+04  0.37025118160E+03  0.11866820776E+04  0.10100000352E+00 0.  1.
       -3    1    3    3    0  502 -0.33662114569E+03  0.10760179412E+04 -0.46916555494E+03  0.12211653179E+04  0.10100000352E+00 0. -1.
</event>
<event>
 5   0  0.5349036E-06  0.2402475E+04  0.7818609E-02  0.8438578E-01
       -2   -1    0    0    0  501  0.00000000000E+00  0.00000000000E+00  0.84043162379E+03  0.84043162379E+03  0.25500000920E-02 0.  1.
        2   -1    0    0  501    0  0.00000000000E+00  0.00000000000E+00 -0.17169410554E+04  0.17169410554E+04  0.25500000920E-02 0. -1.
    10030    2    1    2    0    0  0.00000000000E+00  0.00000000000E+00 -0.87650943164E+03  0.25573726792E+04  0.24024750231E+04 0.  0.
        1    1    3    3  502    0 -0.60288539467E+03 -0.40089194674E+03 -0.14585888615E+04  0.16283938771E+04  0.50400001928E-02 0. -1.
       -1    1    3    3    0  502  0.60288539467E+03  0.40089194674E+03  0.58207942988E+03  0.92897880211E+03  0.50400001928E-02 0.  1.
</event>
<event>
 5   0  0.2254269E-06  0.2400146E+04  0.7818609E-02  0.8439449E-01
        1   -1    0    0  501    0  0.00000000000E+00  0.00000000000E+00  0.16052042252E+04  0.16052042252E+04  0.50400001928E-02 0.  1.
       -1   -1    0    0    0  501  0.00000000000E+00  0.00000000000E+00 -0.89719148786E+03  0.89719148787E+03  0.50400001928E-02 0. -1.
    10030    2    1    2    0    0  0.00000000000E+00  0.00000000000E+00  0.70801273729E+03  0.25023957130E+04  0.24001463015E+04 0.  0.
        2    1    3    3  502    0  0.11810968729E+04 -0.20592073004E+03  0.40900195064E+03  0.12667579745E+04  0.25500000920E-02 0.  1.
       -2    1    3    3    0  502 -0.11810968729E+04  0.20592073004E+03  0.29901078666E+03  0.12356377385E+04  0.25500000920E-02 0. -1.
</event>
<event>
 5   0  0.2297414E-06  0.2399542E+04  0.7818609E-02  0.8439675E-01
        1   -1    0    0  501    0  0.00000000000E+00  0.00000000000E+00  0.16417767548E+04  0.16417767548E+04  0.50400001928E-02 0. -1.
       -1   -1    0    0    0  501  0.00000000000E+00  0.00000000000E+00 -0.87676362492E+03  0.87676362494E+03  0.50400001928E-02 0.  1.
    10030    2    1    2    0    0  0.00000000000E+00  0.00000000000E+00  0.76501312988E+03  0.25185403798E+04  0.23995417387E+04 0.  0.
        1    1    3    3  502    0 -0.98312254621E+03 -0.33248729763E+03  0.10143335388E+04  0.14511892612E+04  0.50400001928E-02 0. -1.
       -1    1    3    3    0  502  0.98312254621E+03  0.33248729763E+03 -0.24932040889E+03  0.10673511185E+04  0.50400001928E-02 0.  1.
</event>
<event>
 5   0  0.5379778E-06  0.2403564E+04  0.7818609E-02  0.8438171E-01
        2   -1    0    0  501    0  0.00000000000E+00  0.00000000000E+00  0.13650747559E+04  0.13650747559E+04  0.25500000920E-02 0.  1.
       -2   -1    0    0    0  501  0.00000000000E+00  0.00000000000E+00 -0.10580222401E+04  0.10580222401E+04  0.25500000920E-02 0. -1.
    10030    2    1    2    0    0  0.00000000000E+00  0.00000000000E+00  0.30705251584E+03  0.24230969961E+04  0.24035635637E+04 0.  0.
        5    1    3    3  502    0 -0.81406895295E+03 -0.42993485894E+03 -0.62521837917E+03  0.11128667282E+04  0.46999998093E+01 0. -1.
       -5    1    3    3    0  502  0.81406895295E+03  0.42993485894E+03  0.93227089502E+03  0.13102302678E+04  0.46999998093E+01 0.  1.
</event>
<event>
 5   0  0.2149417E-06  0.2400176E+04  0.7818609E-02  0.8439438E-01
       -1   -1    0    0    0  501  0.00000000000E+00  0.00000000000E+00  0.65218106672E+03  0.65218106674E+03  0.50400001928E-02 0. -1.
        1   -1    0    0  501    0  0.00000000000E+00  0.00000000000E+00 -0.22082994711E+04  0.22082994711E+04  0.50400001928E-02 0.  1.
    10030    2    1    2    0    0  0.00000000000E+00  0.00000000000E+00 -0.15561184044E+04  0.28604805378E+04  0.24001759142E+04 0.  0.
        5    1    3    3  502    0 -0.10496265338E+04  0.55103835019E+03 -0.10004782523E+04  0.15512375534E+04  0.46999998093E+01 0.  1.
       -5    1    3    3    0  502  0.10496265338E+04 -0.55103835019E+03 -0.55564015209E+03  0.13092429845E+04  0.46999998093E+01 0. -1.
</event>
<event>
 5   0  0.2149029E-06  0.2401005E+04  0.7818609E-02  0.8439127E-01
        1   -1    0    0  501    0  0.00000000000E+00  0.00000000000E+00  0.94857379680E+03  0.94857379681E+03  0.50400001928E-02 0. -1.
       -1   -1    0    0    0  501  0.00000000000E+00  0.00000000000E+00 -0.15193406695E+04  0.15193406695E+04  0.50400001928E-02 0.  1.
    10030    2    1    2    0    0  0.00000000000E+00  0.00000000000E+00 -0.57076687269E+03  0.24679144663E+04  0.24010054123E+04 0.  0.
        4    1    3    3  502    0  0.26162554955E+03 -0.10416925652E+04  0.26587713225E+03  0.11064644553E+04  0.12699999809E+01 0. -1.
       -4    1    3    3    0  502 -0.26162554955E+03  0.10416925652E+04 -0.83664400495E+03  0.13614500110E+04  0.12699999809E+01 0.  1.
</event>
<event>
 5   0  0.5379778E-06  0.2401836E+04  0.7818609E-02  0.8438816E-01
        2   -1    0    0  501    0  0.00000000000E+00  0.00000000000E+00  0.12709141021E+04  0.12709141021E+04  0.25500000920E-02 0. -1.
       -2   -1    0    0    0  501  0.00000000000E+00  0.00000000000E+00 -0.11347772430E+04  0.11347772430E+04  0.25500000920E-02 0.  1.
    10030    2    1    2    0    0  0.00000000000E+00  0.00000000000E+00  0.13613685919E+03  0.24056913451E+04  0.24018362982E+04 0.  0.
        5    1    3    3  502    0 -0.95010525987E+03  0.45125913746E+03 -0.51238523816E+03  0.11699980924E+04  0.46999998093E+01 0.  1.
       -5    1    3    3    0  502  0.95010525987E+03 -0.45125913746E+03  0.64852209735E+03  0.12356932527E+04  0.46999998093E+01 0. -1.
</event>
<event>
 5   0  0.1796750E-06  0.2403041E+04  0.7818609E-02  0.8438366E-01
       -3   -1    0    0    0  501  0.00000000000E+00  0.00000000000E+00  0.73085531208E+03  0.73085531906E+03  0.10100000352E+00 0.  1.
        3   -1    0    0  501    0  0.00000000000E+00  0.00000000000E+00 -0.19752905535E+04  0.19752905561E+04  0.10100000352E+00 0. -1.
    10030    2    1    2    0    0  0.00000000000E+00  0.00000000000E+00 -0.12444352414E+04  0.27061458752E+04  0.24030410790E+04 0.  0.
        1    1    3    3  502    0 -0.48415592989E+03  0.10827928526E+04 -0.40617512934E+03  0.12537246754E+04  0.50400001928E-02 0. -1.
       -1    1    3    3    0  502  0.48415592989E+03 -0.10827928526E+04 -0.83826011210E+03  0.14524211998E+04  0.50400001928E-02 0.  1.
</event>
<event>
 5   0  0.5379778E-06  0.2400314E+04  0.7818609E-02  0.8439386E-01
        2   -1    0    0  501    0  0.00000000000E+00  0.00000000000E+00  0.14579422156E+04  0.14579422156E+04  0.25500000920E-02 0.  1.
       -2   -1    0    0    0  501  0.00000000000E+00  0.00000000000E+00 -0.98795164049E+03  0.98795164049E+03  0.25500000920E-02 0. -1.
    10030    2    1    2    0    0  0.00000000000E+00  0.00000000000E+00  0.46999057511E+03  0.24458938561E+04  0.24003136492E+04 0.  0.
        5    1    3    3  502    0 -0.30770012226E+02 -0.92091389806E+03  0.10185742597E+04  0.13735154946E+04  0.46999998093E+01 0.  1.
       -5    1    3    3    0  502  0.30770012226E+02  0.92091389806E+03 -0.54858368459E+03  0.10723783615E+04  0.46999998093E+01 0. -1.
</event>
<event>
 5   0  0.5371843E-06  0.2400142E+04  0.7818609E-02  0.8439450E-01
        2   -1    0    0  501    0  0.00000000000E+00  0.00000000000E+00  0.15072780452E+04  0.15072780452E+04  0.25500000920E-02 0. -1.
       -2   -1    0    0    0  501  0.00000000000E+00  0.00000000000E+00 -0.95547772972E+03  0.95547772973E+03  0.25500000920E-02 0.  1.
    10030    2    1    2    0    0  0.00000000000E+00  0.00000000000E+00  0.55180031544E+03  0.24627557749E+04  0.24001421663E+04 0.  0.
        4    1    3    3  502    0  0.50672326134E+01 -0.18957220108E+03 -0.94000512242E+03  0.95894449232E+03  0.12699999809E+01 0.  1.
       -4    1    3    3    0  502 -0.50672326134E+01  0.18957220108E+03  0.14918054379E+04  0.15038112826E+04  0.12699999809E+01 0. -1.
</event>
<event>
 5   0  0.5349036E-06  0.2405746E+04  0.7818609E-02  0.8437355E-01
       -2   -1    0    0    0  501  0.00000000000E+00  0.00000000000E+00  0.13745007588E+04  0.13745007588E+04  0.25500000920E-02 0.  1.
        2   -1    0    0  501    0  0.00000000000E+00  0.00000000000E+00 -0.10526758736E+04  0.10526758736E+04  0.25500000920E-02 0. -1.
    10030    2    1    2    0    0  0.00000000000E+00  0.00000000000E+00  0.32182488524E+03  0.24271766324E+04  0.24057462767E+04 0.  0.
        1    1    3    3  502    0 -0.80271772746E+03 -0.30235171485E+03 -0.68988565724E+03  0.11007790557E+04  0.50400001928E-02 0. -1.
       -1    1    3    3    0  502  0.80271772746E+03  0.30235171485E+03  0.10117105425E+04  0.13263975766E+04  0.50400001928E-02 0.  1.
</event>
<event>
 5   0  0.5349036E-06  0.2399973E+04  0.7818609E-02  0.8439514E-01
       -2   -1    0    0    0  501  0.00000000000E+00  0.00000000000E+00  0.95694173146E+03  0.95694173146E+03  0.25500000920E-02 0.  1.
        2   -1    0    0  501    0  0.00000000000E+00  0.00000000000E+00 -0.15047593733E+04  0.15047593733E+04  0.25500000920E-02 0. -1.
    10030    2    1    2    0    0  0.00000000000E+00  0.00000000000E+00 -0.54781764186E+03  0.24617011048E+04  0.23999725333E+04 0.  0.
        1    1    3    3  502    0 -0.33727338940E+02 -0.11908883370E+04 -0.12663851370E+03  0.11980775759E+04  0.50400001928E-02 0. -1.
       -1    1    3    3    0  502  0.33727338940E+02  0.11908883370E+04 -0.42117912816E+03  0.12636235289E+04  0.50400001928E-02 0.  1.
</event>
<event>
 5   0  0.2254269E-06  0.2403591E+04  0.7818609E-02  0.8438160E-01
        1   -1    0    0  501    0  0.00000000000E+00  0.00000000000E+00  0.17784370045E+04  0.17784370045E+04  0.50400001928E-02 0. -1.
       -1   -1    0    0    0  501  0.00000000000E+00  0.00000000000E+00 -0.81212478351E+03  0.81212478353E+03  0.50400001928E-02 0.  1.
    10030    2    1    2    0    0  0.00000000000E+00  0.00000000000E+00  0.96631222100E+03  0.25905617881E+04  0.24035912858E+04 0.  0.
        2    1    3    3  502    0 -0.99297317068E+03 -0.14775364434E+03  0.11952191586E+04  0.15608893920E+04  0.25500000920E-02 0. -1.
       -2    1    3    3    0  502  0.99297317068E+03  0.14775364434E+03 -0.22890693755E+03  0.10296723960E+04  0.25500000920E-02 0.  1.
</event>
<event>
 5   0  0.5349036E-06  0.2397796E+04  0.7818609E-02  0.8440329E-01
       -2   -1    0    0    0  501  0.00000000000E+00  0.00000000000E+00  0.64239047206E+03  0.64239047207E+03  0.25500000920E-02 0. -1.
        2   -1    0    0  501    0  0.00000000000E+00  0.00000000000E+00 -0.22375115845E+04  0.22375115845E+04  0.25500000920E-02 0.  1.
    10030    2    1    2    0    0  0.00000000000E+00  0.00000000000E+00 -0.15951211124E+04  0.28799020566E+04  0.23977957570E+04 0.  0.
        1    1    3    3  502    0 -0.21610490937E+02  0.52859125409E+03 -0.20897385859E+04  0.21556630267E+04  0.50400001928E-02 0.  1.
       -1    1    3    3    0  502  0.21610490937E+02 -0.52859125409E+03  0.49461747350E+03  0.72423902984E+03  0.50400001928E-02 0. -1.
</event>
<event>
 5   0  0.2149417E-06  0.2399225E+04  0.7818609E-02  0.8439794E-01
       -1   -1    0    0    0  501  0.00000000000E+00  0.00000000000E+00  0.17531851964E+04  0.17531851964E+04  0.50400001928E-02 0. -1.
        1   -1    0    0  501    0  0.00000000000E+00  0.00000000000E+00 -0.82083200926E+03  0.82083200928E+03  0.50400001928E-02 0.  1.
    10030    2    1    2    0    0  0.00000000000E+00  0.00000000000E+00  0.93235318714E+03  0.25740172057E+04  0.23992253145E+04 0.  0.
        5    1    3    3  502    0  0.41889615412E+03  0.88105835399E+03  0.12151102561E+04  0.15582852228E+04  0.46999998093E+01 0.  1.
       -5    1    3    3    0  502 -0.41889615412E+03 -0.88105835399E+03 -0.28275706894E+03  0.10157319829E+04  0.46999998093E+01 0. -1.
</event>
<event>
 5   0  0.2215700E-06  0.2403433E+04  0.7818609E-02  0.8438219E-01
        1   -1    0    0  501    0  0.00000000000E+00  0.00000000000E+00  0.11963469496E+04  0.11963469496E+04  0.50400001928E-02 0. -1.
       -1   -1    0    0    0  501  0.00000000000E+00  0.00000000000E+00 -0.12071106292E+04  0.12071106292E+04  0.50400001928E-02 0.  1.
    10030    2    1    2    0    0  0.00000000000E+00  0.00000000000E+00 -0.10763679572E+02  0.24034575788E+04  0.24034334765E+04 0.  0.
        3    1    3    3  502    0 -0.11148809226E+04  0.15984547411E+03  0.41368448421E+03  0.11998520366E+04  0.10100000352E+00 0. -1.
       -3    1    3    3    0  502  0.11148809226E+04 -0.15984547411E+03 -0.42444816379E+03  0.12036055421E+04  0.10100000352E+00 0.  1.
</event>
<event>
 5   0  0.5371843E-06  0.2401716E+04  0.7818609E-02  0.8438861E-01
        2   -1    0    0  501    0  0.00000000000E+00  0.00000000000E+00  0.19367222938E+04  0.19367222938E+04  0.25500000920E-02 0.  1.
       -2   -1    0    0    0  501  0.00000000000E+00  0.00000000000E+00 -0.74458781850E+03  0.74458781850E+03  0.25500000920E-02 0. -1.
    10030    2    1    2    0    0  0.00000000000E+00  0.00000000000E+00  0.11921344753E+04  0.26813101123E+04  0.24017159097E+04 0.  0.
        4    1    3    3  502    0 -0.56464069279E+03  0.33807319801E+03  0.17174639792E+04  0.18392380846E+04  0.12699999809E+01 0.  1.
       -4    1    3    3    0  502  0.56464069279E+03 -0.33807319801E+03 -0.52532950393E+03  0.84207202766E+03  0.12699999809E+01 0. -1.
</event>
<event>
 5   0  0.2297414E-06  0.2384281E+04  0.7818609E-02  0.8445412E-01
        1   -1    0    0  501    0  0.00000000000E+00  0.00000000000E+00  0.12296749317E+04  0.12296749317E+04  0.50400001928E-02 0.  1.
       -1   -1    0    0    0  501  0.00000000000E+00  0.00000000000E+00 -0.11557516407E+04  0.11557516407E+04  0.50400001928E-02 0. -1.
    10030    2    1    2    0    0  0.00000000000E+00  0.00000000000E+00  0.73923290930E+02  0.23854265724E+04  0.23842808726E+04 0.  0.
        1    1    3    3  502    0 -0.99537963330E+03  0.65480700610E+03 -0.36286548001E+01  0.11914554112E+04  0.50400001928E-02 0.  1.
       -1    1    3    3    0  502  0.99537963330E+03 -0.65480700610E+03  0.77551945730E+02  0.11939711613E+04  0.50400001928E-02 0. -1.
</event>
<event>
 5   0  0.5440503E-06  0.2396882E+04  0.7818609E-02  0.8440672E-01
       -2   -1    0    0    0  501  0.00000000000E+00  0.00000000000E+00  0.99243452825E+03  0.99243452825E+03  0.25500000920E-02 0. -1.
        2   -1    0    0  501    0  0.00000000000E+00  0.00000000000E+00 -0.14472098052E+04  0.14472098052E+04  0.25500000920E-02 0.  1.
    10030    2    1    2    0    0  0.00000000000E+00  0.00000000000E+00 -0.45477527698E+03  0.24396443335E+04  0.23968821250E+04 0.  0.
        3    1    3    3  502    0  0.11190461565E+04  0.23118076869E+03 -0.59515383459E+03  0.12883776407E+04  0.10100000352E+00 0.  1.
       -3    1    3    3    0  502 -0.11190461565E+04 -0.23118076869E+03  0.14037855761E+03  0.11512666927E+04  0.10100000352E+00 0. -1.
</event>
<event>
 5   0  0.5440503E-06  0.2403924E+04  0.7818609E-02  0.8438036E-01
        2   -1    0    0  501    0  0.00000000000E+00  0.00000000000E+00  0.30730591507E+04  0.30730591507E+04  0.25500000920E-02 0. -1.
       -2   -1    0    0    0  501  0.00000000000E+00  0.00000000000E+00 -0.47012211875E+03  0.47012211875E+03  0.25500000920E-02 0.  1.
    10030    2    1    2    0    0  0.00000000000E+00  0.00000000000E+00  0.26029370319E+04  0.35431812694E+04  0.24039243573E+04 0.  0.
        3    1    3    3  502    0  0.11572083253E+04  0.72090778084E+02  0.83447943482E+03  0.14285251576E+04  0.10100000352E+00 0.  1.
       -3    1    3    3    0  502 -0.11572083253E+04 -0.72090778084E+02  0.17684575971E+04  0.21146561118E+04  0.10100000352E+00 0. -1.
</event>
<event>
 5   0  0.5440503E-06  0.2400032E+04  0.7818609E-02  0.8439492E-01
        2   -1    0    0  501    0  0.00000000000E+00  0.00000000000E+00  0.11389521665E+04  0.11389521665E+04  0.25500000920E-02 0. -1.
       -2   -1    0    0    0  501  0.00000000000E+00  0.00000000000E+00 -0.12643532841E+04  0.12643532841E+04  0.25500000920E-02 0.  1.
    10030    2    1    2    0    0  0.00000000000E+00  0.00000000000E+00 -0.12540111757E+03  0.24033054506E+04  0.24000315932E+04 0.  0.
        3    1    3    3  502    0 -0.10572911609E+04 -0.51475716727E+03  0.17678746904E+03  0.11891565749E+04  0.10100000352E+00 0.  1.
       -3    1    3    3    0  502  0.10572911609E+04  0.51475716727E+03 -0.30218858662E+03  0.12141488757E+04  0.10100000352E+00 0. -1.
</event>
<event>
 5   0  0.2254269E-06  0.2363291E+04  0.7818609E-02  0.8453376E-01
       -1   -1    0    0    0  501  0.00000000000E+00  0.00000000000E+00  0.10398130063E+04  0.10398130063E+04  0.50400001928E-02 0. -1.
        1   -1    0    0  501    0  0.00000000000E+00  0.00000000000E+00 -0.13428240411E+04  0.13428240411E+04  0.50400001928E-02 0.  1.
    10030    2    1    2    0    0  0.00000000000E+00  0.00000000000E+00 -0.30301103482E+03  0.23826370475E+04  0.23632908439E+04 0.  0.
        2    1    3    3  502    0  0.26274142839E+03  0.96874353796E+03  0.47712808572E+03  0.11113722647E+04  0.25500000920E-02 0. -1.
       -2    1    3    3    0  502 -0.26274142839E+03 -0.96874353796E+03 -0.78013912054E+03  0.12712647828E+04  0.25500000920E-02 0.  1.
</event>
<event>
 5   0  0.5379778E-06  0.2400001E+04  0.7818609E-02  0.8439503E-01
       -2   -1    0    0    0  501  0.00000000000E+00  0.00000000000E+00  0.12247885565E+04  0.12247885565E+04  0.25500000920E-02 0.  1.
        2   -1    0    0  501    0  0.00000000000E+00  0.00000000000E+00 -0.11757143736E+04  0.11757143736E+04  0.25500000920E-02 0. -1.
    10030    2    1    2    0    0  0.00000000000E+00  0.00000000000E+00  0.49074182869E+02  0.24005029301E+04  0.24000012588E+04 0.  0.
        5    1    3    3  502    0  0.91263807561E+03 -0.58522103123E+03  0.53902531567E+03  0.12107692982E+04  0.46999998093E+01 0.  1.
       -5    1    3    3    0  502 -0.91263807561E+03  0.58522103123E+03 -0.48995113280E+03  0.11897336319E+04  0.46999998093E+01 0. -1.
</event>
<event>
 5   0  0.5379778E-06  0.2398018E+04  0.7818609E-02  0.8440246E-01
        2   -1    0    0  501    0  0.00000000000E+00  0.00000000000E+00  0.13401771722E+04  0.13401771722E+04  0.25500000920E-02 0. -1.
       -2   -1    0    0    0  501  0.00000000000E+00  0.00000000000E+00 -0.10727109259E+04  0.10727109259E+04  0.25500000920E-02 0.  1.
    10030    2    1    2    0    0  0.00000000000E+00  0.00000000000E+00  0.26746624629E+03  0.24128880981E+04  0.23980180944E+04 0.  0.
        5    1    3    3  502    0  0.29036370762E+03  0.83949226243E+02 -0.10337384139E+04  0.10770309901E+04  0.46999998093E+01 0.  1.
       -5    1    3    3    0  502 -0.29036370762E+03 -0.83949226243E+02  0.13012046602E+04  0.13358571080E+04  0.46999998093E+01 0. -1.
</event>
<event>
 5   0  0.5371843E-06  0.2398315E+04  0.7818609E-02  0.8440135E-01
        2   -1    0    0  501    0  0.00000000000E+00  0.00000000000E+00  0.16803354615E+04  0.16803354615E+04  0.25500000920E-02 0.  1.
       -2   -1    0    0    0  501  0.00000000000E+00  0.00000000000E+00 -0.85576881097E+03  0.85576881098E+03  0.25500000920E-02 0. -1.
    10030    2    1    2    0    0  0.00000000000E+00  0.00000000000E+00  0.82456665052E+03  0.25361042725E+04  0.23983149751E+04 0.  0.
        4    1    3    3  502    0 -0.46290060162E+03  0.11054456395E+04  0.45575527668E+03  0.12821862244E+04  0.12699999809E+01 0.  1.
       -4    1    3    3    0  502  0.46290060162E+03 -0.11054456395E+04  0.36881137384E+03  0.12539180481E+04  0.12699999809E+01 0. -1.
</event>
<event>
 5   0  0.5371843E-06  0.2394292E+04  0.7818609E-02  0.8441644E-01
        2   -1    0    0  501    0  0.00000000000E+00  0.00000000000E+00  0.12380770684E+04  0.12380770684E+04  0.25500000920E-02 0. -1.
       -2   -1    0    0    0  501  0.00000000000E+00  0.00000000000E+00 -0.11575683753E+04  0.11575683753E+04  0.25500000920E-02 0.  1.
    10030    2    1    2    0    0  0.00000000000E+00  0.00000000000E+00  0.80508693079E+02  0.23956454438E+04  0.23942922634E+04 0.  0.
        4    1    3    3  502    0 -0.45967144095E+01 -0.31816135827E+03 -0.11144817281E+04  0.11590163566E+04  0.12699999809E+01 0.  1.
       -4    1    3    3    0  502  0.45967144095E+01  0.31816135827E+03  0.11949904212E+04  0.12366290872E+04  0.12699999809E+01 0. -1.
</event>
<event>
 5   0  0.2149029E-06  0.2399700E+04  0.7818609E-02  0.8439616E-01
        1   -1    0    0  501    0  0.00000000000E+00  0.00000000000E+00  0.94886000196E+03  0.94886000197E+03  0.50400001928E-02 0.  1.
       -1   -1    0    0    0  501  0.00000000000E+00  0.00000000000E+00 -0.15172307518E+04  0.15172307518E+04  0.50400001928E-02 0. -1.
    10030    2    1    2    0    0  0.00000000000E+00  0.00000000000E+00 -0.56837074986E+03  0.24660907538E+04  0.23996996263E+04 0.  0.
        4    1    3    3  502    0 -0.28823560293E+03  0.92434810979E+03  0.44403704981E+03  0.10652087614E+04  0.12699999809E+01 0. -1.
       -4    1    3    3    0  502  0.28823560293E+03 -0.92434810979E+03 -0.10124077997E+04  0.14008819924E+04  0.12699999809E+01 0.  1.
</event>
<event>
 5   0  0.5440503E-06  0.2369297E+04  0.7818609E-02  0.8451088E-01
       -2   -1    0    0    0  501  0.00000000000E+00  0.00000000000E+00  0.19463366169E+04  0.19463366169E+04  0.25500000920E-02 0. -1.
        2   -1    0    0  501    0  0.00000000000E+00  0.00000000000E+00 -0.72104298252E+03  0.72104298253E+03  0.25500000920E-02 0.  1.
    10030    2    1    2    0    0  0.00000000000E+00  0.00000000000E+00  0.12252936344E+04  0.26673795994E+04  0.23692972454E+04 0.  0.
        3    1    3    3  502    0  0.77738044474E+03  0.73224362497E+03  0.35410887804E+02  0.10685293741E+04  0.10100000352E+00 0.  1.
       -3    1    3    3    0  502 -0.77738044474E+03 -0.73224362497E+03  0.11898827466E+04  0.15988502253E+04  0.10100000352E+00 0. -1.
</event>
<event>
 5   0  0.2149029E-06  0.2399851E+04  0.7818609E-02  0.8439559E-01
       -1   -1    0    0    0  501  0.00000000000E+00  0.00000000000E+00  0.67589359602E+03  0.67589359604E+03  0.50400001928E-02 0. -1.
        1   -1    0    0  501    0  0.00000000000E+00  0.00000000000E+00 -0.21302485096E+04  0.21302485096E+04  0.50400001928E-02 0.  1.
    10030    2    1    2    0    0  0.00000000000E+00  0.00000000000E+00 -0.14543549136E+04  0.28061421056E+04  0.23998511000E+04 0.  0.
        4    1    3    3  502    0 -0.95794463600E+03  0.32139565548E+02 -0.15712852619E+04  0.18405515109E+04  0.12699999809E+01 0.  1.
       -4    1    3    3    0  502  0.95794463600E+03 -0.32139565548E+02  0.11693034830E+03  0.96559059470E+03  0.12699999809E+01 0. -1.
</event>
<event>
 5   0  0.5349036E-06  0.2391206E+04  0.7818609E-02  0.8442803E-01
        2   -1    0    0  501    0  0.00000000000E+00  0.00000000000E+00  0.14481540488E+04  0.14481540488E+04  0.25500000920E-02 0.  1.
       -2   -1    0    0    0  501  0.00000000000E+00  0.00000000000E+00 -0.98709601481E+03  0.98709601482E+03  0.25500000920E-02 0. -1.
    10030    2    1    2    0    0  0.00000000000E+00  0.00000000000E+00  0.46105803403E+03  0.24352500637E+04  0.23912064657E+04 0.  0.
        1    1    3    3  502    0  0.66931684971E+02  0.67069633831E+03  0.12362164308E+04  0.14080285837E+04  0.50400001928E-02 0.  1.
       -1    1    3    3    0  502 -0.66931684971E+02 -0.67069633831E+03 -0.77515839681E+03  0.10272214799E+04  0.50400001928E-02 0. -1.
</event>
<event>
 5   0  0.5268358E-06  0.2400375E+04  0.7818609E-02  0.8439363E-01
       -2   -1    0    0    0  501  0.00000000000E+00  0.00000000000E+00  0.16190335527E+04  0.16190335527E+04  0.25500000920E-02 0.  1.
        2   -1    0    0  501    0  0.00000000000E+00  0.00000000000E+00 -0.88969778946E+03  0.88969778947E+03  0.25500000920E-02 0. -1.
    10030    2    1    2    0    0  0.00000000000E+00  0.00000000000E+00  0.72933576322E+03  0.25087313421E+04  0.24003754480E+04 0.  0.
        2    1    3    3  502    0 -0.10811593294E+04  0.45455022763E+03  0.63098243376E+03  0.13317883603E+04  0.25500000920E-02 0. -1.
       -2    1    3    3    0  502  0.10811593294E+04 -0.45455022763E+03  0.98353329464E+02  0.11769429818E+04  0.25500000920E-02 0.  1.
</event>
<event>
 5   0  0.2297414E-06  0.2394244E+04  0.7818609E-02  0.8441662E-01
       -1   -1    0    0    0  501  0.00000000000E+00  0.00000000000E+00  0.69662980161E+03  0.69662980163E+03  0.50400001928E-02 0.  1.
        1   -1    0    0  501    0  0.00000000000E+00  0.00000000000E+00 -0.20571916871E+04  0.20571916871E+04  0.50400001928E-02 0. -1.
    10030    2    1    2    0    0  0.00000000000E+00  0.00000000000E+00 -0.13605618855E+04  0.27538214887E+04  0.23942439616E+04 0.  0.
        1    1    3    3  502    0  0.10556972490E+04  0.53127243463E+03 -0.89958325966E+03  0.14852599511E+04  0.50400001928E-02 0.  1.
       -1    1    3    3    0  502 -0.10556972490E+04 -0.53127243463E+03 -0.46097862584E+03  0.12685615376E+04  0.50400001928E-02 0. -1.
</event>
<event>
 5   0  0.2254269E-06  0.2398988E+04  0.7818609E-02  0.8439882E-01
       -1   -1    0    0    0  501  0.00000000000E+00  0.00000000000E+00  0.83645884532E+03  0.83645884534E+03  0.50400001928E-02 0.  1.
        1   -1    0    0  501    0  0.00000000000E+00  0.00000000000E+00 -0.17200917944E+04  0.17200917944E+04  0.50400001928E-02 0. -1.
    10030    2    1    2    0    0  0.00000000000E+00  0.00000000000E+00 -0.88363294905E+03  0.25565506397E+04  0.23989881169E+04 0.  0.
        2    1    3    3  502    0 -0.99005998576E+03  0.34225336015E+03 -0.10645138736E+04  0.14935012303E+04  0.25500000920E-02 0. -1.
       -2    1    3    3    0  502  0.99005998576E+03 -0.34225336015E+03  0.18088092454E+03  0.10630494094E+04  0.25500000920E-02 0.  1.
</event>
<event>
 5   0  0.5371843E-06  0.2403424E+04  0.7818609E-02  0.8438223E-01
       -2   -1    0    0    0  501  0.00000000000E+00  0.00000000000E+00  0.15903647086E+04  0.15903647086E+04  0.25500000920E-02 0.  1.
        2   -1    0    0  501    0  0.00000000000E+00  0.00000000000E+00 -0.90803788999E+03  0.90803789000E+03  0.25500000920E-02 0. -1.
    10030    2    1    2    0    0  0.00000000000E+00  0.00000000000E+00  0.68232681860E+03  0.24984025986E+04  0.24034237365E+04 0.  0.
        4    1    3    3  502    0  0.36982949755E+03  0.11298326398E+04  0.15868681188E+03  0.11993659860E+04  0.12699999809E+01 0. -1.
       -4    1    3    3    0  502 -0.36982949755E+03 -0.11298326398E+04  0.52364000672E+03  0.12990366126E+04  0.12699999809E+01 0.  1.
</event>
<event>
 5   0  0.5371843E-06  0.2401992E+04  0.7818609E-02  0.8438758E-01
        2   -1    0    0  501    0  0.00000000000E+00  0.00000000000E+00  0.20597433752E+04  0.20597433752E+04  0.25500000920E-02 0. -1.
       -2   -1    0    0    0  501  0.00000000000E+00  0.00000000000E+00 -0.70027740948E+03  0.70027740948E+03  0.25500000920E-02 0.  1.
    10030    2    1    2    0    0  0.00000000000E+00  0.00000000000E+00  0.13594659658E+04  0.27600207847E+04  0.24019923022E+04 0.  0.
        4    1    3    3  502    0  0.17695730564E+03  0.78374770461E+03  0.17054314513E+04  0.18852247613E+04  0.12699999809E+01 0. -1.
       -4    1    3    3    0  502 -0.17695730564E+03 -0.78374770461E+03 -0.34596548557E+03  0.87479602343E+03  0.12699999809E+01 0.  1.
</event>
<event>
 5   0  0.2149029E-06  0.2405072E+04  0.7818609E-02  0.8437607E-01
       -1   -1    0    0    0  501  0.00000000000E+00  0.00000000000E+00  0.10251783793E+04  0.10251783794E+04  0.50400001928E-02 0.  1.
        1   -1    0    0  501    0  0.00000000000E+00  0.00000000000E+00 -0.14105773661E+04  0.14105773661E+04  0.50400001928E-02 0. -1.
    10030    2    1    2    0    0  0.00000000000E+00  0.00000000000E+00 -0.38539898671E+03  0.24357557454E+04  0.24050724880E+04 0.  0.
        4    1    3    3  502    0  0.11783660483E+04  0.13459758691E+03  0.84005089428E+01  0.11860586982E+04  0.12699999809E+01 0. -1.
       -4    1    3    3    0  502 -0.11783660483E+04 -0.13459758691E+03 -0.39379949565E+03  0.12496970472E+04  0.12699999809E+01 0.  1.
</event>
<event>
 5   0  0.2254269E-06  0.2399466E+04  0.7818609E-02  0.8439704E-01
       -1   -1    0    0    0  501  0.00000000000E+00  0.00000000000E+00  0.16646221116E+04  0.16646221116E+04  0.50400001928E-02 0. -1.
        1   -1    0    0  501    0  0.00000000000E+00  0.00000000000E+00 -0.86467616939E+03  0.86467616941E+03  0.50400001928E-02 0.  1.
    10030    2    1    2    0    0  0.00000000000E+00  0.00000000000E+00  0.79994594221E+03  0.25292982810E+04  0.23994658330E+04 0.  0.
        2    1    3    3  502    0  0.40971670995E+03 -0.36532313838E+03 -0.72453461597E+03  0.90899900307E+03  0.25500000920E-02 0.  1.
       -2    1    3    3    0  502 -0.40971670995E+03  0.36532313838E+03  0.15244805582E+04  0.16202992779E+04  0.25500000920E-02 0. -1.
</event>
<event>
 5   0  0.5379778E-06  0.2400407E+04  0.7818609E-02  0.8439351E-01
       -2   -1    0    0    0  501  0.00000000000E+00  0.00000000000E+00  0.78476738691E+03  0.78476738691E+03  0.25500000920E-02 0. -1.
        2   -1    0    0  501    0  0.00000000000E+00  0.00000000000E+00 -0.18355611223E+04  0.18355611223E+04  0.25500000920E-02 0.  1.
    10030    2    1    2    0    0  0.00000000000E+00  0.00000000000E+00 -0.10507937354E+04  0.26203285092E+04  0.24004070534E+04 0.  0.
        5    1    3    3  502    0  0.88146996948E+03 -0.81013551635E+03 -0.61775032327E+03  0.13471994707E+04  0.46999998093E+01 0.  1.
       -5    1    3    3    0  502 -0.88146996948E+03  0.81013551635E+03 -0.43304341213E+03  0.12731290385E+04  0.46999998093E+01 0. -1.
</event>
<event>
 5   0  0.2254269E-06  0.2399930E+04  0.7818609E-02  0.8439530E-01
       -1   -1    0    0    0  501  0.00000000000E+00  0.00000000000E+00  0.12733536918E+04  0.12733536918E+04  0.50400001928E-02 0.  1.
        1   -1    0    0  501    0  0.00000000000E+00  0.00000000000E+00 -0.11308055522E+04  0.11308055523E+04  0.50400001928E-02 0. -1.
    10030    2    1    2    0    0  0.00000000000E+00  0.00000000000E+00  0.14254813951E+03  0.24041592440E+04  0.23999295195E+04 0.  0.
        2    1    3    3  502    0 -0.38182457580E+02 -0.58172095670E+03  0.11219591971E+04  0.12643771634E+04  0.25500000920E-02 0.  1.
       -2    1    3    3    0  502  0.38182457580E+02  0.58172095670E+03 -0.97941105757E+03  0.11397820806E+04  0.25500000920E-02 0. -1.
</event>
<event>
 5   0  0.2149417E-06  0.2402526E+04  0.7818609E-02  0.8438558E-01
        1   -1    0    0  501    0  0.00000000000E+00  0.00000000000E+00  0.12076767885E+04  0.12076767886E+04  0.50400001928E-02 0.  1.
       -1   -1    0    0    0  501  0.00000000000E+00  0.00000000000E+00 -0.11948837429E+04  0.11948837429E+04  0.50400001928E-02 0. -1.
    10030    2    1    2    0    0  0.00000000000E+00  0.00000000000E+00  0.12793045634E+02  0.24025605315E+04  0.24025264713E+04 0.  0.
        5    1    3    3  502    0  0.82469144574E+02  0.11914450417E+04 -0.12271310777E+03  0.12005927886E+04  0.46999998093E+01 0. -1.
       -5    1    3    3    0  502 -0.82469144574E+02 -0.11914450417E+04  0.13550615341E+03  0.12019677429E+04  0.46999998093E+01 0.  1.
</event>
<event>
 5   0  0.5268358E-06  0.2398557E+04  0.7818609E-02  0.8440044E-01
       -2   -1    0    0    0  501  0.00000000000E+00  0.00000000000E+00  0.72633053510E+03  0.72633053510E+03  0.25500000920E-02 0. -1.
        2   -1    0    0  501    0  0.00000000000E+00  0.00000000000E+00 -0.19801851184E+04  0.19801851184E+04  0.25500000920E-02 0.  1.
    10030    2    1    2    0    0  0.00000000000E+00  0.00000000000E+00 -0.12538545833E+04  0.27065156535E+04  0.23985569967E+04 0.  0.
        2    1    3    3  502    0  0.90115497333E+03  0.50007733614E+03 -0.13189473527E+04  0.16738517698E+04  0.25500000920E-02 0.  1.
       -2    1    3    3    0  502 -0.90115497333E+03 -0.50007733614E+03  0.65092769386E+02  0.10326638837E+04  0.25500000920E-02 0. -1.
</event>
<event>
 5   0  0.2149029E-06  0.2401539E+04  0.7818609E-02  0.8438928E-01
        1   -1    0    0  501    0  0.00000000000E+00  0.00000000000E+00  0.18399486371E+04  0.18399486371E+04  0.50400001928E-02 0. -1.
       -1   -1    0    0    0  501  0.00000000000E+00  0.00000000000E+00 -0.78363466349E+03  0.78363466351E+03  0.50400001928E-02 0.  1.
    10030    2    1    2    0    0  0.00000000000E+00  0.00000000000E+00  0.10563139736E+04  0.26235833006E+04  0.24015391157E+04 0.  0.
        4    1    3    3  502    0  0.15389837179E+03  0.53965605350E+03  0.16878796798E+04  0.17787222356E+04  0.12699999809E+01 0. -1.
       -4    1    3    3    0  502 -0.15389837179E+03 -0.53965605350E+03 -0.63156570625E+03  0.84486106499E+03  0.12699999809E+01 0.  1.
</event>
<event>
 5   0  0.5440503E-06  0.2401675E+04  0.7818609E-02  0.8438877E-01
        2   -1    0    0  501    0  0.00000000000E+00  0.00000000000E+00  0.25380683557E+04  0.25380683557E+04  0.25500000920E-02 0.  1.
       -2   -1    0    0    0  501  0.00000000000E+00  0.00000000000E+00 -0.56815299338E+03  0.56815299338E+03  0.25500000920E-02 0. -1.
    10030    2    1    2    0    0  0.00000000000E+00  0.00000000000E+00  0.19699153624E+04  0.31062213491E+04  0.24016753600E+04 0.  0.
        3    1    3    3  502    0 -0.36503636238E+02 -0.11037167462E+04  0.15950159909E+04  0.19399997920E+04  0.10100000352E+00 0.  1.
       -3    1    3    3    0  502  0.36503636238E+02  0.11037167462E+04  0.37489937142E+03  0.11662215571E+04  0.10100000352E+00 0. -1.
</event>
<event>
 5   0  0.2254269E-06  0.2400741E+04  0.7818609E-02  0.8439226E-01
        1   -1    0    0  501    0  0.00000000000E+00  0.00000000000E+00  0.13282695336E+04  0.13282695336E+04  0.50400001928E-02 0.  1.
       -1   -1    0    0    0  501  0.00000000000E+00  0.00000000000E+00 -0.10847871303E+04  0.10847871303E+04  0.50400001928E-02 0. -1.
    10030    2    1    2    0    0  0.00000000000E+00  0.00000000000E+00  0.24348240325E+03  0.24130566639E+04  0.24007412985E+04 0.  0.
        2    1    3    3  502    0 -0.15094504969E+01 -0.58767171856E+03  0.11737858439E+04  0.13126818101E+04  0.25500000920E-02 0.  1.
       -2    1    3    3    0  502  0.15094504969E+01  0.58767171856E+03 -0.93030344062E+03  0.11003748538E+04  0.25500000920E-02 0. -1.
</event>
<event>
 5   0  0.5268358E-06  0.2396616E+04  0.7818609E-02  0.8440771E-01
        2   -1    0    0  501    0  0.00000000000E+00  0.00000000000E+00  0.21424306749E+04  0.21424306749E+04  0.25500000920E-02 0. -1.
       -2   -1    0    0    0  501  0.00000000000E+00  0.00000000000E+00 -0.67023983781E+03  0.67023983782E+03  0.25500000920E-02 0.  1.
    10030    2    1    2    0    0  0.00000000000E+00  0.00000000000E+00  0.14721908371E+04  0.28126705127E+04  0.23966162714E+04 0.  0.
        2    1    3    3  502    0 -0.99449080168E+02  0.11371431044E+04  0.11640299312E+04  0.16303221278E+04  0.25500000920E-02 0. -1.
       -2    1    3    3    0  502  0.99449080168E+02 -0.11371431044E+04  0.30816090587E+03  0.11823483850E+04  0.25500000920E-02 0.  1.
</event>
<event>
 5   0  0.2215700E-06  0.2398054E+04  0.7818609E-02  0.8440233E-01
       -1   -1    0    0    0  501  0.00000000000E+00  0.00000000000E+00  0.69485301662E+03  0.69485301664E+03  0.50400001928E-02 0.  1.
        1   -1    0    0  501    0  0.00000000000E+00  0.00000000000E+00 -0.20690210618E+04  0.20690210619E+04  0.50400001928E-02 0. -1.
    10030    2    1    2    0    0  0.00000000000E+00  0.00000000000E+00 -0.13741680452E+04  0.27638740785E+04  0.23980538162E+04 0.  0.
        3    1    3    3  502    0  0.32825836877E+03 -0.11383825390E+04 -0.47457341598E+03  0.12762790836E+04  0.10100000352E+00 0.  1.
       -3    1    3    3    0  502 -0.32825836877E+03  0.11383825390E+04 -0.89959462925E+03  0.14875949949E+04  0.10100000352E+00 0. -1.
</event>
<event>
 5   0  0.5268358E-06  0.2399657E+04  0.7818609E-02  0.8439632E-01
       -2   -1    0    0    0  501  0.00000000000E+00  0.00000000000E+00  0.12143047199E+04  0.12143047199E+04  0.25500000920E-02 0.  1.
        2   -1    0    0  501    0  0.00000000000E+00  0.00000000000E+00 -0.11855252965E+04  0.11855252965E+04  0.25500000920E-02 0. -1.
    10030    2    1    2    0    0  0.00000000000E+00  0.00000000000E+00  0.28779423352E+02  0.23998300164E+04  0.23996574449E+04 0.  0.
        2    1    3    3  502    0 -0.74188292171E+03 -0.45817830671E+03  0.83862816997E+03  0.12097995031E+04  0.25500000920E-02 0.  1.
       -2    1    3    3    0  502  0.74188292171E+03  0.45817830671E+03 -0.80984874662E+03  0.11900305133E+04  0.25500000920E-02 0. -1.
</event>
<event>
 5   0  0.2149417E-06  0.2408961E+04  0.7818609E-02  0.8436156E-01
        1   -1    0    0  501    0  0.00000000000E+00  0.00000000000E+00  0.10099407628E+04  0.10099407628E+04  0.50400001928E-02 0. -1.
       -1   -1    0    0    0  501  0.00000000000E+00  0.00000000000E+00 -0.14364937455E+04  0.14364937455E+04  0.50400001928E-02 0.  1.
    10030    2    1    2    0    0  0.00000000000E+00  0.00000000000E+00 -0.42655298269E+03  0.24464345083E+04  0.24089612609E+04 0.  0.
        5    1    3    3  502    0  0.10043009262E+04 -0.64754471486E+03 -0.59873805570E+02  0.11964704220E+04  0.46999998093E+01 0. -1.
       -5    1    3    3    0  502 -0.10043009262E+04  0.64754471486E+03 -0.36667917712E+03  0.12499640863E+04  0.46999998093E+01 0.  1.
</event>
<event>
 5   0  0.2149029E-06  0.2402975E+04  0.7818609E-02  0.8438390E-01
       -1   -1    0    0    0  501  0.00000000000E+00  0.00000000000E+00  0.10302235579E+04  0.10302235580E+04  0.50400001928E-02 0. -1.
        1   -1    0    0  501    0  0.00000000000E+00  0.00000000000E+00 -0.14012227725E+04  0.14012227725E+04  0.50400001928E-02 0.  1.
    10030    2    1    2    0    0  0.00000000000E+00  0.00000000000E+00 -0.37099921452E+03  0.24314463304E+04  0.24029754141E+04 0.  0.
        4    1    3    3  502    0  0.98021310572E+03 -0.64240266915E+03 -0.45334745455E+03  0.12565923959E+04  0.12699999809E+01 0.  1.
       -4    1    3    3    0  502 -0.98021310572E+03  0.64240266915E+03  0.82348240030E+02  0.11748539345E+04  0.12699999809E+01 0. -1.
</event>
<event>
 5   0  0.5440503E-06  0.2415076E+04  0.7818609E-02  0.8433881E-01
       -2   -1    0    0    0  501  0.00000000000E+00  0.00000000000E+00  0.78950734899E+03  0.78950734900E+03  0.25500000920E-02 0. -1.
        2   -1    0    0  501    0  0.00000000000E+00  0.00000000000E+00 -0.18469082990E+04  0.18469082990E+04  0.25500000920E-02 0.  1.
    10030    2    1    2    0    0  0.00000000000E+00  0.00000000000E+00 -0.10574009500E+04  0.26364156480E+04  0.24150757131E+04 0.  0.
        3    1    3    3  502    0 -0.76317487777E+03  0.70137821339E+03 -0.12049773080E+04  0.15894456943E+04  0.10100000352E+00 0.  1.
       -3    1    3    3    0  502  0.76317487777E+03 -0.70137821339E+03  0.14757635797E+03  0.10469699537E+04  0.10100000352E+00 0. -1.
</event>
<event>
 5   0  0.2215700E-06  0.2401484E+04  0.7818609E-02  0.8438948E-01
        1   -1    0    0  501    0  0.00000000000E+00  0.00000000000E+00  0.16379644414E+04  0.16379644414E+04  0.50400001928E-02 0.  1.
       -1   -1    0    0    0  501  0.00000000000E+00  0.00000000000E+00 -0.88022729601E+03  0.88022729602E+03  0.50400001928E-02 0. -1.
    10030    2    1    2    0    0  0.00000000000E+00  0.00000000000E+00  0.75773714537E+03  0.25181917374E+04  0.24014837174E+04 0.  0.
        3    1    3    3  502    0  0.50922584648E+02 -0.10389967942E+04 -0.25000508135E+03  0.10698644769E+04  0.10100000352E+00 0. -1.
       -3    1    3    3    0  502 -0.50922584648E+02  0.10389967942E+04  0.10077422267E+04  0.14483272605E+04  0.10100000352E+00 0.  1.
</event>
<event>
 5   0  0.2254269E-06  0.2398493E+04  0.7818609E-02  0.8440068E-01
        1   -1    0    0  501    0  0.00000000000E+00  0.00000000000E+00  0.11767189626E+04  0.11767189626E+04  0.50400001928E-02 0.  1.
       -1   -1    0    0    0  501  0.00000000000E+00  0.00000000000E+00 -0.12222052803E+04  0.12222052803E+04  0.50400001928E-02 0. -1.
    10030    2    1    2    0    0  0.00000000000E+00  0.00000000000E+00 -0.45486317715E+02  0.23989242429E+04  0.23984929681E+04 0.  0.
        2    1    3    3  502    0 -0.99185537627E+03  0.69737748558E+02  0.64786356008E+03  0.11867466594E+04  0.25500000920E-02 0.  1.
       -2    1    3    3    0  502  0.99185537627E+03 -0.69737748558E+02 -0.69334987780E+03  0.12121775835E+04  0.25500000920E-02 0. -1.
</event>
<event>
 5   0  0.2254269E-06  0.2399277E+04  0.7818609E-02  0.8439774E-01
        1   -1    0    0  501    0  0.00000000000E+00  0.00000000000E+00  0.82821832301E+03  0.82821832302E+03  0.50400001928E-02 0.  1.
       -1   -1    0    0    0  501  0.00000000000E+00  0.00000000000E+00 -0.17376244421E+04  0.17376244421E+04  0.50400001928E-02 0. -1.
    10030    2    1    2    0    0  0.00000000000E+00  0.00000000000E+00 -0.90940611912E+03  0.25658427652E+04  0.23992768923E+04 0.  0.
        2    1    3    3  502    0 -0.16702146602E+03  0.53440980197E+03  0.67991551431E+03  0.88078096776E+03  0.25500000920E-02 0.  1.
       -2    1    3    3    0  502  0.16702146602E+03 -0.53440980197E+03 -0.15893216334E+04  0.16850617974E+04  0.25500000920E-02 0. -1.
</event>
<event>
 5   0  0.5371843E-06  0.2406496E+04  0.7818609E-02  0.8437075E-01
       -2   -1    0    0    0  501  0.00000000000E+00  0.00000000000E+00  0.81679178423E+03  0.81679178423E+03  0.25500000920E-02 0.  1.
        2   -1    0    0  501    0  0.00000000000E+00  0.00000000000E+00 -0.17725524275E+04  0.17725524275E+04  0.25500000920E-02 0. -1.
    10030    2    1    2    0    0  0.00000000000E+00  0.00000000000E+00 -0.95576064327E+03  0.25893442117E+04  0.24064964242E+04 0.  0.
        4    1    3    3  502    0  0.23851504916E+03  0.68670497872E+03 -0.15095611456E+04  0.16754789231E+04  0.12699999809E+01 0. -1.
       -4    1    3    3    0  502 -0.23851504916E+03 -0.68670497872E+03  0.55380050235E+03  0.91386528864E+03  0.12699999809E+01 0.  1.
</event>
<event>
 5   0  0.2297414E-06  0.2403591E+04  0.7818609E-02  0.8438161E-01
       -1   -1    0    0    0  501  0.00000000000E+00  0.00000000000E+00  0.13161889689E+04  0.13161889689E+04  0.50400001928E-02 0.  1.
        1   -1    0    0  501    0  0.00000000000E+00  0.00000000000E+00 -0.10973439102E+04  0.10973439102E+04  0.50400001928E-02 0. -1.
    10030    2    1    2    0    0  0.00000000000E+00  0.00000000000E+00  0.21884505869E+03  0.24135328791E+04  0.24035906055E+04 0.  0.
        1    1    3    3  502    0 -0.12580857501E+03  0.10097683469E+04 -0.53263775229E+03  0.11485481649E+04  0.50400001928E-02 0. -1.
       -1    1    3    3    0  502  0.12580857501E+03 -0.10097683469E+04  0.75148281098E+03  0.12649847142E+04  0.50400001928E-02 0.  1.
</event>
<event>
 5   0  0.2297414E-06  0.2384035E+04  0.7818609E-02  0.8445505E-01
        1   -1    0    0  501    0  0.00000000000E+00  0.00000000000E+00  0.12779572278E+04  0.12779572278E+04  0.50400001928E-02 0. -1.
       -1   -1    0    0    0  501  0.00000000000E+00  0.00000000000E+00 -0.11118567164E+04  0.11118567164E+04  0.50400001928E-02 0.  1.
    10030    2    1    2    0    0  0.00000000000E+00  0.00000000000E+00  0.16610051145E+03  0.23898139442E+04  0.23840346700E+04 0.  0.
        1    1    3    3  502    0 -0.60534202822E+03 -0.78709888137E+03 -0.57804958290E+03  0.11489581979E+04  0.50400001928E-02 0.  1.
       -1    1    3    3    0  502  0.60534202822E+03  0.78709888137E+03  0.74415009435E+03  0.12408557463E+04  0.50400001928E-02 0. -1.
</event>
<event>
 5   0  0.5379778E-06  0.2398926E+04  0.7818609E-02  0.8439906E-01
        2   -1    0    0  501    0  0.00000000000E+00  0.00000000000E+00  0.13980306914E+04  0.13980306914E+04  0.25500000920E-02 0. -1.
       -2   -1    0    0    0  501  0.00000000000E+00  0.00000000000E+00 -0.10290983965E+04  0.10290983965E+04  0.25500000920E-02 0.  1.
    10030    2    1    2    0    0  0.00000000000E+00  0.00000000000E+00  0.36893229488E+03  0.24271290879E+04  0.23989257119E+04 0.  0.
        5    1    3    3  502    0 -0.78977465596E+03 -0.30934736097E+03  0.10425224516E+04  0.13439921685E+04  0.46999998093E+01 0. -1.
       -5    1    3    3    0  502  0.78977465596E+03  0.30934736097E+03 -0.67359015671E+03  0.10831369194E+04  0.46999998093E+01 0.  1.
</event>
<event>
 5   0  0.5349036E-06  0.2406892E+04  0.7818609E-02  0.8436928E-01
        2   -1    0    0  501    0  0.00000000000E+00  0.00000000000E+00  0.17825575600E+04  0.17825575600E+04  0.25500000920E-02 0. -1.
       -2   -1    0    0    0  501  0.00000000000E+00  0.00000000000E+00 -0.81247464067E+03  0.81247464067E+03  0.25500000920E-02 0.  1.
    10030    2    1    2    0    0  0.00000000000E+00  0.00000000000E+00  0.97008291933E+03  0.25950322007E+04  0.24068924471E+04 0.  0.
        1    1    3    3  502    0  0.49618686049E+03 -0.80378034280E+03  0.12889945640E+04  0.15980523227E+04  0.50400001928E-02 0.  1.
       -1    1    3    3    0  502 -0.49618686049E+03  0.80378034280E+03 -0.31891164467E+03  0.99697987799E+03  0.50400001928E-02 0. -1.
</event>
<event>
 5   0  0.5349036E-06  0.2405572E+04  0.7818609E-02  0.8437420E-01
       -2   -1    0    0    0  501  0.00000000000E+00  0.00000000000E+00  0.10154886470E+04  0.10154886470E+04  0.25500000920E-02 0. -1.
        2   -1    0    0  501    0  0.00000000000E+00  0.00000000000E+00 -0.14246291832E+04  0.14246291832E+04  0.25500000920E-02 0.  1.
    10030    2    1    2    0    0  0.00000000000E+00  0.00000000000E+00 -0.40914053615E+03  0.24401178302E+04  0.24055724988E+04 0.  0.
        1    1    3    3  502    0 -0.27712623842E+03  0.10529199662E+04 -0.72304183947E+03  0.13069923140E+04  0.50400001928E-02 0.  1.
       -1    1    3    3    0  502  0.27712623842E+03 -0.10529199662E+04  0.31390130332E+03  0.11331255162E+04  0.50400001928E-02 0. -1.
</event>
<event>
 5   0  0.2215700E-06  0.2398010E+04  0.7818609E-02  0.8440249E-01
       -1   -1    0    0    0  501  0.00000000000E+00  0.00000000000E+00  0.21057271278E+04  0.21057271278E+04  0.50400001928E-02 0. -1.
        1   -1    0    0  501    0  0.00000000000E+00  0.00000000000E+00 -0.68271564834E+03  0.68271564836E+03  0.50400001928E-02 0.  1.
    10030    2    1    2    0    0  0.00000000000E+00  0.00000000000E+00  0.14230114795E+04  0.27884427762E+04  0.23980098926E+04 0.  0.
        3    1    3    3  502    0  0.41334173032E+03  0.87252617776E+03  0.15382172083E+04  0.18161127462E+04  0.10100000352E+00 0. -1.
       -3    1    3    3    0  502 -0.41334173032E+03 -0.87252617776E+03 -0.11520572886E+03  0.97233002991E+03  0.10100000352E+00 0.  1.
</event>
<event>
 5   0  0.5379778E-06  0.2401307E+04  0.7818609E-02  0.8439014E-01
       -2   -1    0    0    0  501  0.00000000000E+00  0.00000000000E+00  0.17672562504E+04  0.17672562504E+04  0.25500000920E-02 0.  1.
        2   -1    0    0  501    0  0.00000000000E+00  0.00000000000E+00 -0.81571038987E+03  0.81571038987E+03  0.25500000920E-02 0. -1.
    10030    2    1    2    0    0  0.00000000000E+00  0.00000000000E+00  0.95154586053E+03  0.25829666403E+04  0.24013073814E+04 0.  0.
        5    1    3    3  502    0  0.63898291047E+03  0.95109854149E+02  0.15643617837E+04  0.16925114253E+04  0.46999998093E+01 0.  1.
       -5    1    3    3    0  502 -0.63898291047E+03 -0.95109854149E+02 -0.61281592320E+03  0.89045521502E+03  0.46999998093E+01 0. -1.
</event>
<event>
 5   0  0.5268358E-06  0.2397881E+04  0.7818609E-02  0.8440297E-01
       -2   -1    0    0    0  501  0.00000000000E+00  0.00000000000E+00  0.66322688934E+03  0.66322688934E+03  0.25500000920E-02 0. -1.
        2   -1    0    0  501    0  0.00000000000E+00  0.00000000000E+00 -0.21673708108E+04  0.21673708108E+04  0.25500000920E-02 0.  1.
    10030    2    1    2    0    0  0.00000000000E+00  0.00000000000E+00 -0.15041439214E+04  0.28305977001E+04  0.23978812321E+04 0.  0.
        2    1    3    3  502    0  0.19022759534E+03  0.36366589059E+02  0.64463941741E+03  0.67310403751E+03  0.25500000920E-02 0. -1.
       -2    1    3    3    0  502 -0.19022759534E+03 -0.36366589059E+02 -0.21487833388E+04  0.21574936626E+04  0.25500000920E-02 0.  1.
</event>
<event>
 5   0  0.2149417E-06  0.2400765E+04  0.7818609E-02  0.8439217E-01
       -1   -1    0    0    0  501  0.00000000000E+00  0.00000000000E+00  0.15353320847E+04  0.15353320848E+04  0.50400001928E-02 0.  1.
        1   -1    0    0  501    0  0.00000000000E+00  0.00000000000E+00 -0.93850550639E+03  0.93850550640E+03  0.50400001928E-02 0. -1.
    10030    2    1    2    0    0  0.00000000000E+00  0.00000000000E+00  0.59682657836E+03  0.24738375912E+04  0.24007645580E+04 0.  0.
        5    1    3    3  502    0 -0.55964098677E+03 -0.45947968520E+03 -0.68810657157E+03  0.99891559154E+03  0.46999998093E+01 0. -1.
       -5    1    3    3    0  502  0.55964098677E+03  0.45947968520E+03  0.12849331499E+04  0.14749219996E+04  0.46999998093E+01 0.  1.
</event>
<event>
 5   0  0.5349036E-06  0.2399191E+04  0.7818609E-02  0.8439807E-01
       -2   -1    0    0    0  501  0.00000000000E+00  0.00000000000E+00  0.90437516787E+03  0.90437516787E+03  0.25500000920E-02 0. -1.
        2   -1    0    0  501    0  0.00000000000E+00  0.00000000000E+00 -0.15911861131E+04  0.15911861131E+04  0.25500000920E-02 0.  1.
    10030    2    1    2    0    0  0.00000000000E+00  0.00000000000E+00 -0.68681094520E+03  0.24955612809E+04  0.23991908704E+04 0.  0.
        1    1    3    3  502    0 -0.29336147683E+03  0.63373087265E+03 -0.13579576414E+04  0.15269986021E+04  0.50400001928E-02 0.  1.
       -1    1    3    3    0  502  0.29336147683E+03 -0.63373087265E+03  0.67114669617E+03  0.96856267884E+03  0.50400001928E-02 0. -1.
</event>
<event>
 5   0  0.5371843E-06  0.2399694E+04  0.7818609E-02  0.8439618E-01
        2   -1    0    0  501    0  0.00000000000E+00  0.00000000000E+00  0.26916594496E+04  0.26916594496E+04  0.25500000920E-02 0.  1.
       -2   -1    0    0    0  501  0.00000000000E+00  0.00000000000E+00 -0.53484967071E+03  0.53484967072E+03  0.25500000920E-02 0. -1.
    10030    2    1    2    0    0  0.00000000000E+00  0.00000000000E+00  0.21568097789E+04  0.32265091203E+04  0.23996942891E+04 0.  0.
        4    1    3    3  502    0  0.64815185243E+03 -0.92569874008E+02 -0.27349427214E+03  0.70955671737E+03  0.12699999809E+01 0. -1.
       -4    1    3    3    0  502 -0.64815185243E+03  0.92569874008E+02  0.24303040510E+04  0.25169524029E+04  0.12699999809E+01 0.  1.
</event>
<event>
 5   0  0.5349036E-06  0.2402138E+04  0.7818609E-02  0.8438704E-01
       -2   -1    0    0    0  501  0.00000000000E+00  0.00000000000E+00  0.65825551957E+03  0.65825551957E+03  0.25500000920E-02 0.  1.
        2   -1    0    0  501    0  0.00000000000E+00  0.00000000000E+00 -0.21914995699E+04  0.21914995699E+04  0.25500000920E-02 0. -1.
    10030    2    1    2    0    0  0.00000000000E+00  0.00000000000E+00 -0.15332440503E+04  0.28497550894E+04  0.24021379544E+04 0.  0.
        1    1    3    3  502    0  0.11195500292E+04  0.43493453671E+03 -0.76961596628E+03  0.14264883647E+04  0.50400001928E-02 0.  1.
       -1    1    3    3    0  502 -0.11195500292E+04 -0.43493453671E+03 -0.76362808402E+03  0.14232667247E+04  0.50400001928E-02 0. -1.
</event>
<event>
 5   0  0.5268358E-06  0.2399663E+04  0.7818609E-02  0.8439630E-01
       -2   -1    0    0    0  501  0.00000000000E+00  0.00000000000E+00  0.13193272029E+04  0.13193272029E+04  0.25500000920E-02 0. -1.
        2   -1    0    0  501    0  0.00000000000E+00  0.00000000000E+00 -0.10911588318E+04  0.10911588318E+04  0.25500000920E-02 0.  1.
    10030    2    1    2    0    0  0.00000000000E+00  0.00000000000E+00  0.22816837104E+03  0.24104860347E+04  0.23996629176E+04 0.  0.
        2    1    3    3  502    0 -0.53405395717E+03  0.10731350757E+04  0.61282768847E+02  0.12002450157E+04  0.25500000920E-02 0. -1.
       -2    1    3    3    0  502  0.53405395717E+03 -0.10731350757E+04  0.16688560219E+03  0.12102410190E+04  0.25500000920E-02 0.  1.
</event>
<event>
 5   0  0.2254269E-06  0.2394055E+04  0.7818609E-02  0.8441733E-01
        1   -1    0    0  501    0  0.00000000000E+00  0.00000000000E+00  0.14418182377E+04  0.14418182377E+04  0.50400001928E-02 0. -1.
       -1   -1    0    0    0  501  0.00000000000E+00  0.00000000000E+00 -0.99379734724E+03  0.99379734726E+03  0.50400001928E-02 0.  1.
    10030    2    1    2    0    0  0.00000000000E+00  0.00000000000E+00  0.44802089046E+03  0.24356155850E+04  0.23940552541E+04 0.  0.
        2    1    3    3  502    0 -0.11897860669E+03  0.20680003928E+03 -0.96936300211E+03  0.99829193874E+03  0.25500000920E-02 0.  1.
       -2    1    3    3    0  502  0.11897860669E+03 -0.20680003928E+03  0.14173838926E+04  0.14373236462E+04  0.25500000920E-02 0. -1.
</event>
<event>
 5   0  0.2254269E-06  0.2389817E+04  0.7818609E-02  0.8443326E-01
        1   -1    0    0  501    0  0.00000000000E+00  0.00000000000E+00  0.93671663874E+03  0.93671663875E+03  0.50400001928E-02 0.  1.
       -1   -1    0    0    0  501  0.00000000000E+00  0.00000000000E+00 -0.15242670369E+04  0.15242670369E+04  0.50400001928E-02 0. -1.
    10030    2    1    2    0    0  0.00000000000E+00  0.00000000000E+00 -0.58755039813E+03  0.24609836756E+04  0.23898169765E+04 0.  0.
        2    1    3    3  502    0 -0.93075681901E+03  0.93783729562E+02 -0.10593539396E+04  0.14132708210E+04  0.25500000920E-02 0. -1.
       -2    1    3    3    0  502  0.93075681901E+03 -0.93783729562E+02  0.47180354147E+03  0.10477128547E+04  0.25500000920E-02 0.  1.
</event>
<event>
 5   0  0.5349036E-06  0.2400118E+04  0.7818609E-02  0.8439459E-01
        2   -1    0    0  501    0  0.00000000000E+00  0.00000000000E+00  0.15510147265E+04  0.15510147265E+04  0.25500000920E-02 0.  1.
       -2   -1    0    0    0  501  0.00000000000E+00  0.00000000000E+00 -0.92851569156E+03  0.92851569157E+03  0.25500000920E-02 0. -1.
    10030    2    1    2    0    0  0.00000000000E+00  0.00000000000E+00  0.62249903495E+03  0.24795304181E+04  0.24001179233E+04 0.  0.
        1    1    3    3  502    0  0.88957184187E+03  0.75517496770E+03  0.60072448524E+03  0.13124394085E+04  0.50400001928E-02 0.  1.
       -1    1    3    3    0  502 -0.88957184187E+03 -0.75517496770E+03  0.21774549708E+02  0.11670910096E+04  0.50400001928E-02 0. -1.
</event>
<event>
 5   0  0.2215700E-06  0.2400114E+04  0.7818609E-02  0.8439461E-01
       -1   -1    0    0    0  501  0.00000000000E+00  0.00000000000E+00  0.63467486382E+03  0.63467486384E+03  0.50400001928E-02 0. -1.
        1   -1    0    0  501    0  0.00000000000E+00  0.00000000000E+00 -0.22690934896E+04  0.22690934896E+04  0.50400001928E-02 0.  1.
    10030    2    1    2    0    0  0.00000000000E+00  0.00000000000E+00 -0.16344186258E+04  0.29037683534E+04  0.24001138319E+04 0.  0.
        3    1    3    3  502    0 -0.60030244653E+03 -0.80151410393E+03 -0.16173089079E+04  0.19022292185E+04  0.10100000352E+00 0.  1.
       -3    1    3    3    0  502  0.60030244653E+03  0.80151410393E+03 -0.17109717903E+02  0.10015391349E+04  0.10100000352E+00 0. -1.
</event>
<event>
 5   0  0.2149417E-06  0.2404383E+04  0.7818609E-02  0.8437865E-01
       -1   -1    0    0    0  501  0.00000000000E+00  0.00000000000E+00  0.78836810750E+03  0.78836810752E+03  0.50400001928E-02 0. -1.
        1   -1    0    0  501    0  0.00000000000E+00  0.00000000000E+00 -0.18332352973E+04  0.18332352974E+04  0.50400001928E-02 0.  1.
    10030    2    1    2    0    0  0.00000000000E+00  0.00000000000E+00 -0.10448671898E+04  0.26216034049E+04  0.24043828664E+04 0.  0.
        5    1    3    3  502    0 -0.54303615464E+03  0.84914855818E+03 -0.12368379973E+04  0.15955349763E+04  0.46999998093E+01 0. -1.
       -5    1    3    3    0  502  0.54303615464E+03 -0.84914855818E+03  0.19197080747E+03  0.10260684285E+04  0.46999998093E+01 0.  1.
</event>
<event>
 5   0  0.5440503E-06  0.2409258E+04  0.7818609E-02  0.8436045E-01
        2   -1    0    0  501    0  0.00000000000E+00  0.00000000000E+00  0.10537988462E+04  0.10537988462E+04  0.25500000920E-02 0. -1.
       -2   -1    0    0    0  501  0.00000000000E+00  0.00000000000E+00 -0.13770480104E+04  0.13770480104E+04  0.25500000920E-02 0.  1.
    10030    2    1    2    0    0  0.00000000000E+00  0.00000000000E+00 -0.32324916420E+03  0.24308468566E+04  0.24092584789E+04 0.  0.
        3    1    3    3  502    0  0.62427196574E+03 -0.82579845369E+03 -0.78315824497E+03  0.12980737345E+04  0.10100000352E+00 0.  1.
       -3    1    3    3    0  502 -0.62427196574E+03  0.82579845369E+03  0.45990908077E+03  0.11327731221E+04  0.10100000352E+00 0. -1.
</event>
<event>
 5   0  0.2149029E-06  0.2409301E+04  0.7818609E-02  0.8436030E-01
       -1   -1    0    0    0  501  0.00000000000E+00  0.00000000000E+00  0.88732315637E+03  0.88732315639E+03  0.50400001928E-02 0.  1.
        1   -1    0    0  501    0  0.00000000000E+00  0.00000000000E+00 -0.16354612471E+04  0.16354612471E+04  0.50400001928E-02 0. -1.
    10030    2    1    2    0    0  0.00000000000E+00  0.00000000000E+00 -0.74813809075E+03  0.25227844035E+04  0.24093008413E+04 0.  0.
        4    1    3    3  502    0  0.10995450487E+04 -0.45575879596E+03 -0.17967533527E+03  0.12037442557E+04  0.12699999809E+01 0.  1.
       -4    1    3    3    0  502 -0.10995450487E+04  0.45575879596E+03 -0.56846275548E+03  0.13190401478E+04  0.12699999809E+01 0. -1.
</event>
<event>
 5   0  0.5268358E-06  0.2397865E+04  0.7818609E-02  0.8440303E-01
        2   -1    0    0  501    0  0.00000000000E+00  0.00000000000E+00  0.30108624292E+04  0.30108624292E+04  0.25500000920E-02 0.  1.
       -2   -1    0    0    0  501  0.00000000000E+00  0.00000000000E+00 -0.47741792750E+03  0.47741792751E+03  0.25500000920E-02 0. -1.
    10030    2    1    2    0    0  0.00000000000E+00  0.00000000000E+00  0.25334445017E+04  0.34882803567E+04  0.23978654683E+04 0.  0.
        2    1    3    3  502    0  0.11758301053E+04 -0.15462868464E+03  0.15226630879E+04  0.19300231465E+04  0.25500000920E-02 0.  1.
       -2    1    3    3    0  502 -0.11758301053E+04  0.15462868464E+03  0.10107814138E+04  0.15582572102E+04  0.25500000920E-02 0. -1.
</event>
<event>
 5   0  0.2297414E-06  0.2401071E+04  0.7818609E-02  0.8439103E-01
        1   -1    0    0  501    0  0.00000000000E+00  0.00000000000E+00  0.13377029239E+04  0.13377029239E+04  0.50400001928E-02 0. -1.
       -1   -1    0    0    0  501  0.00000000000E+00  0.00000000000E+00 -0.10774335890E+04  0.10774335890E+04  0.50400001928E-02 0.  1.
    10030    2    1    2    0    0  0.00000000000E+00  0.00000000000E+00  0.26026933488E+03  0.24151365128E+04  0.24010714794E+04 0.  0.
        1    1    3    3  502    0  0.45024968508E+01  0.72673059484E+03 -0.83104046798E+03  0.11039863629E+04  0.50400001928E-02 0.  1.
       -1    1    3    3    0  502 -0.45024968508E+01 -0.72673059484E+03  0.10913098029E+04  0.13111501500E+04  0.50400001928E-02 0. -1.
</event>
<event>
 5   0  0.2297414E-06  0.2396672E+04  0.7818609E-02  0.8440750E-01
       -1   -1    0    0    0  501  0.00000000000E+00  0.00000000000E+00  0.11255567384E+04  0.11255567385E+04  0.50400001928E-02 0.  1.
        1   -1    0    0  501    0  0.00000000000E+00  0.00000000000E+00 -0.12758214491E+04  0.12758214491E+04  0.50400001928E-02 0. -1.
    10030    2    1    2    0    0  0.00000000000E+00  0.00000000000E+00 -0.15026471061E+03  0.24013781875E+04  0.23966722171E+04 0.  0.
        1    1    3    3  502    0  0.36399668864E+03 -0.10840743725E+04  0.28375889416E+03  0.11782317024E+04  0.50400001928E-02 0. -1.
       -1    1    3    3    0  502 -0.36399668864E+03  0.10840743725E+04 -0.43402360478E+03  0.12231464851E+04  0.50400001928E-02 0.  1.
</event>
<event>
 5   0  0.5379778E-06  0.2417846E+04  0.7818609E-02  0.8432852E-01
        2   -1    0    0  501    0  0.00000000000E+00  0.00000000000E+00  0.13921362595E+04  0.13921362595E+04  0.25500000920E-02 0.  1.
       -2   -1    0    0    0  501  0.00000000000E+00  0.00000000000E+00 -0.10498216921E+04  0.10498216921E+04  0.25500000920E-02 0. -1.
    10030    2    1    2    0    0  0.00000000000E+00  0.00000000000E+00  0.34231456738E+03  0.24419579517E+04  0.24178460196E+04 0.  0.
        5    1    3    3  502    0  0.79792092588E+03  0.30072968386E+03  0.10366492587E+04  0.13423039605E+04  0.46999998093E+01 0.  1.
       -5    1    3    3    0  502 -0.79792092588E+03 -0.30072968386E+03 -0.69433469134E+03  0.10996539912E+04  0.46999998093E+01 0. -1.
</event>
<event>
 5   0  0.2215700E-06  0.2408492E+04  0.7818609E-02  0.8436331E-01
       -1   -1    0    0    0  501  0.00000000000E+00  0.00000000000E+00  0.23373105045E+04  0.23373105045E+04  0.50400001928E-02 0.  1.
        1   -1    0    0  501    0  0.00000000000E+00  0.00000000000E+00 -0.62046054487E+03  0.62046054489E+03  0.50400001928E-02 0. -1.
    10030    2    1    2    0    0  0.00000000000E+00  0.00000000000E+00  0.17168499596E+04  0.29577710494E+04  0.24084924324E+04 0.  0.
        3    1    3    3  502    0  0.90208316461E+03 -0.14136200777E+03 -0.10579435305E+03  0.91920058119E+03  0.10100000352E+00 0. -1.
       -3    1    3    3    0  502 -0.90208316461E+03  0.14136200777E+03  0.18226443127E+04  0.20385704682E+04  0.10100000352E+00 0.  1.
</event>
<event>
 5   0  0.2149417E-06  0.2396220E+04  0.7818609E-02  0.8440920E-01
        1   -1    0    0  501    0  0.00000000000E+00  0.00000000000E+00  0.17181220859E+04  0.17181220859E+04  0.50400001928E-02 0.  1.
       -1   -1    0    0    0  501  0.00000000000E+00  0.00000000000E+00 -0.83548646622E+03  0.83548646623E+03  0.50400001928E-02 0. -1.
    10030    2    1    2    0    0  0.00000000000E+00  0.00000000000E+00  0.88263561970E+03  0.25536085522E+04  0.23962201486E+04 0.  0.
        5    1    3    3  502    0  0.78744712788E+03  0.65583034427E+03  0.11027786537E+04  0.15054332495E+04  0.46999998093E+01 0.  1.
       -5    1    3    3    0  502 -0.78744712788E+03 -0.65583034427E+03 -0.22014303400E+03  0.10481753027E+04  0.46999998093E+01 0. -1.
</event>
<event>
 5   0  0.5268358E-06  0.2425286E+04  0.7818609E-02  0.8430097E-01
       -2   -1    0    0    0  501  0.00000000000E+00  0.00000000000E+00  0.78854393775E+03  0.78854393775E+03  0.25500000920E-02 0.  1.
        2   -1    0    0  501    0  0.00000000000E+00  0.00000000000E+00 -0.18648332135E+04  0.18648332135E+04  0.25500000920E-02 0. -1.
    10030    2    1    2    0    0  0.00000000000E+00  0.00000000000E+00 -0.10762892758E+04  0.26533771513E+04  0.24252859010E+04 0.  0.
        2    1    3    3  502    0 -0.16146290936E+03 -0.11865687151E+04 -0.32916347734E+03  0.12419195552E+04  0.25500000920E-02 0.  1.
       -2    1    3    3    0  502  0.16146290936E+03  0.11865687151E+04 -0.74712579845E+03  0.14114575961E+04  0.25500000920E-02 0. -1.
</event>
<event>
 5   0  0.5371843E-06  0.2398848E+04  0.7818609E-02  0.8439935E-01
        2   -1    0    0  501    0  0.00000000000E+00  0.00000000000E+00  0.18441507436E+04  0.18441507436E+04  0.25500000920E-02 0.  1.
       -2   -1    0    0    0  501  0.00000000000E+00  0.00000000000E+00 -0.78009781191E+03  0.78009781191E+03  0.25500000920E-02 0. -1.
    10030    2    1    2    0    0  0.00000000000E+00  0.00000000000E+00  0.10640529317E+04  0.26242485555E+04  0.23988480235E+04 0.  0.
        4    1    3    3  502    0 -0.53505037983E+02  0.24651285911E+03  0.18148035927E+04  0.18322513670E+04  0.12699999809E+01 0.  1.
       -4    1    3    3    0  502  0.53505037983E+02 -0.24651285911E+03 -0.75075066100E+03  0.79199718856E+03  0.12699999809E+01 0. -1.
</event>
<event>
 5   0  0.2215700E-06  0.2403277E+04  0.7818609E-02  0.8438278E-01
       -1   -1    0    0    0  501  0.00000000000E+00  0.00000000000E+00  0.10174042192E+04  0.10174042192E+04  0.50400001928E-02 0.  1.
        1   -1    0    0  501    0  0.00000000000E+00  0.00000000000E+00 -0.14192343210E+04  0.14192343210E+04  0.50400001928E-02 0. -1.
    10030    2    1    2    0    0  0.00000000000E+00  0.00000000000E+00 -0.40183010181E+03  0.24366385402E+04  0.24032769181E+04 0.  0.
        3    1    3    3  502    0  0.10976442535E+04 -0.39488213063E+03  0.91498301614E+02  0.11700968993E+04  0.10100000352E+00 0.  1.
       -3    1    3    3    0  502 -0.10976442535E+04  0.39488213063E+03 -0.49332840342E+03  0.12665416409E+04  0.10100000352E+00 0. -1.
</event>
<event>
 5   0  0.5268358E-06  0.2402468E+04  0.7818609E-02  0.8438580E-01
       -2   -1    0    0    0  501  0.00000000000E+00  0.00000000000E+00  0.69005221769E+03  0.69005221770E+03  0.25500000920E-02 0.  1.
        2   -1    0    0  501    0  0.00000000000E+00  0.00000000000E+00 -0.20910925550E+04  0.20910925550E+04  0.25500000920E-02 0. -1.
    10030    2    1    2    0    0  0.00000000000E+00  0.00000000000E+00 -0.14010403373E+04  0.27811447727E+04  0.24024679436E+04 0.  0.
        2    1    3    3  502    0 -0.98072870331E+03 -0.35863706450E+01 -0.15034791014E+04  0.17950741099E+04  0.25500000920E-02 0. -1.
       -2    1    3    3    0  502  0.98072870331E+03  0.35863706450E+01  0.10243876418E+03  0.98607066276E+03  0.25500000920E-02 0.  1.
</event>
<event>
 5   0  0.5371843E-06  0.2399141E+04  0.7818609E-02  0.8439825E-01
        2   -1    0    0  501    0  0.00000000000E+00  0.00000000000E+00  0.12662321552E+04  0.12662321552E+04  0.25500000920E-02 0.  1.
       -2   -1    0    0    0  501  0.00000000000E+00  0.00000000000E+00 -0.11364187579E+04  0.11364187579E+04  0.25500000920E-02 0. -1.
    10030    2    1    2    0    0  0.00000000000E+00  0.00000000000E+00  0.12981339729E+03  0.24026509131E+04  0.23991414907E+04 0.  0.
        4    1    3    3  502    0 -0.17753397605E+03 -0.65031852318E+03  0.10585959340E+04  0.12550137285E+04  0.12699999809E+01 0.  1.
       -4    1    3    3    0  502  0.17753397605E+03  0.65031852318E+03 -0.92878253671E+03  0.11476371847E+04  0.12699999809E+01 0. -1.
</event>
<event>
 5   0  0.5440503E-06  0.2399541E+04  0.7818609E-02  0.8439676E-01
       -2   -1    0    0    0  501  0.00000000000E+00  0.00000000000E+00  0.72354391956E+03  0.72354391956E+03  0.25500000920E-02 0.  1.
        2   -1    0    0  501    0  0.00000000000E+00  0.00000000000E+00 -0.19894420763E+04  0.19894420763E+04  0.25500000920E-02 0. -1.
    10030    2    1    2    0    0  0.00000000000E+00  0.00000000000E+00 -0.12658981567E+04  0.27129859958E+04  0.23995405540E+04 0.  0.
        3    1    3    3  502    0 -0.36997967397E+03  0.96941705988E+03 -0.13139531251E+04  0.16742542281E+04  0.10100000352E+00 0. -1.
       -3    1    3    3    0  502  0.36997967397E+03 -0.96941705988E+03  0.48054968380E+02  0.10387317677E+04  0.10100000352E+00 0.  1.
</event>
<event>
 5   0  0.2149417E-06  0.2401551E+04  0.7818609E-02  0.8438923E-01
       -1   -1    0    0    0  501  0.00000000000E+00  0.00000000000E+00  0.61637012973E+03  0.61637012975E+03  0.50400001928E-02 0.  1.
        1   -1    0    0  501    0  0.00000000000E+00  0.00000000000E+00 -0.23392794226E+04  0.23392794226E+04  0.50400001928E-02 0. -1.
    10030    2    1    2    0    0  0.00000000000E+00  0.00000000000E+00 -0.17229092929E+04  0.29556495523E+04  0.24015511331E+04 0.  0.
        5    1    3    3  502    0 -0.36705902966E+03  0.82493273871E+02  0.54195120546E+03  0.65975046084E+03  0.46999998093E+01 0.  1.
       -5    1    3    3    0  502  0.36705902966E+03 -0.82493273871E+02 -0.22648604983E+04  0.22958990915E+04  0.46999998093E+01 0. -1.
</event>
<event>
 5   0  0.5268358E-06  0.2405445E+04  0.7818609E-02  0.8437468E-01
        2   -1    0    0  501    0  0.00000000000E+00  0.00000000000E+00  0.25281696407E+04  0.25281696407E+04  0.25500000920E-02 0.  1.
       -2   -1    0    0    0  501  0.00000000000E+00  0.00000000000E+00 -0.57216930375E+03  0.57216930376E+03  0.25500000920E-02 0. -1.
    10030    2    1    2    0    0  0.00000000000E+00  0.00000000000E+00  0.19560003369E+04  0.31003389445E+04  0.24054447099E+04 0.  0.
        2    1    3    3  502    0  0.29747323378E+03  0.10514226797E+04  0.16257346481E+04  0.19588244236E+04  0.25500000920E-02 0.  1.
       -2    1    3    3    0  502 -0.29747323378E+03 -0.10514226797E+04  0.33026568880E+03  0.11415145209E+04  0.25500000920E-02 0. -1.
</event>
<event>
 5   0  0.1796750E-06  0.2411019E+04  0.7818609E-02  0.8435390E-01
        3   -1    0    0  501    0  0.00000000000E+00  0.00000000000E+00  0.78160017592E+03  0.78160018245E+03  0.10100000352E+00 0.  1.
       -3   -1    0    0    0  501  0.00000000000E+00  0.00000000000E+00 -0.18593305997E+04  0.18593306025E+04  0.10100000352E+00 0. -1.
    10030    2    1    2    0    0  0.00000000000E+00  0.00000000000E+00 -0.10777304238E+04  0.26409307849E+04  0.24110189846E+04 0.  0.
        3    1    3    3  502    0  0.86219857436E+03 -0.66380164802E+03  0.29492077857E+02  0.10885259769E+04  0.10100000352E+00 0.  1.
       -3    1    3    3    0  502 -0.86219857436E+03  0.66380164802E+03 -0.11072225017E+04  0.15524048080E+04  0.10100000352E+00 0. -1.
</event>
<event>
 5   0  0.2149029E-06  0.2399867E+04  0.7818609E-02  0.8439553E-01
       -1   -1    0    0    0  501  0.00000000000E+00  0.00000000000E+00  0.92054631615E+03  0.92054631616E+03  0.50400001928E-02 0.  1.
        1   -1    0    0  501    0  0.00000000000E+00  0.00000000000E+00 -0.15641152619E+04  0.15641152619E+04  0.50400001928E-02 0. -1.
    10030    2    1    2    0    0  0.00000000000E+00  0.00000000000E+00 -0.64356894573E+03  0.24846615781E+04  0.23998671150E+04 0.  0.
        4    1    3    3  502    0  0.10647162606E+04 -0.40541172609E+03  0.68165893457E+02  0.11413271158E+04  0.12699999809E+01 0. -1.
       -4    1    3    3    0  502 -0.10647162606E+04  0.40541172609E+03 -0.71173483919E+03  0.13433344623E+04  0.12699999809E+01 0.  1.
</event>
<event>
 5   0  0.5268358E-06  0.2416418E+04  0.7818609E-02  0.8433382E-01
       -2   -1    0    0    0  501  0.00000000000E+00  0.00000000000E+00  0.79356832947E+03  0.79356832947E+03  0.25500000920E-02 0. -1.
        2   -1    0    0  501    0  0.00000000000E+00  0.00000000000E+00 -0.18395007339E+04  0.18395007339E+04  0.25500000920E-02 0.  1.
    10030    2    1    2    0    0  0.00000000000E+00  0.00000000000E+00 -0.10459324044E+04  0.26330690633E+04  0.24164184443E+04 0.  0.
        2    1    3    3  502    0 -0.44864232452E+03  0.39355847808E+03  0.62174573785E+03  0.86182131185E+03  0.25500000920E-02 0. -1.
       -2    1    3    3    0  502  0.44864232452E+03 -0.39355847808E+03 -0.16676781422E+04  0.17712477515E+04  0.25500000920E-02 0.  1.
</event>
<event>
 5   0  0.2149417E-06  0.2398249E+04  0.7818609E-02  0.8440159E-01
        1   -1    0    0  501    0  0.00000000000E+00  0.00000000000E+00  0.14281527508E+04  0.14281527508E+04  0.50400001928E-02 0.  1.
       -1   -1    0    0    0  501  0.00000000000E+00  0.00000000000E+00 -0.10068249711E+04  0.10068249712E+04  0.50400001928E-02 0. -1.
    10030    2    1    2    0    0  0.00000000000E+00  0.00000000000E+00  0.42132777964E+03  0.24349777219E+04  0.23982492382E+04 0.  0.
        5    1    3    3  502    0  0.66961727901E+03 -0.16988898614E+03  0.12057905040E+04  0.13896770839E+04  0.46999998093E+01 0.  1.
       -5    1    3    3    0  502 -0.66961727901E+03  0.16988898614E+03 -0.78446272437E+03  0.10453006380E+04  0.46999998093E+01 0. -1.
</event>
<event>
 5   0  0.2149417E-06  0.2390130E+04  0.7818609E-02  0.8443208E-01
       -1   -1    0    0    0  501  0.00000000000E+00  0.00000000000E+00  0.86190159237E+03  0.86190159239E+03  0.50400001928E-02 0. -1.
        1   -1    0    0  501    0  0.00000000000E+00  0.00000000000E+00 -0.16570110230E+04  0.16570110230E+04  0.50400001928E-02 0.  1.
    10030    2    1    2    0    0  0.00000000000E+00  0.00000000000E+00 -0.79510943065E+03  0.25189126154E+04  0.23901300712E+04 0.  0.
        5    1    3    3  502    0 -0.34388715759E+03  0.32400355627E+03 -0.15543885244E+04  0.16246176339E+04  0.46999998093E+01 0.  1.
       -5    1    3    3    0  502  0.34388715759E+03 -0.32400355627E+03  0.75927909378E+03  0.89429498147E+03  0.46999998093E+01 0. -1.
</event>
<event>
 5   0  0.2215700E-06  0.2400833E+04  0.7818609E-02  0.8439192E-01
        1   -1    0    0  501    0  0.00000000000E+00  0.00000000000E+00  0.15255473581E+04  0.15255473581E+04  0.50400001928E-02 0.  1.
       -1   -1    0    0    0  501  0.00000000000E+00  0.00000000000E+00 -0.94457902231E+03  0.94457902232E+03  0.50400001928E-02 0. -1.
    10030    2    1    2    0    0  0.00000000000E+00  0.00000000000E+00  0.58096833580E+03  0.24701263804E+04  0.24008332154E+04 0.  0.
        3    1    3    3  502    0 -0.60146360109E+03  0.75498744308E+03  0.10246877973E+04  0.14077462821E+04  0.10100000352E+00 0. -1.
       -3    1    3    3    0  502  0.60146360109E+03 -0.75498744308E+03 -0.44371946149E+03  0.10623800983E+04  0.10100000352E+00 0.  1.
</event>
<event>
 5   0  0.2254269E-06  0.2399900E+04  0.7818609E-02  0.8439541E-01
        1   -1    0    0  501    0  0.00000000000E+00  0.00000000000E+00  0.13313021479E+04  0.13313021479E+04  0.50400001928E-02 0. -1.
       -1   -1    0    0    0  501  0.00000000000E+00  0.00000000000E+00 -0.10815574038E+04  0.10815574038E+04  0.50400001928E-02 0.  1.
    10030    2    1    2    0    0  0.00000000000E+00  0.00000000000E+00  0.24974474418E+03  0.24128595517E+04  0.23998997435E+04 0.  0.
        2    1    3    3  502    0 -0.11463300161E+04 -0.32858992331E+03  0.25914449740E+03  0.12203277077E+04  0.25500000920E-02 0. -1.
       -2    1    3    3    0  502  0.11463300161E+04  0.32858992331E+03 -0.93997532238E+01  0.11925318440E+04  0.25500000920E-02 0.  1.
</event>
<event>
 5   0  0.5379778E-06  0.2390228E+04  0.7818609E-02  0.8443171E-01
        2   -1    0    0  501    0  0.00000000000E+00  0.00000000000E+00  0.13624857568E+04  0.13624857568E+04  0.25500000920E-02 0. -1.
       -2   -1    0    0    0  501  0.00000000000E+00  0.00000000000E+00 -0.10483029223E+04  0.10483029223E+04  0.25500000920E-02 0.  1.
    10030    2    1    2    0    0  0.00000000000E+00  0.00000000000E+00  0.31418283444E+03  0.24107886791E+04  0.23902282740E+04 0.  0.
        5    1    3    3  502    0 -0.27969078676E+03  0.80383481279E+03 -0.68911193837E+03  0.10951140105E+04  0.46999998093E+01 0.  1.
       -5    1    3    3    0  502  0.27969078676E+03 -0.80383481279E+03  0.10032947728E+04  0.13156746686E+04  0.46999998093E+01 0. -1.
</event>
<event>
 5   0  0.2149029E-06  0.2402131E+04  0.7818609E-02  0.8438706E-01
       -1   -1    0    0    0  501  0.00000000000E+00  0.00000000000E+00  0.14438568521E+04  0.14438568521E+04  0.50400001928E-02 0.  1.
        1   -1    0    0  501    0  0.00000000000E+00  0.00000000000E+00 -0.99910100919E+03  0.99910100920E+03  0.50400001928E-02 0. -1.
    10030    2    1    2    0    0  0.00000000000E+00  0.00000000000E+00  0.44475584293E+03  0.24429578613E+04  0.24021314186E+04 0.  0.
        4    1    3    3  502    0  0.32398068191E+03 -0.10942301918E+04  0.60324802791E+03  0.12908187289E+04  0.12699999809E+01 0.  1.
       -4    1    3    3    0  502 -0.32398068191E+03  0.10942301918E+04 -0.15849218497E+03  0.11521391324E+04  0.12699999809E+01 0. -1.
</event>
<event>
 5   0  0.2149417E-06  0.2409059E+04  0.7818609E-02  0.8436120E-01
       -1   -1    0    0    0  501  0.00000000000E+00  0.00000000000E+00  0.11209288257E+04  0.11209288257E+04  0.50400001928E-02 0. -1.
        1   -1    0    0  501    0  0.00000000000E+00  0.00000000000E+00 -0.12943654306E+04  0.12943654306E+04  0.50400001928E-02 0.  1.
    10030    2    1    2    0    0  0.00000000000E+00  0.00000000000E+00 -0.17343660486E+03  0.24152942563E+04  0.24090591708E+04 0.  0.
        5    1    3    3  502    0  0.60691167827E+03  0.86278350324E+03 -0.66971473014E+03  0.12495107316E+04  0.46999998093E+01 0.  1.
       -5    1    3    3    0  502 -0.60691167827E+03 -0.86278350324E+03  0.49627812528E+03  0.11657835246E+04  0.46999998093E+01 0. -1.
</event>
<event>
 5   0  0.5268358E-06  0.2386178E+04  0.7818609E-02  0.8444697E-01
        2   -1    0    0  501    0  0.00000000000E+00  0.00000000000E+00  0.25074759769E+04  0.25074759769E+04  0.25500000920E-02 0. -1.
       -2   -1    0    0    0  501  0.00000000000E+00  0.00000000000E+00 -0.56768686163E+03  0.56768686163E+03  0.25500000920E-02 0.  1.
    10030    2    1    2    0    0  0.00000000000E+00  0.00000000000E+00  0.19397891153E+04  0.30751628386E+04  0.23861778374E+04 0.  0.
        2    1    3    3  502    0  0.92675628947E+03 -0.38974303538E+03  0.14200140400E+03  0.10153527724E+04  0.25500000920E-02 0.  1.
       -2    1    3    3    0  502 -0.92675628947E+03  0.38974303538E+03  0.17977877113E+04  0.20598100662E+04  0.25500000920E-02 0. -1.
</event>
<event>
 5   0  0.2254269E-06  0.2400031E+04  0.7818609E-02  0.8439492E-01
       -1   -1    0    0    0  501  0.00000000000E+00  0.00000000000E+00  0.77396043969E+03  0.77396043971E+03  0.50400001928E-02 0. -1.
        1   -1    0    0  501    0  0.00000000000E+00  0.00000000000E+00 -0.18606089551E+04  0.18606089551E+04  0.50400001928E-02 0.  1.
    10030    2    1    2    0    0  0.00000000000E+00  0.00000000000E+00 -0.10866485154E+04  0.26345693948E+04  0.24000314373E+04 0.  0.
        2    1    3    3  502    0 -0.80153713202E+03 -0.77506516242E+03 -0.56289046162E+02  0.11164032590E+04  0.25500000920E-02 0.  1.
       -2    1    3    3    0  502  0.80153713202E+03  0.77506516242E+03 -0.10303594692E+04  0.15181661358E+04  0.25500000920E-02 0. -1.
</event>
<event>
 5   0  0.5379778E-06  0.2400993E+04  0.7818609E-02  0.8439132E-01
       -2   -1    0    0    0  501  0.00000000000E+00  0.00000000000E+00  0.94272075387E+03  0.94272075387E+03  0.25500000920E-02 0.  1.
        2   -1    0    0  501    0  0.00000000000E+00  0.00000000000E+00 -0.15287579214E+04  0.15287579214E+04  0.25500000920E-02 0. -1.
    10030    2    1    2    0    0  0.00000000000E+00  0.00000000000E+00 -0.58603716754E+03  0.24714786753E+04  0.24009929780E+04 0.  0.
        5    1    3    3  502    0  0.62634286442E+03 -0.93242395989E+03  0.14303272517E+03  0.11323428258E+04  0.46999998093E+01 0.  1.
       -5    1    3    3    0  502 -0.62634286442E+03  0.93242395989E+03 -0.72906989271E+03  0.13391358494E+04  0.46999998093E+01 0. -1.
</event>
<event>
 5   0  0.2297414E-06  0.2391039E+04  0.7818609E-02  0.8442866E-01
        1   -1    0    0  501    0  0.00000000000E+00  0.00000000000E+00  0.17320284629E+04  0.17320284629E+04  0.50400001928E-02 0. -1.
       -1   -1    0    0    0  501  0.00000000000E+00  0.00000000000E+00 -0.82519821703E+03  0.82519821704E+03  0.50400001928E-02 0.  1.
    10030    2    1    2    0    0  0.00000000000E+00  0.00000000000E+00  0.90683024590E+03  0.25572266800E+04  0.23910389369E+04 0.  0.
        1    1    3    3  502    0 -0.59214178349E+03  0.61230648128E+03  0.13505984467E+04  0.15967677611E+04  0.50400001928E-02 0. -1.
       -1    1    3    3    0  502  0.59214178349E+03 -0.61230648128E+03 -0.44376820077E+03  0.96045891886E+03  0.50400001928E-02 0.  1.
</event>
<event>
 5   0  0.5440503E-06  0.2399526E+04  0.7818609E-02  0.8439681E-01
        2   -1    0    0  501    0  0.00000000000E+00  0.00000000000E+00  0.13385423797E+04  0.13385423797E+04  0.25500000920E-02 0.  1.
       -2   -1    0    0    0  501  0.00000000000E+00  0.00000000000E+00 -0.10753722486E+04  0.10753722486E+04  0.25500000920E-02 0. -1.
    10030    2    1    2    0    0  0.00000000000E+00  0.00000000000E+00  0.26317013115E+03  0.24139146283E+04  0.23995260604E+04 0.  0.
        3    1    3    3  502    0 -0.71487198477E+03  0.13489962267E+03 -0.82817530312E+03  0.11023221878E+04  0.10100000352E+00 0. -1.
       -3    1    3    3    0  502  0.71487198477E+03 -0.13489962267E+03  0.10913454343E+04  0.13115924405E+04  0.10100000352E+00 0.  1.
</event>
<event>
 5   0  0.5379778E-06  0.2361351E+04  0.7818609E-02  0.8454117E-01
        2   -1    0    0  501    0  0.00000000000E+00  0.00000000000E+00  0.10557927557E+04  0.10557927557E+04  0.25500000920E-02 0.  1.
       -2   -1    0    0    0  501  0.00000000000E+00  0.00000000000E+00 -0.13203297834E+04  0.13203297834E+04  0.25500000920E-02 0. -1.
    10030    2    1    2    0    0  0.00000000000E+00  0.00000000000E+00 -0.26453702778E+03  0.23761225391E+04  0.23613509866E+04 0.  0.
        5    1    3    3  502    0 -0.17147621328E+03  0.93382870553E+03  0.57392818997E+03  0.11094394081E+04  0.46999998093E+01 0.  1.
       -5    1    3    3    0  502  0.17147621328E+03 -0.93382870553E+03 -0.83846521775E+03  0.12666831310E+04  0.46999998093E+01 0. -1.
</event>
<event>
 5   0  0.2297414E-06  0.2415028E+04  0.7818609E-02  0.8433899E-01
        1   -1    0    0  501    0  0.00000000000E+00  0.00000000000E+00  0.15009103571E+04  0.15009103571E+04  0.50400001928E-02 0. -1.
       -1   -1    0    0    0  501  0.00000000000E+00  0.00000000000E+00 -0.97147005996E+03  0.97147005998E+03  0.50400001928E-02 0.  1.
    10030    2    1    2    0    0  0.00000000000E+00  0.00000000000E+00  0.52944029714E+03  0.24723804171E+04  0.24150275151E+04 0.  0.
        1    1    3    3  502    0  0.24883831873E+03  0.16980918144E+03  0.14618203058E+04  0.14925395384E+04  0.50400001928E-02 0. -1.
       -1    1    3    3    0  502 -0.24883831873E+03 -0.16980918144E+03 -0.93238000870E+03  0.97984087873E+03  0.50400001928E-02 0.  1.
</event>
<event>
 5   0  0.5268358E-06  0.2397227E+04  0.7818609E-02  0.8440542E-01
       -2   -1    0    0    0  501  0.00000000000E+00  0.00000000000E+00  0.61506099552E+03  0.61506099553E+03  0.25500000920E-02 0.  1.
        2   -1    0    0  501    0  0.00000000000E+00  0.00000000000E+00 -0.23358247189E+04  0.23358247189E+04  0.25500000920E-02 0. -1.
    10030    2    1    2    0    0  0.00000000000E+00  0.00000000000E+00 -0.17207637234E+04  0.29508857144E+04  0.23972272958E+04 0.  0.
        2    1    3    3  502    0 -0.20731232384E+03  0.80402977223E+03  0.20369015942E+03  0.85494558616E+03  0.25500000920E-02 0.  1.
       -2    1    3    3    0  502  0.20731232384E+03 -0.80402977223E+03 -0.19244538828E+04  0.20959401282E+04  0.25500000920E-02 0. -1.
</event>
<event>
 5   0  0.5379778E-06  0.2400214E+04  0.7818609E-02  0.8439424E-01
       -2   -1    0    0    0  501  0.00000000000E+00  0.00000000000E+00  0.72212397499E+03  0.72212397499E+03  0.25500000920E-02 0. -1.
        2   -1    0    0  501    0  0.00000000000E+00  0.00000000000E+00 -0.19944726171E+04  0.19944726172E+04  0.25500000920E-02 0.  1.
    10030    2    1    2    0    0  0.00000000000E+00  0.00000000000E+00 -0.12723486422E+04  0.27165965921E+04  0.24002137357E+04 0.  0.
        5    1    3    3  502    0  0.76789531086E+03 -0.88828955751E+03 -0.91688451694E+03  0.14897720812E+04  0.46999998093E+01 0.  1.
       -5    1    3    3    0  502 -0.76789531086E+03  0.88828955751E+03 -0.35546412522E+03  0.12268245110E+04  0.46999998093E+01 0. -1.
</event>
<event>
 5   0  0.2149029E-06  0.2403648E+04  0.7818609E-02  0.8438139E-01
        1   -1    0    0  501    0  0.00000000000E+00  0.00000000000E+00  0.30653037927E+04  0.30653037927E+04  0.50400001928E-02 0. -1.
       -1   -1    0    0    0  501  0.00000000000E+00  0.00000000000E+00 -0.47120312545E+03  0.47120312547E+03  0.50400001928E-02 0.  1.
    10030    2    1    2    0    0  0.00000000000E+00  0.00000000000E+00  0.25941006672E+04  0.35365069181E+04  0.24036478341E+04 0.  0.
        4    1    3    3  502    0  0.36676137040E+02 -0.79207566511E+03 -0.31737445004E+02  0.79356025392E+03  0.12699999809E+01 0.  1.
       -4    1    3    3    0  502 -0.36676137040E+02  0.79207566511E+03  0.26258381122E+04  0.27429466642E+04  0.12699999809E+01 0. -1.
</event>
<event>
 5   0  0.5379778E-06  0.2398693E+04  0.7818609E-02  0.8439993E-01
       -2   -1    0    0    0  501  0.00000000000E+00  0.00000000000E+00  0.16510318001E+04  0.16510318001E+04  0.25500000920E-02 0. -1.
        2   -1    0    0  501    0  0.00000000000E+00  0.00000000000E+00 -0.87123201976E+03  0.87123201976E+03  0.25500000920E-02 0.  1.
    10030    2    1    2    0    0  0.00000000000E+00  0.00000000000E+00  0.77979978036E+03  0.25222638199E+04  0.23986927856E+04 0.  0.
        5    1    3    3  502    0  0.79042611009E+03 -0.49714664264E+03 -0.40152322708E+03  0.10164502997E+04  0.46999998093E+01 0.  1.
       -5    1    3    3    0  502 -0.79042611009E+03  0.49714664264E+03  0.11813230074E+04  0.15058135202E+04  0.46999998093E+01 0. -1.
</event>
<event>
 5   0  0.2149029E-06  0.2397881E+04  0.7818609E-02  0.8440297E-01
        1   -1    0    0  501    0  0.00000000000E+00  0.00000000000E+00  0.15057380677E+04  0.15057380677E+04  0.50400001928E-02 0. -1.
       -1   -1    0    0    0  501  0.00000000000E+00  0.00000000000E+00 -0.95465382825E+03  0.95465382827E+03  0.50400001928E-02 0.  1.
    10030    2    1    2    0    0  0.00000000000E+00  0.00000000000E+00  0.55108423945E+03  0.24603918960E+04  0.23978812404E+04 0.  0.
        4    1    3    3  502    0 -0.11572936591E+04  0.72946013763E+02  0.58812673661E+03  0.13002093699E+04  0.12699999809E+01 0. -1.
       -4    1    3    3    0  502  0.11572936591E+04 -0.72946013763E+02 -0.37042497161E+02  0.11601825261E+04  0.12699999809E+01 0.  1.
</event>
<event>
 5   0  0.2149417E-06  0.2377537E+04  0.7818609E-02  0.8447962E-01
       -1   -1    0    0    0  501  0.00000000000E+00  0.00000000000E+00  0.97983012659E+03  0.97983012660E+03  0.50400001928E-02 0. -1.
        1   -1    0    0  501    0  0.00000000000E+00  0.00000000000E+00 -0.14422608634E+04  0.14422608634E+04  0.50400001928E-02 0.  1.
    10030    2    1    2    0    0  0.00000000000E+00  0.00000000000E+00 -0.46243073682E+03  0.24220909900E+04  0.23775370823E+04 0.  0.
        5    1    3    3  502    0  0.30446256068E+03  0.85400458439E+03 -0.10144712296E+04  0.13605863614E+04  0.46999998093E+01 0.  1.
       -5    1    3    3    0  502 -0.30446256068E+03 -0.85400458439E+03  0.55204049277E+03  0.10615046287E+04  0.46999998093E+01 0. -1.
</event>
<event>
 5   0  0.2149417E-06  0.2404108E+04  0.7818609E-02  0.8437967E-01
       -1   -1    0    0    0  501  0.00000000000E+00  0.00000000000E+00  0.11243558546E+04  0.11243558547E+04  0.50400001928E-02 0. -1.
        1   -1    0    0  501    0  0.00000000000E+00  0.00000000000E+00 -0.12851219019E+04  0.12851219020E+04  0.50400001928E-02 0.  1.
    10030    2    1    2    0    0  0.00000000000E+00  0.00000000000E+00 -0.16076604730E+03  0.24094777566E+04  0.24041084288E+04 0.  0.
        5    1    3    3  502    0 -0.59339643701E+03  0.26178205869E+03  0.93393613087E+03  0.11370611084E+04  0.46999998093E+01 0. -1.
       -5    1    3    3    0  502  0.59339643701E+03 -0.26178205869E+03 -0.10947021782E+04  0.12724166482E+04  0.46999998093E+01 0.  1.
</event>
<event>
 5   0  0.1796750E-06  0.2336486E+04  0.7818609E-02  0.8463672E-01
       -3   -1    0    0    0  501  0.00000000000E+00  0.00000000000E+00  0.10568530530E+04  0.10568530579E+04  0.10100000352E+00 0.  1.
        3   -1    0    0  501    0  0.00000000000E+00  0.00000000000E+00 -0.12913735390E+04  0.12913735429E+04  0.10100000352E+00 0. -1.
    10030    2    1    2    0    0  0.00000000000E+00  0.00000000000E+00 -0.23452048596E+03  0.23482266008E+04  0.23364863172E+04 0.  0.
        5    1    3    3  502    0 -0.49349195645E+03  0.81472084765E+03 -0.79702084586E+03  0.12420018879E+04  0.46999998093E+01 0. -1.
       -5    1    3    3    0  502  0.49349195645E+03 -0.81472084765E+03  0.56250035991E+03  0.11062247130E+04  0.46999998093E+01 0.  1.
</event>
<event>
 5   0  0.5379778E-06  0.2400079E+04  0.7818609E-02  0.8439474E-01
        2   -1    0    0  501    0  0.00000000000E+00  0.00000000000E+00  0.19939253517E+04  0.19939253517E+04  0.25500000920E-02 0.  1.
       -2   -1    0    0    0  501  0.00000000000E+00  0.00000000000E+00 -0.72224101986E+03  0.72224101987E+03  0.25500000920E-02 0. -1.
    10030    2    1    2    0    0  0.00000000000E+00  0.00000000000E+00  0.12716843318E+04  0.27161663715E+04  0.24000788983E+04 0.  0.
        5    1    3    3  502    0 -0.29066366922E+03 -0.11055563840E+04  0.10490785370E+04  0.15515566872E+04  0.46999998093E+01 0.  1.
       -5    1    3    3    0  502  0.29066366922E+03  0.11055563840E+04  0.22260579484E+03  0.11646096843E+04  0.46999998093E+01 0. -1.
</event>
<event>
 5   0  0.2149417E-06  0.2404181E+04  0.7818609E-02  0.8437940E-01
       -1   -1    0    0    0  501  0.00000000000E+00  0.00000000000E+00  0.81815138088E+03  0.81815138090E+03  0.50400001928E-02 0. -1.
        1   -1    0    0  501    0  0.00000000000E+00  0.00000000000E+00 -0.17662024545E+04  0.17662024545E+04  0.50400001928E-02 0.  1.
    10030    2    1    2    0    0  0.00000000000E+00  0.00000000000E+00 -0.94805107365E+03  0.25843538354E+04  0.24041805066E+04 0.  0.
        5    1    3    3  502    0 -0.40341702364E+02 -0.84001624597E+03  0.44926373126E+03  0.95347508445E+03  0.46999998093E+01 0. -1.
       -5    1    3    3    0  502  0.40341702364E+02  0.84001624597E+03 -0.13973148049E+04  0.16308787510E+04  0.46999998093E+01 0.  1.
</event>
<event>
 5   0  0.2149417E-06  0.2393679E+04  0.7818609E-02  0.8441874E-01
       -1   -1    0    0    0  501  0.00000000000E+00  0.00000000000E+00  0.60786772257E+03  0.60786772259E+03  0.50400001928E-02 0. -1.
        1   -1    0    0  501    0  0.00000000000E+00  0.00000000000E+00 -0.23564749292E+04  0.23564749292E+04  0.50400001928E-02 0.  1.
    10030    2    1    2    0    0  0.00000000000E+00  0.00000000000E+00 -0.17486072066E+04  0.29643426518E+04  0.23936792171E+04 0.  0.
        5    1    3    3  502    0 -0.27884138477E+03 -0.43967951753E+03  0.46026442989E+03  0.69493599088E+03  0.46999998093E+01 0. -1.
       -5    1    3    3    0  502  0.27884138477E+03  0.43967951753E+03 -0.22088716365E+04  0.22694066609E+04  0.46999998093E+01 0.  1.
</event>
<event>
 5   0  0.5440503E-06  0.2402889E+04  0.7818609E-02  0.8438423E-01
       -2   -1    0    0    0  501  0.00000000000E+00  0.00000000000E+00  0.68245466928E+03  0.68245466929E+03  0.25500000920E-02 0. -1.
        2   -1    0    0  501    0  0.00000000000E+00  0.00000000000E+00 -0.21151130480E+04  0.21151130480E+04  0.25500000920E-02 0.  1.
    10030    2    1    2    0    0  0.00000000000E+00  0.00000000000E+00 -0.14326583787E+04  0.27975677173E+04  0.24028889077E+04 0.  0.
        3    1    3    3  502    0  0.22008480861E+03  0.11681544873E+04 -0.51317964088E+03  0.12947492356E+04  0.10100000352E+00 0. -1.
       -3    1    3    3    0  502 -0.22008480861E+03 -0.11681544873E+04 -0.91947873780E+03  0.15028184816E+04  0.10100000352E+00 0.  1.
</event>
<event>
 5   0  0.5349036E-06  0.2398761E+04  0.7818609E-02  0.8439968E-01
       -2   -1    0    0    0  501  0.00000000000E+00  0.00000000000E+00  0.11058884494E+04  0.11058884494E+04  0.25500000920E-02 0. -1.
        2   -1    0    0  501    0  0.00000000000E+00  0.00000000000E+00 -0.13007764063E+04  0.13007764063E+04  0.25500000920E-02 0.  1.
    10030    2    1    2    0    0  0.00000000000E+00  0.00000000000E+00 -0.19488795688E+03  0.24066648557E+04  0.23987610160E+04 0.  0.
        1    1    3    3  502    0 -0.11085939744E+04 -0.37591785275E+02  0.36026074782E+03  0.11662682148E+04  0.50400001928E-02 0. -1.
       -1    1    3    3    0  502  0.11085939744E+04  0.37591785275E+02 -0.55514870470E+03  0.12403966409E+04  0.50400001928E-02 0.  1.
</event>
<event>
 5   0  0.5371843E-06  0.2402948E+04  0.7818609E-02  0.8438401E-01
        2   -1    0    0  501    0  0.00000000000E+00  0.00000000000E+00  0.10445472669E+04  0.10445472669E+04  0.25500000920E-02 0. -1.
       -2   -1    0    0    0  501  0.00000000000E+00  0.00000000000E+00 -0.13819767715E+04  0.13819767715E+04  0.25500000920E-02 0.  1.
    10030    2    1    2    0    0  0.00000000000E+00  0.00000000000E+00 -0.33742950465E+03  0.24265240384E+04  0.24029482388E+04 0.  0.
        4    1    3    3  502    0  0.95847649237E+02 -0.11808532910E+04  0.33088833777E+02  0.11851994560E+04  0.12699999809E+01 0. -1.
       -4    1    3    3    0  502 -0.95847649237E+02  0.11808532910E+04 -0.37051833842E+03  0.12413245824E+04  0.12699999809E+01 0.  1.
</event>
<event>
 5   0  0.2149029E-06  0.2400736E+04  0.7818609E-02  0.8439228E-01
       -1   -1    0    0    0  501  0.00000000000E+00  0.00000000000E+00  0.13448785090E+04  0.13448785090E+04  0.50400001928E-02 0. -1.
        1   -1    0    0  501    0  0.00000000000E+00  0.00000000000E+00 -0.10713856380E+04  0.10713856380E+04  0.50400001928E-02 0.  1.
    10030    2    1    2    0    0  0.00000000000E+00  0.00000000000E+00  0.27349287101E+03  0.24162641470E+04  0.24007361533E+04 0.  0.
        4    1    3    3  502    0 -0.60288265012E+03  0.10368141973E+04  0.87125040741E+02  0.12025155114E+04  0.12699999809E+01 0.  1.
       -4    1    3    3    0  502  0.60288265012E+03 -0.10368141973E+04  0.18636783027E+03  0.12137486357E+04  0.12699999809E+01 0. -1.
</event>
<event>
 5   0  0.1796750E-06  0.2415355E+04  0.7818609E-02  0.8433777E-01
       -4   -1    0    0    0  501  0.00000000000E+00  0.00000000000E+00  0.16214375264E+04  0.16214380237E+04  0.12699999809E+01 0.  1.
        4   -1    0    0  501    0  0.00000000000E+00  0.00000000000E+00 -0.89950042960E+03  0.89950132615E+03  0.12699999809E+01 0. -1.
    10030    2    1    2    0    0  0.00000000000E+00  0.00000000000E+00  0.72193709676E+03  0.25209393499E+04  0.24153554674E+04 0.  0.
        5    1    3    3  502    0  0.37649165546E+03  0.93295295855E+03 -0.33630418403E+03  0.10607873414E+04  0.46999998093E+01 0. -1.
       -5    1    3    3    0  502 -0.37649165546E+03 -0.93295295855E+03  0.10582412808E+04  0.14601520085E+04  0.46999998093E+01 0.  1.
</event>
<event>
 5   0  0.2149029E-06  0.2405337E+04  0.7818609E-02  0.8437508E-01
        1   -1    0    0  501    0  0.00000000000E+00  0.00000000000E+00  0.11998086696E+04  0.11998086697E+04  0.50400001928E-02 0.  1.
       -1   -1    0    0    0  501  0.00000000000E+00  0.00000000000E+00 -0.12055353892E+04  0.12055353892E+04  0.50400001928E-02 0. -1.
    10030    2    1    2    0    0  0.00000000000E+00  0.00000000000E+00 -0.57267195913E+01  0.24053440589E+04  0.24053372417E+04 0.  0.
        4    1    3    3  502    0 -0.10808388990E+04  0.52321873768E+03 -0.69494064874E+02  0.12028306659E+04  0.12699999809E+01 0.  1.
       -4    1    3    3    0  502  0.10808388990E+04 -0.52321873768E+03  0.63767345282E+02  0.12025133929E+04  0.12699999809E+01 0. -1.
</event>
<event>
 5   0  0.5349036E-06  0.2353352E+04  0.7818609E-02  0.8457177E-01
       -2   -1    0    0    0  501  0.00000000000E+00  0.00000000000E+00  0.10035472371E+04  0.10035472371E+04  0.25500000920E-02 0. -1.
        2   -1    0    0  501    0  0.00000000000E+00  0.00000000000E+00 -0.13796726281E+04  0.13796726281E+04  0.25500000920E-02 0.  1.
    10030    2    1    2    0    0  0.00000000000E+00  0.00000000000E+00 -0.37612539094E+03  0.23832198652E+04  0.23533522082E+04 0.  0.
        1    1    3    3  502    0  0.72895404148E+03  0.76203655486E+03  0.34057096695E+03  0.11081797188E+04  0.50400001928E-02 0. -1.
       -1    1    3    3    0  502 -0.72895404148E+03 -0.76203655486E+03 -0.71669635788E+03  0.12750401464E+04  0.50400001928E-02 0.  1.
</event>
<event>
 5   0  0.2254269E-06  0.2352085E+04  0.7818609E-02  0.8457663E-01
        1   -1    0    0  501    0  0.00000000000E+00  0.00000000000E+00  0.20305085557E+04  0.20305085557E+04  0.50400001928E-02 0.  1.
       -1   -1    0    0    0  501  0.00000000000E+00  0.00000000000E+00 -0.68114767681E+03  0.68114767683E+03  0.50400001928E-02 0. -1.
    10030    2    1    2    0    0  0.00000000000E+00  0.00000000000E+00  0.13493608789E+04  0.27116562325E+04  0.23520851902E+04 0.  0.
        2    1    3    3  502    0 -0.59787199607E+03  0.74156767816E+03  0.14698309920E+04  0.17515069769E+04  0.25500000920E-02 0.  1.
       -2    1    3    3    0  502  0.59787199607E+03 -0.74156767816E+03 -0.12047011312E+03  0.96014925566E+03  0.25500000920E-02 0. -1.
</event>
<event>
 5   0  0.5268358E-06  0.2402375E+04  0.7818609E-02  0.8438615E-01
       -2   -1    0    0    0  501  0.00000000000E+00  0.00000000000E+00  0.16842952705E+04  0.16842952705E+04  0.25500000920E-02 0.  1.
        2   -1    0    0  501    0  0.00000000000E+00  0.00000000000E+00 -0.85665011762E+03  0.85665011762E+03  0.25500000920E-02 0. -1.
    10030    2    1    2    0    0  0.00000000000E+00  0.00000000000E+00  0.82764515291E+03  0.25409453882E+04  0.24023752759E+04 0.  0.
        2    1    3    3  502    0 -0.83475582284E+03 -0.28497175200E+02  0.13268785928E+04  0.15678763257E+04  0.25500000920E-02 0.  1.
       -2    1    3    3    0  502  0.83475582284E+03  0.28497175200E+02 -0.49923343988E+03  0.97306906243E+03  0.25500000920E-02 0. -1.
</event>
<event>
 5   0  0.2297414E-06  0.2400604E+04  0.7818609E-02  0.8439278E-01
       -1   -1    0    0    0  501  0.00000000000E+00  0.00000000000E+00  0.13013032239E+04  0.13013032240E+04  0.50400001928E-02 0. -1.
        1   -1    0    0  501    0  0.00000000000E+00  0.00000000000E+00 -0.11071396279E+04  0.11071396279E+04  0.50400001928E-02 0.  1.
    10030    2    1    2    0    0  0.00000000000E+00  0.00000000000E+00  0.19416359606E+03  0.24084428518E+04  0.24006035634E+04 0.  0.
        1    1    3    3  502    0  0.69605615509E+03  0.15271890971E+03 -0.87194347865E+03  0.11261006467E+04  0.50400001928E-02 0.  1.
       -1    1    3    3    0  502 -0.69605615509E+03 -0.15271890971E+03  0.10661070747E+04  0.12823422052E+04  0.50400001928E-02 0. -1.
</event>
<event>
 5   0  0.2149029E-06  0.2399342E+04  0.7818609E-02  0.8439750E-01
        1   -1    0    0  501    0  0.00000000000E+00  0.00000000000E+00  0.78054314505E+03  0.78054314507E+03  0.50400001928E-02 0.  1.
       -1   -1    0    0    0  501  0.00000000000E+00  0.00000000000E+00 -0.18438576997E+04  0.18438576997E+04  0.50400001928E-02 0. -1.
    10030    2    1    2    0    0  0.00000000000E+00  0.00000000000E+00 -0.10633145547E+04  0.26244008448E+04  0.23993419831E+04 0.  0.
        4    1    3    3  502    0  0.50525254384E+03 -0.90291043900E+03 -0.11958034549E+04  0.15812890025E+04  0.12699999809E+01 0. -1.
       -4    1    3    3    0  502 -0.50525254384E+03  0.90291043900E+03  0.13248890020E+03  0.10431118423E+04  0.12699999809E+01 0.  1.
</event>
<event>
 5   0  0.5268358E-06  0.2393480E+04  0.7818609E-02  0.8441948E-01
        2   -1    0    0  501    0  0.00000000000E+00  0.00000000000E+00  0.61929353956E+03  0.61929353957E+03  0.25500000920E-02 0. -1.
       -2   -1    0    0    0  501  0.00000000000E+00  0.00000000000E+00 -0.23126143343E+04  0.23126143343E+04  0.25500000920E-02 0.  1.
    10030    2    1    2    0    0  0.00000000000E+00  0.00000000000E+00 -0.16933207948E+04  0.29319078739E+04  0.23934804088E+04 0.  0.
        2    1    3    3  502    0 -0.73829189537E+03  0.85446397576E+03 -0.36128794834E+03  0.11856275091E+04  0.25500000920E-02 0. -1.
       -2    1    3    3    0  502  0.73829189537E+03 -0.85446397576E+03 -0.13320328464E+04  0.17462803648E+04  0.25500000920E-02 0.  1.
</event>
<event>
 5   0  0.5379778E-06  0.2399986E+04  0.7818609E-02  0.8439509E-01
       -2   -1    0    0    0  501  0.00000000000E+00  0.00000000000E+00  0.10634715552E+04  0.10634715552E+04  0.25500000920E-02 0.  1.
        2   -1    0    0  501    0  0.00000000000E+00  0.00000000000E+00 -0.13540402922E+04  0.13540402922E+04  0.25500000920E-02 0. -1.
    10030    2    1    2    0    0  0.00000000000E+00  0.00000000000E+00 -0.29056873696E+03  0.24175118474E+04  0.23999861127E+04 0.  0.
        5    1    3    3  502    0  0.70829829233E+03  0.41442211931E+03 -0.10271942332E+04  0.13147555844E+04  0.46999998093E+01 0.  1.
       -5    1    3    3    0  502 -0.70829829233E+03 -0.41442211931E+03  0.73662549626E+03  0.11027562630E+04  0.46999998093E+01 0. -1.
</event>
<event>
 5   0  0.2297414E-06  0.2395851E+04  0.7818609E-02  0.8441058E-01
       -1   -1    0    0    0  501  0.00000000000E+00  0.00000000000E+00  0.74506478014E+03  0.74506478016E+03  0.50400001928E-02 0. -1.
        1   -1    0    0  501    0  0.00000000000E+00  0.00000000000E+00 -0.19260419685E+04  0.19260419685E+04  0.50400001928E-02 0.  1.
    10030    2    1    2    0    0  0.00000000000E+00  0.00000000000E+00 -0.11809771884E+04  0.26711067487E+04  0.23958514443E+04 0.  0.
        1    1    3    3  502    0  0.11902881795E+04 -0.13348223924E+03 -0.61340700637E+03  0.13456862985E+04  0.50400001928E-02 0. -1.
       -1    1    3    3    0  502 -0.11902881795E+04  0.13348223924E+03 -0.56757018199E+03  0.13254204502E+04  0.50400001928E-02 0.  1.
</event>
<event>
 5   0  0.2254269E-06  0.2399567E+04  0.7818609E-02  0.8439666E-01
       -1   -1    0    0    0  501  0.00000000000E+00  0.00000000000E+00  0.17916547379E+04  0.17916547379E+04  0.50400001928E-02 0.  1.
        1   -1    0    0  501    0  0.00000000000E+00  0.00000000000E+00 -0.80343646904E+03  0.80343646905E+03  0.50400001928E-02 0. -1.
    10030    2    1    2    0    0  0.00000000000E+00  0.00000000000E+00  0.98821826890E+03  0.25950912070E+04  0.23995672580E+04 0.  0.
        2    1    3    3  502    0  0.97533236821E+03 -0.69845641985E+03  0.51480357392E+03  0.13054261062E+04  0.25500000920E-02 0. -1.
       -2    1    3    3    0  502 -0.97533236821E+03  0.69845641985E+03  0.47341469498E+03  0.12896651008E+04  0.25500000920E-02 0.  1.
</event>
<event>
 5   0  0.5371843E-06  0.2397045E+04  0.7818609E-02  0.8440611E-01
        2   -1    0    0  501    0  0.00000000000E+00  0.00000000000E+00  0.10098735036E+04  0.10098735036E+04  0.25500000920E-02 0.  1.
       -2   -1    0    0    0  501  0.00000000000E+00  0.00000000000E+00 -0.14224115223E+04  0.14224115223E+04  0.25500000920E-02 0. -1.
    10030    2    1    2    0    0  0.00000000000E+00  0.00000000000E+00 -0.41253801873E+03  0.24322850259E+04  0.23970446033E+04 0.  0.
        4    1    3    3  502    0  0.58987678451E+03 -0.15411519673E+02  0.85226563140E+03  0.10366052552E+04  0.12699999809E+01 0.  1.
       -4    1    3    3    0  502 -0.58987678451E+03  0.15411519673E+02 -0.12648036501E+04  0.13956797706E+04  0.12699999809E+01 0. -1.
</event>
<event>
 5   0  0.1796750E-06  0.2407621E+04  0.7818609E-02  0.8436656E-01
        3   -1    0    0  501    0  0.00000000000E+00  0.00000000000E+00  0.22442611445E+04  0.22442611467E+04  0.10100000352E+00 0. -1.
       -3   -1    0    0    0  501  0.00000000000E+00  0.00000000000E+00 -0.64571791744E+03  0.64571792534E+03  0.10100000352E+00 0.  1.
    10030    2    1    2    0    0  0.00000000000E+00  0.00000000000E+00  0.15985432270E+04  0.28899790721E+04  0.24076209395E+04 0.  0.
        1    1    3    3  502    0 -0.34670790794E+03 -0.51258337652E+03  0.20387195209E+04  0.21305692611E+04  0.50400001928E-02 0. -1.
       -1    1    3    3    0  502  0.34670790794E+03  0.51258337652E+03 -0.44017629388E+03  0.75940981099E+03  0.50400001928E-02 0.  1.
</event>
<event>
 5   0  0.5371843E-06  0.2405405E+04  0.7818609E-02  0.8437483E-01
       -2   -1    0    0    0  501  0.00000000000E+00  0.00000000000E+00  0.12617962295E+04  0.12617962295E+04  0.25500000920E-02 0.  1.
        2   -1    0    0  501    0  0.00000000000E+00  0.00000000000E+00 -0.11463762933E+04  0.11463762933E+04  0.25500000920E-02 0. -1.
    10030    2    1    2    0    0  0.00000000000E+00  0.00000000000E+00  0.11541993623E+03  0.24081725228E+04  0.24054049842E+04 0.  0.
        4    1    3    3  502    0  0.50764413830E+03 -0.91414498307E+03 -0.53721952413E+03  0.11755722229E+04  0.12699999809E+01 0. -1.
       -4    1    3    3    0  502 -0.50764413830E+03  0.91414498307E+03  0.65263946036E+03  0.12326002999E+04  0.12699999809E+01 0.  1.
</event>
<event>
 5   0  0.5371843E-06  0.2398941E+04  0.7818609E-02  0.8439900E-01
       -2   -1    0    0    0  501  0.00000000000E+00  0.00000000000E+00  0.52629255400E+03  0.52629255400E+03  0.25500000920E-02 0.  1.
        2   -1    0    0  501    0  0.00000000000E+00  0.00000000000E+00 -0.27337061918E+04  0.27337061918E+04  0.25500000920E-02 0. -1.
    10030    2    1    2    0    0  0.00000000000E+00  0.00000000000E+00 -0.22074136378E+04  0.32599987458E+04  0.23989407776E+04 0.  0.
        4    1    3    3  502    0  0.13831467261E+03  0.58671926779E+03  0.30549848915E+03  0.67579685382E+03  0.12699999809E+01 0.  1.
       -4    1    3    3    0  502 -0.13831467261E+03 -0.58671926779E+03 -0.25129121270E+04  0.25842018920E+04  0.12699999809E+01 0. -1.
</event>
<event>
 5   0  0.5379778E-06  0.2397921E+04  0.7818609E-02  0.8440282E-01
       -2   -1    0    0    0  501  0.00000000000E+00  0.00000000000E+00  0.87524141588E+03  0.87524141589E+03  0.25500000920E-02 0.  1.
        2   -1    0    0  501    0  0.00000000000E+00  0.00000000000E+00 -0.16424104906E+04  0.16424104906E+04  0.25500000920E-02 0. -1.
    10030    2    1    2    0    0  0.00000000000E+00  0.00000000000E+00 -0.76716907473E+03  0.25176519065E+04  0.23979205018E+04 0.  0.
        5    1    3    3  502    0  0.11456937195E+04 -0.30742071312E+03 -0.56653187258E+03  0.13145729521E+04  0.46999998093E+01 0.  1.
       -5    1    3    3    0  502 -0.11456937195E+04  0.30742071312E+03 -0.20063720215E+03  0.12030789544E+04  0.46999998093E+01 0. -1.
</event>
<event>
 5   0  0.2254269E-06  0.2385744E+04  0.7818609E-02  0.8444860E-01
       -1   -1    0    0    0  501  0.00000000000E+00  0.00000000000E+00  0.11362977844E+04  0.11362977844E+04  0.50400001928E-02 0.  1.
        1   -1    0    0  501    0  0.00000000000E+00  0.00000000000E+00 -0.12522625489E+04  0.12522625489E+04  0.50400001928E-02 0. -1.
    10030    2    1    2    0    0  0.00000000000E+00  0.00000000000E+00 -0.11596476451E+03  0.23885603333E+04  0.23857436240E+04 0.  0.
        2    1    3    3  502    0 -0.10057303463E+04 -0.31623797947E+03  0.50074743684E+03  0.11671537964E+04  0.25500000920E-02 0.  1.
       -2    1    3    3    0  502  0.10057303463E+04  0.31623797947E+03 -0.61671220135E+03  0.12214065369E+04  0.25500000920E-02 0. -1.
</event>
<event>
 5   0  0.2297414E-06  0.2400533E+04  0.7818609E-02  0.8439304E-01
       -1   -1    0    0    0  501  0.00000000000E+00  0.00000000000E+00  0.14705493536E+04  0.14705493536E+04  0.50400001928E-02 0. -1.
        1   -1    0    0  501    0  0.00000000000E+00  0.00000000000E+00 -0.97966105602E+03  0.97966105603E+03  0.50400001928E-02 0.  1.
    10030    2    1    2    0    0  0.00000000000E+00  0.00000000000E+00  0.49088829762E+03  0.24502104097E+04  0.24005332180E+04 0.  0.
        1    1    3    3  502    0  0.61624652037E+02 -0.89582180548E+03 -0.56749611864E+03  0.10622363906E+04  0.50400001928E-02 0.  1.
       -1    1    3    3    0  502 -0.61624652037E+02  0.89582180548E+03  0.10583844163E+04  0.13879740190E+04  0.50400001928E-02 0. -1.
</event>
<event>
 5   0  0.1796750E-06  0.2404246E+04  0.7818609E-02  0.8437915E-01
        3   -1    0    0  501    0  0.00000000000E+00  0.00000000000E+00  0.15242018270E+04  0.15242018304E+04  0.10100000352E+00 0.  1.
       -3   -1    0    0    0  501  0.00000000000E+00  0.00000000000E+00 -0.94810289672E+03  0.94810290210E+03  0.10100000352E+00 0. -1.
    10030    2    1    2    0    0  0.00000000000E+00  0.00000000000E+00  0.57609893033E+03  0.24723047325E+04  0.24042463919E+04 0.  0.
        2    1    3    3  502    0  0.10625516559E+04  0.10112955363E+03  0.85674814258E+03  0.13686711029E+04  0.25500000920E-02 0.  1.
       -2    1    3    3    0  502 -0.10625516559E+04 -0.10112955363E+03 -0.28064921225E+03  0.11036336296E+04  0.25500000920E-02 0. -1.
</event>
<event>
 5   0  0.5349036E-06  0.2400177E+04  0.7818609E-02  0.8439437E-01
        2   -1    0    0  501    0  0.00000000000E+00  0.00000000000E+00  0.20033314140E+04  0.20033314140E+04  0.25500000920E-02 0. -1.
       -2   -1    0    0    0  501  0.00000000000E+00  0.00000000000E+00 -0.71890897680E+03  0.71890897680E+03  0.25500000920E-02 0.  1.
    10030    2    1    2    0    0  0.00000000000E+00  0.00000000000E+00  0.12844224372E+04  0.27222403908E+04  0.24001774410E+04 0.  0.
        1    1    3    3  502    0 -0.11203927435E+04  0.23742659525E+03  0.10488781337E+04  0.15529960165E+04  0.50400001928E-02 0. -1.
       -1    1    3    3    0  502  0.11203927435E+04 -0.23742659525E+03  0.23554430354E+03  0.11692443743E+04  0.50400001928E-02 0.  1.
</event>
<event>
 5   0  0.1796750E-06  0.2394893E+04  0.7818609E-02  0.8441418E-01
       -4   -1    0    0    0  501  0.00000000000E+00  0.00000000000E+00  0.88607221126E+03  0.88607312140E+03  0.12699999809E+01 0. -1.
        4   -1    0    0  501    0  0.00000000000E+00  0.00000000000E+00 -0.16182393628E+04  0.16182398611E+04  0.12699999809E+01 0.  1.
    10030    2    1    2    0    0  0.00000000000E+00  0.00000000000E+00 -0.73216715150E+03  0.25043129825E+04  0.23948934792E+04 0.  0.
        5    1    3    3  502    0 -0.18848199979E+03 -0.71724224806E+03  0.61702767840E+03  0.96473164795E+03  0.46999998093E+01 0. -1.
       -5    1    3    3    0  502  0.18848199979E+03  0.71724224806E+03 -0.13491948299E+04  0.15395813345E+04  0.46999998093E+01 0.  1.
</event>
<event>
 5   0  0.5371843E-06  0.2401147E+04  0.7818609E-02  0.8439074E-01
        2   -1    0    0  501    0  0.00000000000E+00  0.00000000000E+00  0.15032551465E+04  0.15032551465E+04  0.25500000920E-02 0. -1.
       -2   -1    0    0    0  501  0.00000000000E+00  0.00000000000E+00 -0.95883704370E+03  0.95883704370E+03  0.25500000920E-02 0.  1.
    10030    2    1    2    0    0  0.00000000000E+00  0.00000000000E+00  0.54441810281E+03  0.24620921902E+04  0.24011469931E+04 0.  0.
        4    1    3    3  502    0 -0.44823891796E+03  0.82110625160E+02  0.14111283577E+04  0.14828840606E+04  0.12699999809E+01 0. -1.
       -4    1    3    3    0  502  0.44823891796E+03 -0.82110625160E+02 -0.86671025487E+03  0.97920812964E+03  0.12699999809E+01 0.  1.
</event>
<event>
 5   0  0.2149417E-06  0.2397394E+04  0.7818609E-02  0.8440480E-01
       -1   -1    0    0    0  501  0.00000000000E+00  0.00000000000E+00  0.89829599401E+03  0.89829599402E+03  0.50400001928E-02 0.  1.
        1   -1    0    0  501    0  0.00000000000E+00  0.00000000000E+00 -0.15995563129E+04  0.15995563130E+04  0.50400001928E-02 0. -1.
    10030    2    1    2    0    0  0.00000000000E+00  0.00000000000E+00 -0.70126031894E+03  0.24978523070E+04  0.23973944424E+04 0.  0.
        5    1    3    3  502    0  0.54979563188E+03  0.96523696786E+03 -0.81994388097E+03  0.13806837795E+04  0.46999998093E+01 0.  1.
       -5    1    3    3    0  502 -0.54979563188E+03 -0.96523696786E+03  0.11868356203E+03  0.11171685275E+04  0.46999998093E+01 0. -1.
</event>
<event>
 5   0  0.2215700E-06  0.2384967E+04  0.7818609E-02  0.8445153E-01
        1   -1    0    0  501    0  0.00000000000E+00  0.00000000000E+00  0.99834850432E+03  0.99834850433E+03  0.50400001928E-02 0.  1.
       -1   -1    0    0    0  501  0.00000000000E+00  0.00000000000E+00 -0.14243695509E+04  0.14243695509E+04  0.50400001928E-02 0. -1.
    10030    2    1    2    0    0  0.00000000000E+00  0.00000000000E+00 -0.42602104659E+03  0.24227180553E+04  0.23849672625E+04 0.  0.
        3    1    3    3  502    0  0.12485465265E+03  0.27538945167E+03  0.95875966695E+03  0.10053099739E+04  0.10100000352E+00 0.  1.
       -3    1    3    3    0  502 -0.12485465265E+03 -0.27538945167E+03 -0.13847807135E+04  0.14174080814E+04  0.10100000352E+00 0. -1.
</event>
<event>
 5   0  0.2254269E-06  0.2401593E+04  0.7818609E-02  0.8438908E-01
        1   -1    0    0  501    0  0.00000000000E+00  0.00000000000E+00  0.14612455371E+04  0.14612455371E+04  0.50400001928E-02 0. -1.
       -1   -1    0    0    0  501  0.00000000000E+00  0.00000000000E+00 -0.98676892886E+03  0.98676892888E+03  0.50400001928E-02 0.  1.
    10030    2    1    2    0    0  0.00000000000E+00  0.00000000000E+00  0.47447660827E+03  0.24480144660E+04  0.24015925495E+04 0.  0.
        2    1    3    3  502    0  0.65809315764E+03 -0.99833059227E+03  0.12482922199E+03  0.12022199925E+04  0.25500000920E-02 0.  1.
       -2    1    3    3    0  502 -0.65809315764E+03  0.99833059227E+03  0.34964738628E+03  0.12457944736E+04  0.25500000920E-02 0. -1.
</event>
<event>
 5   0  0.2254269E-06  0.2410207E+04  0.7818609E-02  0.8435692E-01
       -1   -1    0    0    0  501  0.00000000000E+00  0.00000000000E+00  0.75746107365E+03  0.75746107366E+03  0.50400001928E-02 0. -1.
        1   -1    0    0  501    0  0.00000000000E+00  0.00000000000E+00 -0.19172923946E+04  0.19172923946E+04  0.50400001928E-02 0.  1.
    10030    2    1    2    0    0  0.00000000000E+00  0.00000000000E+00 -0.11598313209E+04  0.26747534682E+04  0.24102069253E+04 0.  0.
        2    1    3    3  502    0  0.51567953466E+03  0.39179246814E+03  0.54792451054E+03  0.84832068807E+03  0.25500000920E-02 0. -1.
       -2    1    3    3    0  502 -0.51567953466E+03 -0.39179246814E+03 -0.17077558314E+04  0.18264327802E+04  0.25500000920E-02 0.  1.
</event>
<event>
 5   0  0.2149417E-06  0.2403726E+04  0.7818609E-02  0.8438110E-01
        1   -1    0    0  501    0  0.00000000000E+00  0.00000000000E+00  0.12764061902E+04  0.12764061902E+04  0.50400001928E-02 0. -1.
       -1   -1    0    0    0  501  0.00000000000E+00  0.00000000000E+00 -0.11316728550E+04  0.11316728550E+04  0.50400001928E-02 0.  1.
    10030    2    1    2    0    0  0.00000000000E+00  0.00000000000E+00  0.14473333524E+03  0.24080790452E+04  0.24037256394E+04 0.  0.
        5    1    3    3  502    0  0.11013361869E+03  0.42165696584E+03 -0.10497190789E+04  0.11365985419E+04  0.46999998093E+01 0.  1.
       -5    1    3    3    0  502 -0.11013361869E+03 -0.42165696584E+03  0.11944524141E+04  0.12714805034E+04  0.46999998093E+01 0. -1.
</event>
<event>
 5   0  0.5349036E-06  0.2398575E+04  0.7818609E-02  0.8440037E-01
       -2   -1    0    0    0  501  0.00000000000E+00  0.00000000000E+00  0.91314224276E+03  0.91314224277E+03  0.25500000920E-02 0.  1.
        2   -1    0    0  501    0  0.00000000000E+00  0.00000000000E+00 -0.15751005099E+04  0.15751005099E+04  0.25500000920E-02 0. -1.
    10030    2    1    2    0    0  0.00000000000E+00  0.00000000000E+00 -0.66195826718E+03  0.24882427527E+04  0.23985752540E+04 0.  0.
        1    1    3    3  502    0 -0.42885027381E+03  0.79810569787E+03  0.48414671168E+03  0.10272698286E+04  0.50400001928E-02 0.  1.
       -1    1    3    3    0  502  0.42885027381E+03 -0.79810569787E+03 -0.11461049789E+04  0.14609729241E+04  0.50400001928E-02 0. -1.
</event>
<event>
 5   0  0.2149029E-06  0.2408862E+04  0.7818609E-02  0.8436193E-01
       -1   -1    0    0    0  501  0.00000000000E+00  0.00000000000E+00  0.81441706137E+03  0.81441706139E+03  0.50400001928E-02 0.  1.
        1   -1    0    0  501    0  0.00000000000E+00  0.00000000000E+00 -0.17812177914E+04  0.17812177914E+04  0.50400001928E-02 0. -1.
    10030    2    1    2    0    0  0.00000000000E+00  0.00000000000E+00 -0.96680073004E+03  0.25956348528E+04  0.24088621043E+04 0.  0.
        4    1    3    3  502    0  0.24221444604E+03 -0.10382737461E+04  0.12037772635E+03  0.10729271269E+04  0.12699999809E+01 0.  1.
       -4    1    3    3    0  502 -0.24221444604E+03  0.10382737461E+04 -0.10871784564E+04  0.15227077259E+04  0.12699999809E+01 0. -1.
</event>
<event>
 5   0  0.2297414E-06  0.2403092E+04  0.7818609E-02  0.8438347E-01
       -1   -1    0    0    0  501  0.00000000000E+00  0.00000000000E+00  0.11118935112E+04  0.11118935112E+04  0.50400001928E-02 0. -1.
        1   -1    0    0  501    0  0.00000000000E+00  0.00000000000E+00 -0.12984269076E+04  0.12984269076E+04  0.50400001928E-02 0.  1.
    10030    2    1    2    0    0  0.00000000000E+00  0.00000000000E+00 -0.18653339638E+03  0.24103204188E+04  0.24030917197E+04 0.  0.
        1    1    3    3  502    0  0.85602365482E+03 -0.13292012498E+03  0.74186519888E+03  0.11405298026E+04  0.50400001928E-02 0. -1.
       -1    1    3    3    0  502 -0.85602365482E+03  0.13292012498E+03 -0.92839859526E+03  0.12697906162E+04  0.50400001928E-02 0.  1.
</event>
<event>
 5   0  0.5371843E-06  0.2397792E+04  0.7818609E-02  0.8440330E-01
       -2   -1    0    0    0  501  0.00000000000E+00  0.00000000000E+00  0.71725818591E+03  0.71725818591E+03  0.25500000920E-02 0.  1.
        2   -1    0    0  501    0  0.00000000000E+00  0.00000000000E+00 -0.20039536966E+04  0.20039536966E+04  0.25500000920E-02 0. -1.
    10030    2    1    2    0    0  0.00000000000E+00  0.00000000000E+00 -0.12866955107E+04  0.27212118825E+04  0.23977924790E+04 0.  0.
        4    1    3    3  502    0  0.24724129544E+03  0.64469350186E+03 -0.17556437820E+04  0.18865430479E+04  0.12699999809E+01 0. -1.
       -4    1    3    3    0  502 -0.24724129544E+03 -0.64469350186E+03  0.46894827125E+03  0.83466883464E+03  0.12699999809E+01 0.  1.
</event>
<event>
 5   0  0.2149417E-06  0.2394923E+04  0.7818609E-02  0.8441407E-01
        1   -1    0    0  501    0  0.00000000000E+00  0.00000000000E+00  0.98470839619E+03  0.98470839620E+03  0.50400001928E-02 0. -1.
       -1   -1    0    0    0  501  0.00000000000E+00  0.00000000000E+00 -0.14561812977E+04  0.14561812977E+04  0.50400001928E-02 0.  1.
    10030    2    1    2    0    0  0.00000000000E+00  0.00000000000E+00 -0.47147290150E+03  0.24408896939E+04  0.23949229217E+04 0.  0.
        5    1    3    3  502    0  0.37268242275E+03 -0.69166745378E+03  0.68526472673E+03  0.10425477881E+04  0.46999998093E+01 0. -1.
       -5    1    3    3    0  502 -0.37268242275E+03  0.69166745378E+03 -0.11567376282E+04  0.13983419058E+04  0.46999998093E+01 0.  1.
</event>
<event>
 5   0  0.1796750E-06  0.2393960E+04  0.7818609E-02  0.8441768E-01
       -3   -1    0    0    0  501  0.00000000000E+00  0.00000000000E+00  0.96802913002E+03  0.96802913529E+03  0.10100000352E+00 0. -1.
        3   -1    0    0  501    0  0.00000000000E+00  0.00000000000E+00 -0.14800806744E+04  0.14800806779E+04  0.10100000352E+00 0.  1.
    10030    2    1    2    0    0  0.00000000000E+00  0.00000000000E+00 -0.51205154438E+03  0.24481098131E+04  0.23939600818E+04 0.  0.
        2    1    3    3  502    0 -0.80716266917E+03  0.29255753293E+03 -0.11089538737E+04  0.14024550540E+04  0.25500000920E-02 0.  1.
       -2    1    3    3    0  502  0.80716266917E+03 -0.29255753293E+03  0.59690232929E+03  0.10456547591E+04  0.25500000920E-02 0. -1.
</event>
<event>
 5   0  0.2149029E-06  0.2403673E+04  0.7818609E-02  0.8438130E-01
        1   -1    0    0  501    0  0.00000000000E+00  0.00000000000E+00  0.19668498610E+04  0.19668498610E+04  0.50400001928E-02 0. -1.
       -1   -1    0    0    0  501  0.00000000000E+00  0.00000000000E+00 -0.73437813519E+03  0.73437813521E+03  0.50400001928E-02 0.  1.
    10030    2    1    2    0    0  0.00000000000E+00  0.00000000000E+00  0.12324717258E+04  0.27012279962E+04  0.24036734663E+04 0.  0.
        4    1    3    3  502    0  0.33272667293E+02  0.11016942449E+04  0.77785297137E+02  0.11049386612E+04  0.12699999809E+01 0. -1.
       -4    1    3    3    0  502 -0.33272667293E+02 -0.11016942449E+04  0.11546864286E+04  0.15962893350E+04  0.12699999809E+01 0.  1.
</event>
<event>
 5   0  0.5349036E-06  0.2390757E+04  0.7818609E-02  0.8442972E-01
       -2   -1    0    0    0  501  0.00000000000E+00  0.00000000000E+00  0.78233371928E+03  0.78233371928E+03  0.25500000920E-02 0. -1.
        2   -1    0    0  501    0  0.00000000000E+00  0.00000000000E+00 -0.18264966939E+04  0.18264966939E+04  0.25500000920E-02 0.  1.
    10030    2    1    2    0    0  0.00000000000E+00  0.00000000000E+00 -0.10441629747E+04  0.26088304132E+04  0.23907571619E+04 0.  0.
        1    1    3    3  502    0  0.71100880047E+03  0.91286093746E+03 -0.84959394007E+03  0.14354993795E+04  0.50400001928E-02 0.  1.
       -1    1    3    3    0  502 -0.71100880047E+03 -0.91286093746E+03 -0.19456903459E+03  0.11733310337E+04  0.50400001928E-02 0. -1.
</event>
<event>
 5   0  0.2149029E-06  0.2389291E+04  0.7818609E-02  0.8443524E-01
        1   -1    0    0  501    0  0.00000000000E+00  0.00000000000E+00  0.86882063130E+03  0.86882063131E+03  0.50400001928E-02 0.  1.
       -1   -1    0    0    0  501  0.00000000000E+00  0.00000000000E+00 -0.16426605290E+04  0.16426605290E+04  0.50400001928E-02 0. -1.
    10030    2    1    2    0    0  0.00000000000E+00  0.00000000000E+00 -0.77383989774E+03  0.25114811604E+04  0.23892905708E+04 0.  0.
        4    1    3    3  502    0  0.82082754506E+02  0.41366237048E+03  0.78797241610E+03  0.89373165815E+03  0.12699999809E+01 0.  1.
       -4    1    3    3    0  502 -0.82082754506E+02 -0.41366237048E+03 -0.15618123138E+04  0.16177495022E+04  0.12699999809E+01 0. -1.
</event>
<event>
 5   0  0.5349036E-06  0.2398071E+04  0.7818609E-02  0.8440226E-01
       -2   -1    0    0    0  501  0.00000000000E+00  0.00000000000E+00  0.94319801104E+03  0.94319801105E+03  0.25500000920E-02 0.  1.
        2   -1    0    0  501    0  0.00000000000E+00  0.00000000000E+00 -0.15242676730E+04  0.15242676730E+04  0.25500000920E-02 0. -1.
    10030    2    1    2    0    0  0.00000000000E+00  0.00000000000E+00 -0.58106966200E+03  0.24674656841E+04  0.23980710895E+04 0.  0.
        1    1    3    3  502    0 -0.49389297410E+03 -0.98611161541E+03 -0.77461676315E+03  0.13477305063E+04  0.50400001928E-02 0. -1.
       -1    1    3    3    0  502  0.49389297410E+03  0.98611161541E+03  0.19354710116E+03  0.11197351778E+04  0.50400001928E-02 0.  1.
</event>
<event>
 5   0  0.5440503E-06  0.2398192E+04  0.7818609E-02  0.8440181E-01
       -2   -1    0    0    0  501  0.00000000000E+00  0.00000000000E+00  0.70028001368E+03  0.70028001369E+03  0.25500000920E-02 0. -1.
        2   -1    0    0  501    0  0.00000000000E+00  0.00000000000E+00 -0.20532234927E+04  0.20532234927E+04  0.25500000920E-02 0.  1.
    10030    2    1    2    0    0  0.00000000000E+00  0.00000000000E+00 -0.13529434790E+04  0.27535035064E+04  0.23981921321E+04 0.  0.
        3    1    3    3  502    0 -0.41769910133E+03 -0.54253902312E+03 -0.18066991666E+04  0.19320929117E+04  0.10100000352E+00 0.  1.
       -3    1    3    3    0  502  0.41769910133E+03  0.54253902312E+03  0.45375568754E+03  0.82141059467E+03  0.10100000352E+00 0. -1.
</event>
<event>
 5   0  0.5440503E-06  0.2397664E+04  0.7818609E-02  0.8440379E-01
       -2   -1    0    0    0  501  0.00000000000E+00  0.00000000000E+00  0.12029953585E+04  0.12029953585E+04  0.25500000920E-02 0.  1.
        2   -1    0    0  501    0  0.00000000000E+00  0.00000000000E+00 -0.11946829375E+04  0.11946829375E+04  0.25500000920E-02 0. -1.
    10030    2    1    2    0    0  0.00000000000E+00  0.00000000000E+00  0.83124210431E+01  0.23976782960E+04  0.23976638870E+04 0.  0.
        3    1    3    3  502    0 -0.21360968029E+03  0.78091203263E+03  0.88832515155E+03  0.12019044402E+04  0.10100000352E+00 0.  1.
       -3    1    3    3    0  502  0.21360968029E+03 -0.78091203263E+03 -0.88001273051E+03  0.11957738558E+04  0.10100000352E+00 0. -1.
</event>
<event>
 5   0  0.2297414E-06  0.2401396E+04  0.7818609E-02  0.8438981E-01
        1   -1    0    0  501    0  0.00000000000E+00  0.00000000000E+00  0.17372850065E+04  0.17372850065E+04  0.50400001928E-02 0.  1.
       -1   -1    0    0    0  501  0.00000000000E+00  0.00000000000E+00 -0.82984437080E+03  0.82984437082E+03  0.50400001928E-02 0. -1.
    10030    2    1    2    0    0  0.00000000000E+00  0.00000000000E+00  0.90744063568E+03  0.25671293773E+04  0.24013964130E+04 0.  0.
        1    1    3    3  502    0 -0.94381398371E+03 -0.74118437582E+03  0.41180908054E+03  0.12687497128E+04  0.50400001928E-02 0. -1.
       -1    1    3    3    0  502  0.94381398371E+03  0.74118437582E+03  0.49563155514E+03  0.12983796645E+04  0.50400001928E-02 0.  1.
</event>
<event>
 5   0  0.2149417E-06  0.2388086E+04  0.7818609E-02  0.8443977E-01
       -1   -1    0    0    0  501  0.00000000000E+00  0.00000000000E+00  0.87025934045E+03  0.87025934046E+03  0.50400001928E-02 0.  1.
        1   -1    0    0  501    0  0.00000000000E+00  0.00000000000E+00 -0.16382918198E+04  0.16382918198E+04  0.50400001928E-02 0. -1.
    10030    2    1    2    0    0  0.00000000000E+00  0.00000000000E+00 -0.76803247933E+03  0.25085511602E+04  0.23880860609E+04 0.  0.
        5    1    3    3  502    0  0.10943663652E+03 -0.11858845911E+04 -0.29354360992E+03  0.12265759584E+04  0.46999998093E+01 0. -1.
       -5    1    3    3    0  502 -0.10943663652E+03  0.11858845911E+04 -0.47448886941E+03  0.12819752018E+04  0.46999998093E+01 0.  1.
</event>
<event>
 5   0  0.5440503E-06  0.2400325E+04  0.7818609E-02  0.8439382E-01
       -2   -1    0    0    0  501  0.00000000000E+00  0.00000000000E+00  0.17500498456E+04  0.17500498456E+04  0.25500000920E-02 0.  1.
        2   -1    0    0  501    0  0.00000000000E+00  0.00000000000E+00 -0.82305634579E+03  0.82305634580E+03  0.25500000920E-02 0. -1.
    10030    2    1    2    0    0  0.00000000000E+00  0.00000000000E+00  0.92699349978E+03  0.25731061914E+04  0.24003246704E+04 0.  0.
        3    1    3    3  502    0 -0.44428558458E+03 -0.63583851300E+02 -0.72971039101E+03  0.85668538668E+03  0.10100000352E+00 0. -1.
       -3    1    3    3    0  502  0.44428558458E+03  0.63583851300E+02  0.16567038908E+04  0.17164208047E+04  0.10100000352E+00 0.  1.
</event>
<event>
 5   0  0.2149417E-06  0.2400040E+04  0.7818609E-02  0.8439489E-01
       -1   -1    0    0    0  501  0.00000000000E+00  0.00000000000E+00  0.10311903592E+04  0.10311903592E+04  0.50400001928E-02 0. -1.
        1   -1    0    0  501    0  0.00000000000E+00  0.00000000000E+00 -0.13964905301E+04  0.13964905301E+04  0.50400001928E-02 0.  1.
    10030    2    1    2    0    0  0.00000000000E+00  0.00000000000E+00 -0.36530017093E+03  0.24276808894E+04  0.24000396425E+04 0.  0.
        5    1    3    3  502    0 -0.97104777699E+03 -0.69259582246E+03 -0.31608878085E+03  0.12339193514E+04  0.46999998093E+01 0. -1.
       -5    1    3    3    0  502  0.97104777699E+03  0.69259582246E+03 -0.49211390083E+02  0.11937615379E+04  0.46999998093E+01 0.  1.
</event>
<event>
 5   0  0.5268358E-06  0.2402656E+04  0.7818609E-02  0.8438510E-01
        2   -1    0    0  501    0  0.00000000000E+00  0.00000000000E+00  0.14394040767E+04  0.14394040767E+04  0.25500000920E-02 0. -1.
       -2   -1    0    0    0  501  0.00000000000E+00  0.00000000000E+00 -0.10026295249E+04  0.10026295249E+04  0.25500000920E-02 0.  1.
    10030    2    1    2    0    0  0.00000000000E+00  0.00000000000E+00  0.43677455180E+03  0.24420336016E+04  0.24026560516E+04 0.  0.
        2    1    3    3  502    0  0.89893720950E+03  0.60902819367E+02 -0.58923722875E+03  0.10765675881E+04  0.25500000920E-02 0.  1.
       -2    1    3    3    0  502 -0.89893720950E+03 -0.60902819367E+02  0.10260117805E+04  0.13654660134E+04  0.25500000920E-02 0. -1.
</event>
<event>
 5   0  0.2215700E-06  0.2400637E+04  0.7818609E-02  0.8439265E-01
       -1   -1    0    0    0  501  0.00000000000E+00  0.00000000000E+00  0.11066144717E+04  0.11066144717E+04  0.50400001928E-02 0. -1.
        1   -1    0    0  501    0  0.00000000000E+00  0.00000000000E+00 -0.13019566538E+04  0.13019566538E+04  0.50400001928E-02 0.  1.
    10030    2    1    2    0    0  0.00000000000E+00  0.00000000000E+00 -0.19534218216E+03  0.24085711255E+04  0.24006366444E+04 0.  0.
        3    1    3    3  502    0 -0.74085516559E+03 -0.94375138658E+03 -0.13287278361E+03  0.12071405232E+04  0.10100000352E+00 0.  1.
       -3    1    3    3    0  502  0.74085516559E+03  0.94375138658E+03 -0.62469398544E+02  0.12014306022E+04  0.10100000352E+00 0. -1.
</event>
<event>
 5   0  0.2215700E-06  0.2401912E+04  0.7818609E-02  0.8438788E-01
       -1   -1    0    0    0  501  0.00000000000E+00  0.00000000000E+00  0.11565015574E+04  0.11565015574E+04  0.50400001928E-02 0. -1.
        1   -1    0    0  501    0  0.00000000000E+00  0.00000000000E+00 -0.12471187843E+04  0.12471187843E+04  0.50400001928E-02 0.  1.
    10030    2    1    2    0    0  0.00000000000E+00  0.00000000000E+00 -0.90617226917E+02  0.24036203417E+04  0.24019115857E+04 0.  0.
        3    1    3    3  502    0  0.55761810096E+03  0.77340367966E+03  0.68541878846E+03  0.11742615228E+04  0.10100000352E+00 0. -1.
       -3    1    3    3    0  502 -0.55761810096E+03 -0.77340367966E+03 -0.77603601538E+03  0.12293588189E+04  0.10100000352E+00 0.  1.
</event>
<event>
 5   0  0.2149029E-06  0.2403715E+04  0.7818609E-02  0.8438114E-01
       -1   -1    0    0    0  501  0.00000000000E+00  0.00000000000E+00  0.10936373735E+04  0.10936373735E+04  0.50400001928E-02 0.  1.
        1   -1    0    0  501    0  0.00000000000E+00  0.00000000000E+00 -0.13207861724E+04  0.13207861724E+04  0.50400001928E-02 0. -1.
    10030    2    1    2    0    0  0.00000000000E+00  0.00000000000E+00 -0.22714879885E+03  0.24144235459E+04  0.24037147257E+04 0.  0.
        4    1    3    3  502    0 -0.98568848837E+02  0.61837303791E+03  0.91684110629E+03  0.11102703540E+04  0.12699999809E+01 0.  1.
       -4    1    3    3    0  502  0.98568848837E+02 -0.61837303791E+03 -0.11439899051E+04  0.13041531919E+04  0.12699999809E+01 0. -1.
</event>
<event>
 5   0  0.5371843E-06  0.2398307E+04  0.7818609E-02  0.8440138E-01
        2   -1    0    0  501    0  0.00000000000E+00  0.00000000000E+00  0.17744465957E+04  0.17744465957E+04  0.25500000920E-02 0.  1.
       -2   -1    0    0    0  501  0.00000000000E+00  0.00000000000E+00 -0.81037631367E+03  0.81037631368E+03  0.25500000920E-02 0. -1.
    10030    2    1    2    0    0  0.00000000000E+00  0.00000000000E+00  0.96407028199E+03  0.25848229093E+04  0.23983073123E+04 0.  0.
        4    1    3    3  502    0 -0.10840318299E+04 -0.51067174645E+03  0.53091930029E+03  0.13106439475E+04  0.12699999809E+01 0.  1.
       -4    1    3    3    0  502  0.10840318299E+04  0.51067174645E+03  0.43315098170E+03  0.12741789618E+04  0.12699999809E+01 0. -1.
</event>
<event>
 5   0  0.2215700E-06  0.2398823E+04  0.7818609E-02  0.8439944E-01
       -1   -1    0    0    0  501  0.00000000000E+00  0.00000000000E+00  0.10903593393E+04  0.10903593393E+04  0.50400001928E-02 0. -1.
        1   -1    0    0  501    0  0.00000000000E+00  0.00000000000E+00 -0.13193705481E+04  0.13193705481E+04  0.50400001928E-02 0.  1.
    10030    2    1    2    0    0  0.00000000000E+00  0.00000000000E+00 -0.22901120884E+03  0.24097298874E+04  0.23988230440E+04 0.  0.
        3    1    3    3  502    0 -0.11398921436E+04 -0.26220186516E+02  0.25940498232E+03  0.11693299587E+04  0.10100000352E+00 0. -1.
       -3    1    3    3    0  502  0.11398921436E+04  0.26220186516E+02 -0.48841619117E+03  0.12403999287E+04  0.10100000352E+00 0.  1.
</event>
<event>
 5   0  0.2149417E-06  0.2401468E+04  0.7818609E-02  0.8438954E-01
       -1   -1    0    0    0  501  0.00000000000E+00  0.00000000000E+00  0.99740098352E+03  0.99740098353E+03  0.50400001928E-02 0.  1.
        1   -1    0    0  501    0  0.00000000000E+00  0.00000000000E+00 -0.14455187183E+04  0.14455187183E+04  0.50400001928E-02 0. -1.
    10030    2    1    2    0    0  0.00000000000E+00  0.00000000000E+00 -0.44811773476E+03  0.24429197018E+04  0.24014677107E+04 0.  0.
        5    1    3    3  502    0  0.45359605349E+03  0.73758749939E+03  0.62213791005E+03  0.10662374820E+04  0.46999998093E+01 0.  1.
       -5    1    3    3    0  502 -0.45359605349E+03 -0.73758749939E+03 -0.10702556448E+04  0.13766822198E+04  0.46999998093E+01 0. -1.
</event>
<event>
 5   0  0.2149029E-06  0.2393448E+04  0.7818609E-02  0.8441960E-01
       -1   -1    0    0    0  501  0.00000000000E+00  0.00000000000E+00  0.95422871231E+03  0.95422871232E+03  0.50400001928E-02 0.  1.
        1   -1    0    0  501    0  0.00000000000E+00  0.00000000000E+00 -0.15008443635E+04  0.15008443635E+04  0.50400001928E-02 0. -1.
    10030    2    1    2    0    0  0.00000000000E+00  0.00000000000E+00 -0.54661565120E+03  0.24550730758E+04  0.23934483779E+04 0.  0.
        4    1    3    3  502    0  0.69173716055E+03  0.96192586003E+03 -0.10061173291E+03  0.11890862009E+04  0.12699999809E+01 0.  1.
       -4    1    3    3    0  502 -0.69173716055E+03 -0.96192586003E+03 -0.44600391829E+03  0.12659868749E+04  0.12699999809E+01 0. -1.
</event>
<event>
 5   0  0.5268358E-06  0.2398836E+04  0.7818609E-02  0.8439940E-01
       -2   -1    0    0    0  501  0.00000000000E+00  0.00000000000E+00  0.14081212522E+04  0.14081212522E+04  0.25500000920E-02 0. -1.
        2   -1    0    0  501    0  0.00000000000E+00  0.00000000000E+00 -0.10216471578E+04  0.10216471578E+04  0.25500000920E-02 0.  1.
    10030    2    1    2    0    0  0.00000000000E+00  0.00000000000E+00  0.38647409447E+03  0.24297684100E+04  0.23988356135E+04 0.  0.
        2    1    3    3  502    0 -0.83537880950E+03 -0.58833465138E+03  0.82951539992E+03  0.13160893648E+04  0.25500000920E-02 0. -1.
       -2    1    3    3    0  502  0.83537880950E+03  0.58833465138E+03 -0.44304130545E+03  0.11136790452E+04  0.25500000920E-02 0.  1.
</event>
<event>
 5   0  0.5371843E-06  0.2396516E+04  0.7818609E-02  0.8440809E-01
       -2   -1    0    0    0  501  0.00000000000E+00  0.00000000000E+00  0.11568750633E+04  0.11568750633E+04  0.25500000920E-02 0.  1.
        2   -1    0    0  501    0  0.00000000000E+00  0.00000000000E+00 -0.12411215576E+04  0.12411215576E+04  0.25500000920E-02 0. -1.
    10030    2    1    2    0    0  0.00000000000E+00  0.00000000000E+00 -0.84246494312E+02  0.23979966209E+04  0.23965162888E+04 0.  0.
        4    1    3    3  502    0  0.67546473356E+03 -0.34923268175E+03 -0.96876487725E+03  0.12315531140E+04  0.12699999809E+01 0. -1.
       -4    1    3    3    0  502 -0.67546473356E+03  0.34923268175E+03  0.88451838294E+03  0.11664435070E+04  0.12699999809E+01 0.  1.
</event>
<event>
 5   0  0.5371843E-06  0.2397384E+04  0.7818609E-02  0.8440484E-01
       -2   -1    0    0    0  501  0.00000000000E+00  0.00000000000E+00  0.11015318165E+04  0.11015318165E+04  0.25500000920E-02 0. -1.
        2   -1    0    0  501    0  0.00000000000E+00  0.00000000000E+00 -0.13044217249E+04  0.13044217249E+04  0.25500000920E-02 0.  1.
    10030    2    1    2    0    0  0.00000000000E+00  0.00000000000E+00 -0.20288990841E+03  0.24059535414E+04  0.23973836006E+04 0.  0.
        4    1    3    3  502    0 -0.10950763412E+03  0.55556693839E+03 -0.11617319012E+04  0.12923889384E+04  0.12699999809E+01 0.  1.
       -4    1    3    3    0  502  0.10950763412E+03 -0.55556693839E+03  0.95884199278E+03  0.11135646030E+04  0.12699999809E+01 0. -1.
</event>
<event>
 5   0  0.2149029E-06  0.2396997E+04  0.7818609E-02  0.8440629E-01
        1   -1    0    0  501    0  0.00000000000E+00  0.00000000000E+00  0.18034055959E+04  0.18034055959E+04  0.50400001928E-02 0.  1.
       -1   -1    0    0    0  501  0.00000000000E+00  0.00000000000E+00 -0.79649237057E+03  0.79649237059E+03  0.50400001928E-02 0. -1.
    10030    2    1    2    0    0  0.00000000000E+00  0.00000000000E+00  0.10069132253E+04  0.25998979665E+04  0.23969971199E+04 0.  0.
        4    1    3    3  502    0 -0.87782350972E+03  0.40615822228E+03 -0.26416350218E+03  0.10026577604E+04  0.12699999809E+01 0. -1.
       -4    1    3    3    0  502  0.87782350972E+03 -0.40615822228E+03  0.12710767275E+04  0.15972402060E+04  0.12699999809E+01 0.  1.
</event>
<event>
 5   0  0.5268358E-06  0.2396763E+04  0.7818609E-02  0.8440717E-01
       -2   -1    0    0    0  501  0.00000000000E+00  0.00000000000E+00  0.68548318226E+03  0.68548318226E+03  0.25500000920E-02 0. -1.
        2   -1    0    0  501    0  0.00000000000E+00  0.00000000000E+00 -0.20950446159E+04  0.20950446159E+04  0.25500000920E-02 0.  1.
    10030    2    1    2    0    0  0.00000000000E+00  0.00000000000E+00 -0.14095614336E+04  0.27805277981E+04  0.23967626919E+04 0.  0.
        2    1    3    3  502    0  0.11591049471E+04 -0.30396118487E+03 -0.72123517719E+03  0.13986053272E+04  0.25500000920E-02 0.  1.
       -2    1    3    3    0  502 -0.11591049471E+04  0.30396118487E+03 -0.68832625642E+03  0.13819224709E+04  0.25500000920E-02 0. -1.
</event>
<event>
 5   0  0.5371843E-06  0.2398912E+04  0.7818609E-02  0.8439911E-01
        2   -1    0    0  501    0  0.00000000000E+00  0.00000000000E+00  0.14618711176E+04  0.14618711176E+04  0.25500000920E-02 0.  1.
       -2   -1    0    0    0  501  0.00000000000E+00  0.00000000000E+00 -0.98414582993E+03  0.98414582993E+03  0.25500000920E-02 0. -1.
    10030    2    1    2    0    0  0.00000000000E+00  0.00000000000E+00  0.47772528765E+03  0.24460169475E+04  0.23989117235E+04 0.  0.
        4    1    3    3  502    0 -0.10279147162E+03 -0.97358741544E+03  0.94547427996E+03  0.13610149775E+04  0.12699999809E+01 0.  1.
       -4    1    3    3    0  502  0.10279147162E+03  0.97358741544E+03 -0.46774899230E+03  0.10850019700E+04  0.12699999809E+01 0. -1.
</event>
<event>
 5   0  0.5379778E-06  0.2399698E+04  0.7818609E-02  0.8439616E-01
       -2   -1    0    0    0  501  0.00000000000E+00  0.00000000000E+00  0.94429690549E+03  0.94429690549E+03  0.25500000920E-02 0.  1.
        2   -1    0    0  501    0  0.00000000000E+00  0.00000000000E+00 -0.15245608104E+04  0.15245608104E+04  0.25500000920E-02 0. -1.
    10030    2    1    2    0    0  0.00000000000E+00  0.00000000000E+00 -0.58026390493E+03  0.24688577159E+04  0.23996983606E+04 0.  0.
        5    1    3    3  502    0 -0.91295952448E+02 -0.76435489336E+03 -0.12370056136E+04  0.14569757486E+04  0.46999998093E+01 0. -1.
       -5    1    3    3    0  502  0.91295952448E+02  0.76435489336E+03  0.65674170865E+03  0.10118819673E+04  0.46999998093E+01 0.  1.
</event>
<event>
 5   0  0.2254269E-06  0.2399925E+04  0.7818609E-02  0.8439532E-01
        1   -1    0    0  501    0  0.00000000000E+00  0.00000000000E+00  0.17880447017E+04  0.17880447017E+04  0.50400001928E-02 0. -1.
       -1   -1    0    0    0  501  0.00000000000E+00  0.00000000000E+00 -0.80529841001E+03  0.80529841003E+03  0.50400001928E-02 0.  1.
    10030    2    1    2    0    0  0.00000000000E+00  0.00000000000E+00  0.98274629172E+03  0.25933431118E+04  0.23999246283E+04 0.  0.
        2    1    3    3  502    0  0.46195372124E+03  0.89721812014E+03 -0.21018757777E+03  0.10308154120E+04  0.25500000920E-02 0.  1.
       -2    1    3    3    0  502 -0.46195372124E+03 -0.89721812014E+03  0.11929338695E+04  0.15625276998E+04  0.25500000920E-02 0. -1.
</event>
<event>
 5   0  0.5379778E-06  0.2400591E+04  0.7818609E-02  0.8439282E-01
        2   -1    0    0  501    0  0.00000000000E+00  0.00000000000E+00  0.20026794345E+04  0.20026794345E+04  0.25500000920E-02 0.  1.
       -2   -1    0    0    0  501  0.00000000000E+00  0.00000000000E+00 -0.71939083294E+03  0.71939083294E+03  0.25500000920E-02 0. -1.
    10030    2    1    2    0    0  0.00000000000E+00  0.00000000000E+00  0.12832886015E+04  0.27220702674E+04  0.24005909493E+04 0.  0.
        5    1    3    3  502    0  0.78449649454E+02  0.38428227097E+03  0.19279577359E+04  0.19674527523E+04  0.46999998093E+01 0.  1.
       -5    1    3    3    0  502 -0.78449649454E+02 -0.38428227097E+03 -0.64466913436E+03  0.75461751508E+03  0.46999998093E+01 0. -1.
</event>
<event>
 5   0  0.1796750E-06  0.2406959E+04  0.7818609E-02  0.8436903E-01
        3   -1    0    0  501    0  0.00000000000E+00  0.00000000000E+00  0.19389877108E+04  0.19389877134E+04  0.10100000352E+00 0.  1.
       -3   -1    0    0    0  501  0.00000000000E+00  0.00000000000E+00 -0.74696871474E+03  0.74696872157E+03  0.10100000352E+00 0. -1.
    10030    2    1    2    0    0  0.00000000000E+00  0.00000000000E+00  0.11920189960E+04  0.26859564350E+04  0.24069592194E+04 0.  0.
        4    1    3    3  502    0 -0.41442183091E+03 -0.26862453051E+03 -0.62867966801E+03  0.79946502750E+03  0.12699999809E+01 0. -1.
       -4    1    3    3    0  502  0.41442183091E+03  0.26862453051E+03  0.18206986640E+04  0.18864914075E+04  0.12699999809E+01 0.  1.
</event>
<event>
 5   0  0.2254269E-06  0.2399425E+04  0.7818609E-02  0.8439719E-01
        1   -1    0    0  501    0  0.00000000000E+00  0.00000000000E+00  0.20885522108E+04  0.20885522108E+04  0.50400001928E-02 0. -1.
       -1   -1    0    0    0  501  0.00000000000E+00  0.00000000000E+00 -0.68914228569E+03  0.68914228571E+03  0.50400001928E-02 0.  1.
    10030    2    1    2    0    0  0.00000000000E+00  0.00000000000E+00  0.13994099251E+04  0.27776944965E+04  0.23994246347E+04 0.  0.
        2    1    3    3  502    0  0.37246510118E+03 -0.23822234684E+03 -0.59138882804E+03  0.73839073943E+03  0.25500000920E-02 0.  1.
       -2    1    3    3    0  502 -0.37246510118E+03  0.23822234684E+03  0.19907987531E+04  0.20393037571E+04  0.25500000920E-02 0. -1.
</event>
<event>
 5   0  0.5349036E-06  0.2397316E+04  0.7818609E-02  0.8440509E-01
       -2   -1    0    0    0  501  0.00000000000E+00  0.00000000000E+00  0.67113507532E+03  0.67113507532E+03  0.25500000920E-02 0.  1.
        2   -1    0    0  501    0  0.00000000000E+00  0.00000000000E+00 -0.21408229282E+04  0.21408229282E+04  0.25500000920E-02 0. -1.
    10030    2    1    2    0    0  0.00000000000E+00  0.00000000000E+00 -0.14696878529E+04  0.28119580035E+04  0.23973162972E+04 0.  0.
        1    1    3    3  502    0  0.21847648425E+03 -0.11363230607E+04 -0.36798783557E+03  0.12142393172E+04  0.50400001928E-02 0.  1.
       -1    1    3    3    0  502 -0.21847648425E+03  0.11363230607E+04 -0.11017000173E+04  0.15977186863E+04  0.50400001928E-02 0. -1.
</event>
<event>
 5   0  0.2149029E-06  0.2396538E+04  0.7818609E-02  0.8440801E-01
        1   -1    0    0  501    0  0.00000000000E+00  0.00000000000E+00  0.14298434324E+04  0.14298434324E+04  0.50400001928E-02 0. -1.
       -1   -1    0    0    0  501  0.00000000000E+00  0.00000000000E+00 -0.10042001453E+04  0.10042001453E+04  0.50400001928E-02 0.  1.
    10030    2    1    2    0    0  0.00000000000E+00  0.00000000000E+00  0.42564328712E+03  0.24340435777E+04  0.23965383223E+04 0.  0.
        4    1    3    3  502    0  0.53135902417E+03 -0.47641182211E+02  0.13025694799E+04  0.14075869272E+04  0.12699999809E+01 0. -1.
       -4    1    3    3    0  502 -0.53135902417E+03  0.47641182211E+02 -0.87692619278E+03  0.10264566505E+04  0.12699999809E+01 0.  1.
</event>
<event>
 5   0  0.5379778E-06  0.2399806E+04  0.7818609E-02  0.8439576E-01
        2   -1    0    0  501    0  0.00000000000E+00  0.00000000000E+00  0.15757717616E+04  0.15757717616E+04  0.25500000920E-02 0. -1.
       -2   -1    0    0    0  501  0.00000000000E+00  0.00000000000E+00 -0.91368982163E+03  0.91368982163E+03  0.25500000920E-02 0.  1.
    10030    2    1    2    0    0  0.00000000000E+00  0.00000000000E+00  0.66208193996E+03  0.24894615832E+04  0.23998055086E+04 0.  0.
        5    1    3    3  502    0 -0.49508561782E+03 -0.10599083169E+04  0.60789966909E+03  0.13183624338E+04  0.46999998093E+01 0. -1.
       -5    1    3    3    0  502  0.49508561782E+03  0.10599083169E+04  0.54182270868E+02  0.11710991494E+04  0.46999998093E+01 0.  1.
</event>
<event>
 5   0  0.2149417E-06  0.2402306E+04  0.7818609E-02  0.8438641E-01
        1   -1    0    0  501    0  0.00000000000E+00  0.00000000000E+00  0.19142149576E+04  0.19142149576E+04  0.50400001928E-02 0. -1.
       -1   -1    0    0    0  501  0.00000000000E+00  0.00000000000E+00 -0.75371295770E+03  0.75371295772E+03  0.50400001928E-02 0.  1.
    10030    2    1    2    0    0  0.00000000000E+00  0.00000000000E+00  0.11605019999E+04  0.26679279153E+04  0.24023060732E+04 0.  0.
        5    1    3    3  502    0  0.16291566534E+01 -0.11883233004E+04  0.77462162998E+03  0.14185117835E+04  0.46999998093E+01 0. -1.
       -5    1    3    3    0  502 -0.16291566534E+01  0.11883233004E+04  0.38588036989E+03  0.12494161318E+04  0.46999998093E+01 0.  1.
</event>
<event>
 5   0  0.2215700E-06  0.2402273E+04  0.7818609E-02  0.8438653E-01
       -1   -1    0    0    0  501  0.00000000000E+00  0.00000000000E+00  0.16804168337E+04  0.16804168337E+04  0.50400001928E-02 0. -1.
        1   -1    0    0  501    0  0.00000000000E+00  0.00000000000E+00 -0.85855415237E+03  0.85855415238E+03  0.50400001928E-02 0.  1.
    10030    2    1    2    0    0  0.00000000000E+00  0.00000000000E+00  0.82186268132E+03  0.25389709861E+04  0.24022729656E+04 0.  0.
        3    1    3    3  502    0 -0.85668409608E+02 -0.94969550963E+03 -0.36101951575E+03  0.10196056779E+04  0.10100000352E+00 0.  1.
       -3    1    3    3    0  502  0.85668409608E+02  0.94969550963E+03  0.11828821971E+04  0.15193653082E+04  0.10100000352E+00 0. -1.
</event>
<event>
 5   0  0.1796750E-06  0.2398342E+04  0.7818609E-02  0.8440124E-01
       -3   -1    0    0    0  501  0.00000000000E+00  0.00000000000E+00  0.16081412794E+04  0.16081412826E+04  0.10100000352E+00 0.  1.
        3   -1    0    0  501    0  0.00000000000E+00  0.00000000000E+00 -0.89420725659E+03  0.89420726229E+03  0.10100000352E+00 0. -1.
    10030    2    1    2    0    0  0.00000000000E+00  0.00000000000E+00  0.71393402285E+03  0.25023485449E+04  0.23983424383E+04 0.  0.
        5    1    3    3  502    0  0.65726069304E+03  0.63295871933E+03  0.11687573660E+04  0.14827825968E+04  0.46999998093E+01 0.  1.
       -5    1    3    3    0  502 -0.65726069304E+03 -0.63295871933E+03 -0.45482334312E+03  0.10195659481E+04  0.46999998093E+01 0. -1.
</event>
<event>
 5   0  0.5268358E-06  0.2399558E+04  0.7818609E-02  0.8439669E-01
        2   -1    0    0  501    0  0.00000000000E+00  0.00000000000E+00  0.11022676568E+04  0.11022676568E+04  0.25500000920E-02 0.  1.
       -2   -1    0    0    0  501  0.00000000000E+00  0.00000000000E+00 -0.13059161721E+04  0.13059161721E+04  0.25500000920E-02 0. -1.
    10030    2    1    2    0    0  0.00000000000E+00  0.00000000000E+00 -0.20364851529E+03  0.24081838290E+04  0.23995575918E+04 0.  0.
        2    1    3    3  502    0 -0.55602372911E+03 -0.49949900223E+03  0.84006309291E+03  0.11244410348E+04  0.25500000920E-02 0.  1.
       -2    1    3    3    0  502  0.55602372911E+03  0.49949900223E+03 -0.10437116082E+04  0.12837427942E+04  0.25500000920E-02 0. -1.
</event>
<event>
 5   0  0.5379778E-06  0.2399430E+04  0.7818609E-02  0.8439717E-01
        2   -1    0    0  501    0  0.00000000000E+00  0.00000000000E+00  0.15674901312E+04  0.15674901312E+04  0.25500000920E-02 0.  1.
       -2   -1    0    0    0  501  0.00000000000E+00  0.00000000000E+00 -0.91822974136E+03  0.91822974137E+03  0.25500000920E-02 0. -1.
    10030    2    1    2    0    0  0.00000000000E+00  0.00000000000E+00  0.64926038986E+03  0.24857198726E+04  0.23994299805E+04 0.  0.
        5    1    3    3  502    0 -0.15934743807E+03  0.77501603154E+03 -0.60960626075E+03  0.99884099751E+03  0.46999998093E+01 0. -1.
       -5    1    3    3    0  502  0.15934743807E+03 -0.77501603154E+03  0.12588666506E+04  0.14868788751E+04  0.46999998093E+01 0.  1.
</event>
<event>
 5   0  0.2149029E-06  0.2406599E+04  0.7818609E-02  0.8437037E-01
       -1   -1    0    0    0  501  0.00000000000E+00  0.00000000000E+00  0.85976231293E+03  0.85976231294E+03  0.50400001928E-02 0.  1.
        1   -1    0    0  501    0  0.00000000000E+00  0.00000000000E+00 -0.16841044697E+04  0.16841044697E+04  0.50400001928E-02 0. -1.
    10030    2    1    2    0    0  0.00000000000E+00  0.00000000000E+00 -0.82434215678E+03  0.25438667827E+04  0.24065988898E+04 0.  0.
        4    1    3    3  502    0  0.95724641329E+03  0.51090146904E+03 -0.96202086845E+03  0.14501126753E+04  0.12699999809E+01 0. -1.
       -4    1    3    3    0  502 -0.95724641329E+03 -0.51090146904E+03  0.13767871166E+03  0.10937541074E+04  0.12699999809E+01 0.  1.
</event>
<event>
 5   0  0.5371843E-06  0.2370303E+04  0.7818609E-02  0.8450706E-01
        2   -1    0    0  501    0  0.00000000000E+00  0.00000000000E+00  0.14674936684E+04  0.14674936684E+04  0.25500000920E-02 0.  1.
       -2   -1    0    0    0  501  0.00000000000E+00  0.00000000000E+00 -0.95713105140E+03  0.95713105141E+03  0.25500000920E-02 0. -1.
    10030    2    1    2    0    0  0.00000000000E+00  0.00000000000E+00  0.51036261695E+03  0.24246247198E+04  0.23703027298E+04 0.  0.
        4    1    3    3  502    0  0.63243406780E+03  0.34030606627E+03  0.12195497676E+04  0.14153036131E+04  0.12699999809E+01 0.  1.
       -4    1    3    3    0  502 -0.63243406780E+03 -0.34030606627E+03 -0.70918715060E+03  0.10093211067E+04  0.12699999809E+01 0. -1.
</event>
<event>
 5   0  0.2149417E-06  0.2400850E+04  0.7818609E-02  0.8439185E-01
       -1   -1    0    0    0  501  0.00000000000E+00  0.00000000000E+00  0.12243730976E+04  0.12243730976E+04  0.50400001928E-02 0.  1.
        1   -1    0    0  501    0  0.00000000000E+00  0.00000000000E+00 -0.11769457124E+04  0.11769457124E+04  0.50400001928E-02 0. -1.
    10030    2    1    2    0    0  0.00000000000E+00  0.00000000000E+00  0.47427385152E+02  0.24013188100E+04  0.24008504057E+04 0.  0.
        5    1    3    3  502    0  0.96108472690E+03 -0.68746624642E+03  0.23519024171E+03  0.12048361847E+04  0.46999998093E+01 0. -1.
       -5    1    3    3    0  502 -0.96108472690E+03  0.68746624642E+03 -0.18776285656E+03  0.11964826253E+04  0.46999998093E+01 0.  1.
</event>
<event>
 5   0  0.5268358E-06  0.2398623E+04  0.7818609E-02  0.8440019E-01
       -2   -1    0    0    0  501  0.00000000000E+00  0.00000000000E+00  0.15558784203E+04  0.15558784203E+04  0.25500000920E-02 0.  1.
        2   -1    0    0  501    0  0.00000000000E+00  0.00000000000E+00 -0.92446032992E+03  0.92446032992E+03  0.25500000920E-02 0. -1.
    10030    2    1    2    0    0  0.00000000000E+00  0.00000000000E+00  0.63141809036E+03  0.24803387502E+04  0.23986228363E+04 0.  0.
        2    1    3    3  502    0 -0.12967153221E+03  0.10553473055E+04  0.88938397452E+03  0.13862093982E+04  0.25500000920E-02 0.  1.
       -2    1    3    3    0  502  0.12967153221E+03 -0.10553473055E+04 -0.25796588416E+03  0.10941293520E+04  0.25500000920E-02 0. -1.
</event>
<event>
 5   0  0.5440503E-06  0.2402741E+04  0.7818609E-02  0.8438478E-01
        2   -1    0    0  501    0  0.00000000000E+00  0.00000000000E+00  0.12607582005E+04  0.12607582005E+04  0.25500000920E-02 0.  1.
       -2   -1    0    0    0  501  0.00000000000E+00  0.00000000000E+00 -0.11447803872E+04  0.11447803872E+04  0.25500000920E-02 0. -1.
    10030    2    1    2    0    0  0.00000000000E+00  0.00000000000E+00  0.11597781330E+03  0.24055385877E+04  0.24027411520E+04 0.  0.
        3    1    3    3  502    0 -0.62960306571E+03  0.42114363883E+03 -0.87558228797E+03  0.11577591883E+04  0.10100000352E+00 0. -1.
       -3    1    3    3    0  502  0.62960306571E+03 -0.42114363883E+03  0.99156010127E+03  0.12477793994E+04  0.10100000352E+00 0.  1.
</event>
<event>
 5   0  0.2149029E-06  0.2395464E+04  0.7818609E-02  0.8441204E-01
        1   -1    0    0  501    0  0.00000000000E+00  0.00000000000E+00  0.12904978231E+04  0.12904978231E+04  0.50400001928E-02 0.  1.
       -1   -1    0    0    0  501  0.00000000000E+00  0.00000000000E+00 -0.11116341948E+04  0.11116341948E+04  0.50400001928E-02 0. -1.
    10030    2    1    2    0    0  0.00000000000E+00  0.00000000000E+00  0.17886362835E+03  0.24021320179E+04  0.23954636365E+04 0.  0.
        4    1    3    3  502    0 -0.11271808362E+04 -0.20634249257E+03 -0.26002938085E+03  0.11750450006E+04  0.12699999809E+01 0. -1.
       -4    1    3    3    0  502  0.11271808362E+04  0.20634249257E+03  0.43889300921E+03  0.12270870173E+04  0.12699999809E+01 0.  1.
</event>
<event>
 5   0  0.2149417E-06  0.2400098E+04  0.7818609E-02  0.8439467E-01
        1   -1    0    0  501    0  0.00000000000E+00  0.00000000000E+00  0.14372939627E+04  0.14372939627E+04  0.50400001928E-02 0. -1.
       -1   -1    0    0    0  501  0.00000000000E+00  0.00000000000E+00 -0.10019643127E+04  0.10019643127E+04  0.50400001928E-02 0.  1.
    10030    2    1    2    0    0  0.00000000000E+00  0.00000000000E+00  0.43532965003E+03  0.24392582754E+04  0.24000977126E+04 0.  0.
        5    1    3    3  502    0  0.58749855027E+03 -0.20051428128E+03  0.12614243929E+04  0.14059068648E+04  0.46999998093E+01 0. -1.
       -5    1    3    3    0  502 -0.58749855027E+03  0.20051428128E+03 -0.82609474285E+03  0.10333514106E+04  0.46999998093E+01 0.  1.
</event>
<event>
 5   0  0.5440503E-06  0.2400521E+04  0.7818609E-02  0.8439309E-01
        2   -1    0    0  501    0  0.00000000000E+00  0.00000000000E+00  0.12228574530E+04  0.12228574530E+04  0.25500000920E-02 0.  1.
       -2   -1    0    0    0  501  0.00000000000E+00  0.00000000000E+00 -0.11780808920E+04  0.11780808920E+04  0.25500000920E-02 0. -1.
    10030    2    1    2    0    0  0.00000000000E+00  0.00000000000E+00  0.44776561023E+02  0.24009383450E+04  0.24005207760E+04 0.  0.
        3    1    3    3  502    0  0.11144016911E+04  0.19895819943E+03 -0.37661656582E+03  0.11930278882E+04  0.10100000352E+00 0. -1.
       -3    1    3    3    0  502 -0.11144016911E+04 -0.19895819943E+03  0.42139312684E+03  0.12079104568E+04  0.10100000352E+00 0.  1.
</event>
<event>
 5   0  0.5440503E-06  0.2398301E+04  0.7818609E-02  0.8440140E-01
       -2   -1    0    0    0  501  0.00000000000E+00  0.00000000000E+00  0.84131642227E+03  0.84131642228E+03  0.25500000920E-02 0. -1.
        2   -1    0    0  501    0  0.00000000000E+00  0.00000000000E+00 -0.17091814837E+04  0.17091814837E+04  0.25500000920E-02 0.  1.
    10030    2    1    2    0    0  0.00000000000E+00  0.00000000000E+00 -0.86786506146E+03  0.25504979060E+04  0.23983014414E+04 0.  0.
        3    1    3    3  502    0 -0.61678567628E+03  0.95471351320E+03 -0.27501537793E+02  0.11369515414E+04  0.10100000352E+00 0. -1.
       -3    1    3    3    0  502  0.61678567628E+03 -0.95471351320E+03 -0.84036352366E+03  0.14135463646E+04  0.10100000352E+00 0.  1.
</event>
<event>
 5   0  0.5268358E-06  0.2401979E+04  0.7818609E-02  0.8438763E-01
        2   -1    0    0  501    0  0.00000000000E+00  0.00000000000E+00  0.20463435574E+04  0.20463435574E+04  0.25500000920E-02 0.  1.
       -2   -1    0    0    0  501  0.00000000000E+00  0.00000000000E+00 -0.70485530213E+03  0.70485530214E+03  0.25500000920E-02 0. -1.
    10030    2    1    2    0    0  0.00000000000E+00  0.00000000000E+00  0.13414882552E+04  0.27511988595E+04  0.24019792725E+04 0.  0.
        2    1    3    3  502    0 -0.11167017889E+04  0.28828588114E+03  0.10544824809E+04  0.15627107657E+04  0.25500000920E-02 0. -1.
       -2    1    3    3    0  502  0.11167017889E+04 -0.28828588114E+03  0.28700577430E+03  0.11884880938E+04  0.25500000920E-02 0.  1.
</event>
<event>
 5   0  0.2297414E-06  0.2394113E+04  0.7818609E-02  0.8441711E-01
        1   -1    0    0  501    0  0.00000000000E+00  0.00000000000E+00  0.12677549157E+04  0.12677549157E+04  0.50400001928E-02 0. -1.
       -1   -1    0    0    0  501  0.00000000000E+00  0.00000000000E+00 -0.11303004891E+04  0.11303004891E+04  0.50400001928E-02 0.  1.
    10030    2    1    2    0    0  0.00000000000E+00  0.00000000000E+00  0.13745442663E+03  0.23980554048E+04  0.23941127804E+04 0.  0.
        1    1    3    3  502    0  0.35451275059E+03  0.84084758395E+03 -0.70730025382E+03  0.11545464905E+04  0.50400001928E-02 0.  1.
       -1    1    3    3    0  502 -0.35451275059E+03 -0.84084758395E+03  0.84475468045E+03  0.12435089143E+04  0.50400001928E-02 0. -1.
</event>
<event>
 5   0  0.5371843E-06  0.2401334E+04  0.7818609E-02  0.8439004E-01
        2   -1    0    0  501    0  0.00000000000E+00  0.00000000000E+00  0.22915920003E+04  0.22915920003E+04  0.25500000920E-02 0. -1.
       -2   -1    0    0    0  501  0.00000000000E+00  0.00000000000E+00 -0.62908297044E+03  0.62908297045E+03  0.25500000920E-02 0.  1.
    10030    2    1    2    0    0  0.00000000000E+00  0.00000000000E+00  0.16625090298E+04  0.29206749707E+04  0.24013342146E+04 0.  0.
        4    1    3    3  502    0 -0.36760851351E+03  0.39814721586E+03 -0.47188441413E+03  0.71856366308E+03  0.12699999809E+01 0.  1.
       -4    1    3    3    0  502  0.36760851351E+03 -0.39814721586E+03  0.21343934440E+04  0.22021113076E+04  0.12699999809E+01 0. -1.
</event>
<event>
 5   0  0.5440503E-06  0.2395433E+04  0.7818609E-02  0.8441215E-01
       -2   -1    0    0    0  501  0.00000000000E+00  0.00000000000E+00  0.69638549548E+03  0.69638549549E+03  0.25500000920E-02 0. -1.
        2   -1    0    0  501    0  0.00000000000E+00  0.00000000000E+00 -0.20599582159E+04  0.20599582159E+04  0.25500000920E-02 0.  1.
    10030    2    1    2    0    0  0.00000000000E+00  0.00000000000E+00 -0.13635727204E+04  0.27563437113E+04  0.23954331740E+04 0.  0.
        3    1    3    3  502    0  0.21378395982E+03 -0.11375191085E+04 -0.32736680639E+03  0.12028392826E+04  0.10100000352E+00 0. -1.
       -3    1    3    3    0  502 -0.21378395982E+03  0.11375191085E+04 -0.10362059140E+04  0.15535044287E+04  0.10100000352E+00 0.  1.
</event>
<event>
 5   0  0.2254269E-06  0.2397287E+04  0.7818609E-02  0.8440520E-01
       -1   -1    0    0    0  501  0.00000000000E+00  0.00000000000E+00  0.11009763630E+04  0.11009763630E+04  0.50400001928E-02 0. -1.
        1   -1    0    0  501    0  0.00000000000E+00  0.00000000000E+00 -0.13049741901E+04  0.13049741901E+04  0.50400001928E-02 0.  1.
    10030    2    1    2    0    0  0.00000000000E+00  0.00000000000E+00 -0.20399782704E+03  0.24059505531E+04  0.23972865808E+04 0.  0.
        2    1    3    3  502    0 -0.68239938401E+03  0.28932418554E+03 -0.10474056804E+04  0.12831352474E+04  0.25500000920E-02 0.  1.
       -2    1    3    3    0  502  0.68239938401E+03 -0.28932418554E+03  0.84340785338E+03  0.11228153057E+04  0.25500000920E-02 0. -1.
</event>
<event>
 5   0  0.2297414E-06  0.2398462E+04  0.7818609E-02  0.8440080E-01
       -1   -1    0    0    0  501  0.00000000000E+00  0.00000000000E+00  0.22033303409E+04  0.22033303409E+04  0.50400001928E-02 0. -1.
        1   -1    0    0  501    0  0.00000000000E+00  0.00000000000E+00 -0.65271881415E+03  0.65271881417E+03  0.50400001928E-02 0.  1.
    10030    2    1    2    0    0  0.00000000000E+00  0.00000000000E+00  0.15506115267E+04  0.28560491550E+04  0.23984621467E+04 0.  0.
        1    1    3    3  502    0 -0.35350725479E+03  0.89682502061E+03  0.16247715798E+04  0.18892181407E+04  0.50400001928E-02 0. -1.
       -1    1    3    3    0  502  0.35350725479E+03 -0.89682502061E+03 -0.74160053042E+02  0.96683101433E+03  0.50400001928E-02 0.  1.
</event>
<event>
 5   0  0.5349036E-06  0.2390951E+04  0.7818609E-02  0.8442899E-01
       -2   -1    0    0    0  501  0.00000000000E+00  0.00000000000E+00  0.95984748713E+03  0.95984748713E+03  0.25500000920E-02 0.  1.
        2   -1    0    0  501    0  0.00000000000E+00  0.00000000000E+00 -0.14889471169E+04  0.14889471169E+04  0.25500000920E-02 0. -1.
    10030    2    1    2    0    0  0.00000000000E+00  0.00000000000E+00 -0.52909962979E+03  0.24487946040E+04  0.23909513995E+04 0.  0.
        1    1    3    3  502    0  0.83958255700E+02  0.12265840410E+03 -0.14794459937E+04  0.14868942535E+04  0.50400001928E-02 0. -1.
       -1    1    3    3    0  502 -0.83958255700E+02 -0.12265840410E+03  0.95034636395E+03  0.96190035050E+03  0.50400001928E-02 0.  1.
</event>
<event>
 5   0  0.2149417E-06  0.2403327E+04  0.7818609E-02  0.8438259E-01
       -1   -1    0    0    0  501  0.00000000000E+00  0.00000000000E+00  0.68166347822E+03  0.68166347824E+03  0.50400001928E-02 0. -1.
        1   -1    0    0  501    0  0.00000000000E+00  0.00000000000E+00 -0.21183405465E+04  0.21183405465E+04  0.50400001928E-02 0.  1.
    10030    2    1    2    0    0  0.00000000000E+00  0.00000000000E+00 -0.14366770682E+04  0.28000040247E+04  0.24033271812E+04 0.  0.
        5    1    3    3  502    0 -0.10312793896E+04 -0.48646121180E+03 -0.27655195035E+03  0.11733221046E+04  0.46999998093E+01 0. -1.
       -5    1    3    3    0  502  0.10312793896E+04  0.48646121180E+03 -0.11601251179E+04  0.16266819201E+04  0.46999998093E+01 0.  1.
</event>
<event>
 5   0  0.2297414E-06  0.2399718E+04  0.7818609E-02  0.8439609E-01
       -1   -1    0    0    0  501  0.00000000000E+00  0.00000000000E+00  0.63661643920E+03  0.63661643922E+03  0.50400001928E-02 0. -1.
        1   -1    0    0  501    0  0.00000000000E+00  0.00000000000E+00 -0.22614275206E+04  0.22614275206E+04  0.50400001928E-02 0.  1.
    10030    2    1    2    0    0  0.00000000000E+00  0.00000000000E+00 -0.16248110814E+04  0.28980439598E+04  0.23997182632E+04 0.  0.
        1    1    3    3  502    0 -0.44229512324E+03 -0.23219111599E+03 -0.21298759315E+04  0.21876720902E+04  0.50400001928E-02 0.  1.
       -1    1    3    3    0  502  0.44229512324E+03  0.23219111599E+03  0.50506485010E+03  0.71037186967E+03  0.50400001928E-02 0. -1.
</event>
<event>
 5   0  0.5440503E-06  0.2393357E+04  0.7818609E-02  0.8441995E-01
        2   -1    0    0  501    0  0.00000000000E+00  0.00000000000E+00  0.15358792400E+04  0.15358792400E+04  0.25500000920E-02 0.  1.
       -2   -1    0    0    0  501  0.00000000000E+00  0.00000000000E+00 -0.93239038223E+03  0.93239038223E+03  0.25500000920E-02 0. -1.
    10030    2    1    2    0    0  0.00000000000E+00  0.00000000000E+00  0.60348885777E+03  0.24682696222E+04  0.23933566651E+04 0.  0.
        3    1    3    3  502    0  0.83597337183E+03 -0.32377770486E+03  0.11192446889E+04  0.14340126096E+04  0.10100000352E+00 0.  1.
       -3    1    3    3    0  502 -0.83597337183E+03  0.32377770486E+03 -0.51575583117E+03  0.10342570126E+04  0.10100000352E+00 0. -1.
</event>
<event>
 5   0  0.2297414E-06  0.2399819E+04  0.7818609E-02  0.8439571E-01
       -1   -1    0    0    0  501  0.00000000000E+00  0.00000000000E+00  0.14710948050E+04  0.14710948050E+04  0.50400001928E-02 0.  1.
        1   -1    0    0  501    0  0.00000000000E+00  0.00000000000E+00 -0.97871501835E+03  0.97871501837E+03  0.50400001928E-02 0. -1.
    10030    2    1    2    0    0  0.00000000000E+00  0.00000000000E+00  0.49237978667E+03  0.24498098234E+04  0.23998188091E+04 0.  0.
        1    1    3    3  502    0  0.22393325990E+03  0.11784370121E+04  0.21518144141E+03  0.12186726177E+04  0.50400001928E-02 0. -1.
       -1    1    3    3    0  502 -0.22393325990E+03 -0.11784370121E+04  0.27719834525E+03  0.12311372056E+04  0.50400001928E-02 0.  1.
</event>
<event>
 5   0  0.2297414E-06  0.2401368E+04  0.7818609E-02  0.8438992E-01
       -1   -1    0    0    0  501  0.00000000000E+00  0.00000000000E+00  0.99761132070E+03  0.99761132071E+03  0.50400001928E-02 0. -1.
        1   -1    0    0  501    0  0.00000000000E+00  0.00000000000E+00 -0.14450937150E+04  0.14450937150E+04  0.50400001928E-02 0.  1.
    10030    2    1    2    0    0  0.00000000000E+00  0.00000000000E+00 -0.44748239434E+03  0.24427050357E+04  0.24013678182E+04 0.  0.
        1    1    3    3  502    0  0.41351473088E+02 -0.11753721842E+04 -0.46962969539E+03  0.12663971599E+04  0.50400001928E-02 0.  1.
       -1    1    3    3    0  502 -0.41351473088E+02  0.11753721842E+04  0.22147301054E+02  0.11763078758E+04  0.50400001928E-02 0. -1.
</event>
<event>
 5   0  0.2254269E-06  0.2397357E+04  0.7818609E-02  0.8440494E-01
       -1   -1    0    0    0  501  0.00000000000E+00  0.00000000000E+00  0.14043816727E+04  0.14043816727E+04  0.50400001928E-02 0. -1.
        1   -1    0    0  501    0  0.00000000000E+00  0.00000000000E+00 -0.10231055074E+04  0.10231055074E+04  0.50400001928E-02 0.  1.
    10030    2    1    2    0    0  0.00000000000E+00  0.00000000000E+00  0.38127616527E+03  0.24274871801E+04  0.23973573984E+04 0.  0.
        2    1    3    3  502    0 -0.74980829792E+03 -0.93176843668E+03  0.27180612702E+03  0.12264923456E+04  0.25500000920E-02 0.  1.
       -2    1    3    3    0  502  0.74980829792E+03  0.93176843668E+03  0.10947003825E+03  0.12009948345E+04  0.25500000920E-02 0. -1.
</event>
<event>
 5   0  0.5349036E-06  0.2396258E+04  0.7818609E-02  0.8440906E-01
       -2   -1    0    0    0  501  0.00000000000E+00  0.00000000000E+00  0.10483740631E+04  0.10483740631E+04  0.25500000920E-02 0.  1.
        2   -1    0    0  501    0  0.00000000000E+00  0.00000000000E+00 -0.13692754270E+04  0.13692754270E+04  0.25500000920E-02 0. -1.
    10030    2    1    2    0    0  0.00000000000E+00  0.00000000000E+00 -0.32090136388E+03  0.24176494901E+04  0.23962577849E+04 0.  0.
        1    1    3    3  502    0  0.10801317554E+04  0.17280956313E+03  0.33275381677E+03  0.11433603355E+04  0.50400001928E-02 0.  1.
       -1    1    3    3    0  502 -0.10801317554E+04 -0.17280956313E+03 -0.65365518066E+03  0.12742891546E+04  0.50400001928E-02 0. -1.
</event>
<event>
 5   0  0.1796750E-06  0.2401053E+04  0.7818609E-02  0.8439110E-01
       -3   -1    0    0    0  501  0.00000000000E+00  0.00000000000E+00  0.52662631871E+03  0.52662632840E+03  0.10100000352E+00 0. -1.
        3   -1    0    0  501    0  0.00000000000E+00  0.00000000000E+00 -0.27367857213E+04  0.27367857231E+04  0.10100000352E+00 0.  1.
    10030    2    1    2    0    0  0.00000000000E+00  0.00000000000E+00 -0.22101594025E+04  0.32634120515E+04  0.24010526094E+04 0.  0.
        5    1    3    3  502    0  0.53431477830E+03 -0.37960996955E+03  0.26197021503E+03  0.70586577679E+03  0.46999998093E+01 0. -1.
       -5    1    3    3    0  502 -0.53431477830E+03  0.37960996955E+03 -0.24721296176E+04  0.25575462747E+04  0.46999998093E+01 0.  1.
</event>
<event>
 5   0  0.5440503E-06  0.2396370E+04  0.7818609E-02  0.8440864E-01
        2   -1    0    0  501    0  0.00000000000E+00  0.00000000000E+00  0.60500518656E+03  0.60500518657E+03  0.25500000920E-02 0. -1.
       -2   -1    0    0    0  501  0.00000000000E+00  0.00000000000E+00 -0.23729509588E+04  0.23729509588E+04  0.25500000920E-02 0.  1.
    10030    2    1    2    0    0  0.00000000000E+00  0.00000000000E+00 -0.17679457723E+04  0.29779561454E+04  0.23963702865E+04 0.  0.
        3    1    3    3  502    0 -0.83589375972E+03 -0.80146903696E+03 -0.50180314746E+03  0.12620924704E+04  0.10100000352E+00 0. -1.
       -3    1    3    3    0  502  0.83589375972E+03  0.80146903696E+03 -0.12661426248E+04  0.17158636750E+04  0.10100000352E+00 0.  1.
</event>
<event>
 5   0  0.5268358E-06  0.2397797E+04  0.7818609E-02  0.8440329E-01
       -2   -1    0    0    0  501  0.00000000000E+00  0.00000000000E+00  0.12990679085E+04  0.12990679085E+04  0.25500000920E-02 0.  1.
        2   -1    0    0  501    0  0.00000000000E+00  0.00000000000E+00 -0.11064526607E+04  0.11064526607E+04  0.25500000920E-02 0. -1.
    10030    2    1    2    0    0  0.00000000000E+00  0.00000000000E+00  0.19261524787E+03  0.24055205692E+04  0.23977966084E+04 0.  0.
        2    1    3    3  502    0 -0.34935161403E+03  0.10321249633E+04 -0.40533175835E+03  0.11625929315E+04  0.25500000920E-02 0. -1.
       -2    1    3    3    0  502  0.34935161403E+03 -0.10321249633E+04  0.59794700623E+03  0.12429276376E+04  0.25500000920E-02 0.  1.
</event>
<event>
 5   0  0.5349036E-06  0.2396474E+04  0.7818609E-02  0.8440825E-01
       -2   -1    0    0    0  501  0.00000000000E+00  0.00000000000E+00  0.11356464308E+04  0.11356464308E+04  0.25500000920E-02 0. -1.
        2   -1    0    0  501    0  0.00000000000E+00  0.00000000000E+00 -0.12642772055E+04  0.12642772055E+04  0.25500000920E-02 0.  1.
    10030    2    1    2    0    0  0.00000000000E+00  0.00000000000E+00 -0.12863077475E+03  0.23999236363E+04  0.23964739898E+04 0.  0.
        1    1    3    3  502    0 -0.71893034130E+02  0.11507339347E+04  0.26236684449E+03  0.11824523491E+04  0.50400001928E-02 0. -1.
       -1    1    3    3    0  502  0.71893034130E+02 -0.11507339347E+04 -0.39099761924E+03  0.12174712872E+04  0.50400001928E-02 0.  1.
</event>
<event>
 5   0  0.5440503E-06  0.2401053E+04  0.7818609E-02  0.8439109E-01
       -2   -1    0    0    0  501  0.00000000000E+00  0.00000000000E+00  0.56776949912E+03  0.56776949913E+03  0.25500000920E-02 0.  1.
        2   -1    0    0  501    0  0.00000000000E+00  0.00000000000E+00 -0.25384673837E+04  0.25384673837E+04  0.25500000920E-02 0. -1.
    10030    2    1    2    0    0  0.00000000000E+00  0.00000000000E+00 -0.19706978845E+04  0.31062368828E+04  0.24010533980E+04 0.  0.
        3    1    3    3  502    0  0.82343303137E+03 -0.85780195419E+03 -0.11994869361E+04  0.16889745616E+04  0.10100000352E+00 0.  1.
       -3    1    3    3    0  502 -0.82343303137E+03  0.85780195419E+03 -0.77121094843E+03  0.14172623211E+04  0.10100000352E+00 0. -1.
</event>
<event>
 5   0  0.2215700E-06  0.2429720E+04  0.7818609E-02  0.8428460E-01
       -1   -1    0    0    0  501  0.00000000000E+00  0.00000000000E+00  0.92288020369E+03  0.92288020370E+03  0.50400001928E-02 0. -1.
        1   -1    0    0  501    0  0.00000000000E+00  0.00000000000E+00 -0.15992162465E+04  0.15992162465E+04  0.50400001928E-02 0.  1.
    10030    2    1    2    0    0  0.00000000000E+00  0.00000000000E+00 -0.67633604279E+03  0.25220964502E+04  0.24297201611E+04 0.  0.
        3    1    3    3  502    0 -0.58390713557E+03  0.66993159548E+03 -0.11979896375E+04  0.14916216234E+04  0.10100000352E+00 0.  1.
       -3    1    3    3    0  502  0.58390713557E+03 -0.66993159548E+03  0.52165359471E+03  0.10304748268E+04  0.10100000352E+00 0. -1.
</event>
<event>
 5   0  0.1796750E-06  0.2398055E+04  0.7818609E-02  0.8440232E-01
       -3   -1    0    0    0  501  0.00000000000E+00  0.00000000000E+00  0.15070152455E+04  0.15070152488E+04  0.10100000352E+00 0.  1.
        3   -1    0    0  501    0  0.00000000000E+00  0.00000000000E+00 -0.95398308579E+03  0.95398309113E+03  0.10100000352E+00 0. -1.
    10030    2    1    2    0    0  0.00000000000E+00  0.00000000000E+00  0.55303215967E+03  0.24609983400E+04  0.23980550994E+04 0.  0.
        3    1    3    3  502    0 -0.39154959386E+03  0.96456907773E+03  0.88707948164E+03  0.13677041373E+04  0.10100000352E+00 0.  1.
       -3    1    3    3    0  502  0.39154959386E+03 -0.96456907773E+03 -0.33404732196E+03  0.10932942027E+04  0.10100000352E+00 0. -1.
</event>
<event>
 5   0  0.5371843E-06  0.2386693E+04  0.7818609E-02  0.8444503E-01
       -2   -1    0    0    0  501  0.00000000000E+00  0.00000000000E+00  0.87408685045E+03  0.87408685045E+03  0.25500000920E-02 0.  1.
        2   -1    0    0  501    0  0.00000000000E+00  0.00000000000E+00 -0.16292149238E+04  0.16292149238E+04  0.25500000920E-02 0. -1.
    10030    2    1    2    0    0  0.00000000000E+00  0.00000000000E+00 -0.75512807333E+03  0.25033017742E+04  0.23866925579E+04 0.  0.
        4    1    3    3  502    0  0.29236901672E+03 -0.44368737449E+03 -0.14982901718E+04  0.15897211014E+04  0.12699999809E+01 0. -1.
       -4    1    3    3    0  502 -0.29236901672E+03  0.44368737449E+03  0.74316209852E+03  0.91358067285E+03  0.12699999809E+01 0.  1.
</event>
<event>
 5   0  0.5268358E-06  0.2400876E+04  0.7818609E-02  0.8439176E-01
        2   -1    0    0  501    0  0.00000000000E+00  0.00000000000E+00  0.18499571742E+04  0.18499571742E+04  0.25500000920E-02 0.  1.
       -2   -1    0    0    0  501  0.00000000000E+00  0.00000000000E+00 -0.77896498262E+03  0.77896498263E+03  0.25500000920E-02 0. -1.
    10030    2    1    2    0    0  0.00000000000E+00  0.00000000000E+00  0.10709921916E+04  0.26289221568E+04  0.24008763884E+04 0.  0.
        2    1    3    3  502    0 -0.85162001038E+03 -0.57995426582E+03  0.12099996029E+04  0.15892459318E+04  0.25500000920E-02 0.  1.
       -2    1    3    3    0  502  0.85162001038E+03  0.57995426582E+03 -0.13900741137E+03  0.10396762251E+04  0.25500000920E-02 0. -1.
</event>
<event>
 5   0  0.2254269E-06  0.2400639E+04  0.7818609E-02  0.8439264E-01
        1   -1    0    0  501    0  0.00000000000E+00  0.00000000000E+00  0.16218382787E+04  0.16218382788E+04  0.50400001928E-02 0. -1.
       -1   -1    0    0    0  501  0.00000000000E+00  0.00000000000E+00 -0.88835406835E+03  0.88835406836E+03  0.50400001928E-02 0.  1.
    10030    2    1    2    0    0  0.00000000000E+00  0.00000000000E+00  0.73348421040E+03  0.25101923471E+04  0.24006387760E+04 0.  0.
        2    1    3    3  502    0 -0.85611196865E+03  0.80044481032E+03  0.63765452776E+03  0.13342574317E+04  0.25500000920E-02 0. -1.
       -2    1    3    3    0  502  0.85611196865E+03 -0.80044481032E+03  0.95829682636E+02  0.11759349154E+04  0.25500000920E-02 0.  1.
</event>
<event>
 5   0  0.2254269E-06  0.2408181E+04  0.7818609E-02  0.8436447E-01
       -1   -1    0    0    0  501  0.00000000000E+00  0.00000000000E+00  0.10488049316E+04  0.10488049316E+04  0.50400001928E-02 0.  1.
        1   -1    0    0  501    0  0.00000000000E+00  0.00000000000E+00 -0.13823674205E+04  0.13823674206E+04  0.50400001928E-02 0. -1.
    10030    2    1    2    0    0  0.00000000000E+00  0.00000000000E+00 -0.33356248899E+03  0.24311723521E+04  0.24081808636E+04 0.  0.
        2    1    3    3  502    0 -0.45199967442E+03 -0.20519026043E+03 -0.12742628617E+04  0.13675352242E+04  0.25500000920E-02 0. -1.
       -2    1    3    3    0  502  0.45199967442E+03  0.20519026043E+03  0.94070037273E+03  0.10636371279E+04  0.25500000920E-02 0.  1.
</event>
<event>
 5   0  0.5349036E-06  0.2394727E+04  0.7818609E-02  0.8441480E-01
        2   -1    0    0  501    0  0.00000000000E+00  0.00000000000E+00  0.15472106422E+04  0.15472106422E+04  0.25500000920E-02 0.  1.
       -2   -1    0    0    0  501  0.00000000000E+00  0.00000000000E+00 -0.92662204349E+03  0.92662204349E+03  0.25500000920E-02 0. -1.
    10030    2    1    2    0    0  0.00000000000E+00  0.00000000000E+00  0.62058859872E+03  0.24738326857E+04  0.23947271135E+04 0.  0.
        1    1    3    3  502    0 -0.66877527648E+03 -0.85945233575E+03  0.82449254262E+03  0.13659087234E+04  0.50400001928E-02 0.  1.
       -1    1    3    3    0  502  0.66877527648E+03  0.85945233575E+03 -0.20390394390E+03  0.11079239623E+04  0.50400001928E-02 0. -1.
</event>
<event>
 5   0  0.2297414E-06  0.2393141E+04  0.7818609E-02  0.8442076E-01
        1   -1    0    0  501    0  0.00000000000E+00  0.00000000000E+00  0.15425677904E+04  0.15425677904E+04  0.50400001928E-02 0. -1.
       -1   -1    0    0    0  501  0.00000000000E+00  0.00000000000E+00 -0.92818010624E+03  0.92818010626E+03  0.50400001928E-02 0.  1.
    10030    2    1    2    0    0  0.00000000000E+00  0.00000000000E+00  0.61438768417E+03  0.24707478967E+04  0.23931408112E+04 0.  0.
        1    1    3    3  502    0 -0.47622934170E+02 -0.11907426980E+04  0.19578418896E+03  0.12076703049E+04  0.50400001928E-02 0.  1.
       -1    1    3    3    0  502  0.47622934170E+02  0.11907426980E+04  0.41860349521E+03  0.12630775918E+04  0.50400001928E-02 0. -1.
</event>
<event>
 5   0  0.2149417E-06  0.2391845E+04  0.7818609E-02  0.8442563E-01
       -1   -1    0    0    0  501  0.00000000000E+00  0.00000000000E+00  0.14971187531E+04  0.14971187531E+04  0.50400001928E-02 0. -1.
        1   -1    0    0  501    0  0.00000000000E+00  0.00000000000E+00 -0.95532233004E+03  0.95532233005E+03  0.50400001928E-02 0.  1.
    10030    2    1    2    0    0  0.00000000000E+00  0.00000000000E+00  0.54179642302E+03  0.24524410831E+04  0.23918452923E+04 0.  0.
        5    1    3    3  502    0 -0.97383817433E+03 -0.69224006049E+03  0.32369839389E+03  0.12378852254E+04  0.46999998093E+01 0. -1.
       -5    1    3    3    0  502  0.97383817433E+03  0.69224006049E+03  0.21809802913E+03  0.12145558577E+04  0.46999998093E+01 0.  1.
</event>
<event>
 5   0  0.2297414E-06  0.2398170E+04  0.7818609E-02  0.8440189E-01
       -1   -1    0    0    0  501  0.00000000000E+00  0.00000000000E+00  0.64900439732E+03  0.64900439734E+03  0.50400001928E-02 0. -1.
        1   -1    0    0  501    0  0.00000000000E+00  0.00000000000E+00 -0.22153999293E+04  0.22153999294E+04  0.50400001928E-02 0.  1.
    10030    2    1    2    0    0  0.00000000000E+00  0.00000000000E+00 -0.15663955320E+04  0.28644043267E+04  0.23981695486E+04 0.  0.
        1    1    3    3  502    0 -0.96518137905E+03 -0.65923092572E+03 -0.46349697759E+03  0.12573742308E+04  0.50400001928E-02 0.  1.
       -1    1    3    3    0  502  0.96518137905E+03  0.65923092572E+03 -0.11028985544E+04  0.16070300959E+04  0.50400001928E-02 0. -1.
</event>
<event>
 5   0  0.2215700E-06  0.2400789E+04  0.7818609E-02  0.8439208E-01
       -1   -1    0    0    0  501  0.00000000000E+00  0.00000000000E+00  0.98601108565E+03  0.98601108567E+03  0.50400001928E-02 0. -1.
        1   -1    0    0  501    0  0.00000000000E+00  0.00000000000E+00 -0.14613901548E+04  0.14613901548E+04  0.50400001928E-02 0.  1.
    10030    2    1    2    0    0  0.00000000000E+00  0.00000000000E+00 -0.47537906914E+03  0.24474012405E+04  0.24007889479E+04 0.  0.
        3    1    3    3  502    0 -0.92495876231E+03 -0.15923403749E+03  0.52520018060E+03  0.10755182149E+04  0.10100000352E+00 0. -1.
       -3    1    3    3    0  502  0.92495876231E+03  0.15923403749E+03 -0.10005792497E+04  0.13718830256E+04  0.10100000352E+00 0.  1.
</event>
<event>
 5   0  0.5440503E-06  0.2400662E+04  0.7818609E-02  0.8439256E-01
        2   -1    0    0  501    0  0.00000000000E+00  0.00000000000E+00  0.17624727836E+04  0.17624727836E+04  0.25500000920E-02 0. -1.
       -2   -1    0    0    0  501  0.00000000000E+00  0.00000000000E+00 -0.81748455990E+03  0.81748455990E+03  0.25500000920E-02 0.  1.
    10030    2    1    2    0    0  0.00000000000E+00  0.00000000000E+00  0.94498822371E+03  0.25799573435E+04  0.24006618153E+04 0.  0.
        3    1    3    3  502    0 -0.10860242024E+04 -0.40729560040E+03  0.80452857584E+03  0.14115964416E+04  0.10100000352E+00 0. -1.
       -3    1    3    3    0  502  0.10860242024E+04  0.40729560040E+03  0.14045964787E+03  0.11683609019E+04  0.10100000352E+00 0.  1.
</event>
<event>
 5   0  0.5349036E-06  0.2413950E+04  0.7818609E-02  0.8434299E-01
       -2   -1    0    0    0  501  0.00000000000E+00  0.00000000000E+00  0.65569982770E+03  0.65569982770E+03  0.25500000920E-02 0. -1.
        2   -1    0    0  501    0  0.00000000000E+00  0.00000000000E+00 -0.22217315955E+04  0.22217315955E+04  0.25500000920E-02 0.  1.
    10030    2    1    2    0    0  0.00000000000E+00  0.00000000000E+00 -0.15660317678E+04  0.28774314232E+04  0.24139503096E+04 0.  0.
        1    1    3    3  502    0  0.12195455640E+03  0.23827801027E+03  0.61987355075E+03  0.67519815088E+03  0.50400001928E-02 0. -1.
       -1    1    3    3    0  502 -0.12195455640E+03 -0.23827801027E+03 -0.21859053185E+04  0.22022332723E+04  0.50400001928E-02 0.  1.
</event>
<event>
 5   0  0.5371843E-06  0.2400977E+04  0.7818609E-02  0.8439138E-01
       -2   -1    0    0    0  501  0.00000000000E+00  0.00000000000E+00  0.74764551099E+03  0.74764551100E+03  0.25500000920E-02 0. -1.
        2   -1    0    0  501    0  0.00000000000E+00  0.00000000000E+00 -0.19276143866E+04  0.19276143866E+04  0.25500000920E-02 0.  1.
    10030    2    1    2    0    0  0.00000000000E+00  0.00000000000E+00 -0.11799688756E+04  0.26752598976E+04  0.24009766705E+04 0.  0.
        4    1    3    3  502    0  0.11049097049E+04 -0.44299912156E+02 -0.69284954186E+02  0.11079665861E+04  0.12699999809E+01 0. -1.
       -4    1    3    3    0  502 -0.11049097049E+04  0.44299912156E+02 -0.11106839214E+04  0.15672933115E+04  0.12699999809E+01 0.  1.
</event>
<event>
 5   0  0.2254269E-06  0.2400455E+04  0.7818609E-02  0.8439333E-01
        1   -1    0    0  501    0  0.00000000000E+00  0.00000000000E+00  0.14267309004E+04  0.14267309004E+04  0.50400001928E-02 0. -1.
       -1   -1    0    0    0  501  0.00000000000E+00  0.00000000000E+00 -0.10096833121E+04  0.10096833121E+04  0.50400001928E-02 0.  1.
    10030    2    1    2    0    0  0.00000000000E+00  0.00000000000E+00  0.41704758831E+03  0.24364142126E+04  0.24004552744E+04 0.  0.
        2    1    3    3  502    0 -0.66004655384E+03  0.87291977136E+03 -0.29170384906E+03  0.11325817922E+04  0.25500000920E-02 0.  1.
       -2    1    3    3    0  502  0.66004655384E+03 -0.87291977136E+03  0.70875143737E+03  0.13038324204E+04  0.25500000920E-02 0. -1.
</event>
<event>
 5   0  0.5379778E-06  0.2405930E+04  0.7818609E-02  0.8437287E-01
       -2   -1    0    0    0  501  0.00000000000E+00  0.00000000000E+00  0.99899416704E+03  0.99899416704E+03  0.25500000920E-02 0.  1.
        2   -1    0    0  501    0  0.00000000000E+00  0.00000000000E+00 -0.14485817959E+04  0.14485817959E+04  0.25500000920E-02 0. -1.
    10030    2    1    2    0    0  0.00000000000E+00  0.00000000000E+00 -0.44958762884E+03  0.24475759629E+04  0.24059299778E+04 0.  0.
        5    1    3    3  502    0 -0.74192978327E+03 -0.94652119081E+03 -0.19711052687E+03  0.12187029243E+04  0.46999998093E+01 0. -1.
       -5    1    3    3    0  502  0.74192978327E+03  0.94652119081E+03 -0.25247710196E+03  0.12288730386E+04  0.46999998093E+01 0.  1.
</event>
<event>
 5   0  0.5379778E-06  0.2400829E+04  0.7818609E-02  0.8439193E-01
        2   -1    0    0  501    0  0.00000000000E+00  0.00000000000E+00  0.19316293757E+04  0.19316293757E+04  0.25500000920E-02 0. -1.
       -2   -1    0    0    0  501  0.00000000000E+00  0.00000000000E+00 -0.74599979521E+03  0.74599979521E+03  0.25500000920E-02 0.  1.
    10030    2    1    2    0    0  0.00000000000E+00  0.00000000000E+00  0.11856295805E+04  0.26776291709E+04  0.24008291223E+04 0.  0.
        5    1    3    3  502    0 -0.73815520174E+01 -0.80942493451E+03  0.15814391890E+04  0.17765683804E+04  0.46999998093E+01 0.  1.
       -5    1    3    3    0  502  0.73815520174E+01  0.80942493451E+03 -0.39580960851E+03  0.90106079046E+03  0.46999998093E+01 0. -1.
</event>
<event>
 5   0  0.5440503E-06  0.2365036E+04  0.7818609E-02  0.8452711E-01
       -2   -1    0    0    0  501  0.00000000000E+00  0.00000000000E+00  0.89699199924E+03  0.89699199924E+03  0.25500000920E-02 0. -1.
        2   -1    0    0  501    0  0.00000000000E+00  0.00000000000E+00 -0.15589313658E+04  0.15589313658E+04  0.25500000920E-02 0.  1.
    10030    2    1    2    0    0  0.00000000000E+00  0.00000000000E+00 -0.66193936654E+03  0.24559233650E+04  0.23650361202E+04 0.  0.
        3    1    3    3  502    0  0.59513890618E+03  0.23643975408E+03 -0.13632829678E+04  0.15061987038E+04  0.10100000352E+00 0.  1.
       -3    1    3    3    0  502 -0.59513890618E+03 -0.23643975408E+03  0.70134360121E+03  0.94972466122E+03  0.10100000352E+00 0. -1.
</event>
<event>
 5   0  0.5379778E-06  0.2380907E+04  0.7818609E-02  0.8446686E-01
        2   -1    0    0  501    0  0.00000000000E+00  0.00000000000E+00  0.10780634540E+04  0.10780634540E+04  0.25500000920E-02 0.  1.
       -2   -1    0    0    0  501  0.00000000000E+00  0.00000000000E+00 -0.13145606884E+04  0.13145606884E+04  0.25500000920E-02 0. -1.
    10030    2    1    2    0    0  0.00000000000E+00  0.00000000000E+00 -0.23649723441E+03  0.23926241424E+04  0.23809072524E+04 0.  0.
        5    1    3    3  502    0 -0.66759740990E+03 -0.24854215203E+03  0.84022614235E+03  0.11015723142E+04  0.46999998093E+01 0.  1.
       -5    1    3    3    0  502  0.66759740990E+03  0.24854215203E+03 -0.10767233768E+04  0.12910518282E+04  0.46999998093E+01 0. -1.
</event>
<event>
 5   0  0.5268358E-06  0.2401063E+04  0.7818609E-02  0.8439106E-01
       -2   -1    0    0    0  501  0.00000000000E+00  0.00000000000E+00  0.68318579600E+03  0.68318579601E+03  0.25500000920E-02 0.  1.
        2   -1    0    0  501    0  0.00000000000E+00  0.00000000000E+00 -0.21096398855E+04  0.21096398855E+04  0.25500000920E-02 0. -1.
    10030    2    1    2    0    0  0.00000000000E+00  0.00000000000E+00 -0.14264540895E+04  0.27928256815E+04  0.24010631016E+04 0.  0.
        2    1    3    3  502    0 -0.14495670704E+03  0.99148243131E+03 -0.14823456513E+04  0.17892452287E+04  0.25500000920E-02 0. -1.
       -2    1    3    3    0  502  0.14495670704E+03 -0.99148243131E+03  0.55891561823E+02  0.10035804528E+04  0.25500000920E-02 0.  1.
</event>
<event>
 5   0  0.5379778E-06  0.2402793E+04  0.7818609E-02  0.8438459E-01
        2   -1    0    0  501    0  0.00000000000E+00  0.00000000000E+00  0.16760648401E+04  0.16760648401E+04  0.25500000920E-02 0.  1.
       -2   -1    0    0    0  501  0.00000000000E+00  0.00000000000E+00 -0.86115601649E+03  0.86115601649E+03  0.25500000920E-02 0. -1.
    10030    2    1    2    0    0  0.00000000000E+00  0.00000000000E+00  0.81490882361E+03  0.25372208566E+04  0.24027928093E+04 0.  0.
        5    1    3    3  502    0  0.44161893138E+03 -0.11047734812E+04  0.58345098297E+03  0.13251373004E+04  0.46999998093E+01 0.  1.
       -5    1    3    3    0  502 -0.44161893138E+03  0.11047734812E+04  0.23145784064E+03  0.12120835562E+04  0.46999998093E+01 0. -1.
</event>
<event>
 5   0  0.5268358E-06  0.2405763E+04  0.7818609E-02  0.8437349E-01
       -2   -1    0    0    0  501  0.00000000000E+00  0.00000000000E+00  0.10395857656E+04  0.10395857656E+04  0.25500000920E-02 0. -1.
        2   -1    0    0  501    0  0.00000000000E+00  0.00000000000E+00 -0.13918277612E+04  0.13918277612E+04  0.25500000920E-02 0.  1.
    10030    2    1    2    0    0  0.00000000000E+00  0.00000000000E+00 -0.35224199554E+03  0.24314135268E+04  0.24057633539E+04 0.  0.
        2    1    3    3  502    0  0.80776687763E+03 -0.81952075243E+03  0.17807635250E+03  0.11643937391E+04  0.25500000920E-02 0.  1.
       -2    1    3    3    0  502 -0.80776687763E+03  0.81952075243E+03 -0.53031834804E+03  0.12670197877E+04  0.25500000920E-02 0. -1.
</event>
<event>
 5   0  0.5371843E-06  0.2410558E+04  0.7818609E-02  0.8435561E-01
       -2   -1    0    0    0  501  0.00000000000E+00  0.00000000000E+00  0.81004088134E+03  0.81004088135E+03  0.25500000920E-02 0.  1.
        2   -1    0    0  501    0  0.00000000000E+00  0.00000000000E+00 -0.17933635722E+04  0.17933635722E+04  0.25500000920E-02 0. -1.
    10030    2    1    2    0    0  0.00000000000E+00  0.00000000000E+00 -0.98332269085E+03  0.26034044535E+04  0.24105582827E+04 0.  0.
        4    1    3    3  502    0  0.10805235393E+04  0.50255095423E+03 -0.29663938159E+03  0.12280411704E+04  0.12699999809E+01 0.  1.
       -4    1    3    3    0  502 -0.10805235393E+04 -0.50255095423E+03 -0.68668330926E+03  0.13753632832E+04  0.12699999809E+01 0. -1.
</event>
<event>
 5   0  0.5349036E-06  0.2385067E+04  0.7818609E-02  0.8445116E-01
       -2   -1    0    0    0  501  0.00000000000E+00  0.00000000000E+00  0.60965813849E+03  0.60965813849E+03  0.25500000920E-02 0. -1.
        2   -1    0    0  501    0  0.00000000000E+00  0.00000000000E+00 -0.23326778535E+04  0.23326778535E+04  0.25500000920E-02 0.  1.
    10030    2    1    2    0    0  0.00000000000E+00  0.00000000000E+00 -0.17230197150E+04  0.29423359920E+04  0.23850669071E+04 0.  0.
        1    1    3    3  502    0  0.48340863186E+03 -0.49380942869E+03 -0.20605029341E+04  0.21732933531E+04  0.50400001928E-02 0.  1.
       -1    1    3    3    0  502 -0.48340863186E+03  0.49380942869E+03  0.33748321909E+03  0.76904263888E+03  0.50400001928E-02 0. -1.
</event>
<event>
 5   0  0.2297414E-06  0.2396429E+04  0.7818609E-02  0.8440842E-01
        1   -1    0    0  501    0  0.00000000000E+00  0.00000000000E+00  0.20800032338E+04  0.20800032338E+04  0.50400001928E-02 0.  1.
       -1   -1    0    0    0  501  0.00000000000E+00  0.00000000000E+00 -0.69024794738E+03  0.69024794740E+03  0.50400001928E-02 0. -1.
    10030    2    1    2    0    0  0.00000000000E+00  0.00000000000E+00  0.13897552864E+04  0.27702511812E+04  0.23964289789E+04 0.  0.
        1    1    3    3  502    0 -0.26192466470E+03  0.51980133345E+03 -0.51583775195E+03  0.77774452270E+03  0.50400001928E-02 0. -1.
       -1    1    3    3    0  502  0.26192466470E+03 -0.51980133345E+03  0.19055930383E+04  0.19925066585E+04  0.50400001928E-02 0.  1.
</event>
<event>
 5   0  0.2149417E-06  0.2399170E+04  0.7818609E-02  0.8439814E-01
       -1   -1    0    0    0  501  0.00000000000E+00  0.00000000000E+00  0.11398082710E+04  0.11398082710E+04  0.50400001928E-02 0.  1.
        1   -1    0    0  501    0  0.00000000000E+00  0.00000000000E+00 -0.12624963592E+04  0.12624963592E+04  0.50400001928E-02 0. -1.
    10030    2    1    2    0    0  0.00000000000E+00  0.00000000000E+00 -0.12268808823E+03  0.24023046302E+04  0.23991696833E+04 0.  0.
        5    1    3    3  502    0  0.16235372186E+03  0.89694492098E+03 -0.84217887676E+03  0.12410303271E+04  0.46999998093E+01 0. -1.
       -5    1    3    3    0  502 -0.16235372186E+03 -0.89694492098E+03  0.71949078852E+03  0.11612743031E+04  0.46999998093E+01 0.  1.
</event>
<event>
 5   0  0.2254269E-06  0.2397846E+04  0.7818609E-02  0.8440311E-01
        1   -1    0    0  501    0  0.00000000000E+00  0.00000000000E+00  0.14100767311E+04  0.14100767311E+04  0.50400001928E-02 0. -1.
       -1   -1    0    0    0  501  0.00000000000E+00  0.00000000000E+00 -0.10193883682E+04  0.10193883682E+04  0.50400001928E-02 0.  1.
    10030    2    1    2    0    0  0.00000000000E+00  0.00000000000E+00  0.39068836296E+03  0.24294650993E+04  0.23978455480E+04 0.  0.
        2    1    3    3  502    0  0.11960280942E+04  0.35800539408E+02  0.11918018876E+03  0.12024844274E+04  0.25500000920E-02 0. -1.
       -2    1    3    3    0  502 -0.11960280942E+04 -0.35800539408E+02  0.27150817420E+03  0.12269806720E+04  0.25500000920E-02 0.  1.
</event>
<event>
 5   0  0.2149417E-06  0.2398958E+04  0.7818609E-02  0.8439894E-01
       -1   -1    0    0    0  501  0.00000000000E+00  0.00000000000E+00  0.12703055589E+04  0.12703055589E+04  0.50400001928E-02 0. -1.
        1   -1    0    0  501    0  0.00000000000E+00  0.00000000000E+00 -0.11326015536E+04  0.11326015536E+04  0.50400001928E-02 0.  1.
    10030    2    1    2    0    0  0.00000000000E+00  0.00000000000E+00  0.13770400537E+03  0.24029071125E+04  0.23989581485E+04 0.  0.
        5    1    3    3  502    0  0.55361165534E+03  0.86381016353E+03 -0.55351942007E+03  0.11657871598E+04  0.46999998093E+01 0.  1.
       -5    1    3    3    0  502 -0.55361165534E+03 -0.86381016353E+03  0.69122342544E+03  0.12371199527E+04  0.46999998093E+01 0. -1.
</event>
<event>
 5   0  0.5440503E-06  0.2400812E+04  0.7818609E-02  0.8439200E-01
       -2   -1    0    0    0  501  0.00000000000E+00  0.00000000000E+00  0.80574215710E+03  0.80574215710E+03  0.25500000920E-02 0. -1.
        2   -1    0    0  501    0  0.00000000000E+00  0.00000000000E+00 -0.17883811644E+04  0.17883811644E+04  0.25500000920E-02 0.  1.
    10030    2    1    2    0    0  0.00000000000E+00  0.00000000000E+00 -0.98263900732E+03  0.25941233215E+04  0.24008116104E+04 0.  0.
        3    1    3    3  502    0  0.43397542646E+03  0.25963891423E+03  0.68502170948E+03  0.85147036896E+03  0.10100000352E+00 0. -1.
       -3    1    3    3    0  502 -0.43397542646E+03 -0.25963891423E+03 -0.16676607168E+04  0.17426529526E+04  0.10100000352E+00 0.  1.
</event>
<event>
 5   0  0.5371843E-06  0.2399788E+04  0.7818609E-02  0.8439583E-01
       -2   -1    0    0    0  501  0.00000000000E+00  0.00000000000E+00  0.14291653137E+04  0.14291653137E+04  0.25500000920E-02 0.  1.
        2   -1    0    0  501    0  0.00000000000E+00  0.00000000000E+00 -0.10074034538E+04  0.10074034538E+04  0.25500000920E-02 0. -1.
    10030    2    1    2    0    0  0.00000000000E+00  0.00000000000E+00  0.42176185989E+03  0.24365687674E+04  0.23997883848E+04 0.  0.
        4    1    3    3  502    0  0.72172405098E+03 -0.17960503711E+03 -0.74514529632E+03  0.10527994589E+04  0.12699999809E+01 0. -1.
       -4    1    3    3    0  502 -0.72172405098E+03  0.17960503711E+03  0.11669071562E+04  0.13837693085E+04  0.12699999809E+01 0.  1.
</event>
<event>
 5   0  0.2149029E-06  0.2370640E+04  0.7818609E-02  0.8450578E-01
        1   -1    0    0  501    0  0.00000000000E+00  0.00000000000E+00  0.23735690784E+04  0.23735690784E+04  0.50400001928E-02 0. -1.
       -1   -1    0    0    0  501  0.00000000000E+00  0.00000000000E+00 -0.59192852340E+03  0.59192852342E+03  0.50400001928E-02 0.  1.
    10030    2    1    2    0    0  0.00000000000E+00  0.00000000000E+00  0.17816405550E+04  0.29654976018E+04  0.23706397784E+04 0.  0.
        4    1    3    3  502    0  0.94564135817E+03 -0.14070219214E+03  0.17673149672E+04  0.20093378241E+04  0.12699999809E+01 0. -1.
       -4    1    3    3    0  502 -0.94564135817E+03  0.14070219214E+03  0.14325587799E+02  0.95615977772E+03  0.12699999809E+01 0.  1.
</event>
<event>
 5   0  0.2254269E-06  0.2393074E+04  0.7818609E-02  0.8442101E-01
       -1   -1    0    0    0  501  0.00000000000E+00  0.00000000000E+00  0.71893664348E+03  0.71893664350E+03  0.50400001928E-02 0.  1.
        1   -1    0    0  501    0  0.00000000000E+00  0.00000000000E+00 -0.19914150267E+04  0.19914150267E+04  0.50400001928E-02 0. -1.
    10030    2    1    2    0    0  0.00000000000E+00  0.00000000000E+00 -0.12724783833E+04  0.27103516702E+04  0.23930743700E+04 0.  0.
        2    1    3    3  502    0 -0.48159640728E+03  0.67420039337E+03  0.34147448406E+03  0.89615070898E+03  0.25500000920E-02 0.  1.
       -2    1    3    3    0  502  0.48159640728E+03 -0.67420039337E+03 -0.16139528673E+04  0.18142009613E+04  0.25500000920E-02 0. -1.
</event>
<event>
 5   0  0.2254269E-06  0.2400085E+04  0.7818609E-02  0.8439472E-01
       -1   -1    0    0    0  501  0.00000000000E+00  0.00000000000E+00  0.95259663331E+03  0.95259663332E+03  0.50400001928E-02 0. -1.
        1   -1    0    0  501    0  0.00000000000E+00  0.00000000000E+00 -0.15117645177E+04  0.15117645177E+04  0.50400001928E-02 0.  1.
    10030    2    1    2    0    0  0.00000000000E+00  0.00000000000E+00 -0.55916788443E+03  0.24643611511E+04  0.24000848235E+04 0.  0.
        2    1    3    3  502    0 -0.18332171186E+02 -0.90549817339E+03 -0.10879668736E+04  0.14156040861E+04  0.25500000920E-02 0.  1.
       -2    1    3    3    0  502  0.18332171186E+02  0.90549817339E+03  0.52879898912E+03  0.10487570650E+04  0.25500000920E-02 0. -1.
</event>
<event>
 5   0  0.5268358E-06  0.2402420E+04  0.7818609E-02  0.8438598E-01
       -2   -1    0    0    0  501  0.00000000000E+00  0.00000000000E+00  0.69428772881E+03  0.69428772881E+03  0.25500000920E-02 0.  1.
        2   -1    0    0  501    0  0.00000000000E+00  0.00000000000E+00 -0.20782523305E+04  0.20782523305E+04  0.25500000920E-02 0. -1.
    10030    2    1    2    0    0  0.00000000000E+00  0.00000000000E+00 -0.13839646017E+04  0.27725400593E+04  0.24024196889E+04 0.  0.
        2    1    3    3  502    0 -0.10259764227E+03 -0.93897233895E+03 -0.15484092769E+04  0.18137713799E+04  0.25500000920E-02 0. -1.
       -2    1    3    3    0  502  0.10259764227E+03  0.93897233895E+03  0.16444467522E+03  0.95876867947E+03  0.25500000920E-02 0.  1.
</event>
<event>
 5   0  0.2297414E-06  0.2399494E+04  0.7818609E-02  0.8439693E-01
        1   -1    0    0  501    0  0.00000000000E+00  0.00000000000E+00  0.16127628701E+04  0.16127628701E+04  0.50400001928E-02 0. -1.
       -1   -1    0    0    0  501  0.00000000000E+00  0.00000000000E+00 -0.89250151282E+03  0.89250151284E+03  0.50400001928E-02 0.  1.
    10030    2    1    2    0    0  0.00000000000E+00  0.00000000000E+00  0.72026135728E+03  0.25052643830E+04  0.23994943646E+04 0.  0.
        1    1    3    3  502    0 -0.87392932486E+03  0.50115224270E+03 -0.32011558217E+03  0.10570619760E+04  0.50400001928E-02 0.  1.
       -1    1    3    3    0  502  0.87392932486E+03 -0.50115224270E+03  0.10403769394E+04  0.14482024069E+04  0.50400001928E-02 0. -1.
</event>
<event>
 5   0  0.2149029E-06  0.2395817E+04  0.7818609E-02  0.8441071E-01
       -1   -1    0    0    0  501  0.00000000000E+00  0.00000000000E+00  0.14151566167E+04  0.14151566167E+04  0.50400001928E-02 0. -1.
        1   -1    0    0  501    0  0.00000000000E+00  0.00000000000E+00 -0.10140114514E+04  0.10140114514E+04  0.50400001928E-02 0.  1.
    10030    2    1    2    0    0  0.00000000000E+00  0.00000000000E+00  0.40114516532E+03  0.24291680681E+04  0.23958172008E+04 0.  0.
        4    1    3    3  502    0 -0.72954022900E+03 -0.75241066679E+03 -0.38770459419E+03  0.11174377936E+04  0.12699999809E+01 0.  1.
       -4    1    3    3    0  502  0.72954022900E+03  0.75241066679E+03  0.78884975951E+03  0.13117302746E+04  0.12699999809E+01 0. -1.
</event>
<event>
 5   0  0.2215700E-06  0.2400305E+04  0.7818609E-02  0.8439389E-01
       -1   -1    0    0    0  501  0.00000000000E+00  0.00000000000E+00  0.51589001183E+03  0.51589001185E+03  0.50400001928E-02 0. -1.
        1   -1    0    0  501    0  0.00000000000E+00  0.00000000000E+00 -0.27920033020E+04  0.27920033020E+04  0.50400001928E-02 0.  1.
    10030    2    1    2    0    0  0.00000000000E+00  0.00000000000E+00 -0.22761132901E+04  0.33078933138E+04  0.24003054943E+04 0.  0.
        3    1    3    3  502    0  0.88141473525E+03 -0.28080997285E+03 -0.84344540626E+02  0.92890267956E+03  0.10100000352E+00 0. -1.
       -3    1    3    3    0  502 -0.88141473525E+03  0.28080997285E+03 -0.21917687495E+04  0.23789906343E+04  0.10100000352E+00 0.  1.
</event>
<event>
 5   0  0.2149029E-06  0.2398973E+04  0.7818609E-02  0.8439888E-01
       -1   -1    0    0    0  501  0.00000000000E+00  0.00000000000E+00  0.99815468534E+03  0.99815468536E+03  0.50400001928E-02 0. -1.
        1   -1    0    0  501    0  0.00000000000E+00  0.00000000000E+00 -0.14414278774E+04  0.14414278774E+04  0.50400001928E-02 0.  1.
    10030    2    1    2    0    0  0.00000000000E+00  0.00000000000E+00 -0.44327319204E+03  0.24395825628E+04  0.23989731048E+04 0.  0.
        4    1    3    3  502    0 -0.99571247133E+03 -0.31096347283E+03 -0.82379595127E+03  0.13292038930E+04  0.12699999809E+01 0.  1.
       -4    1    3    3    0  502  0.99571247133E+03  0.31096347283E+03  0.38052275923E+03  0.11103786697E+04  0.12699999809E+01 0. -1.
</event>
<event>
 5   0  0.5371843E-06  0.2400610E+04  0.7818609E-02  0.8439275E-01
       -2   -1    0    0    0  501  0.00000000000E+00  0.00000000000E+00  0.13071975316E+04  0.13071975316E+04  0.25500000920E-02 0. -1.
        2   -1    0    0  501    0  0.00000000000E+00  0.00000000000E+00 -0.11021529291E+04  0.11021529291E+04  0.25500000920E-02 0.  1.
    10030    2    1    2    0    0  0.00000000000E+00  0.00000000000E+00  0.20504460251E+03  0.24093504607E+04  0.24006095796E+04 0.  0.
        4    1    3    3  502    0 -0.44670415197E+03  0.20838450725E+03 -0.99588541517E+03  0.11111966861E+04  0.12699999809E+01 0.  1.
       -4    1    3    3    0  502  0.44670415197E+03 -0.20838450725E+03  0.12009300177E+04  0.12981537746E+04  0.12699999809E+01 0. -1.
</event>
<event>
 5   0  0.5268358E-06  0.2400791E+04  0.7818609E-02  0.8439207E-01
        2   -1    0    0  501    0  0.00000000000E+00  0.00000000000E+00  0.18222655863E+04  0.18222655863E+04  0.25500000920E-02 0.  1.
       -2   -1    0    0    0  501  0.00000000000E+00  0.00000000000E+00 -0.79074618189E+03  0.79074618190E+03  0.25500000920E-02 0. -1.
    10030    2    1    2    0    0  0.00000000000E+00  0.00000000000E+00  0.10315194044E+04  0.26130117682E+04  0.24007911652E+04 0.  0.
        2    1    3    3  502    0 -0.10390847921E+04 -0.54306493870E+03  0.23544155216E+03  0.11958467532E+04  0.25500000920E-02 0. -1.
       -2    1    3    3    0  502  0.10390847921E+04  0.54306493870E+03  0.79607785222E+03  0.14171650149E+04  0.25500000920E-02 0.  1.
</event>
<event>
 5   0  0.5379778E-06  0.2400913E+04  0.7818609E-02  0.8439162E-01
        2   -1    0    0  501    0  0.00000000000E+00  0.00000000000E+00  0.25331724683E+04  0.25331724683E+04  0.25500000920E-02 0. -1.
       -2   -1    0    0    0  501  0.00000000000E+00  0.00000000000E+00 -0.56888979622E+03  0.56888979622E+03  0.25500000920E-02 0.  1.
    10030    2    1    2    0    0  0.00000000000E+00  0.00000000000E+00  0.19642826721E+04  0.31020622645E+04  0.24009131340E+04 0.  0.
        5    1    3    3  502    0 -0.10481512482E+04 -0.50462767878E+03  0.59928963077E+03  0.13086024166E+04  0.46999998093E+01 0. -1.
       -5    1    3    3    0  502  0.10481512482E+04  0.50462767878E+03  0.13649930413E+04  0.17934598479E+04  0.46999998093E+01 0.  1.
</event>
<event>
 5   0  0.5440503E-06  0.2409891E+04  0.7818609E-02  0.8435810E-01
       -2   -1    0    0    0  501  0.00000000000E+00  0.00000000000E+00  0.61486969124E+03  0.61486969124E+03  0.25500000920E-02 0. -1.
        2   -1    0    0  501    0  0.00000000000E+00  0.00000000000E+00 -0.23613033588E+04  0.23613033588E+04  0.25500000920E-02 0.  1.
    10030    2    1    2    0    0  0.00000000000E+00  0.00000000000E+00 -0.17464336676E+04  0.29761730501E+04  0.24098911736E+04 0.  0.
        3    1    3    3  502    0  0.13347198001E+03 -0.62241063575E+03  0.39026371291E+03  0.74666963563E+03  0.10100000352E+00 0. -1.
       -3    1    3    3    0  502 -0.13347198001E+03  0.62241063575E+03 -0.21366973805E+04  0.22295034144E+04  0.10100000352E+00 0.  1.
</event>
<event>
 5   0  0.5349036E-06  0.2401913E+04  0.7818609E-02  0.8438788E-01
       -2   -1    0    0    0  501  0.00000000000E+00  0.00000000000E+00  0.11557373328E+04  0.11557373328E+04  0.25500000920E-02 0. -1.
        2   -1    0    0  501    0  0.00000000000E+00  0.00000000000E+00 -0.12479451301E+04  0.12479451301E+04  0.25500000920E-02 0.  1.
    10030    2    1    2    0    0  0.00000000000E+00  0.00000000000E+00 -0.92207797282E+02  0.24036824629E+04  0.24019132176E+04 0.  0.
        1    1    3    3  502    0  0.61446604316E+03 -0.87688708831E+03 -0.59037701061E+03  0.12227201227E+04  0.50400001928E-02 0. -1.
       -1    1    3    3    0  502 -0.61446604316E+03  0.87688708831E+03  0.49816921333E+03  0.11809623402E+04  0.50400001928E-02 0.  1.
</event>
<event>
 5   0  0.2215700E-06  0.2398171E+04  0.7818609E-02  0.8440189E-01
        1   -1    0    0  501    0  0.00000000000E+00  0.00000000000E+00  0.19014999653E+04  0.19014999653E+04  0.50400001928E-02 0. -1.
       -1   -1    0    0    0  501  0.00000000000E+00  0.00000000000E+00 -0.75614309489E+03  0.75614309491E+03  0.50400001928E-02 0.  1.
    10030    2    1    2    0    0  0.00000000000E+00  0.00000000000E+00  0.11453568704E+04  0.26576430602E+04  0.23981710270E+04 0.  0.
        3    1    3    3  502    0 -0.43845398236E+03  0.12553824923E+02 -0.66404353306E+03  0.79583498111E+03  0.10100000352E+00 0.  1.
       -3    1    3    3    0  502  0.43845398236E+03 -0.12553824923E+02  0.18094004034E+04  0.18618080791E+04  0.10100000352E+00 0. -1.
</event>
<event>
 5   0  0.2215700E-06  0.2398218E+04  0.7818609E-02  0.8440171E-01
        1   -1    0    0  501    0  0.00000000000E+00  0.00000000000E+00  0.17245044719E+04  0.17245044719E+04  0.50400001928E-02 0.  1.
       -1   -1    0    0    0  501  0.00000000000E+00  0.00000000000E+00 -0.83378318601E+03  0.83378318602E+03  0.50400001928E-02 0. -1.
    10030    2    1    2    0    0  0.00000000000E+00  0.00000000000E+00  0.89072128585E+03  0.25582876579E+04  0.23982183661E+04 0.  0.
        3    1    3    3  502    0 -0.32271687898E+03  0.14129477541E+03  0.16680536164E+04  0.17048499274E+04  0.10100000352E+00 0.  1.
       -3    1    3    3    0  502  0.32271687898E+03 -0.14129477541E+03 -0.77733233054E+03  0.85343773050E+03  0.10100000352E+00 0. -1.
</event>
<event>
 5   0  0.5379778E-06  0.2388005E+04  0.7818609E-02  0.8444008E-01
       -2   -1    0    0    0  501  0.00000000000E+00  0.00000000000E+00  0.55464695797E+03  0.55464695798E+03  0.25500000920E-02 0. -1.
        2   -1    0    0  501    0  0.00000000000E+00  0.00000000000E+00 -0.25703601823E+04  0.25703601823E+04  0.25500000920E-02 0.  1.
    10030    2    1    2    0    0  0.00000000000E+00  0.00000000000E+00 -0.20157132243E+04  0.31250071403E+04  0.23880054070E+04 0.  0.
        5    1    3    3  502    0  0.35161388352E+03  0.69237877410E+03 -0.21947452580E+04  0.23280785054E+04  0.46999998093E+01 0.  1.
       -5    1    3    3    0  502 -0.35161388352E+03 -0.69237877410E+03  0.17903203371E+03  0.79692863482E+03  0.46999998093E+01 0. -1.
</event>
<event>
 5   0  0.2149029E-06  0.2392080E+04  0.7818609E-02  0.8442475E-01
       -1   -1    0    0    0  501  0.00000000000E+00  0.00000000000E+00  0.96028931353E+03  0.96028931354E+03  0.50400001928E-02 0. -1.
        1   -1    0    0  501    0  0.00000000000E+00  0.00000000000E+00 -0.14896675521E+04  0.14896675521E+04  0.50400001928E-02 0.  1.
    10030    2    1    2    0    0  0.00000000000E+00  0.00000000000E+00 -0.52937823859E+03  0.24499568657E+04  0.23920801249E+04 0.  0.
        4    1    3    3  502    0 -0.22034351912E+03 -0.11355624638E+04  0.46734999612E+02  0.11576869822E+04  0.12699999809E+01 0. -1.
       -4    1    3    3    0  502  0.22034351912E+03  0.11355624638E+04 -0.57611323821E+03  0.12922698835E+04  0.12699999809E+01 0.  1.
</event>
<event>
 5   0  0.5349036E-06  0.2400260E+04  0.7818609E-02  0.8439406E-01
        2   -1    0    0  501    0  0.00000000000E+00  0.00000000000E+00  0.12142046587E+04  0.12142046587E+04  0.25500000920E-02 0.  1.
       -2   -1    0    0    0  501  0.00000000000E+00  0.00000000000E+00 -0.11862188317E+04  0.11862188318E+04  0.25500000920E-02 0. -1.
    10030    2    1    2    0    0  0.00000000000E+00  0.00000000000E+00  0.27985826956E+02  0.24004234905E+04  0.24002603457E+04 0.  0.
        1    1    3    3  502    0 -0.45236589032E+03 -0.61506203398E+03  0.94000197520E+03  0.12110078108E+04  0.50400001928E-02 0.  1.
       -1    1    3    3    0  502  0.45236589032E+03  0.61506203398E+03 -0.91201614825E+03  0.11894156797E+04  0.50400001928E-02 0. -1.
</event>
<event>
 5   0  0.5440503E-06  0.2398083E+04  0.7818609E-02  0.8440222E-01
        2   -1    0    0  501    0  0.00000000000E+00  0.00000000000E+00  0.12084149656E+04  0.12084149656E+04  0.25500000920E-02 0.  1.
       -2   -1    0    0    0  501  0.00000000000E+00  0.00000000000E+00 -0.11897404710E+04  0.11897404710E+04  0.25500000920E-02 0. -1.
    10030    2    1    2    0    0  0.00000000000E+00  0.00000000000E+00  0.18674494640E+02  0.23981554366E+04  0.23980827261E+04 0.  0.
        3    1    3    3  502    0  0.29287175499E+03  0.48690933335E+03  0.10652317601E+04  0.12072999945E+04  0.10100000352E+00 0.  1.
       -3    1    3    3    0  502 -0.29287175499E+03 -0.48690933335E+03 -0.10465572655E+04  0.11908554421E+04  0.10100000352E+00 0. -1.
</event>
<event>
 5   0  0.2215700E-06  0.2400893E+04  0.7818609E-02  0.8439169E-01
        1   -1    0    0  501    0  0.00000000000E+00  0.00000000000E+00  0.15181121666E+04  0.15181121666E+04  0.50400001928E-02 0. -1.
       -1   -1    0    0    0  501  0.00000000000E+00  0.00000000000E+00 -0.94925251778E+03  0.94925251780E+03  0.50400001928E-02 0.  1.
    10030    2    1    2    0    0  0.00000000000E+00  0.00000000000E+00  0.56885964877E+03  0.24673646844E+04  0.24008929975E+04 0.  0.
        3    1    3    3  502    0 -0.10270891510E+04 -0.88302659738E+01  0.92298751738E+03  0.13809040753E+04  0.10100000352E+00 0. -1.
       -3    1    3    3    0  502  0.10270891510E+04  0.88302659738E+01 -0.35412786861E+03  0.10864606091E+04  0.10100000352E+00 0.  1.
</event>
<event>
 5   0  0.5440503E-06  0.2387902E+04  0.7818609E-02  0.8444047E-01
        2   -1    0    0  501    0  0.00000000000E+00  0.00000000000E+00  0.88398460775E+03  0.88398460775E+03  0.25500000920E-02 0. -1.
       -2   -1    0    0    0  501  0.00000000000E+00  0.00000000000E+00 -0.16126059502E+04  0.16126059502E+04  0.25500000920E-02 0.  1.
    10030    2    1    2    0    0  0.00000000000E+00  0.00000000000E+00 -0.72862134243E+03  0.24965905579E+04  0.23879018726E+04 0.  0.
        3    1    3    3  502    0  0.45995562276E+03  0.73751519964E+02 -0.15136753176E+04  0.15837333863E+04  0.10100000352E+00 0.  1.
       -3    1    3    3    0  502 -0.45995562276E+03 -0.73751519964E+02  0.78505397519E+03  0.91285717161E+03  0.10100000352E+00 0. -1.
</event>
<event>
 5   0  0.5349036E-06  0.2413456E+04  0.7818609E-02  0.8434483E-01
        2   -1    0    0  501    0  0.00000000000E+00  0.00000000000E+00  0.95969902888E+03  0.95969902888E+03  0.25500000920E-02 0.  1.
       -2   -1    0    0    0  501  0.00000000000E+00  0.00000000000E+00 -0.15173428751E+04  0.15173428751E+04  0.25500000920E-02 0. -1.
    10030    2    1    2    0    0  0.00000000000E+00  0.00000000000E+00 -0.55764384624E+03  0.24770419040E+04  0.24134560147E+04 0.  0.
        1    1    3    3  502    0 -0.15330253295E+03  0.85926670144E+03 -0.11340533886E+04  0.14310548623E+04  0.50400001928E-02 0. -1.
       -1    1    3    3    0  502  0.15330253295E+03 -0.85926670144E+03  0.57640954235E+03  0.10459870417E+04  0.50400001928E-02 0.  1.
</event>
<event>
 5   0  0.2149029E-06  0.2398927E+04  0.7818609E-02  0.8439905E-01
       -1   -1    0    0    0  501  0.00000000000E+00  0.00000000000E+00  0.85366043185E+03  0.85366043186E+03  0.50400001928E-02 0.  1.
        1   -1    0    0  501    0  0.00000000000E+00  0.00000000000E+00 -0.16853458813E+04  0.16853458813E+04  0.50400001928E-02 0. -1.
    10030    2    1    2    0    0  0.00000000000E+00  0.00000000000E+00 -0.83168544943E+03  0.25390063132E+04  0.23989273377E+04 0.  0.
        4    1    3    3  502    0 -0.78323917154E+03 -0.83325907619E+03 -0.32875494274E+02  0.11440571222E+04  0.12699999809E+01 0. -1.
       -4    1    3    3    0  502  0.78323917154E+03  0.83325907619E+03 -0.79880995516E+03  0.13949491909E+04  0.12699999809E+01 0.  1.
</event>
<event>
 5   0  0.5371843E-06  0.2399793E+04  0.7818609E-02  0.8439581E-01
       -2   -1    0    0    0  501  0.00000000000E+00  0.00000000000E+00  0.83006173422E+03  0.83006173423E+03  0.25500000920E-02 0.  1.
        2   -1    0    0  501    0  0.00000000000E+00  0.00000000000E+00 -0.17345119251E+04  0.17345119251E+04  0.25500000920E-02 0. -1.
    10030    2    1    2    0    0  0.00000000000E+00  0.00000000000E+00 -0.90445019089E+03  0.25645736593E+04  0.23997933049E+04 0.  0.
        4    1    3    3  502    0 -0.10415773689E+04 -0.10559792689E+03  0.17430398107E+03  0.10613283320E+04  0.12699999809E+01 0.  1.
       -4    1    3    3    0  502  0.10415773689E+04  0.10559792689E+03 -0.10787541720E+04  0.15032453273E+04  0.12699999809E+01 0. -1.
</event>
<event>
 5   0  0.5268358E-06  0.2401334E+04  0.7818609E-02  0.8439004E-01
        2   -1    0    0  501    0  0.00000000000E+00  0.00000000000E+00  0.21191632868E+04  0.21191632868E+04  0.25500000920E-02 0. -1.
       -2   -1    0    0    0  501  0.00000000000E+00  0.00000000000E+00 -0.68026909506E+03  0.68026909506E+03  0.25500000920E-02 0.  1.
    10030    2    1    2    0    0  0.00000000000E+00  0.00000000000E+00  0.14388941917E+04  0.27994323818E+04  0.24013340387E+04 0.  0.
        2    1    3    3  502    0  0.54674986474E+03  0.98661694148E+03  0.11990540242E+04  0.16462317446E+04  0.25500000920E-02 0. -1.
       -2    1    3    3    0  502 -0.54674986474E+03 -0.98661694148E+03  0.23984016747E+03  0.11532006372E+04  0.25500000920E-02 0.  1.
</event>
<event>
 5   0  0.2215700E-06  0.2399526E+04  0.7818609E-02  0.8439681E-01
        1   -1    0    0  501    0  0.00000000000E+00  0.00000000000E+00  0.11433522608E+04  0.11433522608E+04  0.50400001928E-02 0. -1.
       -1   -1    0    0    0  501  0.00000000000E+00  0.00000000000E+00 -0.12589568750E+04  0.12589568750E+04  0.50400001928E-02 0.  1.
    10030    2    1    2    0    0  0.00000000000E+00  0.00000000000E+00 -0.11560461421E+03  0.24023091358E+04  0.23995259443E+04 0.  0.
        3    1    3    3  502    0  0.33593445327E+03  0.27137788513E+01  0.10953026331E+04  0.11456645189E+04  0.10100000352E+00 0. -1.
       -3    1    3    3    0  502 -0.33593445327E+03 -0.27137788513E+01 -0.12109072473E+04  0.12566446170E+04  0.10100000352E+00 0.  1.
</event>
<event>
 5   0  0.2149029E-06  0.2392936E+04  0.7818609E-02  0.8442153E-01
        1   -1    0    0  501    0  0.00000000000E+00  0.00000000000E+00  0.19027380713E+04  0.19027380713E+04  0.50400001928E-02 0. -1.
       -1   -1    0    0    0  501  0.00000000000E+00  0.00000000000E+00 -0.75235564579E+03  0.75235564581E+03  0.50400001928E-02 0.  1.
    10030    2    1    2    0    0  0.00000000000E+00  0.00000000000E+00  0.11503824255E+04  0.26550937171E+04  0.23929360463E+04 0.  0.
        4    1    3    3  502    0  0.18484690246E+03 -0.77761982691E+03 -0.41266977712E+03  0.89953261775E+03  0.12699999809E+01 0.  1.
       -4    1    3    3    0  502 -0.18484690246E+03  0.77761982691E+03  0.15630522026E+04  0.17555610994E+04  0.12699999809E+01 0. -1.
</event>
<event>
 5   0  0.2149417E-06  0.2401585E+04  0.7818609E-02  0.8438910E-01
       -1   -1    0    0    0  501  0.00000000000E+00  0.00000000000E+00  0.17814053261E+04  0.17814053261E+04  0.50400001928E-02 0. -1.
        1   -1    0    0  501    0  0.00000000000E+00  0.00000000000E+00 -0.80941881073E+03  0.80941881075E+03  0.50400001928E-02 0.  1.
    10030    2    1    2    0    0  0.00000000000E+00  0.00000000000E+00  0.97198651538E+03  0.25908241369E+04  0.24015852935E+04 0.  0.
        5    1    3    3  502    0 -0.10657391683E+04  0.31161753379E+03 -0.71663870864E+01  0.11103958345E+04  0.46999998093E+01 0.  1.
       -5    1    3    3    0  502  0.10657391683E+04 -0.31161753379E+03  0.97915290247E+03  0.14804283024E+04  0.46999998093E+01 0. -1.
</event>
<event>
 5   0  0.2149029E-06  0.2347267E+04  0.7818609E-02  0.8459514E-01
        1   -1    0    0  501    0  0.00000000000E+00  0.00000000000E+00  0.17070251638E+04  0.17070251638E+04  0.50400001928E-02 0. -1.
       -1   -1    0    0    0  501  0.00000000000E+00  0.00000000000E+00 -0.80691002817E+03  0.80691002818E+03  0.50400001928E-02 0.  1.
    10030    2    1    2    0    0  0.00000000000E+00  0.00000000000E+00  0.90011513559E+03  0.25139351919E+04  0.23472671113E+04 0.  0.
        4    1    3    3  502    0 -0.17229055788E+03 -0.11007289773E+04  0.54907760835E+02  0.11154841070E+04  0.12699999809E+01 0.  1.
       -4    1    3    3    0  502  0.17229055788E+03  0.11007289773E+04  0.84520737475E+03  0.13984510850E+04  0.12699999809E+01 0. -1.
</event>
<event>
 5   0  0.2297414E-06  0.2399886E+04  0.7818609E-02  0.8439546E-01
       -1   -1    0    0    0  501  0.00000000000E+00  0.00000000000E+00  0.11130105317E+04  0.11130105318E+04  0.50400001928E-02 0. -1.
        1   -1    0    0  501    0  0.00000000000E+00  0.00000000000E+00 -0.12936658999E+04  0.12936658999E+04  0.50400001928E-02 0.  1.
    10030    2    1    2    0    0  0.00000000000E+00  0.00000000000E+00 -0.18065536817E+03  0.24066764317E+04  0.23998864733E+04 0.  0.
        1    1    3    3  502    0 -0.10692381160E+04  0.26526208905E+03  0.38665406927E+03  0.11675339369E+04  0.50400001928E-02 0.  1.
       -1    1    3    3    0  502  0.10692381160E+04 -0.26526208905E+03 -0.56730943744E+03  0.12391424948E+04  0.50400001928E-02 0. -1.
</event>
<event>
 5   0  0.5379778E-06  0.2397690E+04  0.7818609E-02  0.8440369E-01
        2   -1    0    0  501    0  0.00000000000E+00  0.00000000000E+00  0.23533618977E+04  0.23533618977E+04  0.25500000920E-02 0.  1.
       -2   -1    0    0    0  501  0.00000000000E+00  0.00000000000E+00 -0.61071332248E+03  0.61071332249E+03  0.25500000920E-02 0. -1.
    10030    2    1    2    0    0  0.00000000000E+00  0.00000000000E+00  0.17426485752E+04  0.29640752202E+04  0.23976901081E+04 0.  0.
        5    1    3    3  502    0 -0.10931787211E+04  0.11026873363E+03  0.27844254357E+03  0.11334686806E+04  0.46999998093E+01 0. -1.
       -5    1    3    3    0  502  0.10931787211E+04 -0.11026873363E+03  0.14642060316E+04  0.18306065396E+04  0.46999998093E+01 0.  1.
</event>
<event>
 5   0  0.2149029E-06  0.2397264E+04  0.7818609E-02  0.8440529E-01
       -1   -1    0    0    0  501  0.00000000000E+00  0.00000000000E+00  0.17450397387E+04  0.17450397387E+04  0.50400001928E-02 0.  1.
        1   -1    0    0  501    0  0.00000000000E+00  0.00000000000E+00 -0.82331546591E+03  0.82331546592E+03  0.50400001928E-02 0. -1.
    10030    2    1    2    0    0  0.00000000000E+00  0.00000000000E+00  0.92172427282E+03  0.25683552047E+04  0.23972636113E+04 0.  0.
        4    1    3    3  502    0 -0.35355522376E+03 -0.11364654652E+04  0.30873693203E+03  0.12295833261E+04  0.12699999809E+01 0. -1.
       -4    1    3    3    0  502  0.35355522376E+03  0.11364654652E+04  0.61298734079E+03  0.13387718785E+04  0.12699999809E+01 0.  1.
</event>
<event>
 5   0  0.2254269E-06  0.2400074E+04  0.7818609E-02  0.8439476E-01
       -1   -1    0    0    0  501  0.00000000000E+00  0.00000000000E+00  0.84411278276E+03  0.84411278277E+03  0.50400001928E-02 0. -1.
        1   -1    0    0  501    0  0.00000000000E+00  0.00000000000E+00 -0.17060386538E+04  0.17060386538E+04  0.50400001928E-02 0.  1.
    10030    2    1    2    0    0  0.00000000000E+00  0.00000000000E+00 -0.86192587105E+03  0.25501514366E+04  0.24000741952E+04 0.  0.
        2    1    3    3  502    0 -0.83402243111E+03  0.47898743812E+03 -0.11935211795E+04  0.15328128351E+04  0.25500000920E-02 0.  1.
       -2    1    3    3    0  502  0.83402243111E+03 -0.47898743812E+03  0.33159530848E+03  0.10173386015E+04  0.25500000920E-02 0. -1.
</event>
<event>
 5   0  0.5440503E-06  0.2400734E+04  0.7818609E-02  0.8439229E-01
        2   -1    0    0  501    0  0.00000000000E+00  0.00000000000E+00  0.19257293583E+04  0.19257293583E+04  0.25500000920E-02 0.  1.
       -2   -1    0    0    0  501  0.00000000000E+00  0.00000000000E+00 -0.74822590314E+03  0.74822590315E+03  0.25500000920E-02 0. -1.
    10030    2    1    2    0    0  0.00000000000E+00  0.00000000000E+00  0.11775034551E+04  0.26739552614E+04  0.24007337114E+04 0.  0.
        3    1    3    3  502    0  0.13341279351E+03 -0.98290028921E+03  0.13416960127E+04  0.16685443214E+04  0.10100000352E+00 0.  1.
       -3    1    3    3    0  502 -0.13341279351E+03  0.98290028921E+03 -0.16419255757E+03  0.10054109399E+04  0.10100000352E+00 0. -1.
</event>
<event>
 5   0  0.5440503E-06  0.2401911E+04  0.7818609E-02  0.8438789E-01
        2   -1    0    0  501    0  0.00000000000E+00  0.00000000000E+00  0.13464677913E+04  0.13464677913E+04  0.25500000920E-02 0. -1.
       -2   -1    0    0    0  501  0.00000000000E+00  0.00000000000E+00 -0.10711682975E+04  0.10711682975E+04  0.25500000920E-02 0.  1.
    10030    2    1    2    0    0  0.00000000000E+00  0.00000000000E+00  0.27529949376E+03  0.24176360888E+04  0.24019105825E+04 0.  0.
        3    1    3    3  502    0 -0.32843892948E+03 -0.23346117316E+03 -0.10010915156E+04  0.10791480355E+04  0.10100000352E+00 0.  1.
       -3    1    3    3    0  502  0.32843892948E+03  0.23346117316E+03  0.12763910094E+04  0.13384880533E+04  0.10100000352E+00 0. -1.
</event>
<event>
 5   0  0.2149417E-06  0.2399295E+04  0.7818609E-02  0.8439768E-01
        1   -1    0    0  501    0  0.00000000000E+00  0.00000000000E+00  0.14956220118E+04  0.14956220119E+04  0.50400001928E-02 0.  1.
       -1   -1    0    0    0  501  0.00000000000E+00  0.00000000000E+00 -0.96224442879E+03  0.96224442880E+03  0.50400001928E-02 0. -1.
    10030    2    1    2    0    0  0.00000000000E+00  0.00000000000E+00  0.53337758306E+03  0.24578664407E+04  0.23992948535E+04 0.  0.
        5    1    3    3  502    0 -0.40970832404E+03 -0.48284796224E+03 -0.77707031036E+03  0.10024287619E+04  0.46999998093E+01 0. -1.
       -5    1    3    3    0  502  0.40970832404E+03  0.48284796224E+03  0.13104478934E+04  0.14554376788E+04  0.46999998093E+01 0.  1.
</event>
<event>
 5   0  0.5379778E-06  0.2399731E+04  0.7818609E-02  0.8439604E-01
        2   -1    0    0  501    0  0.00000000000E+00  0.00000000000E+00  0.13483378628E+04  0.13483378628E+04  0.25500000920E-02 0. -1.
       -2   -1    0    0    0  501  0.00000000000E+00  0.00000000000E+00 -0.10677418432E+04  0.10677418432E+04  0.25500000920E-02 0.  1.
    10030    2    1    2    0    0  0.00000000000E+00  0.00000000000E+00  0.28059601953E+03  0.24160797060E+04  0.23997306140E+04 0.  0.
        5    1    3    3  502    0 -0.28565519386E+03  0.11464893127E+04  0.35057017828E+03  0.12324602119E+04  0.46999998093E+01 0. -1.
       -5    1    3    3    0  502  0.28565519386E+03 -0.11464893127E+04 -0.69974158746E+02  0.11836194941E+04  0.46999998093E+01 0.  1.
</event>
<event>
 5   0  0.5440503E-06  0.2400790E+04  0.7818609E-02  0.8439208E-01
        2   -1    0    0  501    0  0.00000000000E+00  0.00000000000E+00  0.13500807067E+04  0.13500807067E+04  0.25500000920E-02 0.  1.
       -2   -1    0    0    0  501  0.00000000000E+00  0.00000000000E+00 -0.10673054899E+04  0.10673054899E+04  0.25500000920E-02 0. -1.
    10030    2    1    2    0    0  0.00000000000E+00  0.00000000000E+00  0.28277521679E+03  0.24173861966E+04  0.24007903282E+04 0.  0.
        3    1    3    3  502    0 -0.31895838197E+03  0.39868501712E+03 -0.95252203112E+03  0.10807323546E+04  0.10100000352E+00 0. -1.
       -3    1    3    3    0  502  0.31895838197E+03 -0.39868501712E+03  0.12352972479E+04  0.13366538420E+04  0.10100000352E+00 0.  1.
</event>
<event>
 5   0  0.2215700E-06  0.2401503E+04  0.7818609E-02  0.8438941E-01
        1   -1    0    0  501    0  0.00000000000E+00  0.00000000000E+00  0.18417739018E+04  0.18417739018E+04  0.50400001928E-02 0.  1.
       -1   -1    0    0    0  501  0.00000000000E+00  0.00000000000E+00 -0.78283447472E+03  0.78283447474E+03  0.50400001928E-02 0. -1.
    10030    2    1    2    0    0  0.00000000000E+00  0.00000000000E+00  0.10589394270E+04  0.26246083765E+04  0.24015029502E+04 0.  0.
        3    1    3    3  502    0 -0.19031005964E+03 -0.11462817973E+04  0.19865369945E+03  0.11788312772E+04  0.10100000352E+00 0. -1.
       -3    1    3    3    0  502  0.19031005964E+03  0.11462817973E+04  0.86028572759E+03  0.14457770993E+04  0.10100000352E+00 0.  1.
</event>
<event>
 5   0  0.2215700E-06  0.2400815E+04  0.7818609E-02  0.8439199E-01
       -1   -1    0    0    0  501  0.00000000000E+00  0.00000000000E+00  0.69587405666E+03  0.69587405668E+03  0.50400001928E-02 0.  1.
        1   -1    0    0  501    0  0.00000000000E+00  0.00000000000E+00 -0.20707452857E+04  0.20707452857E+04  0.50400001928E-02 0. -1.
    10030    2    1    2    0    0  0.00000000000E+00  0.00000000000E+00 -0.13748712290E+04  0.27666193423E+04  0.24008147969E+04 0.  0.
        3    1    3    3  502    0  0.93584706304E+03 -0.21947286746E+03  0.14114726812E+03  0.97154548347E+03  0.10100000352E+00 0.  1.
       -3    1    3    3    0  502 -0.93584706304E+03  0.21947286746E+03 -0.15160184971E+04  0.17950738589E+04  0.10100000352E+00 0. -1.
</event>
<event>
 5   0  0.2149029E-06  0.2397921E+04  0.7818609E-02  0.8440282E-01
        1   -1    0    0  501    0  0.00000000000E+00  0.00000000000E+00  0.19504251398E+04  0.19504251398E+04  0.50400001928E-02 0. -1.
       -1   -1    0    0    0  501  0.00000000000E+00  0.00000000000E+00 -0.73702213157E+03  0.73702213159E+03  0.50400001928E-02 0.  1.
    10030    2    1    2    0    0  0.00000000000E+00  0.00000000000E+00  0.12134030083E+04  0.26874472714E+04  0.23979211781E+04 0.  0.
        4    1    3    3  502    0 -0.58625086732E+03 -0.56670663558E+03 -0.37844044234E+03  0.89892450826E+03  0.12699999809E+01 0.  1.
       -4    1    3    3    0  502  0.58625086732E+03  0.56670663558E+03  0.15918434506E+04  0.17885227632E+04  0.12699999809E+01 0. -1.
</event>
<event>
 5   0  0.5349036E-06  0.2413941E+04  0.7818609E-02  0.8434303E-01
       -2   -1    0    0    0  501  0.00000000000E+00  0.00000000000E+00  0.10809867678E+04  0.10809867678E+04  0.25500000920E-02 0.  1.
        2   -1    0    0  501    0  0.00000000000E+00  0.00000000000E+00 -0.13476373691E+04  0.13476373691E+04  0.25500000920E-02 0. -1.
    10030    2    1    2    0    0  0.00000000000E+00  0.00000000000E+00 -0.26665060136E+03  0.24286241369E+04  0.24139413115E+04 0.  0.
        1    1    3    3  502    0 -0.86756587649E+03 -0.81235188527E+03 -0.34482296079E+03  0.12375334379E+04  0.50400001928E-02 0. -1.
       -1    1    3    3    0  502  0.86756587649E+03  0.81235188527E+03  0.78172359437E+02  0.11910906991E+04  0.50400001928E-02 0.  1.
</event>
<event>
 5   0  0.2254269E-06  0.2382382E+04  0.7818609E-02  0.8446129E-01
        1   -1    0    0  501    0  0.00000000000E+00  0.00000000000E+00  0.20414818085E+04  0.20414818085E+04  0.50400001928E-02 0.  1.
       -1   -1    0    0    0  501  0.00000000000E+00  0.00000000000E+00 -0.69505173883E+03  0.69505173885E+03  0.50400001928E-02 0. -1.
    10030    2    1    2    0    0  0.00000000000E+00  0.00000000000E+00  0.13464300697E+04  0.27365335474E+04  0.23823815654E+04 0.  0.
        2    1    3    3  502    0 -0.64641152401E+03 -0.20685279659E+03  0.17976649012E+04  0.19215189395E+04  0.25500000920E-02 0.  1.
       -2    1    3    3    0  502  0.64641152401E+03  0.20685279659E+03 -0.45123483154E+03  0.81501460786E+03  0.25500000920E-02 0. -1.
</event>
<event>
 5   0  0.5268358E-06  0.2393992E+04  0.7818609E-02  0.8441756E-01
       -2   -1    0    0    0  501  0.00000000000E+00  0.00000000000E+00  0.72538643836E+03  0.72538643836E+03  0.25500000920E-02 0. -1.
        2   -1    0    0  501    0  0.00000000000E+00  0.00000000000E+00 -0.19752224036E+04  0.19752224036E+04  0.25500000920E-02 0.  1.
    10030    2    1    2    0    0  0.00000000000E+00  0.00000000000E+00 -0.12498359652E+04  0.27006088420E+04  0.23939921005E+04 0.  0.
        2    1    3    3  502    0  0.48978910711E+03  0.77148446588E+03  0.24722381551E+03  0.94667907207E+03  0.25500000920E-02 0. -1.
       -2    1    3    3    0  502 -0.48978910711E+03 -0.77148446588E+03 -0.14970597808E+04  0.17539297699E+04  0.25500000920E-02 0.  1.
</event>
<event>
 5   0  0.5440503E-06  0.2394604E+04  0.7818609E-02  0.8441527E-01
        2   -1    0    0  501    0  0.00000000000E+00  0.00000000000E+00  0.10903339868E+04  0.10903339868E+04  0.25500000920E-02 0.  1.
       -2   -1    0    0    0  501  0.00000000000E+00  0.00000000000E+00 -0.13147638776E+04  0.13147638776E+04  0.25500000920E-02 0. -1.
    10030    2    1    2    0    0  0.00000000000E+00  0.00000000000E+00 -0.22442989083E+03  0.24050978644E+04  0.23946037170E+04 0.  0.
        3    1    3    3  502    0  0.40702762382E+03  0.34437097146E+03 -0.11889526556E+04  0.13030238984E+04  0.10100000352E+00 0. -1.
       -3    1    3    3    0  502 -0.40702762382E+03 -0.34437097146E+03  0.96452276474E+03  0.11020739660E+04  0.10100000352E+00 0.  1.
</event>
<event>
 5   0  0.2149029E-06  0.2398641E+04  0.7818609E-02  0.8440013E-01
       -1   -1    0    0    0  501  0.00000000000E+00  0.00000000000E+00  0.82290287915E+03  0.82290287916E+03  0.50400001928E-02 0.  1.
        1   -1    0    0  501    0  0.00000000000E+00  0.00000000000E+00 -0.17479212572E+04  0.17479212572E+04  0.50400001928E-02 0. -1.
    10030    2    1    2    0    0  0.00000000000E+00  0.00000000000E+00 -0.92501837805E+03  0.25708241364E+04  0.23986408110E+04 0.  0.
        4    1    3    3  502    0 -0.96517510812E+03 -0.12803491605E+03  0.28805466734E+03  0.10153487250E+04  0.12699999809E+01 0.  1.
       -4    1    3    3    0  502  0.96517510812E+03  0.12803491605E+03 -0.12130730454E+04  0.15554754114E+04  0.12699999809E+01 0. -1.
</event>
<event>
 5   0  0.2297414E-06  0.2392637E+04  0.7818609E-02  0.8442265E-01
        1   -1    0    0  501    0  0.00000000000E+00  0.00000000000E+00  0.60099835781E+03  0.60099835783E+03  0.50400001928E-02 0.  1.
       -1   -1    0    0    0  501  0.00000000000E+00  0.00000000000E+00 -0.23813346570E+04  0.23813346570E+04  0.50400001928E-02 0. -1.
    10030    2    1    2    0    0  0.00000000000E+00  0.00000000000E+00 -0.17803362991E+04  0.29823330148E+04  0.23926372214E+04 0.  0.
        1    1    3    3  502    0 -0.10713331438E+03 -0.11040060798E+04 -0.14488160480E+04  0.18246574781E+04  0.50400001928E-02 0. -1.
       -1    1    3    3    0  502  0.10713331438E+03  0.11040060798E+04 -0.33152025111E+03  0.11576755367E+04  0.50400001928E-02 0.  1.
</event>
<event>
 5   0  0.5440503E-06  0.2409917E+04  0.7818609E-02  0.8435800E-01
        2   -1    0    0  501    0  0.00000000000E+00  0.00000000000E+00  0.13625502303E+04  0.13625502303E+04  0.25500000920E-02 0.  1.
       -2   -1    0    0    0  501  0.00000000000E+00  0.00000000000E+00 -0.10655938923E+04  0.10655938923E+04  0.25500000920E-02 0. -1.
    10030    2    1    2    0    0  0.00000000000E+00  0.00000000000E+00  0.29695633798E+03  0.24281441227E+04  0.24099171798E+04 0.  0.
        3    1    3    3  502    0  0.51249122401E+03 -0.10066963396E+04 -0.27402667972E+03  0.11624007081E+04  0.10100000352E+00 0.  1.
       -3    1    3    3    0  502 -0.51249122401E+03  0.10066963396E+04  0.57098301769E+03  0.12657434146E+04  0.10100000352E+00 0. -1.
</event>
<event>
 5   0  0.5379778E-06  0.2397006E+04  0.7818609E-02  0.8440625E-01
        2   -1    0    0  501    0  0.00000000000E+00  0.00000000000E+00  0.82351645570E+03  0.82351645570E+03  0.25500000920E-02 0.  1.
       -2   -1    0    0    0  501  0.00000000000E+00  0.00000000000E+00 -0.17442382662E+04  0.17442382662E+04  0.25500000920E-02 0. -1.
    10030    2    1    2    0    0  0.00000000000E+00  0.00000000000E+00 -0.92072181055E+03  0.25677547219E+04  0.23970055610E+04 0.  0.
        5    1    3    3  502    0  0.82357257844E+03  0.86736999599E+03 -0.37888845760E+03  0.12546637220E+04  0.46999998093E+01 0.  1.
       -5    1    3    3    0  502 -0.82357257844E+03 -0.86736999599E+03 -0.54183335295E+03  0.13130910000E+04  0.46999998093E+01 0. -1.
</event>
<event>
 5   0  0.2215700E-06  0.2400860E+04  0.7818609E-02  0.8439182E-01
       -1   -1    0    0    0  501  0.00000000000E+00  0.00000000000E+00  0.13780532988E+04  0.13780532988E+04  0.50400001928E-02 0.  1.
        1   -1    0    0  501    0  0.00000000000E+00  0.00000000000E+00 -0.10457016281E+04  0.10457016281E+04  0.50400001928E-02 0. -1.
    10030    2    1    2    0    0  0.00000000000E+00  0.00000000000E+00  0.33235167077E+03  0.24237549269E+04  0.24008603276E+04 0.  0.
        3    1    3    3  502    0 -0.15508281448E+03 -0.10411918034E+03 -0.10309402283E+04  0.10477257502E+04  0.10100000352E+00 0. -1.
       -3    1    3    3    0  502  0.15508281448E+03  0.10411918034E+03  0.13632918991E+04  0.13760291768E+04  0.10100000352E+00 0.  1.
</event>
<event>
 5   0  0.2149029E-06  0.2403326E+04  0.7818609E-02  0.8438260E-01
        1   -1    0    0  501    0  0.00000000000E+00  0.00000000000E+00  0.13094930878E+04  0.13094930878E+04  0.50400001928E-02 0.  1.
       -1   -1    0    0    0  501  0.00000000000E+00  0.00000000000E+00 -0.11027118905E+04  0.11027118905E+04  0.50400001928E-02 0. -1.
    10030    2    1    2    0    0  0.00000000000E+00  0.00000000000E+00  0.20678119737E+03  0.24122049783E+04  0.24033256945E+04 0.  0.
        4    1    3    3  502    0 -0.76179263861E+03  0.26306429395E+03  0.99800916910E+03  0.12827917842E+04  0.12699999809E+01 0.  1.
       -4    1    3    3    0  502  0.76179263861E+03 -0.26306429395E+03 -0.79122797173E+03  0.11294131942E+04  0.12699999809E+01 0. -1.
</event>
<event>
 5   0  0.2254269E-06  0.2402991E+04  0.7818609E-02  0.8438385E-01
        1   -1    0    0  501    0  0.00000000000E+00  0.00000000000E+00  0.17398725709E+04  0.17398725709E+04  0.50400001928E-02 0. -1.
       -1   -1    0    0    0  501  0.00000000000E+00  0.00000000000E+00 -0.82971095910E+03  0.82971095911E+03  0.50400001928E-02 0.  1.
    10030    2    1    2    0    0  0.00000000000E+00  0.00000000000E+00  0.91016161182E+03  0.25695835300E+04  0.24029909193E+04 0.  0.
        2    1    3    3  502    0 -0.11341618400E+04 -0.84328457993E+02  0.86944608783E+03  0.14315623870E+04  0.25500000920E-02 0. -1.
       -2    1    3    3    0  502  0.11341618400E+04  0.84328457993E+02  0.40715523985E+02  0.11380211431E+04  0.25500000920E-02 0.  1.
</event>
<event>
 5   0  0.5371843E-06  0.2381477E+04  0.7818609E-02  0.8446471E-01
       -2   -1    0    0    0  501  0.00000000000E+00  0.00000000000E+00  0.53476157995E+03  0.53476157996E+03  0.25500000920E-02 0.  1.
        2   -1    0    0  501    0  0.00000000000E+00  0.00000000000E+00 -0.26513837337E+04  0.26513837337E+04  0.25500000920E-02 0. -1.
    10030    2    1    2    0    0  0.00000000000E+00  0.00000000000E+00 -0.21166221537E+04  0.31861453137E+04  0.23814769825E+04 0.  0.
        4    1    3    3  502    0 -0.91228184287E+03 -0.69510082829E+03 -0.63011803880E+03  0.13086151757E+04  0.12699999809E+01 0.  1.
       -4    1    3    3    0  502  0.91228184287E+03  0.69510082829E+03 -0.14865041149E+04  0.18775301380E+04  0.12699999809E+01 0. -1.
</event>
<event>
 5   0  0.2149417E-06  0.2401234E+04  0.7818609E-02  0.8439042E-01
        1   -1    0    0  501    0  0.00000000000E+00  0.00000000000E+00  0.20494567142E+04  0.20494567142E+04  0.50400001928E-02 0.  1.
       -1   -1    0    0    0  501  0.00000000000E+00  0.00000000000E+00 -0.70334822656E+03  0.70334822658E+03  0.50400001928E-02 0. -1.
    10030    2    1    2    0    0  0.00000000000E+00  0.00000000000E+00  0.13461084876E+04  0.27528049408E+04  0.24012344703E+04 0.  0.
        5    1    3    3  502    0 -0.72526359434E+03  0.10316197679E+03  0.17635389051E+04  0.19096442691E+04  0.46999998093E+01 0.  1.
       -5    1    3    3    0  502  0.72526359434E+03 -0.10316197679E+03 -0.41743041750E+03  0.84316067163E+03  0.46999998093E+01 0. -1.
</event>
<event>
 5   0  0.5379778E-06  0.2399627E+04  0.7818609E-02  0.8439643E-01
       -2   -1    0    0    0  501  0.00000000000E+00  0.00000000000E+00  0.22149432710E+04  0.22149432710E+04  0.25500000920E-02 0. -1.
        2   -1    0    0  501    0  0.00000000000E+00  0.00000000000E+00 -0.64992749555E+03  0.64992749556E+03  0.25500000920E-02 0.  1.
    10030    2    1    2    0    0  0.00000000000E+00  0.00000000000E+00  0.15650157754E+04  0.28648707665E+04  0.23996270818E+04 0.  0.
        5    1    3    3  502    0 -0.93171113395E+02  0.86939125880E+03 -0.19837210933E+03  0.89660225352E+03  0.46999998093E+01 0.  1.
       -5    1    3    3    0  502  0.93171113395E+02 -0.86939125880E+03  0.17633878847E+04  0.19682685130E+04  0.46999998093E+01 0. -1.
</event>
<event>
 5   0  0.2254269E-06  0.2400226E+04  0.7818609E-02  0.8439419E-01
        1   -1    0    0  501    0  0.00000000000E+00  0.00000000000E+00  0.52344486288E+03  0.52344486290E+03  0.50400001928E-02 0. -1.
       -1   -1    0    0    0  501  0.00000000000E+00  0.00000000000E+00 -0.27515241406E+04  0.27515241406E+04  0.50400001928E-02 0.  1.
    10030    2    1    2    0    0  0.00000000000E+00  0.00000000000E+00 -0.22280792777E+04  0.32749690035E+04  0.24002259698E+04 0.  0.
        2    1    3    3  502    0  0.80438671791E+03  0.53876740100E+03 -0.14637910824E+03  0.97915021711E+03  0.25500000920E-02 0. -1.
       -2    1    3    3    0  502 -0.80438671791E+03 -0.53876740100E+03 -0.20817001695E+04  0.22958187864E+04  0.25500000920E-02 0.  1.
</event>
<event>
 5   0  0.5349036E-06  0.2389483E+04  0.7818609E-02  0.8443451E-01
        2   -1    0    0  501    0  0.00000000000E+00  0.00000000000E+00  0.11794656414E+04  0.11794656414E+04  0.25500000920E-02 0. -1.
       -2   -1    0    0    0  501  0.00000000000E+00  0.00000000000E+00 -0.12102152970E+04  0.12102152970E+04  0.25500000920E-02 0.  1.
    10030    2    1    2    0    0  0.00000000000E+00  0.00000000000E+00 -0.30749655573E+02  0.23896809385E+04  0.23894830919E+04 0.  0.
        1    1    3    3  502    0 -0.10855325761E+02  0.67414889669E+03  0.97101956134E+03  0.11821478594E+04  0.50400001928E-02 0. -1.
       -1    1    3    3    0  502  0.10855325761E+02 -0.67414889669E+03 -0.10017692169E+04  0.12075330790E+04  0.50400001928E-02 0.  1.
</event>
<event>
 5   0  0.2149417E-06  0.2403680E+04  0.7818609E-02  0.8438127E-01
       -1   -1    0    0    0  501  0.00000000000E+00  0.00000000000E+00  0.91328012690E+03  0.91328012692E+03  0.50400001928E-02 0.  1.
        1   -1    0    0  501    0  0.00000000000E+00  0.00000000000E+00 -0.15815728206E+04  0.15815728206E+04  0.50400001928E-02 0. -1.
    10030    2    1    2    0    0  0.00000000000E+00  0.00000000000E+00 -0.66829269372E+03  0.24948529475E+04  0.24036797011E+04 0.  0.
        5    1    3    3  502    0  0.71757811476E+03  0.53000184056E+03 -0.11700361087E+04  0.14713350697E+04  0.46999998093E+01 0. -1.
       -5    1    3    3    0  502 -0.71757811476E+03 -0.53000184056E+03  0.50174341496E+03  0.10235178778E+04  0.46999998093E+01 0.  1.
</event>
<event>
 5   0  0.2254269E-06  0.2401646E+04  0.7818609E-02  0.8438888E-01
       -1   -1    0    0    0  501  0.00000000000E+00  0.00000000000E+00  0.14320876237E+04  0.14320876238E+04  0.50400001928E-02 0.  1.
        1   -1    0    0  501    0  0.00000000000E+00  0.00000000000E+00 -0.10069049327E+04  0.10069049327E+04  0.50400001928E-02 0. -1.
    10030    2    1    2    0    0  0.00000000000E+00  0.00000000000E+00  0.42518269106E+03  0.24389925565E+04  0.24016461791E+04 0.  0.
        2    1    3    3  502    0 -0.52718765158E+03  0.10733216074E+04  0.10120441071E+03  0.12000785081E+04  0.25500000920E-02 0. -1.
       -2    1    3    3    0  502  0.52718765158E+03 -0.10733216074E+04  0.32397828035E+03  0.12389140483E+04  0.25500000920E-02 0.  1.
</event>
<event>
 5   0  0.5268358E-06  0.2400663E+04  0.7818609E-02  0.8439256E-01
       -2   -1    0    0    0  501  0.00000000000E+00  0.00000000000E+00  0.80763191396E+03  0.80763191396E+03  0.25500000920E-02 0. -1.
        2   -1    0    0  501    0  0.00000000000E+00  0.00000000000E+00 -0.17839752038E+04  0.17839752038E+04  0.25500000920E-02 0.  1.
    10030    2    1    2    0    0  0.00000000000E+00  0.00000000000E+00 -0.97634328984E+03  0.25916071178E+04  0.24006626654E+04 0.  0.
        2    1    3    3  502    0  0.17455014930E+03 -0.62316535025E+02 -0.17684348950E+04  0.17781206605E+04  0.25500000920E-02 0.  1.
       -2    1    3    3    0  502 -0.17455014930E+03  0.62316535025E+02  0.79209160521E+03  0.81348645730E+03  0.25500000920E-02 0. -1.
</event>
<event>
 5   0  0.5268358E-06  0.2398482E+04  0.7818609E-02  0.8440072E-01
        2   -1    0    0  501    0  0.00000000000E+00  0.00000000000E+00  0.97880725391E+03  0.97880725391E+03  0.25500000920E-02 0.  1.
       -2   -1    0    0    0  501  0.00000000000E+00  0.00000000000E+00 -0.14693179015E+04  0.14693179015E+04  0.25500000920E-02 0. -1.
    10030    2    1    2    0    0  0.00000000000E+00  0.00000000000E+00 -0.49051064759E+03  0.24481251554E+04  0.23984820369E+04 0.  0.
        2    1    3    3  502    0  0.17681103330E+03  0.76177356343E+02  0.96293086086E+03  0.98198827586E+03  0.25500000920E-02 0.  1.
       -2    1    3    3    0  502 -0.17681103330E+03 -0.76177356343E+02 -0.14534415084E+04  0.14661368796E+04  0.25500000920E-02 0. -1.
</event>
<event>
 5   0  0.5371843E-06  0.2393471E+04  0.7818609E-02  0.8441952E-01
        2   -1    0    0  501    0  0.00000000000E+00  0.00000000000E+00  0.11342208123E+04  0.11342208123E+04  0.25500000920E-02 0. -1.
       -2   -1    0    0    0  501  0.00000000000E+00  0.00000000000E+00 -0.12626954090E+04  0.12626954090E+04  0.25500000920E-02 0.  1.
    10030    2    1    2    0    0  0.00000000000E+00  0.00000000000E+00 -0.12847459671E+03  0.23969162213E+04  0.23934706286E+04 0.  0.
        4    1    3    3  502    0  0.68485301143E+03  0.43537124377E+03  0.81657537174E+03  0.11512465930E+04  0.12699999809E+01 0. -1.
       -4    1    3    3    0  502 -0.68485301143E+03 -0.43537124377E+03 -0.94504996845E+03  0.12456696283E+04  0.12699999809E+01 0.  1.
</event>
<event>
 5   0  0.5268358E-06  0.2401386E+04  0.7818609E-02  0.8438985E-01
        2   -1    0    0  501    0  0.00000000000E+00  0.00000000000E+00  0.16251433471E+04  0.16251433471E+04  0.25500000920E-02 0. -1.
       -2   -1    0    0    0  501  0.00000000000E+00  0.00000000000E+00 -0.88709961260E+03  0.88709961261E+03  0.25500000920E-02 0.  1.
    10030    2    1    2    0    0  0.00000000000E+00  0.00000000000E+00  0.73804373452E+03  0.25122429597E+04  0.24013862943E+04 0.  0.
        2    1    3    3  502    0  0.74316731568E+03 -0.92002547821E+03  0.15228793687E+03  0.11924496448E+04  0.25500000920E-02 0.  1.
       -2    1    3    3    0  502 -0.74316731568E+03  0.92002547821E+03  0.58575579766E+03  0.13197933149E+04  0.25500000920E-02 0. -1.
</event>
<event>
 5   0  0.5268358E-06  0.2396988E+04  0.7818609E-02  0.8440632E-01
       -2   -1    0    0    0  501  0.00000000000E+00  0.00000000000E+00  0.12969103198E+04  0.12969103198E+04  0.25500000920E-02 0.  1.
        2   -1    0    0  501    0  0.00000000000E+00  0.00000000000E+00 -0.11075457411E+04  0.11075457411E+04  0.25500000920E-02 0. -1.
    10030    2    1    2    0    0  0.00000000000E+00  0.00000000000E+00  0.18936457867E+03  0.24044560609E+04  0.23969876940E+04 0.  0.
        2    1    3    3  502    0 -0.91808824213E+03 -0.29732780967E+03  0.80759887209E+03  0.12583742627E+04  0.25500000920E-02 0.  1.
       -2    1    3    3    0  502  0.91808824213E+03  0.29732780967E+03 -0.61823429342E+03  0.11460817983E+04  0.25500000920E-02 0. -1.
</event>
<event>
 5   0  0.5440503E-06  0.2401232E+04  0.7818609E-02  0.8439043E-01
       -2   -1    0    0    0  501  0.00000000000E+00  0.00000000000E+00  0.12968112455E+04  0.12968112455E+04  0.25500000920E-02 0. -1.
        2   -1    0    0  501    0  0.00000000000E+00  0.00000000000E+00 -0.11115561066E+04  0.11115561066E+04  0.25500000920E-02 0.  1.
    10030    2    1    2    0    0  0.00000000000E+00  0.00000000000E+00  0.18525513889E+03  0.24083673521E+04  0.24012317331E+04 0.  0.
        3    1    3    3  502    0  0.40213840243E+03  0.94857359063E+03 -0.52562232802E+03  0.11566269898E+04  0.10100000352E+00 0.  1.
       -3    1    3    3    0  502 -0.40213840243E+03 -0.94857359063E+03  0.71087746691E+03  0.12517403623E+04  0.10100000352E+00 0. -1.
</event>
<event>
 5   0  0.2149029E-06  0.2402244E+04  0.7818609E-02  0.8438664E-01
        1   -1    0    0  501    0  0.00000000000E+00  0.00000000000E+00  0.11649239185E+04  0.11649239185E+04  0.50400001928E-02 0.  1.
       -1   -1    0    0    0  501  0.00000000000E+00  0.00000000000E+00 -0.12384445630E+04  0.12384445630E+04  0.50400001928E-02 0. -1.
    10030    2    1    2    0    0  0.00000000000E+00  0.00000000000E+00 -0.73520644555E+02  0.24033684815E+04  0.24022436955E+04 0.  0.
        4    1    3    3  502    0  0.86492632915E+03  0.83090236942E+03  0.28044831315E+02  0.11997018079E+04  0.12699999809E+01 0. -1.
       -4    1    3    3    0  502 -0.86492632915E+03 -0.83090236942E+03 -0.10156547587E+03  0.12036666736E+04  0.12699999809E+01 0.  1.
</event>
<event>
 5   0  0.2297414E-06  0.2417739E+04  0.7818609E-02  0.8432892E-01
       -1   -1    0    0    0  501  0.00000000000E+00  0.00000000000E+00  0.12084252318E+04  0.12084252318E+04  0.50400001928E-02 0. -1.
        1   -1    0    0  501    0  0.00000000000E+00  0.00000000000E+00 -0.12093136600E+04  0.12093136600E+04  0.50400001928E-02 0.  1.
    10030    2    1    2    0    0  0.00000000000E+00  0.00000000000E+00 -0.88842816142E+00  0.24177388918E+04  0.24177387286E+04 0.  0.
        1    1    3    3  502    0 -0.25124225681E+03 -0.31824267810E+03 -0.11392875928E+04  0.12092879280E+04  0.50400001928E-02 0.  1.
       -1    1    3    3    0  502  0.25124225681E+03  0.31824267810E+03  0.11383991646E+04  0.12084509638E+04  0.50400001928E-02 0. -1.
</event>
<event>
 5   0  0.2215700E-06  0.2398872E+04  0.7818609E-02  0.8439926E-01
       -1   -1    0    0    0  501  0.00000000000E+00  0.00000000000E+00  0.88008289518E+03  0.88008289520E+03  0.50400001928E-02 0. -1.
        1   -1    0    0  501    0  0.00000000000E+00  0.00000000000E+00 -0.16346715856E+04  0.16346715856E+04  0.50400001928E-02 0.  1.
    10030    2    1    2    0    0  0.00000000000E+00  0.00000000000E+00 -0.75458869041E+03  0.25147544808E+04  0.23988718196E+04 0.  0.
        3    1    3    3  502    0 -0.40283856170E+03  0.39039599068E+01  0.80703867542E+03  0.90200087668E+03  0.10100000352E+00 0. -1.
       -3    1    3    3    0  502  0.40283856170E+03 -0.39039599068E+01 -0.15616273658E+04  0.16127536041E+04  0.10100000352E+00 0.  1.
</event>
<event>
 5   0  0.2254269E-06  0.2394977E+04  0.7818609E-02  0.8441387E-01
       -1   -1    0    0    0  501  0.00000000000E+00  0.00000000000E+00  0.14844046211E+04  0.14844046211E+04  0.50400001928E-02 0. -1.
        1   -1    0    0  501    0  0.00000000000E+00  0.00000000000E+00 -0.96602949555E+03  0.96602949556E+03  0.50400001928E-02 0.  1.
    10030    2    1    2    0    0  0.00000000000E+00  0.00000000000E+00  0.51837512552E+03  0.24504341166E+04  0.23949769496E+04 0.  0.
        2    1    3    3  502    0 -0.31961185898E+03 -0.67297193690E+03 -0.70003688621E+03  0.10222986894E+04  0.25500000920E-02 0.  1.
       -2    1    3    3    0  502  0.31961185898E+03  0.67297193690E+03  0.12184120117E+04  0.14281354273E+04  0.25500000920E-02 0. -1.
</event>
<event>
 5   0  0.2215700E-06  0.2404859E+04  0.7818609E-02  0.8437687E-01
        1   -1    0    0  501    0  0.00000000000E+00  0.00000000000E+00  0.15256413108E+04  0.15256413108E+04  0.50400001928E-02 0. -1.
       -1   -1    0    0    0  501  0.00000000000E+00  0.00000000000E+00 -0.94769080371E+03  0.94769080372E+03  0.50400001928E-02 0.  1.
    10030    2    1    2    0    0  0.00000000000E+00  0.00000000000E+00  0.57795050706E+03  0.24733321145E+04  0.24048586154E+04 0.  0.
        3    1    3    3  502    0  0.66175739017E+03 -0.85684688485E+03 -0.24911056942E+03  0.11109300219E+04  0.10100000352E+00 0.  1.
       -3    1    3    3    0  502 -0.66175739017E+03  0.85684688485E+03  0.82706107648E+03  0.13624020926E+04  0.10100000352E+00 0. -1.
</event>
<event>
 5   0  0.5371843E-06  0.2396947E+04  0.7818609E-02  0.8440648E-01
       -2   -1    0    0    0  501  0.00000000000E+00  0.00000000000E+00  0.68098687804E+03  0.68098687805E+03  0.25500000920E-02 0.  1.
        2   -1    0    0  501    0  0.00000000000E+00  0.00000000000E+00 -0.21092012883E+04  0.21092012883E+04  0.25500000920E-02 0. -1.
    10030    2    1    2    0    0  0.00000000000E+00  0.00000000000E+00 -0.14282144103E+04  0.27901881664E+04  0.23969467249E+04 0.  0.
        4    1    3    3  502    0  0.66515003228E+03  0.57321770042E+03 -0.16636069855E+04  0.18811148058E+04  0.12699999809E+01 0. -1.
       -4    1    3    3    0  502 -0.66515003228E+03 -0.57321770042E+03  0.23539257523E+03  0.90907336057E+03  0.12699999809E+01 0.  1.
</event>
<event>
 5   0  0.5371843E-06  0.2410471E+04  0.7818609E-02  0.8435594E-01
       -2   -1    0    0    0  501  0.00000000000E+00  0.00000000000E+00  0.12811595008E+04  0.12811595008E+04  0.25500000920E-02 0. -1.
        2   -1    0    0  501    0  0.00000000000E+00  0.00000000000E+00 -0.11338107801E+04  0.11338107801E+04  0.25500000920E-02 0.  1.
    10030    2    1    2    0    0  0.00000000000E+00  0.00000000000E+00  0.14734872069E+03  0.24149702810E+04  0.24104708695E+04 0.  0.
        4    1    3    3  502    0  0.42226787417E+03  0.10718291378E+04 -0.28119434839E+03  0.11858329278E+04  0.12699999809E+01 0.  1.
       -4    1    3    3    0  502 -0.42226787417E+03 -0.10718291378E+04  0.42854306908E+03  0.12291373532E+04  0.12699999809E+01 0. -1.
</event>
<event>
 5   0  0.5268358E-06  0.2406536E+04  0.7818609E-02  0.8437061E-01
       -2   -1    0    0    0  501  0.00000000000E+00  0.00000000000E+00  0.52254180941E+03  0.52254180942E+03  0.25500000920E-02 0. -1.
        2   -1    0    0  501    0  0.00000000000E+00  0.00000000000E+00 -0.27707905485E+04  0.27707905485E+04  0.25500000920E-02 0.  1.
    10030    2    1    2    0    0  0.00000000000E+00  0.00000000000E+00 -0.22482487391E+04  0.32933323579E+04  0.24065360224E+04 0.  0.
        2    1    3    3  502    0  0.28909900086E+03 -0.74079115211E+02  0.47108994934E+03  0.55766628729E+03  0.25500000920E-02 0. -1.
       -2    1    3    3    0  502 -0.28909900086E+03  0.74079115211E+02 -0.27193386884E+04  0.27356660706E+04  0.25500000920E-02 0.  1.
</event>
<event>
 5   0  0.1796750E-06  0.2412699E+04  0.7818609E-02  0.8434765E-01
       -3   -1    0    0    0  501  0.00000000000E+00  0.00000000000E+00  0.60997386561E+03  0.60997387397E+03  0.10100000352E+00 0.  1.
        3   -1    0    0  501    0  0.00000000000E+00  0.00000000000E+00 -0.23858048621E+04  0.23858048642E+04  0.10100000352E+00 0. -1.
    10030    2    1    2    0    0  0.00000000000E+00  0.00000000000E+00 -0.17758309965E+04  0.29957787382E+04  0.24126985970E+04 0.  0.
        3    1    3    3  502    0 -0.54592573463E+03 -0.10441668744E+04 -0.12092164075E+04  0.16883494010E+04  0.10100000352E+00 0. -1.
       -3    1    3    3    0  502  0.54592573463E+03  0.10441668744E+04 -0.56661458896E+03  0.13074293372E+04  0.10100000352E+00 0.  1.
</event>
<event>
 5   0  0.2149029E-06  0.2392402E+04  0.7818609E-02  0.8442353E-01
       -1   -1    0    0    0  501  0.00000000000E+00  0.00000000000E+00  0.15232806310E+04  0.15232806310E+04  0.50400001928E-02 0. -1.
        1   -1    0    0  501    0  0.00000000000E+00  0.00000000000E+00 -0.93935241406E+03  0.93935241407E+03  0.50400001928E-02 0.  1.
    10030    2    1    2    0    0  0.00000000000E+00  0.00000000000E+00  0.58392821694E+03  0.24626330451E+04  0.23924024227E+04 0.  0.
        4    1    3    3  502    0  0.14372565862E+03 -0.59017037407E+03  0.13527188122E+04  0.14828377973E+04  0.12699999809E+01 0. -1.
       -4    1    3    3    0  502 -0.14372565862E+03  0.59017037407E+03 -0.76879059522E+03  0.97979524779E+03  0.12699999809E+01 0.  1.
</event>
<event>
 5   0  0.2215700E-06  0.2398237E+04  0.7818609E-02  0.8440164E-01
       -1   -1    0    0    0  501  0.00000000000E+00  0.00000000000E+00  0.73871253154E+03  0.73871253156E+03  0.50400001928E-02 0. -1.
        1   -1    0    0  501    0  0.00000000000E+00  0.00000000000E+00 -0.19464741029E+04  0.19464741029E+04  0.50400001928E-02 0.  1.
    10030    2    1    2    0    0  0.00000000000E+00  0.00000000000E+00 -0.12077615713E+04  0.26851866344E+04  0.23982366957E+04 0.  0.
        3    1    3    3  502    0 -0.53550712494E+02 -0.91292248093E+03  0.26454481352E+03  0.95198692405E+03  0.10100000352E+00 0. -1.
       -3    1    3    3    0  502  0.53550712494E+02  0.91292248093E+03 -0.14723063848E+04  0.17331997104E+04  0.10100000352E+00 0.  1.
</event>
<event>
 5   0  0.2149029E-06  0.2398573E+04  0.7818609E-02  0.8440038E-01
       -1   -1    0    0    0  501  0.00000000000E+00  0.00000000000E+00  0.10691291636E+04  0.10691291636E+04  0.50400001928E-02 0.  1.
        1   -1    0    0  501    0  0.00000000000E+00  0.00000000000E+00 -0.13452888231E+04  0.13452888231E+04  0.50400001928E-02 0. -1.
    10030    2    1    2    0    0  0.00000000000E+00  0.00000000000E+00 -0.27615965951E+03  0.24144179868E+04  0.23985725041E+04 0.  0.
        4    1    3    3  502    0 -0.61731833911E+02  0.64913872267E+03  0.87509520222E+03  0.10913226500E+04  0.12699999809E+01 0.  1.
       -4    1    3    3    0  502  0.61731833911E+02 -0.64913872267E+03 -0.11512548617E+04  0.13230953368E+04  0.12699999809E+01 0. -1.
</event>
<event>
 5   0  0.2149029E-06  0.2400155E+04  0.7818609E-02  0.8439446E-01
        1   -1    0    0  501    0  0.00000000000E+00  0.00000000000E+00  0.18857539840E+04  0.18857539840E+04  0.50400001928E-02 0. -1.
       -1   -1    0    0    0  501  0.00000000000E+00  0.00000000000E+00 -0.76371878795E+03  0.76371878797E+03  0.50400001928E-02 0.  1.
    10030    2    1    2    0    0  0.00000000000E+00  0.00000000000E+00  0.11220351960E+04  0.26494727719E+04  0.24001547842E+04 0.  0.
        4    1    3    3  502    0 -0.93541043042E+03 -0.67699295539E+03  0.92188875950E+03  0.14775630724E+04  0.12699999809E+01 0. -1.
       -4    1    3    3    0  502  0.93541043042E+03  0.67699295539E+03  0.20014643650E+03  0.11719096996E+04  0.12699999809E+01 0.  1.
</event>
<event>
 5   0  0.5440503E-06  0.2416581E+04  0.7818609E-02  0.8433322E-01
        2   -1    0    0  501    0  0.00000000000E+00  0.00000000000E+00  0.19234589927E+04  0.19234589927E+04  0.25500000920E-02 0. -1.
       -2   -1    0    0    0  501  0.00000000000E+00  0.00000000000E+00 -0.75903151958E+03  0.75903151958E+03  0.25500000920E-02 0.  1.
    10030    2    1    2    0    0  0.00000000000E+00  0.00000000000E+00  0.11644274731E+04  0.26824905123E+04  0.24165810577E+04 0.  0.
        3    1    3    3  502    0  0.12033652665E+04 -0.10266914312E+03  0.62280332205E+03  0.13588645649E+04  0.10100000352E+00 0.  1.
       -3    1    3    3    0  502 -0.12033652665E+04  0.10266914312E+03  0.54162415106E+03  0.13236259474E+04  0.10100000352E+00 0. -1.
</event>
<event>
 5   0  0.5268358E-06  0.2399882E+04  0.7818609E-02  0.8439548E-01
        2   -1    0    0  501    0  0.00000000000E+00  0.00000000000E+00  0.97485846959E+03  0.97485846960E+03  0.25500000920E-02 0. -1.
       -2   -1    0    0    0  501  0.00000000000E+00  0.00000000000E+00 -0.14769921016E+04  0.14769921016E+04  0.25500000920E-02 0.  1.
    10030    2    1    2    0    0  0.00000000000E+00  0.00000000000E+00 -0.50213363204E+03  0.24518505712E+04  0.23998818803E+04 0.  0.
        2    1    3    3  502    0  0.30458063262E+03 -0.85301405616E+03  0.55303183758E+03  0.10612476408E+04  0.25500000920E-02 0. -1.
       -2    1    3    3    0  502 -0.30458063262E+03  0.85301405616E+03 -0.10551654696E+04  0.13906029304E+04  0.25500000920E-02 0.  1.
</event>
<event>
 5   0  0.5440503E-06  0.2401133E+04  0.7818609E-02  0.8439080E-01
       -2   -1    0    0    0  501  0.00000000000E+00  0.00000000000E+00  0.86504033006E+03  0.86504033006E+03  0.25500000920E-02 0.  1.
        2   -1    0    0  501    0  0.00000000000E+00  0.00000000000E+00 -0.16662343672E+04  0.16662343672E+04  0.25500000920E-02 0. -1.
    10030    2    1    2    0    0  0.00000000000E+00  0.00000000000E+00 -0.80119403717E+03  0.25312746973E+04  0.24011330051E+04 0.  0.
        3    1    3    3  502    0  0.89598386609E+02 -0.11867043735E+04 -0.23369754266E+03  0.12128106582E+04  0.10100000352E+00 0.  1.
       -3    1    3    3    0  502 -0.89598386609E+02  0.11867043735E+04 -0.56749649451E+03  0.13184640391E+04  0.10100000352E+00 0. -1.
</event>
<event>
 5   0  0.5379778E-06  0.2411627E+04  0.7818609E-02  0.8435163E-01
       -2   -1    0    0    0  501  0.00000000000E+00  0.00000000000E+00  0.23838381256E+04  0.23838381256E+04  0.25500000920E-02 0.  1.
        2   -1    0    0  501    0  0.00000000000E+00  0.00000000000E+00 -0.60993482777E+03  0.60993482777E+03  0.25500000920E-02 0. -1.
    10030    2    1    2    0    0  0.00000000000E+00  0.00000000000E+00  0.17739032979E+04  0.29937729534E+04  0.24116267510E+04 0.  0.
        5    1    3    3  502    0 -0.45104087801E+03  0.10731586981E+04  0.12772628682E+04  0.17281579759E+04  0.46999998093E+01 0.  1.
       -5    1    3    3    0  502  0.45104087801E+03 -0.10731586981E+04  0.49664042965E+03  0.12656149775E+04  0.46999998093E+01 0. -1.
</event>
<event>
 5   0  0.2149417E-06  0.2400778E+04  0.7818609E-02  0.8439212E-01
        1   -1    0    0  501    0  0.00000000000E+00  0.00000000000E+00  0.15720734306E+04  0.15720734306E+04  0.50400001928E-02 0. -1.
       -1   -1    0    0    0  501  0.00000000000E+00  0.00000000000E+00 -0.91658205269E+03  0.91658205271E+03  0.50400001928E-02 0.  1.
    10030    2    1    2    0    0  0.00000000000E+00  0.00000000000E+00  0.65549137793E+03  0.24886554833E+04  0.24007784505E+04 0.  0.
        5    1    3    3  502    0  0.36483846998E+03 -0.11435333767E+04  0.33985707216E+03  0.12475177804E+04  0.46999998093E+01 0.  1.
       -5    1    3    3    0  502 -0.36483846998E+03  0.11435333767E+04  0.31563430577E+03  0.12411377030E+04  0.46999998093E+01 0. -1.
</event>
<event>
 5   0  0.2254269E-06  0.2403676E+04  0.7818609E-02  0.8438129E-01
       -1   -1    0    0    0  501  0.00000000000E+00  0.00000000000E+00  0.99612093603E+03  0.99612093604E+03  0.50400001928E-02 0. -1.
        1   -1    0    0  501    0  0.00000000000E+00  0.00000000000E+00 -0.14500394953E+04  0.14500394953E+04  0.50400001928E-02 0.  1.
    10030    2    1    2    0    0  0.00000000000E+00  0.00000000000E+00 -0.45391855923E+03  0.24461604313E+04  0.24036761007E+04 0.  0.
        2    1    3    3  502    0 -0.50074215616E+03  0.68055921665E+03  0.64284675111E+03  0.10616757979E+04  0.25500000920E-02 0. -1.
       -2    1    3    3    0  502  0.50074215616E+03 -0.68055921665E+03 -0.10967653103E+04  0.13844846335E+04  0.25500000920E-02 0.  1.
</event>
<event>
 5   0  0.2149417E-06  0.2411651E+04  0.7818609E-02  0.8435154E-01
       -1   -1    0    0    0  501  0.00000000000E+00  0.00000000000E+00  0.16160633724E+04  0.16160633724E+04  0.50400001928E-02 0.  1.
        1   -1    0    0  501    0  0.00000000000E+00  0.00000000000E+00 -0.89972683994E+03  0.89972683996E+03  0.50400001928E-02 0. -1.
    10030    2    1    2    0    0  0.00000000000E+00  0.00000000000E+00  0.71633653243E+03  0.25157902123E+04  0.24116513771E+04 0.  0.
        5    1    3    3  502    0 -0.32916469660E+03 -0.16883633570E+03  0.15553927802E+04  0.15987882588E+04  0.46999998093E+01 0.  1.
       -5    1    3    3    0  502  0.32916469660E+03  0.16883633570E+03 -0.83905624781E+03  0.91700195351E+03  0.46999998093E+01 0. -1.
</event>
<event>
 5   0  0.5268358E-06  0.2398962E+04  0.7818609E-02  0.8439892E-01
       -2   -1    0    0    0  501  0.00000000000E+00  0.00000000000E+00  0.14534834986E+04  0.14534834986E+04  0.25500000920E-02 0.  1.
        2   -1    0    0  501    0  0.00000000000E+00  0.00000000000E+00 -0.98986686799E+03  0.98986686799E+03  0.25500000920E-02 0. -1.
    10030    2    1    2    0    0  0.00000000000E+00  0.00000000000E+00  0.46361663058E+03  0.24433503666E+04  0.23989624077E+04 0.  0.
        2    1    3    3  502    0 -0.34115147004E+03  0.65793208521E+03  0.11923901168E+04  0.14039420019E+04  0.25500000920E-02 0.  1.
       -2    1    3    3    0  502  0.34115147004E+03 -0.65793208521E+03 -0.72877348619E+03  0.10394083646E+04  0.25500000920E-02 0. -1.
</event>
<event>
 5   0  0.5349036E-06  0.2403165E+04  0.7818609E-02  0.8438320E-01
        2   -1    0    0  501    0  0.00000000000E+00  0.00000000000E+00  0.18446615653E+04  0.18446615653E+04  0.25500000920E-02 0.  1.
       -2   -1    0    0    0  501  0.00000000000E+00  0.00000000000E+00 -0.78269099164E+03  0.78269099164E+03  0.25500000920E-02 0. -1.
    10030    2    1    2    0    0  0.00000000000E+00  0.00000000000E+00  0.10619705736E+04  0.26273525569E+04  0.24031645718E+04 0.  0.
        1    1    3    3  502    0 -0.39217777428E+01  0.15699270863E+03 -0.77142296662E+03  0.78724550450E+03  0.50400001928E-02 0. -1.
       -1    1    3    3    0  502  0.39217777428E+01 -0.15699270863E+03  0.18333935403E+04  0.18401070524E+04  0.50400001928E-02 0.  1.
</event>
<event>
 5   0  0.5349036E-06  0.2403748E+04  0.7818609E-02  0.8438102E-01
        2   -1    0    0  501    0  0.00000000000E+00  0.00000000000E+00  0.14421481321E+04  0.14421481321E+04  0.25500000920E-02 0. -1.
       -2   -1    0    0    0  501  0.00000000000E+00  0.00000000000E+00 -0.10016313085E+04  0.10016313085E+04  0.25500000920E-02 0.  1.
    10030    2    1    2    0    0  0.00000000000E+00  0.00000000000E+00  0.44051682364E+03  0.24437794406E+04  0.24037476744E+04 0.  0.
        1    1    3    3  502    0 -0.31592633776E+03 -0.10919776189E+04  0.61698295872E+03  0.12934034724E+04  0.50400001928E-02 0. -1.
       -1    1    3    3    0  502  0.31592633776E+03  0.10919776189E+04 -0.17646613508E+03  0.11503759681E+04  0.50400001928E-02 0.  1.
</event>
<event>
 5   0  0.5440503E-06  0.2398644E+04  0.7818609E-02  0.8440012E-01
        2   -1    0    0  501    0  0.00000000000E+00  0.00000000000E+00  0.14098454782E+04  0.14098454782E+04  0.25500000920E-02 0. -1.
       -2   -1    0    0    0  501  0.00000000000E+00  0.00000000000E+00 -0.10202344291E+04  0.10202344291E+04  0.25500000920E-02 0.  1.
    10030    2    1    2    0    0  0.00000000000E+00  0.00000000000E+00  0.38961104910E+03  0.24300799073E+04  0.23986436972E+04 0.  0.
        3    1    3    3  502    0 -0.44589515013E+03  0.70980232460E+03 -0.67418363594E+03  0.10757162312E+04  0.10100000352E+00 0.  1.
       -3    1    3    3    0  502  0.44589515013E+03 -0.70980232460E+03  0.10637946850E+04  0.13543636761E+04  0.10100000352E+00 0. -1.
</event>
<event>
 5   0  0.2149029E-06  0.2379597E+04  0.7818609E-02  0.8447182E-01
        1   -1    0    0  501    0  0.00000000000E+00  0.00000000000E+00  0.17757763603E+04  0.17757763603E+04  0.50400001928E-02 0.  1.
       -1   -1    0    0    0  501  0.00000000000E+00  0.00000000000E+00 -0.79718364977E+03  0.79718364978E+03  0.50400001928E-02 0. -1.
    10030    2    1    2    0    0  0.00000000000E+00  0.00000000000E+00  0.97859271049E+03  0.25729600100E+04  0.23795965037E+04 0.  0.
        4    1    3    3  502    0 -0.11431531418E+04 -0.15154194652E+03  0.80611482148E+03  0.14069778909E+04  0.12699999809E+01 0.  1.
       -4    1    3    3    0  502  0.11431531418E+04  0.15154194652E+03  0.17247788901E+03  0.11659821192E+04  0.12699999809E+01 0. -1.
</event>
<event>
 5   0  0.5440503E-06  0.2399301E+04  0.7818609E-02  0.8439765E-01
        2   -1    0    0  501    0  0.00000000000E+00  0.00000000000E+00  0.17852361552E+04  0.17852361552E+04  0.25500000920E-02 0.  1.
       -2   -1    0    0    0  501  0.00000000000E+00  0.00000000000E+00 -0.80614609319E+03  0.80614609319E+03  0.25500000920E-02 0. -1.
    10030    2    1    2    0    0  0.00000000000E+00  0.00000000000E+00  0.97909006199E+03  0.25913822484E+04  0.23993008581E+04 0.  0.
        3    1    3    3  502    0  0.30366175552E+03 -0.11499935485E+04  0.65848172141E+03  0.13595196986E+04  0.10100000352E+00 0. -1.
       -3    1    3    3    0  502 -0.30366175552E+03  0.11499935485E+04  0.32060834058E+03  0.12318625498E+04  0.10100000352E+00 0.  1.
</event>
<event>
 5   0  0.2254269E-06  0.2377256E+04  0.7818609E-02  0.8448068E-01
       -1   -1    0    0    0  501  0.00000000000E+00  0.00000000000E+00  0.97030609800E+03  0.97030609801E+03  0.50400001928E-02 0.  1.
        1   -1    0    0  501    0  0.00000000000E+00  0.00000000000E+00 -0.14560735218E+04  0.14560735219E+04  0.50400001928E-02 0. -1.
    10030    2    1    2    0    0  0.00000000000E+00  0.00000000000E+00 -0.48576742385E+03  0.24263796199E+04  0.23772564165E+04 0.  0.
        2    1    3    3  502    0  0.92495748848E+03  0.70523603495E+03 -0.49275421665E+03  0.12632145259E+04  0.25500000920E-02 0. -1.
       -2    1    3    3    0  502 -0.92495748848E+03 -0.70523603495E+03  0.69867928047E+01  0.11631650939E+04  0.25500000920E-02 0.  1.
</event>
<event>
 5   0  0.2254269E-06  0.2400147E+04  0.7818609E-02  0.8439448E-01
       -1   -1    0    0    0  501  0.00000000000E+00  0.00000000000E+00  0.88948546321E+03  0.88948546322E+03  0.50400001928E-02 0. -1.
        1   -1    0    0  501    0  0.00000000000E+00  0.00000000000E+00 -0.16191119195E+04  0.16191119195E+04  0.50400001928E-02 0.  1.
    10030    2    1    2    0    0  0.00000000000E+00  0.00000000000E+00 -0.72962645633E+03  0.25085973828E+04  0.24001470920E+04 0.  0.
        2    1    3    3  502    0  0.30660121272E+03  0.42142337685E+03 -0.14946646033E+04  0.15829163726E+04  0.25500000920E-02 0.  1.
       -2    1    3    3    0  502 -0.30660121272E+03 -0.42142337685E+03  0.76503814701E+03  0.92568101016E+03  0.25500000920E-02 0. -1.
</event>
<event>
 5   0  0.5440503E-06  0.2408089E+04  0.7818609E-02  0.8436481E-01
       -2   -1    0    0    0  501  0.00000000000E+00  0.00000000000E+00  0.66303560264E+03  0.66303560265E+03  0.25500000920E-02 0. -1.
        2   -1    0    0  501    0  0.00000000000E+00  0.00000000000E+00 -0.21864940968E+04  0.21864940968E+04  0.25500000920E-02 0.  1.
    10030    2    1    2    0    0  0.00000000000E+00  0.00000000000E+00 -0.15234584942E+04  0.28495296995E+04  0.24080892269E+04 0.  0.
        3    1    3    3  502    0 -0.58119662283E+03  0.68620025736E+03  0.18570920606E+03  0.91823103139E+03  0.10100000352E+00 0. -1.
       -3    1    3    3    0  502  0.58119662283E+03 -0.68620025736E+03 -0.17091677002E+04  0.19312986681E+04  0.10100000352E+00 0.  1.
</event>
<event>
 5   0  0.2254269E-06  0.2399741E+04  0.7818609E-02  0.8439601E-01
        1   -1    0    0  501    0  0.00000000000E+00  0.00000000000E+00  0.12910774713E+04  0.12910774713E+04  0.50400001928E-02 0. -1.
       -1   -1    0    0    0  501  0.00000000000E+00  0.00000000000E+00 -0.11151064846E+04  0.11151064846E+04  0.50400001928E-02 0.  1.
    10030    2    1    2    0    0  0.00000000000E+00  0.00000000000E+00  0.17597098677E+03  0.24061839559E+04  0.23997407030E+04 0.  0.
        2    1    3    3  502    0  0.50629033717E+03  0.58151990495E+03  0.10097980023E+04  0.12705067142E+04  0.25500000920E-02 0. -1.
       -2    1    3    3    0  502 -0.50629033717E+03 -0.58151990495E+03 -0.83382701556E+03  0.11356772417E+04  0.25500000920E-02 0.  1.
</event>
<event>
 5   0  0.2254269E-06  0.2395790E+04  0.7818609E-02  0.8441081E-01
        1   -1    0    0  501    0  0.00000000000E+00  0.00000000000E+00  0.11473329085E+04  0.11473329085E+04  0.50400001928E-02 0. -1.
       -1   -1    0    0    0  501  0.00000000000E+00  0.00000000000E+00 -0.12506853754E+04  0.12506853754E+04  0.50400001928E-02 0.  1.
    10030    2    1    2    0    0  0.00000000000E+00  0.00000000000E+00 -0.10335246682E+03  0.23980182839E+04  0.23957900487E+04 0.  0.
        2    1    3    3  502    0  0.78529578568E+03  0.10842357271E+03 -0.95056902449E+03  0.12377506261E+04  0.25500000920E-02 0.  1.
       -2    1    3    3    0  502 -0.78529578568E+03 -0.10842357271E+03  0.84721655768E+03  0.11602676578E+04  0.25500000920E-02 0. -1.
</event>
<event>
 5   0  0.1796750E-06  0.2401409E+04  0.7818609E-02  0.8438976E-01
        3   -1    0    0  501    0  0.00000000000E+00  0.00000000000E+00  0.77568223976E+03  0.77568224634E+03  0.10100000352E+00 0.  1.
       -3   -1    0    0    0  501  0.00000000000E+00  0.00000000000E+00 -0.18586106211E+04  0.18586106239E+04  0.10100000352E+00 0. -1.
    10030    2    1    2    0    0  0.00000000000E+00  0.00000000000E+00 -0.10829283814E+04  0.26342928702E+04  0.24014089712E+04 0.  0.
        2    1    3    3  502    0 -0.20300660195E+03 -0.99962612512E+03 -0.12363174620E+04  0.16027928554E+04  0.25500000920E-02 0. -1.
       -2    1    3    3    0  502  0.20300660195E+03  0.99962612512E+03  0.15338908065E+03  0.10315000148E+04  0.25500000920E-02 0.  1.
</event>
<event>
 5   0  0.5268358E-06  0.2395744E+04  0.7818609E-02  0.8441099E-01
        2   -1    0    0  501    0  0.00000000000E+00  0.00000000000E+00  0.20148643631E+04  0.20148643631E+04  0.25500000920E-02 0.  1.
       -2   -1    0    0    0  501  0.00000000000E+00  0.00000000000E+00 -0.71215554914E+03  0.71215554914E+03  0.25500000920E-02 0. -1.
    10030    2    1    2    0    0  0.00000000000E+00  0.00000000000E+00  0.13027088140E+04  0.27270199123E+04  0.23957435898E+04 0.  0.
        2    1    3    3  502    0 -0.93470178001E+03 -0.27749385594E+03 -0.14073150034E+03  0.98512720642E+03  0.25500000920E-02 0. -1.
       -2    1    3    3    0  502  0.93470178001E+03  0.27749385594E+03  0.14434403143E+04  0.17418927058E+04  0.25500000920E-02 0.  1.
</event>
<event>
 5   0  0.5268358E-06  0.2400929E+04  0.7818609E-02  0.8439156E-01
       -2   -1    0    0    0  501  0.00000000000E+00  0.00000000000E+00  0.12224952553E+04  0.12224952554E+04  0.25500000920E-02 0. -1.
        2   -1    0    0  501    0  0.00000000000E+00  0.00000000000E+00 -0.11788306669E+04  0.11788306669E+04  0.25500000920E-02 0.  1.
    10030    2    1    2    0    0  0.00000000000E+00  0.00000000000E+00  0.43664588473E+02  0.24013259222E+04  0.24009289012E+04 0.  0.
        2    1    3    3  502    0 -0.18770272517E+03  0.63269770077E+03 -0.98111775341E+03  0.11824257861E+04  0.25500000920E-02 0.  1.
       -2    1    3    3    0  502  0.18770272517E+03 -0.63269770077E+03  0.10247823419E+04  0.12189001361E+04  0.25500000920E-02 0. -1.
</event>
<event>
 5   0  0.2215700E-06  0.2391068E+04  0.7818609E-02  0.8442855E-01
       -1   -1    0    0    0  501  0.00000000000E+00  0.00000000000E+00  0.88623754957E+03  0.88623754959E+03  0.50400001928E-02 0.  1.
        1   -1    0    0  501    0  0.00000000000E+00  0.00000000000E+00 -0.16127752339E+04  0.16127752339E+04  0.50400001928E-02 0. -1.
    10030    2    1    2    0    0  0.00000000000E+00  0.00000000000E+00 -0.72653768429E+03  0.24990127835E+04  0.23910683564E+04 0.  0.
        3    1    3    3  502    0 -0.45024619645E+03  0.73615020319E+03 -0.12280674447E+04  0.15009291848E+04  0.10100000352E+00 0. -1.
       -3    1    3    3    0  502  0.45024619645E+03 -0.73615020319E+03  0.50152976038E+03  0.99808359861E+03  0.10100000352E+00 0.  1.
</event>
<event>
 5   0  0.5371843E-06  0.2411060E+04  0.7818609E-02  0.8435374E-01
        2   -1    0    0  501    0  0.00000000000E+00  0.00000000000E+00  0.11873080519E+04  0.11873080519E+04  0.25500000920E-02 0. -1.
       -2   -1    0    0    0  501  0.00000000000E+00  0.00000000000E+00 -0.12240317868E+04  0.12240317868E+04  0.25500000920E-02 0.  1.
    10030    2    1    2    0    0  0.00000000000E+00  0.00000000000E+00 -0.36723734873E+02  0.24113398388E+04  0.24110601787E+04 0.  0.
        4    1    3    3  502    0 -0.18527671543E+03  0.91362637223E+03  0.74609618851E+03  0.11940275310E+04  0.12699999809E+01 0. -1.
       -4    1    3    3    0  502  0.18527671543E+03 -0.91362637223E+03 -0.78281992338E+03  0.12173123078E+04  0.12699999809E+01 0.  1.
</event>
<event>
 5   0  0.2297414E-06  0.2425946E+04  0.7818609E-02  0.8429853E-01
       -1   -1    0    0    0  501  0.00000000000E+00  0.00000000000E+00  0.74518239465E+03  0.74518239467E+03  0.50400001928E-02 0.  1.
        1   -1    0    0  501    0  0.00000000000E+00  0.00000000000E+00 -0.19744198441E+04  0.19744198441E+04  0.50400001928E-02 0. -1.
    10030    2    1    2    0    0  0.00000000000E+00  0.00000000000E+00 -0.12292374494E+04  0.27196022387E+04  0.24259455126E+04 0.  0.
        1    1    3    3  502    0  0.83578370822E+03  0.46018455431E+01  0.37085058237E+03  0.91437724074E+03  0.50400001928E-02 0.  1.
       -1    1    3    3    0  502 -0.83578370822E+03 -0.46018455431E+01 -0.16000880318E+04  0.18052249980E+04  0.50400001928E-02 0. -1.
</event>
<event>
 5   0  0.5268358E-06  0.2398684E+04  0.7818609E-02  0.8439996E-01
        2   -1    0    0  501    0  0.00000000000E+00  0.00000000000E+00  0.72243777915E+03  0.72243777916E+03  0.25500000920E-02 0.  1.
       -2   -1    0    0    0  501  0.00000000000E+00  0.00000000000E+00 -0.19910660439E+04  0.19910660439E+04  0.25500000920E-02 0. -1.
    10030    2    1    2    0    0  0.00000000000E+00  0.00000000000E+00 -0.12686282647E+04  0.27135038231E+04  0.23986840817E+04 0.  0.
        2    1    3    3  502    0 -0.40632819842E+03 -0.85077037308E+03  0.20426604351E+03  0.96469552144E+03  0.25500000920E-02 0.  1.
       -2    1    3    3    0  502  0.40632819842E+03  0.85077037308E+03 -0.14728943083E+04  0.17488083016E+04  0.25500000920E-02 0. -1.
</event>
<event>
 5   0  0.2149417E-06  0.2399658E+04  0.7818609E-02  0.8439632E-01
       -1   -1    0    0    0  501  0.00000000000E+00  0.00000000000E+00  0.13193185645E+04  0.13193185645E+04  0.50400001928E-02 0.  1.
        1   -1    0    0  501    0  0.00000000000E+00  0.00000000000E+00 -0.10911616232E+04  0.10911616232E+04  0.50400001928E-02 0. -1.
    10030    2    1    2    0    0  0.00000000000E+00  0.00000000000E+00  0.22815694134E+03  0.24104801877E+04  0.23996581309E+04 0.  0.
        5    1    3    3  502    0 -0.10616689420E+04  0.54588636662E+03 -0.66083954820E+01  0.11938168320E+04  0.46999998093E+01 0.  1.
       -5    1    3    3    0  502  0.10616689420E+04 -0.54588636662E+03  0.23476533682E+03  0.12166633556E+04  0.46999998093E+01 0. -1.
</event>
<event>
 5   0  0.5349036E-06  0.2407238E+04  0.7818609E-02  0.8436799E-01
        2   -1    0    0  501    0  0.00000000000E+00  0.00000000000E+00  0.16957666632E+04  0.16957666632E+04  0.25500000920E-02 0.  1.
       -2   -1    0    0    0  501  0.00000000000E+00  0.00000000000E+00 -0.85430288782E+03  0.85430288783E+03  0.25500000920E-02 0. -1.
    10030    2    1    2    0    0  0.00000000000E+00  0.00000000000E+00  0.84146377539E+03  0.25500695510E+04  0.24072377178E+04 0.  0.
        1    1    3    3  502    0  0.51821417211E+03  0.69944411824E+03  0.13012741044E+04  0.15655932733E+04  0.50400001928E-02 0.  1.
       -1    1    3    3    0  502 -0.51821417211E+03 -0.69944411824E+03 -0.45981032899E+03  0.98447627772E+03  0.50400001928E-02 0. -1.
</event>
<event>
 5   0  0.2254269E-06  0.2400201E+04  0.7818609E-02  0.8439428E-01
        1   -1    0    0  501    0  0.00000000000E+00  0.00000000000E+00  0.18492688636E+04  0.18492688636E+04  0.50400001928E-02 0.  1.
       -1   -1    0    0    0  501  0.00000000000E+00  0.00000000000E+00 -0.77881635907E+03  0.77881635909E+03  0.50400001928E-02 0. -1.
    10030    2    1    2    0    0  0.00000000000E+00  0.00000000000E+00  0.10704525045E+04  0.26280852227E+04  0.24002006944E+04 0.  0.
        2    1    3    3  502    0 -0.10261849502E+04  0.54190723464E+03  0.87007479185E+03  0.14504306762E+04  0.25500000920E-02 0.  1.
       -2    1    3    3    0  502  0.10261849502E+04 -0.54190723464E+03  0.20037771264E+03  0.11776545465E+04  0.25500000920E-02 0. -1.
</event>
<event>
 5   0  0.2215700E-06  0.2399822E+04  0.7818609E-02  0.8439570E-01
        1   -1    0    0  501    0  0.00000000000E+00  0.00000000000E+00  0.23688095632E+04  0.23688095633E+04  0.50400001928E-02 0.  1.
       -1   -1    0    0    0  501  0.00000000000E+00  0.00000000000E+00 -0.60781027603E+03  0.60781027605E+03  0.50400001928E-02 0. -1.
    10030    2    1    2    0    0  0.00000000000E+00  0.00000000000E+00  0.17609992872E+04  0.29766198393E+04  0.23998223222E+04 0.  0.
        3    1    3    3  502    0 -0.64826801894E+03 -0.54241862036E+03 -0.17585156001E+03  0.86336154967E+03  0.10100000352E+00 0. -1.
       -3    1    3    3    0  502  0.64826801894E+03  0.54241862036E+03  0.19368508472E+04  0.21132582896E+04  0.10100000352E+00 0.  1.
</event>
<event>
 5   0  0.2149029E-06  0.2395580E+04  0.7818609E-02  0.8441160E-01
       -1   -1    0    0    0  501  0.00000000000E+00  0.00000000000E+00  0.94423479594E+03  0.94423479596E+03  0.50400001928E-02 0.  1.
        1   -1    0    0  501    0  0.00000000000E+00  0.00000000000E+00 -0.15194321501E+04  0.15194321501E+04  0.50400001928E-02 0. -1.
    10030    2    1    2    0    0  0.00000000000E+00  0.00000000000E+00 -0.57519735414E+03  0.24636669461E+04  0.23955798515E+04 0.  0.
        4    1    3    3  502    0  0.51046266057E+03  0.74395971294E+03  0.52260655555E+03  0.10426732025E+04  0.12699999809E+01 0.  1.
       -4    1    3    3    0  502 -0.51046266057E+03 -0.74395971294E+03 -0.10978039097E+04  0.14209937436E+04  0.12699999809E+01 0. -1.
</event>
<event>
 5   0  0.2149029E-06  0.2402668E+04  0.7818609E-02  0.8438505E-01
       -1   -1    0    0    0  501  0.00000000000E+00  0.00000000000E+00  0.86487107431E+03  0.86487107433E+03  0.50400001928E-02 0. -1.
        1   -1    0    0  501    0  0.00000000000E+00  0.00000000000E+00 -0.16686920857E+04  0.16686920857E+04  0.50400001928E-02 0.  1.
    10030    2    1    2    0    0  0.00000000000E+00  0.00000000000E+00 -0.80382101137E+03  0.25335631600E+04  0.24026681143E+04 0.  0.
        4    1    3    3  502    0 -0.74481458419E+03  0.91734378331E+03 -0.63035438431E+03  0.13392597374E+04  0.12699999809E+01 0.  1.
       -4    1    3    3    0  502  0.74481458419E+03 -0.91734378331E+03 -0.17346662706E+03  0.11943034226E+04  0.12699999809E+01 0. -1.
</event>
<event>
 5   0  0.5268358E-06  0.2401253E+04  0.7818609E-02  0.8439034E-01
       -2   -1    0    0    0  501  0.00000000000E+00  0.00000000000E+00  0.64478024942E+03  0.64478024942E+03  0.25500000920E-02 0.  1.
        2   -1    0    0  501    0  0.00000000000E+00  0.00000000000E+00 -0.22356524463E+04  0.22356524463E+04  0.25500000920E-02 0. -1.
    10030    2    1    2    0    0  0.00000000000E+00  0.00000000000E+00 -0.15908721969E+04  0.28804326957E+04  0.24012534576E+04 0.  0.
        2    1    3    3  502    0 -0.47240727918E+03  0.82570823802E+03  0.83225232229E+02  0.95492888271E+03  0.25500000920E-02 0.  1.
       -2    1    3    3    0  502  0.47240727918E+03 -0.82570823802E+03 -0.16740974291E+04  0.19255038130E+04  0.25500000920E-02 0. -1.
</event>
<event>
 5   0  0.5268358E-06  0.2398864E+04  0.7818609E-02  0.8439929E-01
       -2   -1    0    0    0  501  0.00000000000E+00  0.00000000000E+00  0.88400036011E+03  0.88400036011E+03  0.25500000920E-02 0.  1.
        2   -1    0    0  501    0  0.00000000000E+00  0.00000000000E+00 -0.16274172759E+04  0.16274172759E+04  0.25500000920E-02 0. -1.
    10030    2    1    2    0    0  0.00000000000E+00  0.00000000000E+00 -0.74341691582E+03  0.25114176360E+04  0.23988642796E+04 0.  0.
        2    1    3    3  502    0  0.10840458685E+04 -0.44229856765E+03 -0.98998524340E+02  0.11749826278E+04  0.25500000920E-02 0.  1.
       -2    1    3    3    0  502 -0.10840458685E+04  0.44229856765E+03 -0.64441839148E+03  0.13364350082E+04  0.25500000920E-02 0. -1.
</event>
<event>
 5   0  0.5371843E-06  0.2445293E+04  0.7818609E-02  0.8422738E-01
        2   -1    0    0  501    0  0.00000000000E+00  0.00000000000E+00  0.15787257383E+04  0.15787257383E+04  0.25500000920E-02 0.  1.
       -2   -1    0    0    0  501  0.00000000000E+00  0.00000000000E+00 -0.94688065988E+03  0.94688065988E+03  0.25500000920E-02 0. -1.
    10030    2    1    2    0    0  0.00000000000E+00  0.00000000000E+00  0.63184507846E+03  0.25256063982E+04  0.24452933312E+04 0.  0.
        4    1    3    3  502    0  0.10321851524E+04  0.32730380167E+03  0.90230988605E+03  0.14095030014E+04  0.12699999809E+01 0.  1.
       -4    1    3    3    0  502 -0.10321851524E+04 -0.32730380167E+03 -0.27046480759E+03  0.11161033969E+04  0.12699999809E+01 0. -1.
</event>
<event>
 5   0  0.5379778E-06  0.2405819E+04  0.7818609E-02  0.8437328E-01
       -2   -1    0    0    0  501  0.00000000000E+00  0.00000000000E+00  0.10124445000E+04  0.10124445000E+04  0.25500000920E-02 0. -1.
        2   -1    0    0  501    0  0.00000000000E+00  0.00000000000E+00 -0.14292055787E+04  0.14292055787E+04  0.25500000920E-02 0.  1.
    10030    2    1    2    0    0  0.00000000000E+00  0.00000000000E+00 -0.41676107867E+03  0.24416500787E+04  0.24058190519E+04 0.  0.
        5    1    3    3  502    0  0.79864045421E+03 -0.26980707907E+03 -0.10792672565E+04  0.13694752046E+04  0.46999998093E+01 0.  1.
       -5    1    3    3    0  502 -0.79864045421E+03  0.26980707907E+03  0.66250617786E+03  0.10721748741E+04  0.46999998093E+01 0. -1.
</event>
<event>
 5   0  0.5268358E-06  0.2400192E+04  0.7818609E-02  0.8439432E-01
       -2   -1    0    0    0  501  0.00000000000E+00  0.00000000000E+00  0.13169010790E+04  0.13169010790E+04  0.25500000920E-02 0.  1.
        2   -1    0    0  501    0  0.00000000000E+00  0.00000000000E+00 -0.10936511940E+04  0.10936511940E+04  0.25500000920E-02 0. -1.
    10030    2    1    2    0    0  0.00000000000E+00  0.00000000000E+00  0.22324988501E+03  0.24105522730E+04  0.24001920235E+04 0.  0.
        2    1    3    3  502    0 -0.37952500465E+03 -0.52691506105E+03  0.11252144594E+04  0.12991482942E+04  0.25500000920E-02 0.  1.
       -2    1    3    3    0  502  0.37952500465E+03  0.52691506105E+03 -0.90196457437E+03  0.11114039788E+04  0.25500000920E-02 0. -1.
</event>
<event>
 5   0  0.5349036E-06  0.2397885E+04  0.7818609E-02  0.8440296E-01
        2   -1    0    0  501    0  0.00000000000E+00  0.00000000000E+00  0.14936333162E+04  0.14936333162E+04  0.25500000920E-02 0. -1.
       -2   -1    0    0    0  501  0.00000000000E+00  0.00000000000E+00 -0.96239387820E+03  0.96239387821E+03  0.25500000920E-02 0.  1.
    10030    2    1    2    0    0  0.00000000000E+00  0.00000000000E+00  0.53123943804E+03  0.24560271944E+04  0.23978853683E+04 0.  0.
        1    1    3    3  502    0 -0.15826297823E+03 -0.21619234967E+03  0.14625773895E+04  0.14869159097E+04  0.50400001928E-02 0. -1.
       -1    1    3    3    0  502  0.15826297823E+03  0.21619234967E+03 -0.93133795145E+03  0.96911128472E+03  0.50400001928E-02 0.  1.
</event>
<event>
 5   0  0.5371843E-06  0.2396437E+04  0.7818609E-02  0.8440839E-01
        2   -1    0    0  501    0  0.00000000000E+00  0.00000000000E+00  0.10439379408E+04  0.10439379408E+04  0.25500000920E-02 0.  1.
       -2   -1    0    0    0  501  0.00000000000E+00  0.00000000000E+00 -0.13752992350E+04  0.13752992350E+04  0.25500000920E-02 0. -1.
    10030    2    1    2    0    0  0.00000000000E+00  0.00000000000E+00 -0.33136129419E+03  0.24192371758E+04  0.23964365641E+04 0.  0.
        4    1    3    3  502    0  0.46988544811E+03 -0.10920273849E+04 -0.14559025255E+02  0.11889195607E+04  0.12699999809E+01 0.  1.
       -4    1    3    3    0  502 -0.46988544811E+03  0.10920273849E+04 -0.31680226894E+03  0.12303176151E+04  0.12699999809E+01 0. -1.
</event>
<event>
 5   0  0.5371843E-06  0.2401386E+04  0.7818609E-02  0.8438985E-01
       -2   -1    0    0    0  501  0.00000000000E+00  0.00000000000E+00  0.16473587461E+04  0.16473587461E+04  0.25500000920E-02 0.  1.
        2   -1    0    0  501    0  0.00000000000E+00  0.00000000000E+00 -0.87513619919E+03  0.87513619919E+03  0.25500000920E-02 0. -1.
    10030    2    1    2    0    0  0.00000000000E+00  0.00000000000E+00  0.77222254687E+03  0.25224949453E+04  0.24013856598E+04 0.  0.
        4    1    3    3  502    0  0.10296391680E+04 -0.52493751274E+03  0.44203049228E+02  0.11565775940E+04  0.12699999809E+01 0.  1.
       -4    1    3    3    0  502 -0.10296391680E+04  0.52493751274E+03  0.72801949764E+03  0.13659173512E+04  0.12699999809E+01 0. -1.
</event>
<event>
 5   0  0.5379778E-06  0.2406485E+04  0.7818609E-02  0.8437080E-01
        2   -1    0    0  501    0  0.00000000000E+00  0.00000000000E+00  0.16306639678E+04  0.16306639678E+04  0.25500000920E-02 0. -1.
       -2   -1    0    0    0  501  0.00000000000E+00  0.00000000000E+00 -0.88785437673E+03  0.88785437674E+03  0.25500000920E-02 0.  1.
    10030    2    1    2    0    0  0.00000000000E+00  0.00000000000E+00  0.74280959105E+03  0.25185183445E+04  0.24064846900E+04 0.  0.
        5    1    3    3  502    0  0.47584940010E+03  0.93298293978E+03 -0.24852351089E+03  0.10764180614E+04  0.46999998093E+01 0.  1.
       -5    1    3    3    0  502 -0.47584940010E+03 -0.93298293978E+03  0.99133310194E+03  0.14421002831E+04  0.46999998093E+01 0. -1.
</event>
<event>
 5   0  0.2149029E-06  0.2406495E+04  0.7818609E-02  0.8437076E-01
       -1   -1    0    0    0  501  0.00000000000E+00  0.00000000000E+00  0.74654242570E+03  0.74654242571E+03  0.50400001928E-02 0.  1.
        1   -1    0    0  501    0  0.00000000000E+00  0.00000000000E+00 -0.19393469051E+04  0.19393469051E+04  0.50400001928E-02 0. -1.
    10030    2    1    2    0    0  0.00000000000E+00  0.00000000000E+00 -0.11928044794E+04  0.26858893308E+04  0.24064951634E+04 0.  0.
        4    1    3    3  502    0 -0.31256598603E+03  0.44079341748E+03 -0.17963041452E+04  0.18758215607E+04  0.12699999809E+01 0. -1.
       -4    1    3    3    0  502  0.31256598603E+03 -0.44079341748E+03  0.60349966587E+03  0.81006777008E+03  0.12699999809E+01 0.  1.
</event>
<event>
 5   0  0.5379778E-06  0.2396914E+04  0.7818609E-02  0.8440660E-01
        2   -1    0    0  501    0  0.00000000000E+00  0.00000000000E+00  0.12754547006E+04  0.12754547006E+04  0.25500000920E-02 0.  1.
       -2   -1    0    0    0  501  0.00000000000E+00  0.00000000000E+00 -0.11261078677E+04  0.11261078677E+04  0.25500000920E-02 0. -1.
    10030    2    1    2    0    0  0.00000000000E+00  0.00000000000E+00  0.14934683285E+03  0.24015625683E+04  0.23969143274E+04 0.  0.
        5    1    3    3  502    0 -0.10424891921E+04 -0.59056192266E+03  0.10175142582E+03  0.12024651940E+04  0.46999998093E+01 0.  1.
       -5    1    3    3    0  502  0.10424891921E+04  0.59056192266E+03  0.47595407022E+02  0.11990973742E+04  0.46999998093E+01 0. -1.
</event>
<event>
 5   0  0.5440503E-06  0.2398829E+04  0.7818609E-02  0.8439942E-01
        2   -1    0    0  501    0  0.00000000000E+00  0.00000000000E+00  0.11148465926E+04  0.11148465926E+04  0.25500000920E-02 0. -1.
       -2   -1    0    0    0  501  0.00000000000E+00  0.00000000000E+00 -0.12903979155E+04  0.12903979155E+04  0.25500000920E-02 0.  1.
    10030    2    1    2    0    0  0.00000000000E+00  0.00000000000E+00 -0.17555132292E+03  0.24052445081E+04  0.23988294805E+04 0.  0.
        3    1    3    3  502    0 -0.74445647570E+02 -0.78273565856E+03 -0.99594529074E+03  0.12689067334E+04  0.10100000352E+00 0.  1.
       -3    1    3    3    0  502  0.74445647570E+02  0.78273565856E+03  0.82039396781E+03  0.11363377747E+04  0.10100000352E+00 0. -1.
</event>
<event>
 5   0  0.2254269E-06  0.2399301E+04  0.7818609E-02  0.8439765E-01
       -1   -1    0    0    0  501  0.00000000000E+00  0.00000000000E+00  0.90140875436E+03  0.90140875437E+03  0.50400001928E-02 0.  1.
        1   -1    0    0  501    0  0.00000000000E+00  0.00000000000E+00 -0.15965690692E+04  0.15965690692E+04  0.50400001928E-02 0. -1.
    10030    2    1    2    0    0  0.00000000000E+00  0.00000000000E+00 -0.69516031482E+03  0.24979778236E+04  0.23993010115E+04 0.  0.
        2    1    3    3  502    0 -0.11325225738E+04 -0.39560144615E+03 -0.35519189315E+03  0.12511071758E+04  0.25500000920E-02 0. -1.
       -2    1    3    3    0  502  0.11325225738E+04  0.39560144615E+03 -0.33996842167E+03  0.12468706477E+04  0.25500000920E-02 0.  1.
</event>
<event>
 5   0  0.2297414E-06  0.2399643E+04  0.7818609E-02  0.8439637E-01
       -1   -1    0    0    0  501  0.00000000000E+00  0.00000000000E+00  0.93651415768E+03  0.93651415769E+03  0.50400001928E-02 0.  1.
        1   -1    0    0  501    0  0.00000000000E+00  0.00000000000E+00 -0.15371598351E+04  0.15371598351E+04  0.50400001928E-02 0. -1.
    10030    2    1    2    0    0  0.00000000000E+00  0.00000000000E+00 -0.60064567738E+03  0.24736739928E+04  0.23996432636E+04 0.  0.
        1    1    3    3  502    0 -0.17652293749E+03  0.10957358919E+04  0.16956245916E+03  0.11227416977E+04  0.50400001928E-02 0.  1.
       -1    1    3    3    0  502  0.17652293749E+03 -0.10957358919E+04 -0.77020813653E+03  0.13509322950E+04  0.50400001928E-02 0. -1.
</event>
<event>
 5   0  0.2149417E-06  0.2394117E+04  0.7818609E-02  0.8441710E-01
        1   -1    0    0  501    0  0.00000000000E+00  0.00000000000E+00  0.15421822822E+04  0.15421822823E+04  0.50400001928E-02 0.  1.
       -1   -1    0    0    0  501  0.00000000000E+00  0.00000000000E+00 -0.92916934297E+03  0.92916934298E+03  0.50400001928E-02 0. -1.
    10030    2    1    2    0    0  0.00000000000E+00  0.00000000000E+00  0.61301293928E+03  0.24713516252E+04  0.23941165368E+04 0.  0.
        5    1    3    3  502    0  0.79798096801E+03 -0.30731763924E+03  0.11712108728E+04  0.14501636995E+04  0.46999998093E+01 0.  1.
       -5    1    3    3    0  502 -0.79798096801E+03  0.30731763924E+03 -0.55819793355E+03  0.10211879258E+04  0.46999998093E+01 0. -1.
</event>
<event>
 5   0  0.2149417E-06  0.2394232E+04  0.7818609E-02  0.8441666E-01
        1   -1    0    0  501    0  0.00000000000E+00  0.00000000000E+00  0.13773575222E+04  0.13773575222E+04  0.50400001928E-02 0. -1.
       -1   -1    0    0    0  501  0.00000000000E+00  0.00000000000E+00 -0.10404609454E+04  0.10404609454E+04  0.50400001928E-02 0.  1.
    10030    2    1    2    0    0  0.00000000000E+00  0.00000000000E+00  0.33689657677E+03  0.24178184676E+04  0.23942319935E+04 0.  0.
        5    1    3    3  502    0  0.78260445924E+03 -0.70441614078E+03  0.74361408349E+03  0.12890523008E+04  0.46999998093E+01 0. -1.
       -5    1    3    3    0  502 -0.78260445924E+03  0.70441614078E+03 -0.40671750672E+03  0.11287661668E+04  0.46999998093E+01 0.  1.
</event>
<event>
 5   0  0.5349036E-06  0.2403527E+04  0.7818609E-02  0.8438184E-01
        2   -1    0    0  501    0  0.00000000000E+00  0.00000000000E+00  0.10355812602E+04  0.10355812602E+04  0.25500000920E-02 0.  1.
       -2   -1    0    0    0  501  0.00000000000E+00  0.00000000000E+00 -0.13946137425E+04  0.13946137425E+04  0.25500000920E-02 0. -1.
    10030    2    1    2    0    0  0.00000000000E+00  0.00000000000E+00 -0.35903248233E+03  0.24301950027E+04  0.24035272888E+04 0.  0.
        1    1    3    3  502    0  0.81411202707E+03 -0.87763060409E+03 -0.28662548399E+03  0.12309216214E+04  0.50400001928E-02 0. -1.
       -1    1    3    3    0  502 -0.81411202707E+03  0.87763060409E+03 -0.72406998338E+02  0.11992733814E+04  0.50400001928E-02 0.  1.
</event>
<event>
 5   0  0.5349036E-06  0.2401681E+04  0.7818609E-02  0.8438875E-01
        2   -1    0    0  501    0  0.00000000000E+00  0.00000000000E+00  0.22627176866E+04  0.22627176866E+04  0.25500000920E-02 0. -1.
       -2   -1    0    0    0  501  0.00000000000E+00  0.00000000000E+00 -0.63729450035E+03  0.63729450035E+03  0.25500000920E-02 0.  1.
    10030    2    1    2    0    0  0.00000000000E+00  0.00000000000E+00  0.16254231862E+04  0.29000121869E+04  0.24016806928E+04 0.  0.
        1    1    3    3  502    0  0.62582794684E+03 -0.10246419863E+04  0.83876990423E+03  0.14646114745E+04  0.50400001928E-02 0. -1.
       -1    1    3    3    0  502 -0.62582794684E+03  0.10246419863E+04  0.78665328202E+03  0.14354007124E+04  0.50400001928E-02 0.  1.
</event>
<event>
 5   0  0.2297414E-06  0.2393959E+04  0.7818609E-02  0.8441769E-01
        1   -1    0    0  501    0  0.00000000000E+00  0.00000000000E+00  0.16889311243E+04  0.16889311243E+04  0.50400001928E-02 0.  1.
       -1   -1    0    0    0  501  0.00000000000E+00  0.00000000000E+00 -0.84832375240E+03  0.84832375242E+03  0.50400001928E-02 0. -1.
    10030    2    1    2    0    0  0.00000000000E+00  0.00000000000E+00  0.84060737189E+03  0.25372548767E+04  0.23939593889E+04 0.  0.
        1    1    3    3  502    0 -0.89312553487E+03 -0.75504243478E+03  0.69051131895E+03  0.13581488066E+04  0.50400001928E-02 0.  1.
       -1    1    3    3    0  502  0.89312553487E+03  0.75504243478E+03  0.15009605294E+03  0.11791060701E+04  0.50400001928E-02 0. -1.
</event>
<event>
 5   0  0.5268358E-06  0.2400703E+04  0.7818609E-02  0.8439240E-01
        2   -1    0    0  501    0  0.00000000000E+00  0.00000000000E+00  0.23963649136E+04  0.23963649136E+04  0.25500000920E-02 0.  1.
       -2   -1    0    0    0  501  0.00000000000E+00  0.00000000000E+00 -0.60126223769E+03  0.60126223769E+03  0.25500000920E-02 0. -1.
    10030    2    1    2    0    0  0.00000000000E+00  0.00000000000E+00  0.17951026759E+04  0.29976271513E+04  0.24007030056E+04 0.  0.
        2    1    3    3  502    0 -0.89992360376E+03 -0.77737341716E+03  0.69362871654E+03  0.13766963059E+04  0.25500000920E-02 0.  1.
       -2    1    3    3    0  502  0.89992360376E+03  0.77737341716E+03  0.11014739594E+04  0.16209308454E+04  0.25500000920E-02 0. -1.
</event>
<event>
 5   0  0.5379778E-06  0.2400948E+04  0.7818609E-02  0.8439149E-01
        2   -1    0    0  501    0  0.00000000000E+00  0.00000000000E+00  0.14888168236E+04  0.14888168236E+04  0.25500000920E-02 0.  1.
       -2   -1    0    0    0  501  0.00000000000E+00  0.00000000000E+00 -0.96797490627E+03  0.96797490627E+03  0.25500000920E-02 0. -1.
    10030    2    1    2    0    0  0.00000000000E+00  0.00000000000E+00  0.52084191728E+03  0.24567917298E+04  0.24009475840E+04 0.  0.
        5    1    3    3  502    0  0.78726996685E+03  0.34408640358E+03 -0.59748641144E+03  0.10465187794E+04  0.46999998093E+01 0. -1.
       -5    1    3    3    0  502 -0.78726996685E+03 -0.34408640358E+03  0.11183283287E+04  0.14102729504E+04  0.46999998093E+01 0.  1.
</event>
<event>
 5   0  0.5379778E-06  0.2403522E+04  0.7818609E-02  0.8438186E-01
       -2   -1    0    0    0  501  0.00000000000E+00  0.00000000000E+00  0.86153944516E+03  0.86153944517E+03  0.25500000920E-02 0. -1.
        2   -1    0    0  501    0  0.00000000000E+00  0.00000000000E+00 -0.16763357644E+04  0.16763357644E+04  0.25500000920E-02 0.  1.
    10030    2    1    2    0    0  0.00000000000E+00  0.00000000000E+00 -0.81479631919E+03  0.25378752095E+04  0.24035219028E+04 0.  0.
        5    1    3    3  502    0  0.46108030231E+02 -0.64396402780E+03 -0.14776603926E+04  0.16125501373E+04  0.46999998093E+01 0.  1.
       -5    1    3    3    0  502 -0.46108030231E+02  0.64396402780E+03  0.66286407336E+03  0.92532507224E+03  0.46999998093E+01 0. -1.
</event>
<event>
 5   0  0.2297414E-06  0.2393526E+04  0.7818609E-02  0.8441931E-01
       -1   -1    0    0    0  501  0.00000000000E+00  0.00000000000E+00  0.70700907916E+03  0.70700907918E+03  0.50400001928E-02 0. -1.
        1   -1    0    0  501    0  0.00000000000E+00  0.00000000000E+00 -0.20257760264E+04  0.20257760264E+04  0.50400001928E-02 0.  1.
    10030    2    1    2    0    0  0.00000000000E+00  0.00000000000E+00 -0.13187669472E+04  0.27327851056E+04  0.23935263049E+04 0.  0.
        1    1    3    3  502    0  0.11248529530E+04 -0.27434729383E+02 -0.11248372219E+04  0.15910077329E+04  0.50400001928E-02 0.  1.
       -1    1    3    3    0  502 -0.11248529530E+04  0.27434729383E+02 -0.19392972531E+03  0.11417773727E+04  0.50400001928E-02 0. -1.
</event>
<event>
 5   0  0.2149029E-06  0.2397977E+04  0.7818609E-02  0.8440261E-01
        1   -1    0    0  501    0  0.00000000000E+00  0.00000000000E+00  0.21168365264E+04  0.21168365264E+04  0.50400001928E-02 0.  1.
       -1   -1    0    0    0  501  0.00000000000E+00  0.00000000000E+00 -0.67911378555E+03  0.67911378556E+03  0.50400001928E-02 0. -1.
    10030    2    1    2    0    0  0.00000000000E+00  0.00000000000E+00  0.14377227409E+04  0.27959503120E+04  0.23979765361E+04 0.  0.
        4    1    3    3  502    0  0.58736753600E+03 -0.77300868782E+03 -0.10148921027E+03  0.97613765755E+03  0.12699999809E+01 0. -1.
       -4    1    3    3    0  502 -0.58736753600E+03  0.77300868782E+03  0.15392119512E+04  0.18198126545E+04  0.12699999809E+01 0.  1.
</event>
<event>
 5   0  0.5440503E-06  0.2399140E+04  0.7818609E-02  0.8439826E-01
        2   -1    0    0  501    0  0.00000000000E+00  0.00000000000E+00  0.18972361100E+04  0.18972361101E+04  0.25500000920E-02 0. -1.
       -2   -1    0    0    0  501  0.00000000000E+00  0.00000000000E+00 -0.75845485813E+03  0.75845485813E+03  0.25500000920E-02 0.  1.
    10030    2    1    2    0    0  0.00000000000E+00  0.00000000000E+00  0.11387812519E+04  0.26556909682E+04  0.23991397998E+04 0.  0.
        3    1    3    3  502    0 -0.10460405055E+04 -0.52763254157E+03  0.28421560839E+03  0.12055601853E+04  0.10100000352E+00 0.  1.
       -3    1    3    3    0  502  0.10460405055E+04  0.52763254157E+03  0.85456564353E+03  0.14501307829E+04  0.10100000352E+00 0. -1.
</event>
<event>
 5   0  0.5349036E-06  0.2399917E+04  0.7818609E-02  0.8439534E-01
       -2   -1    0    0    0  501  0.00000000000E+00  0.00000000000E+00  0.59798266834E+03  0.59798266834E+03  0.25500000920E-02 0.  1.
        2   -1    0    0  501    0  0.00000000000E+00  0.00000000000E+00 -0.24079308599E+04  0.24079308599E+04  0.25500000920E-02 0. -1.
    10030    2    1    2    0    0  0.00000000000E+00  0.00000000000E+00 -0.18099481916E+04  0.30059135283E+04  0.23999174326E+04 0.  0.
        1    1    3    3  502    0  0.62297168977E+03 -0.98247969915E+03 -0.53651377666E+03  0.12810960612E+04  0.50400001928E-02 0.  1.
       -1    1    3    3    0  502 -0.62297168977E+03  0.98247969915E+03 -0.12734344149E+04  0.17248174671E+04  0.50400001928E-02 0. -1.
</event>
<event>
 5   0  0.5379778E-06  0.2399271E+04  0.7818609E-02  0.8439777E-01
        2   -1    0    0  501    0  0.00000000000E+00  0.00000000000E+00  0.12082514682E+04  0.12082514682E+04  0.25500000920E-02 0.  1.
       -2   -1    0    0    0  501  0.00000000000E+00  0.00000000000E+00 -0.11910806179E+04  0.11910806179E+04  0.25500000920E-02 0. -1.
    10030    2    1    2    0    0  0.00000000000E+00  0.00000000000E+00  0.17170850304E+02  0.23993320862E+04  0.23992706437E+04 0.  0.
        5    1    3    3  502    0  0.60843498217E+03 -0.81818804038E+03 -0.62347349539E+03  0.11951427055E+04  0.46999998093E+01 0. -1.
       -5    1    3    3    0  502 -0.60843498217E+03  0.81818804038E+03  0.64064434569E+03  0.12041893807E+04  0.46999998093E+01 0.  1.
</event>
<event>
 5   0  0.2254269E-06  0.2406765E+04  0.7818609E-02  0.8436975E-01
        1   -1    0    0  501    0  0.00000000000E+00  0.00000000000E+00  0.17669018027E+04  0.17669018027E+04  0.50400001928E-02 0.  1.
       -1   -1    0    0    0  501  0.00000000000E+00  0.00000000000E+00 -0.81958713924E+03  0.81958713926E+03  0.50400001928E-02 0. -1.
    10030    2    1    2    0    0  0.00000000000E+00  0.00000000000E+00  0.94731466344E+03  0.25864889419E+04  0.24067654591E+04 0.  0.
        2    1    3    3  502    0 -0.78159735374E+03  0.85261464125E+03  0.83054603679E+03  0.14239567652E+04  0.25500000920E-02 0.  1.
       -2    1    3    3    0  502  0.78159735374E+03 -0.85261464125E+03  0.11676862665E+03  0.11625321768E+04  0.25500000920E-02 0. -1.
</event>
<event>
 5   0  0.5440503E-06  0.2448073E+04  0.7818609E-02  0.8421722E-01
       -2   -1    0    0    0  501  0.00000000000E+00  0.00000000000E+00  0.68921800694E+03  0.68921800695E+03  0.25500000920E-02 0. -1.
        2   -1    0    0  501    0  0.00000000000E+00  0.00000000000E+00 -0.21738627184E+04  0.21738627184E+04  0.25500000920E-02 0.  1.
    10030    2    1    2    0    0  0.00000000000E+00  0.00000000000E+00 -0.14846447115E+04  0.28630807254E+04  0.24480729811E+04 0.  0.
        3    1    3    3  502    0  0.39179627997E+03 -0.30397501724E+03 -0.20511240797E+04  0.21102168459E+04  0.10100000352E+00 0.  1.
       -3    1    3    3    0  502 -0.39179627997E+03  0.30397501724E+03  0.56647936827E+03  0.75286387945E+03  0.10100000352E+00 0. -1.
</event>
<event>
 5   0  0.5371843E-06  0.2398493E+04  0.7818609E-02  0.8440068E-01
       -2   -1    0    0    0  501  0.00000000000E+00  0.00000000000E+00  0.57028774749E+03  0.57028774749E+03  0.25500000920E-02 0.  1.
        2   -1    0    0  501    0  0.00000000000E+00  0.00000000000E+00 -0.25218720147E+04  0.25218720147E+04  0.25500000920E-02 0. -1.
    10030    2    1    2    0    0  0.00000000000E+00  0.00000000000E+00 -0.19515842672E+04  0.30921597622E+04  0.23984934528E+04 0.  0.
        4    1    3    3  502    0  0.11260205338E+04 -0.40912122232E+03 -0.10450825479E+04  0.15898118008E+04  0.12699999809E+01 0.  1.
       -4    1    3    3    0  502 -0.11260205338E+04  0.40912122232E+03 -0.90650171930E+03  0.15023479614E+04  0.12699999809E+01 0. -1.
</event>
<event>
 5   0  0.1796750E-06  0.2424761E+04  0.7818609E-02  0.8430291E-01
       -3   -1    0    0    0  501  0.00000000000E+00  0.00000000000E+00  0.78023704851E+03  0.78023705505E+03  0.10100000352E+00 0. -1.
        3   -1    0    0  501    0  0.00000000000E+00  0.00000000000E+00 -0.18838713103E+04  0.18838713130E+04  0.10100000352E+00 0.  1.
    10030    2    1    2    0    0  0.00000000000E+00  0.00000000000E+00 -0.11036342618E+04  0.26641083681E+04  0.24247607744E+04 0.  0.
        3    1    3    3  502    0 -0.11980701620E+04  0.14891469800E+03 -0.67376150678E+03  0.13825708946E+04  0.10100000352E+00 0. -1.
       -3    1    3    3    0  502  0.11980701620E+04 -0.14891469800E+03 -0.42987275504E+03  0.12815374735E+04  0.10100000352E+00 0.  1.
</event>
<event>
 5   0  0.5440503E-06  0.2423127E+04  0.7818609E-02  0.8430896E-01
        2   -1    0    0  501    0  0.00000000000E+00  0.00000000000E+00  0.12318213513E+04  0.12318213513E+04  0.25500000920E-02 0. -1.
       -2   -1    0    0    0  501  0.00000000000E+00  0.00000000000E+00 -0.11916384610E+04  0.11916384610E+04  0.25500000920E-02 0.  1.
    10030    2    1    2    0    0  0.00000000000E+00  0.00000000000E+00  0.40182890304E+02  0.24234598123E+04  0.24231266573E+04 0.  0.
        3    1    3    3  502    0 -0.31231549111E+03  0.11687182134E+04 -0.46569506735E+02  0.12106246146E+04  0.10100000352E+00 0.  1.
       -3    1    3    3    0  502  0.31231549111E+03 -0.11687182134E+04  0.86752397039E+02  0.12128351977E+04  0.10100000352E+00 0. -1.
</event>
<event>
 5   0  0.5371843E-06  0.2399383E+04  0.7818609E-02  0.8439735E-01
       -2   -1    0    0    0  501  0.00000000000E+00  0.00000000000E+00  0.54929732487E+03  0.54929732488E+03  0.25500000920E-02 0.  1.
        2   -1    0    0  501    0  0.00000000000E+00  0.00000000000E+00 -0.26201829074E+04  0.26201829074E+04  0.25500000920E-02 0. -1.
    10030    2    1    2    0    0  0.00000000000E+00  0.00000000000E+00 -0.20708855826E+04  0.31694802323E+04  0.23993828054E+04 0.  0.
        4    1    3    3  502    0 -0.92956939341E+03  0.60794065522E+03 -0.43652813423E+03  0.11934192567E+04  0.12699999809E+01 0.  1.
       -4    1    3    3    0  502  0.92956939341E+03 -0.60794065522E+03 -0.16343574483E+04  0.19760609756E+04  0.12699999809E+01 0. -1.
</event>
<event>
 5   0  0.5349036E-06  0.2389181E+04  0.7818609E-02  0.8443565E-01
        2   -1    0    0  501    0  0.00000000000E+00  0.00000000000E+00  0.22613250643E+04  0.22613250643E+04  0.25500000920E-02 0. -1.
       -2   -1    0    0    0  501  0.00000000000E+00  0.00000000000E+00 -0.63106663112E+03  0.63106663113E+03  0.25500000920E-02 0.  1.
    10030    2    1    2    0    0  0.00000000000E+00  0.00000000000E+00  0.16302584331E+04  0.28923916954E+04  0.23891812742E+04 0.  0.
        1    1    3    3  502    0  0.11672922497E+04 -0.76810578579E+02  0.52212973298E+03  0.12810505530E+04  0.50400001928E-02 0.  1.
       -1    1    3    3    0  502 -0.11672922497E+04  0.76810578579E+02  0.11081287002E+04  0.16113411424E+04  0.50400001928E-02 0. -1.
</event>
<event>
 5   0  0.2149029E-06  0.2404299E+04  0.7818609E-02  0.8437896E-01
        1   -1    0    0  501    0  0.00000000000E+00  0.00000000000E+00  0.13798268586E+04  0.13798268586E+04  0.50400001928E-02 0.  1.
       -1   -1    0    0    0  501  0.00000000000E+00  0.00000000000E+00 -0.10473514807E+04  0.10473514807E+04  0.50400001928E-02 0. -1.
    10030    2    1    2    0    0  0.00000000000E+00  0.00000000000E+00  0.33247537791E+03  0.24271783393E+04  0.24042992355E+04 0.  0.
        4    1    3    3  502    0  0.72385549225E+03  0.95966739539E+03  0.18167394815E+03  0.12157036316E+04  0.12699999809E+01 0.  1.
       -4    1    3    3    0  502 -0.72385549225E+03 -0.95966739539E+03  0.15080142977E+03  0.12114747078E+04  0.12699999809E+01 0. -1.
</event>
<event>
 5   0  0.5440503E-06  0.2399797E+04  0.7818609E-02  0.8439580E-01
       -2   -1    0    0    0  501  0.00000000000E+00  0.00000000000E+00  0.60725877297E+03  0.60725877297E+03  0.25500000920E-02 0.  1.
        2   -1    0    0  501    0  0.00000000000E+00  0.00000000000E+00 -0.23709099081E+04  0.23709099081E+04  0.25500000920E-02 0. -1.
    10030    2    1    2    0    0  0.00000000000E+00  0.00000000000E+00 -0.17636511351E+04  0.29781686811E+04  0.23997965261E+04 0.  0.
        3    1    3    3  502    0  0.37607267983E+03 -0.11166982717E+04 -0.11629356841E+04  0.16555558300E+04  0.10100000352E+00 0.  1.
       -3    1    3    3    0  502 -0.37607267983E+03  0.11166982717E+04 -0.60071545104E+03  0.13226128511E+04  0.10100000352E+00 0. -1.
</event>
<event>
 5   0  0.5379778E-06  0.2401334E+04  0.7818609E-02  0.8439004E-01
        2   -1    0    0  501    0  0.00000000000E+00  0.00000000000E+00  0.19151545722E+04  0.19151545722E+04  0.25500000920E-02 0.  1.
       -2   -1    0    0    0  501  0.00000000000E+00  0.00000000000E+00 -0.75273372193E+03  0.75273372194E+03  0.25500000920E-02 0. -1.
    10030    2    1    2    0    0  0.00000000000E+00  0.00000000000E+00  0.11624208502E+04  0.26678882941E+04  0.24013341535E+04 0.  0.
        5    1    3    3  502    0  0.38364767392E+03 -0.29650480743E+03  0.18015336405E+04  0.18656489987E+04  0.46999998093E+01 0.  1.
       -5    1    3    3    0  502 -0.38364767392E+03  0.29650480743E+03 -0.63911279022E+03  0.80223929544E+03  0.46999998093E+01 0. -1.
</event>
<event>
 5   0  0.2215700E-06  0.2402256E+04  0.7818609E-02  0.8438659E-01
        1   -1    0    0  501    0  0.00000000000E+00  0.00000000000E+00  0.17848416644E+04  0.17848416644E+04  0.50400001928E-02 0.  1.
       -1   -1    0    0    0  501  0.00000000000E+00  0.00000000000E+00 -0.80831206002E+03  0.80831206003E+03  0.50400001928E-02 0. -1.
    10030    2    1    2    0    0  0.00000000000E+00  0.00000000000E+00  0.97652960440E+03  0.25931537245E+04  0.24022564747E+04 0.  0.
        3    1    3    3  502    0  0.39421996394E+03 -0.64274533378E+03  0.14975382515E+04  0.16766489701E+04  0.10100000352E+00 0.  1.
       -3    1    3    3    0  502 -0.39421996394E+03  0.64274533378E+03 -0.52100864715E+03  0.91650475431E+03  0.10100000352E+00 0. -1.
</event>
<event>
 5   0  0.2149029E-06  0.2388984E+04  0.7818609E-02  0.8443639E-01
        1   -1    0    0  501    0  0.00000000000E+00  0.00000000000E+00  0.91194144373E+03  0.91194144374E+03  0.50400001928E-02 0.  1.
       -1   -1    0    0    0  501  0.00000000000E+00  0.00000000000E+00 -0.15645866227E+04  0.15645866228E+04  0.50400001928E-02 0. -1.
    10030    2    1    2    0    0  0.00000000000E+00  0.00000000000E+00 -0.65264517902E+03  0.24765280665E+04  0.23889842056E+04 0.  0.
        4    1    3    3  502    0  0.11589691263E+04  0.47688149497E+02 -0.30694872120E+02  0.11603565760E+04  0.12699999809E+01 0.  1.
       -4    1    3    3    0  502 -0.11589691263E+04 -0.47688149497E+02 -0.62195030690E+03  0.13161714905E+04  0.12699999809E+01 0. -1.
</event>
<event>
 5   0  0.5371843E-06  0.2397464E+04  0.7818609E-02  0.8440454E-01
       -2   -1    0    0    0  501  0.00000000000E+00  0.00000000000E+00  0.10440027837E+04  0.10440027837E+04  0.25500000920E-02 0.  1.
        2   -1    0    0  501    0  0.00000000000E+00  0.00000000000E+00 -0.13763927720E+04  0.13763927720E+04  0.25500000920E-02 0. -1.
    10030    2    1    2    0    0  0.00000000000E+00  0.00000000000E+00 -0.33238998837E+03  0.24203955557E+04  0.23974635642E+04 0.  0.
        4    1    3    3  502    0 -0.20835803782E+03 -0.99719020664E+03 -0.80402516651E+03  0.12977902224E+04  0.12699999809E+01 0. -1.
       -4    1    3    3    0  502  0.20835803782E+03  0.99719020664E+03  0.47163517814E+03  0.11226053333E+04  0.12699999809E+01 0.  1.
</event>
<event>
 5   0  0.2215700E-06  0.2400973E+04  0.7818609E-02  0.8439140E-01
        1   -1    0    0  501    0  0.00000000000E+00  0.00000000000E+00  0.18727687385E+04  0.18727687385E+04  0.50400001928E-02 0. -1.
       -1   -1    0    0    0  501  0.00000000000E+00  0.00000000000E+00 -0.76953828312E+03  0.76953828313E+03  0.50400001928E-02 0.  1.
    10030    2    1    2    0    0  0.00000000000E+00  0.00000000000E+00  0.11032304554E+04  0.26423070217E+04  0.24009725028E+04 0.  0.
        3    1    3    3  502    0  0.12419630787E+03 -0.36542604786E+03  0.18026287997E+04  0.18434835283E+04  0.10100000352E+00 0. -1.
       -3    1    3    3    0  502 -0.12419630787E+03  0.36542604786E+03 -0.69939834431E+03  0.79882349337E+03  0.10100000352E+00 0.  1.
</event>
<event>
 5   0  0.5379778E-06  0.2388854E+04  0.7818609E-02  0.8443688E-01
        2   -1    0    0  501    0  0.00000000000E+00  0.00000000000E+00  0.14733672102E+04  0.14733672102E+04  0.25500000920E-02 0.  1.
       -2   -1    0    0    0  501  0.00000000000E+00  0.00000000000E+00 -0.96829647678E+03  0.96829647679E+03  0.25500000920E-02 0. -1.
    10030    2    1    2    0    0  0.00000000000E+00  0.00000000000E+00  0.50507073345E+03  0.24416636870E+04  0.23888543519E+04 0.  0.
        5    1    3    3  502    0 -0.46056538126E+03  0.70393130204E+03 -0.61414496066E+03  0.10415545454E+04  0.46999998093E+01 0. -1.
       -5    1    3    3    0  502  0.46056538126E+03 -0.70393130204E+03  0.11192156941E+04  0.14001091416E+04  0.46999998093E+01 0.  1.
</event>
<event>
 5   0  0.5268358E-06  0.2395389E+04  0.7818609E-02  0.8441232E-01
        2   -1    0    0  501    0  0.00000000000E+00  0.00000000000E+00  0.27900920752E+04  0.27900920752E+04  0.25500000920E-02 0. -1.
       -2   -1    0    0    0  501  0.00000000000E+00  0.00000000000E+00 -0.51413095395E+03  0.51413095395E+03  0.25500000920E-02 0.  1.
    10030    2    1    2    0    0  0.00000000000E+00  0.00000000000E+00  0.22759611212E+04  0.33042230291E+04  0.23953894884E+04 0.  0.
        2    1    3    3  502    0  0.31819598605E+03  0.10986544391E+04  0.16279767149E+04  0.19896226895E+04  0.25500000920E-02 0. -1.
       -2    1    3    3    0  502 -0.31819598605E+03 -0.10986544391E+04  0.64798440631E+03  0.13146003397E+04  0.25500000920E-02 0.  1.
</event>
<event>
 5   0  0.5379778E-06  0.2397748E+04  0.7818609E-02  0.8440347E-01
       -2   -1    0    0    0  501  0.00000000000E+00  0.00000000000E+00  0.10353941971E+04  0.10353941971E+04  0.25500000920E-02 0. -1.
        2   -1    0    0  501    0  0.00000000000E+00  0.00000000000E+00 -0.13881655881E+04  0.13881655881E+04  0.25500000920E-02 0.  1.
    10030    2    1    2    0    0  0.00000000000E+00  0.00000000000E+00 -0.35277139098E+03  0.24235597852E+04  0.23977477720E+04 0.  0.
        5    1    3    3  502    0 -0.22287548533E+03  0.47078358842E+03  0.91503743609E+03  0.10529132293E+04  0.46999998093E+01 0. -1.
       -5    1    3    3    0  502  0.22287548533E+03 -0.47078358842E+03 -0.12678088271E+04  0.13706465559E+04  0.46999998093E+01 0.  1.
</event>
<event>
 5   0  0.2149417E-06  0.2397723E+04  0.7818609E-02  0.8440356E-01
       -1   -1    0    0    0  501  0.00000000000E+00  0.00000000000E+00  0.10900623894E+04  0.10900623894E+04  0.50400001928E-02 0.  1.
        1   -1    0    0  501    0  0.00000000000E+00  0.00000000000E+00 -0.13185201702E+04  0.13185201702E+04  0.50400001928E-02 0. -1.
    10030    2    1    2    0    0  0.00000000000E+00  0.00000000000E+00 -0.22845778081E+03  0.24085825596E+04  0.23977232928E+04 0.  0.
        5    1    3    3  502    0 -0.76432474211E+03 -0.52701824173E+03  0.64769599832E+03  0.11320215258E+04  0.46999998093E+01 0. -1.
       -5    1    3    3    0  502  0.76432474211E+03  0.52701824173E+03 -0.87615377913E+03  0.12765610339E+04  0.46999998093E+01 0.  1.
</event>
<event>
 5   0  0.2149029E-06  0.2392526E+04  0.7818609E-02  0.8442307E-01
        1   -1    0    0  501    0  0.00000000000E+00  0.00000000000E+00  0.14388966793E+04  0.14388966793E+04  0.50400001928E-02 0. -1.
       -1   -1    0    0    0  501  0.00000000000E+00  0.00000000000E+00 -0.99454314110E+03  0.99454314111E+03  0.50400001928E-02 0.  1.
    10030    2    1    2    0    0  0.00000000000E+00  0.00000000000E+00  0.44435353820E+03  0.24334398204E+04  0.23925257141E+04 0.  0.
        4    1    3    3  502    0 -0.33028925569E+03  0.76445365144E+02 -0.94465921619E+03  0.10036520980E+04  0.12699999809E+01 0.  1.
       -4    1    3    3    0  502  0.33028925569E+03 -0.76445365144E+02  0.13890127544E+04  0.14297877224E+04  0.12699999809E+01 0. -1.
</event>
<event>
 5   0  0.5440503E-06  0.2401190E+04  0.7818609E-02  0.8439058E-01
        2   -1    0    0  501    0  0.00000000000E+00  0.00000000000E+00  0.12456356013E+04  0.12456356013E+04  0.25500000920E-02 0.  1.
       -2   -1    0    0    0  501  0.00000000000E+00  0.00000000000E+00 -0.11571829158E+04  0.11571829158E+04  0.25500000920E-02 0. -1.
    10030    2    1    2    0    0  0.00000000000E+00  0.00000000000E+00  0.88452685504E+02  0.24028185171E+04  0.24011899026E+04 0.  0.
        3    1    3    3  502    0  0.48085055492E+03 -0.77746207543E+03 -0.73460977151E+03  0.11727387013E+04  0.10100000352E+00 0. -1.
       -3    1    3    3    0  502 -0.48085055492E+03  0.77746207543E+03  0.82306245701E+03  0.12300798158E+04  0.10100000352E+00 0.  1.
</event>
<event>
 5   0  0.2254269E-06  0.2400206E+04  0.7818609E-02  0.8439426E-01
       -1   -1    0    0    0  501  0.00000000000E+00  0.00000000000E+00  0.10901898264E+04  0.10901898264E+04  0.50400001928E-02 0. -1.
        1   -1    0    0  501    0  0.00000000000E+00  0.00000000000E+00 -0.13210978264E+04  0.13210978264E+04  0.50400001928E-02 0.  1.
    10030    2    1    2    0    0  0.00000000000E+00  0.00000000000E+00 -0.23090799996E+03  0.24112876528E+04  0.24002061662E+04 0.  0.
        2    1    3    3  502    0  0.44210361278E+03 -0.64249730343E+03 -0.10317995450E+04  0.12933942517E+04  0.25500000920E-02 0.  1.
       -2    1    3    3    0  502 -0.44210361278E+03  0.64249730343E+03  0.80089154500E+03  0.11178934011E+04  0.25500000920E-02 0. -1.
</event>
<event>
 5   0  0.5371843E-06  0.2401280E+04  0.7818609E-02  0.8439024E-01
       -2   -1    0    0    0  501  0.00000000000E+00  0.00000000000E+00  0.70529301277E+03  0.70529301277E+03  0.25500000920E-02 0.  1.
        2   -1    0    0  501    0  0.00000000000E+00  0.00000000000E+00 -0.20438832387E+04  0.20438832387E+04  0.25500000920E-02 0. -1.
    10030    2    1    2    0    0  0.00000000000E+00  0.00000000000E+00 -0.13385902260E+04  0.27491762515E+04  0.24012801313E+04 0.  0.
        4    1    3    3  502    0  0.15697516597E+03  0.22929359771E+03  0.66797023840E+03  0.72346569302E+03  0.12699999809E+01 0.  1.
       -4    1    3    3    0  502 -0.15697516597E+03 -0.22929359771E+03 -0.20065604644E+04  0.20257105585E+04  0.12699999809E+01 0. -1.
</event>
<event>
 5   0  0.2149029E-06  0.2397221E+04  0.7818609E-02  0.8440545E-01
        1   -1    0    0  501    0  0.00000000000E+00  0.00000000000E+00  0.25797923230E+04  0.25797923230E+04  0.50400001928E-02 0.  1.
       -1   -1    0    0    0  501  0.00000000000E+00  0.00000000000E+00 -0.55689274842E+03  0.55689274844E+03  0.50400001928E-02 0. -1.
    10030    2    1    2    0    0  0.00000000000E+00  0.00000000000E+00  0.20228995745E+04  0.31366850714E+04  0.23972214225E+04 0.  0.
        4    1    3    3  502    0 -0.58977763966E+03  0.31094743206E+02  0.23761886721E+04  0.24484849939E+04  0.12699999809E+01 0.  1.
       -4    1    3    3    0  502  0.58977763966E+03 -0.31094743206E+02 -0.35328909753E+03  0.68820007747E+03  0.12699999809E+01 0. -1.
</event>
<event>
 5   0  0.2297414E-06  0.2395538E+04  0.7818609E-02  0.8441176E-01
       -1   -1    0    0    0  501  0.00000000000E+00  0.00000000000E+00  0.18016491274E+04  0.18016491274E+04  0.50400001928E-02 0. -1.
        1   -1    0    0  501    0  0.00000000000E+00  0.00000000000E+00 -0.79629830465E+03  0.79629830466E+03  0.50400001928E-02 0.  1.
    10030    2    1    2    0    0  0.00000000000E+00  0.00000000000E+00  0.10053508228E+04  0.25979474321E+04  0.23955376397E+04 0.  0.
        1    1    3    3  502    0 -0.11051730705E+04 -0.38248749776E+03  0.78327659278E+03  0.14075604507E+04  0.50400001928E-02 0. -1.
       -1    1    3    3    0  502  0.11051730705E+04  0.38248749776E+03  0.22207422998E+03  0.11903869813E+04  0.50400001928E-02 0.  1.
</event>
<event>
 5   0  0.2149417E-06  0.2402362E+04  0.7818609E-02  0.8438620E-01
        1   -1    0    0  501    0  0.00000000000E+00  0.00000000000E+00  0.96413634455E+03  0.96413634457E+03  0.50400001928E-02 0. -1.
       -1   -1    0    0    0  501  0.00000000000E+00  0.00000000000E+00 -0.14965061695E+04  0.14965061695E+04  0.50400001928E-02 0.  1.
    10030    2    1    2    0    0  0.00000000000E+00  0.00000000000E+00 -0.53236982495E+03  0.24606425141E+04  0.24023621608E+04 0.  0.
        5    1    3    3  502    0  0.64996937056E+03  0.10101251628E+04 -0.26522910715E+03  0.12301144647E+04  0.46999998093E+01 0. -1.
       -5    1    3    3    0  502 -0.64996937056E+03 -0.10101251628E+04 -0.26714071780E+03  0.12305280493E+04  0.46999998093E+01 0.  1.
</event>
<event>
 5   0  0.2215700E-06  0.2399392E+04  0.7818609E-02  0.8439731E-01
        1   -1    0    0  501    0  0.00000000000E+00  0.00000000000E+00  0.13921281001E+04  0.13921281002E+04  0.50400001928E-02 0.  1.
       -1   -1    0    0    0  501  0.00000000000E+00  0.00000000000E+00 -0.10338639648E+04  0.10338639648E+04  0.50400001928E-02 0. -1.
    10030    2    1    2    0    0  0.00000000000E+00  0.00000000000E+00  0.35826413534E+03  0.24259920650E+04  0.23993924874E+04 0.  0.
        3    1    3    3  502    0 -0.41014225407E+03  0.11009983670E+04 -0.66162042760E+02  0.11767716426E+04  0.10100000352E+00 0. -1.
       -3    1    3    3    0  502  0.41014225407E+03 -0.11009983670E+04  0.42442617810E+03  0.12492204224E+04  0.10100000352E+00 0.  1.
</event>
<event>
 5   0  0.5268358E-06  0.2385778E+04  0.7818609E-02  0.8444847E-01
        2   -1    0    0  501    0  0.00000000000E+00  0.00000000000E+00  0.11957824994E+04  0.11957824994E+04  0.25500000920E-02 0.  1.
       -2   -1    0    0    0  501  0.00000000000E+00  0.00000000000E+00 -0.11900020485E+04  0.11900020485E+04  0.25500000920E-02 0. -1.
    10030    2    1    2    0    0  0.00000000000E+00  0.00000000000E+00  0.57804509505E+01  0.23857845479E+04  0.23857775452E+04 0.  0.
        2    1    3    3  502    0 -0.43730274105E+03  0.11055406842E+04 -0.94730407587E+02  0.11926557516E+04  0.25500000920E-02 0.  1.
       -2    1    3    3    0  502  0.43730274105E+03 -0.11055406842E+04  0.10051085854E+03  0.11931287963E+04  0.25500000920E-02 0. -1.
</event>
<event>
 5   0  0.2149029E-06  0.2400152E+04  0.7818609E-02  0.8439447E-01
       -1   -1    0    0    0  501  0.00000000000E+00  0.00000000000E+00  0.92927222510E+03  0.92927222512E+03  0.50400001928E-02 0.  1.
        1   -1    0    0  501    0  0.00000000000E+00  0.00000000000E+00 -0.15497963047E+04  0.15497963047E+04  0.50400001928E-02 0. -1.
    10030    2    1    2    0    0  0.00000000000E+00  0.00000000000E+00 -0.62052407956E+03  0.24790685298E+04  0.24001522123E+04 0.  0.
        4    1    3    3  502    0 -0.29142219460E+03  0.11792793059E+03 -0.15065076140E+04  0.15389609144E+04  0.12699999809E+01 0. -1.
       -4    1    3    3    0  502  0.29142219460E+03 -0.11792793059E+03  0.88598353440E+03  0.94010761536E+03  0.12699999809E+01 0.  1.
</event>
<event>
 5   0  0.5379778E-06  0.2402666E+04  0.7818609E-02  0.8438506E-01
       -2   -1    0    0    0  501  0.00000000000E+00  0.00000000000E+00  0.72821916943E+03  0.72821916944E+03  0.25500000920E-02 0.  1.
        2   -1    0    0  501    0  0.00000000000E+00  0.00000000000E+00 -0.19818228549E+04  0.19818228549E+04  0.25500000920E-02 0. -1.
    10030    2    1    2    0    0  0.00000000000E+00  0.00000000000E+00 -0.12536036855E+04  0.27100420244E+04  0.24026663467E+04 0.  0.
        5    1    3    3  502    0 -0.45973790158E+03  0.62247771715E+03  0.40963232006E+03  0.87559018618E+03  0.46999998093E+01 0.  1.
       -5    1    3    3    0  502  0.45973790158E+03 -0.62247771715E+03 -0.16632360056E+04  0.18344518382E+04  0.46999998093E+01 0. -1.
</event>
<event>
 5   0  0.5371843E-06  0.2401462E+04  0.7818609E-02  0.8438956E-01
        2   -1    0    0  501    0  0.00000000000E+00  0.00000000000E+00  0.13581147216E+04  0.13581147216E+04  0.25500000920E-02 0.  1.
       -2   -1    0    0    0  501  0.00000000000E+00  0.00000000000E+00 -0.10615855105E+04  0.10615855105E+04  0.25500000920E-02 0. -1.
    10030    2    1    2    0    0  0.00000000000E+00  0.00000000000E+00  0.29652921112E+03  0.24197002321E+04  0.24014619798E+04 0.  0.
        4    1    3    3  502    0 -0.98193173425E+03 -0.66427626572E+03 -0.43709039759E+02  0.11863241467E+04  0.12699999809E+01 0. -1.
       -4    1    3    3    0  502  0.98193173425E+03  0.66427626572E+03  0.34023825088E+03  0.12333760855E+04  0.12699999809E+01 0.  1.
</event>
<event>
 5   0  0.2215700E-06  0.2399365E+04  0.7818609E-02  0.8439741E-01
       -1   -1    0    0    0  501  0.00000000000E+00  0.00000000000E+00  0.10809965860E+04  0.10809965861E+04  0.50400001928E-02 0.  1.
        1   -1    0    0  501    0  0.00000000000E+00  0.00000000000E+00 -0.13313997547E+04  0.13313997547E+04  0.50400001928E-02 0. -1.
    10030    2    1    2    0    0  0.00000000000E+00  0.00000000000E+00 -0.25040316863E+03  0.24123963407E+04  0.23993654073E+04 0.  0.
        3    1    3    3  502    0 -0.10141519508E+04  0.94529500478E+02 -0.76251999315E+03  0.12723508777E+04  0.10100000352E+00 0. -1.
       -3    1    3    3    0  502  0.10141519508E+04 -0.94529500478E+02  0.51211682452E+03  0.11400454631E+04  0.10100000352E+00 0.  1.
</event>
<event>
 5   0  0.5379778E-06  0.2395522E+04  0.7818609E-02  0.8441182E-01
       -2   -1    0    0    0  501  0.00000000000E+00  0.00000000000E+00  0.77174817317E+03  0.77174817317E+03  0.25500000920E-02 0. -1.
        2   -1    0    0  501    0  0.00000000000E+00  0.00000000000E+00 -0.18589373113E+04  0.18589373113E+04  0.25500000920E-02 0.  1.
    10030    2    1    2    0    0  0.00000000000E+00  0.00000000000E+00 -0.10871891382E+04  0.26306854845E+04  0.23955220509E+04 0.  0.
        5    1    3    3  502    0  0.38706760858E+03 -0.23181970897E+03  0.67485116375E+03  0.81179301198E+03  0.46999998093E+01 0. -1.
       -5    1    3    3    0  502 -0.38706760858E+03  0.23181970897E+03 -0.17620403019E+04  0.18188924725E+04  0.46999998093E+01 0.  1.
</event>
<event>
 5   0  0.5349036E-06  0.2397639E+04  0.7818609E-02  0.8440388E-01
       -2   -1    0    0    0  501  0.00000000000E+00  0.00000000000E+00  0.14579335683E+04  0.14579335683E+04  0.25500000920E-02 0.  1.
        2   -1    0    0  501    0  0.00000000000E+00  0.00000000000E+00 -0.98575681231E+03  0.98575681231E+03  0.25500000920E-02 0. -1.
    10030    2    1    2    0    0  0.00000000000E+00  0.00000000000E+00  0.47217675596E+03  0.24436903806E+04  0.23976387942E+04 0.  0.
        1    1    3    3  502    0  0.19858486401E+03 -0.78451626163E+03 -0.66535761913E+03  0.10476652492E+04  0.50400001928E-02 0. -1.
       -1    1    3    3    0  502 -0.19858486401E+03  0.78451626163E+03  0.11375343751E+04  0.13960251314E+04  0.50400001928E-02 0.  1.
</event>
<event>
 5   0  0.5440503E-06  0.2423042E+04  0.7818609E-02  0.8430927E-01
       -2   -1    0    0    0  501  0.00000000000E+00  0.00000000000E+00  0.15164437357E+04  0.15164437357E+04  0.25500000920E-02 0. -1.
        2   -1    0    0  501    0  0.00000000000E+00  0.00000000000E+00 -0.96791117986E+03  0.96791117986E+03  0.25500000920E-02 0.  1.
    10030    2    1    2    0    0  0.00000000000E+00  0.00000000000E+00  0.54853255583E+03  0.24843549156E+04  0.24230417623E+04 0.  0.
        3    1    3    3  502    0 -0.26723793477E+03  0.11806626728E+04  0.22401199328E+03  0.12310815749E+04  0.10100000352E+00 0. -1.
       -3    1    3    3    0  502  0.26723793477E+03 -0.11806626728E+04  0.32452056256E+03  0.12532733407E+04  0.10100000352E+00 0.  1.
</event>
<event>
 5   0  0.2297414E-06  0.2397931E+04  0.7818609E-02  0.8440279E-01
       -1   -1    0    0    0  501  0.00000000000E+00  0.00000000000E+00  0.13117166842E+04  0.13117166842E+04  0.50400001928E-02 0.  1.
        1   -1    0    0  501    0  0.00000000000E+00  0.00000000000E+00 -0.10959061277E+04  0.10959061277E+04  0.50400001928E-02 0. -1.
    10030    2    1    2    0    0  0.00000000000E+00  0.00000000000E+00  0.21581055649E+03  0.24076228119E+04  0.23979310683E+04 0.  0.
        1    1    3    3  502    0  0.84201382590E+03  0.43802519620E+03 -0.62762980079E+03  0.11378807154E+04  0.50400001928E-02 0. -1.
       -1    1    3    3    0  502 -0.84201382590E+03 -0.43802519620E+03  0.84344035728E+03  0.12697420966E+04  0.50400001928E-02 0.  1.
</event>
<event>
 5   0  0.2254269E-06  0.2398723E+04  0.7818609E-02  0.8439982E-01
       -1   -1    0    0    0  501  0.00000000000E+00  0.00000000000E+00  0.11137017049E+04  0.11137017049E+04  0.50400001928E-02 0.  1.
        1   -1    0    0  501    0  0.00000000000E+00  0.00000000000E+00 -0.12916095494E+04  0.12916095495E+04  0.50400001928E-02 0. -1.
    10030    2    1    2    0    0  0.00000000000E+00  0.00000000000E+00 -0.17790784459E+03  0.24053112543E+04  0.23987227912E+04 0.  0.
        2    1    3    3  502    0 -0.13354697844E+03  0.39413076184E+03 -0.12168963413E+04  0.12860834182E+04  0.25500000920E-02 0. -1.
       -2    1    3    3    0  502  0.13354697844E+03 -0.39413076184E+03  0.10389884968E+04  0.11192278362E+04  0.25500000920E-02 0.  1.
</event>
<event>
 5   0  0.5349036E-06  0.2395040E+04  0.7818609E-02  0.8441363E-01
        2   -1    0    0  501    0  0.00000000000E+00  0.00000000000E+00  0.12001550644E+04  0.12001550644E+04  0.25500000920E-02 0. -1.
       -2   -1    0    0    0  501  0.00000000000E+00  0.00000000000E+00 -0.11948911556E+04  0.11948911556E+04  0.25500000920E-02 0.  1.
    10030    2    1    2    0    0  0.00000000000E+00  0.00000000000E+00  0.52639088206E+01  0.23950462200E+04  0.23950404354E+04 0.  0.
        1    1    3    3  502    0  0.12831073678E+03 -0.96538095178E+03 -0.69424177186E+03  0.11959914987E+04  0.50400001928E-02 0.  1.
       -1    1    3    3    0  502 -0.12831073678E+03  0.96538095178E+03  0.69950568068E+03  0.11990547213E+04  0.50400001928E-02 0. -1.
</event>
<event>
 5   0  0.5440503E-06  0.2375607E+04  0.7818609E-02  0.8448693E-01
       -2   -1    0    0    0  501  0.00000000000E+00  0.00000000000E+00  0.11580382797E+04  0.11580382797E+04  0.25500000920E-02 0. -1.
        2   -1    0    0  501    0  0.00000000000E+00  0.00000000000E+00 -0.12183333974E+04  0.12183333974E+04  0.25500000920E-02 0.  1.
    10030    2    1    2    0    0  0.00000000000E+00  0.00000000000E+00 -0.60295117679E+02  0.23763716772E+04  0.23756066271E+04 0.  0.
        3    1    3    3  502    0 -0.19235667541E+03  0.13796260454E+03  0.11342040671E+04  0.11586430196E+04  0.10100000352E+00 0. -1.
       -3    1    3    3    0  502  0.19235667541E+03 -0.13796260454E+03 -0.11944991848E+04  0.12177286576E+04  0.10100000352E+00 0.  1.
</event>
<event>
 5   0  0.2149417E-06  0.2399868E+04  0.7818609E-02  0.8439553E-01
       -1   -1    0    0    0  501  0.00000000000E+00  0.00000000000E+00  0.62688283209E+03  0.62688283211E+03  0.50400001928E-02 0.  1.
        1   -1    0    0  501    0  0.00000000000E+00  0.00000000000E+00 -0.22968273896E+04  0.22968273896E+04  0.50400001928E-02 0. -1.
    10030    2    1    2    0    0  0.00000000000E+00  0.00000000000E+00 -0.16699445575E+04  0.29237102217E+04  0.23998680454E+04 0.  0.
        5    1    3    3  502    0  0.25764528046E+03  0.19218248751E+03 -0.22433921847E+04  0.22663066393E+04  0.46999998093E+01 0. -1.
       -5    1    3    3    0  502 -0.25764528046E+03 -0.19218248751E+03  0.57344762718E+03  0.65740358241E+03  0.46999998093E+01 0.  1.
</event>
<event>
 5   0  0.5440503E-06  0.2406847E+04  0.7818609E-02  0.8436945E-01
       -2   -1    0    0    0  501  0.00000000000E+00  0.00000000000E+00  0.72982320884E+03  0.72982320884E+03  0.25500000920E-02 0. -1.
        2   -1    0    0  501    0  0.00000000000E+00  0.00000000000E+00 -0.19843550091E+04  0.19843550091E+04  0.25500000920E-02 0.  1.
    10030    2    1    2    0    0  0.00000000000E+00  0.00000000000E+00 -0.12545318003E+04  0.27141782180E+04  0.24068471827E+04 0.  0.
        3    1    3    3  502    0 -0.23152888885E+03 -0.84976292793E+03 -0.15520583536E+04  0.17845413425E+04  0.10100000352E+00 0. -1.
       -3    1    3    3    0  502  0.23152888885E+03  0.84976292793E+03  0.29752655330E+03  0.92963687544E+03  0.10100000352E+00 0.  1.
</event>
<event>
 5   0  0.2149029E-06  0.2398223E+04  0.7818609E-02  0.8440169E-01
       -1   -1    0    0    0  501  0.00000000000E+00  0.00000000000E+00  0.64298081618E+03  0.64298081620E+03  0.50400001928E-02 0. -1.
        1   -1    0    0  501    0  0.00000000000E+00  0.00000000000E+00 -0.22362542478E+04  0.22362542478E+04  0.50400001928E-02 0.  1.
    10030    2    1    2    0    0  0.00000000000E+00  0.00000000000E+00 -0.15932734316E+04  0.28792350640E+04  0.23982231601E+04 0.  0.
        4    1    3    3  502    0  0.28011456785E+02  0.71604954267E+03  0.35763224249E+03  0.80088327678E+03  0.12699999809E+01 0. -1.
       -4    1    3    3    0  502 -0.28011456785E+02 -0.71604954267E+03 -0.19509056741E+04  0.20783517872E+04  0.12699999809E+01 0.  1.
</event>
<event>
 5   0  0.2149029E-06  0.2401734E+04  0.7818609E-02  0.8438855E-01
       -1   -1    0    0    0  501  0.00000000000E+00  0.00000000000E+00  0.10578285013E+04  0.10578285013E+04  0.50400001928E-02 0. -1.
        1   -1    0    0  501    0  0.00000000000E+00  0.00000000000E+00 -0.13632470630E+04  0.13632470630E+04  0.50400001928E-02 0.  1.
    10030    2    1    2    0    0  0.00000000000E+00  0.00000000000E+00 -0.30541856172E+03  0.24210755643E+04  0.24017340382E+04 0.  0.
        4    1    3    3  502    0  0.45913411603E+03  0.81122052248E+03  0.61048556395E+03  0.11142607905E+04  0.12699999809E+01 0.  1.
       -4    1    3    3    0  502 -0.45913411603E+03 -0.81122052248E+03 -0.91590412566E+03  0.13068147738E+04  0.12699999809E+01 0. -1.
</event>
<event>
 5   0  0.5440503E-06  0.2393241E+04  0.7818609E-02  0.8442038E-01
       -2   -1    0    0    0  501  0.00000000000E+00  0.00000000000E+00  0.19982091014E+04  0.19982091014E+04  0.25500000920E-02 0.  1.
        2   -1    0    0  501    0  0.00000000000E+00  0.00000000000E+00 -0.71659209524E+03  0.71659209524E+03  0.25500000920E-02 0. -1.
    10030    2    1    2    0    0  0.00000000000E+00  0.00000000000E+00  0.12816170062E+04  0.27148011967E+04  0.23932411886E+04 0.  0.
        3    1    3    3  502    0  0.52525198676E+03 -0.19256158130E+03  0.18407311771E+04  0.19238661307E+04  0.10100000352E+00 0.  1.
       -3    1    3    3    0  502 -0.52525198676E+03  0.19256158130E+03 -0.55911417096E+03  0.79093506595E+03  0.10100000352E+00 0. -1.
</event>
<event>
 5   0  0.2149417E-06  0.2386249E+04  0.7818609E-02  0.8444670E-01
       -1   -1    0    0    0  501  0.00000000000E+00  0.00000000000E+00  0.12310758232E+04  0.12310758232E+04  0.50400001928E-02 0.  1.
        1   -1    0    0  501    0  0.00000000000E+00  0.00000000000E+00 -0.11563427591E+04  0.11563427591E+04  0.50400001928E-02 0. -1.
    10030    2    1    2    0    0  0.00000000000E+00  0.00000000000E+00  0.74733064043E+02  0.23874185823E+04  0.23862486158E+04 0.  0.
        5    1    3    3  502    0 -0.73834508560E+03  0.33132507292E+02  0.97445390870E+03  0.12230428196E+04  0.46999998093E+01 0.  1.
       -5    1    3    3    0  502  0.73834508560E+03 -0.33132507292E+02 -0.89972084466E+03  0.11643757627E+04  0.46999998093E+01 0. -1.
</event>
<event>
 5   0  0.2297414E-06  0.2401047E+04  0.7818609E-02  0.8439112E-01
       -1   -1    0    0    0  501  0.00000000000E+00  0.00000000000E+00  0.66239057784E+03  0.66239057785E+03  0.50400001928E-02 0.  1.
        1   -1    0    0  501    0  0.00000000000E+00  0.00000000000E+00 -0.21758407540E+04  0.21758407540E+04  0.50400001928E-02 0. -1.
    10030    2    1    2    0    0  0.00000000000E+00  0.00000000000E+00 -0.15134501762E+04  0.28382313319E+04  0.24010467837E+04 0.  0.
        1    1    3    3  502    0  0.21164412557E+02 -0.89018175683E+03 -0.17085643639E+04  0.19266716581E+04  0.50400001928E-02 0. -1.
       -1    1    3    3    0  502 -0.21164412557E+02  0.89018175683E+03  0.19511418772E+03  0.91155967376E+03  0.50400001928E-02 0.  1.
</event>
<event>
 5   0  0.2149029E-06  0.2402886E+04  0.7818609E-02  0.8438424E-01
        1   -1    0    0  501    0  0.00000000000E+00  0.00000000000E+00  0.14125406400E+04  0.14125406400E+04  0.50400001928E-02 0. -1.
       -1   -1    0    0    0  501  0.00000000000E+00  0.00000000000E+00 -0.10218931633E+04  0.10218931633E+04  0.50400001928E-02 0.  1.
    10030    2    1    2    0    0  0.00000000000E+00  0.00000000000E+00  0.39064747666E+03  0.24344338033E+04  0.24028862836E+04 0.  0.
        4    1    3    3  502    0  0.11459188185E+04 -0.33955324636E+03  0.71085597074E+02  0.11972807192E+04  0.12699999809E+01 0.  1.
       -4    1    3    3    0  502 -0.11459188185E+04  0.33955324636E+03  0.31956187959E+03  0.12371530841E+04  0.12699999809E+01 0. -1.
</event>
<event>
 5   0  0.5268358E-06  0.2400596E+04  0.7818609E-02  0.8439280E-01
       -2   -1    0    0    0  501  0.00000000000E+00  0.00000000000E+00  0.76492174138E+03  0.76492174139E+03  0.25500000920E-02 0. -1.
        2   -1    0    0  501    0  0.00000000000E+00  0.00000000000E+00 -0.18834808088E+04  0.18834808088E+04  0.25500000920E-02 0.  1.
    10030    2    1    2    0    0  0.00000000000E+00  0.00000000000E+00 -0.11185590674E+04  0.26484025502E+04  0.24005961094E+04 0.  0.
        2    1    3    3  502    0 -0.20963382034E+03 -0.10352148383E+04 -0.11883118100E+04  0.15898745415E+04  0.25500000920E-02 0.  1.
       -2    1    3    3    0  502  0.20963382034E+03  0.10352148383E+04  0.69752742506E+02  0.10585280087E+04  0.25500000920E-02 0. -1.
</event>
<event>
 5   0  0.5268358E-06  0.2400431E+04  0.7818609E-02  0.8439342E-01
        2   -1    0    0  501    0  0.00000000000E+00  0.00000000000E+00  0.14429450184E+04  0.14429450184E+04  0.25500000920E-02 0. -1.
       -2   -1    0    0    0  501  0.00000000000E+00  0.00000000000E+00 -0.99831718044E+03  0.99831718045E+03  0.25500000920E-02 0.  1.
    10030    2    1    2    0    0  0.00000000000E+00  0.00000000000E+00  0.44462783798E+03  0.24412621989E+04  0.24004306300E+04 0.  0.
        2    1    3    3  502    0  0.72509247469E+03 -0.92040859655E+02 -0.74587018225E+03  0.10442954302E+04  0.25500000920E-02 0.  1.
       -2    1    3    3    0  502 -0.72509247469E+03  0.92040859655E+02  0.11904980202E+04  0.13969667687E+04  0.25500000920E-02 0. -1.
</event>
<event>
 5   0  0.5268358E-06  0.2413425E+04  0.7818609E-02  0.8434494E-01
       -2   -1    0    0    0  501  0.00000000000E+00  0.00000000000E+00  0.14952218285E+04  0.14952218285E+04  0.25500000920E-02 0. -1.
        2   -1    0    0  501    0  0.00000000000E+00  0.00000000000E+00 -0.97387258523E+03  0.97387258523E+03  0.25500000920E-02 0.  1.
    10030    2    1    2    0    0  0.00000000000E+00  0.00000000000E+00  0.52134924330E+03  0.24690944138E+04  0.24134254061E+04 0.  0.
        2    1    3    3  502    0  0.98204111323E+03  0.58549520094E+03  0.65551220555E+03  0.13179171560E+04  0.25500000920E-02 0. -1.
       -2    1    3    3    0  502 -0.98204111323E+03 -0.58549520094E+03 -0.13416296225E+03  0.11511772578E+04  0.25500000920E-02 0.  1.
</event>
<event>
 5   0  0.2254269E-06  0.2389699E+04  0.7818609E-02  0.8443370E-01
       -1   -1    0    0    0  501  0.00000000000E+00  0.00000000000E+00  0.10772732893E+04  0.10772732893E+04  0.50400001928E-02 0. -1.
        1   -1    0    0  501    0  0.00000000000E+00  0.00000000000E+00 -0.13252577124E+04  0.13252577124E+04  0.50400001928E-02 0.  1.
    10030    2    1    2    0    0  0.00000000000E+00  0.00000000000E+00 -0.24798442314E+03  0.24025310017E+04  0.23896985040E+04 0.  0.
        2    1    3    3  502    0 -0.24173131162E+03 -0.36951714996E+03 -0.12402189840E+04  0.13164801857E+04  0.25500000920E-02 0.  1.
       -2    1    3    3    0  502  0.24173131162E+03  0.36951714996E+03  0.99223456084E+03  0.10860508160E+04  0.25500000920E-02 0. -1.
</event>
<event>
 5   0  0.2149029E-06  0.2401597E+04  0.7818609E-02  0.8438906E-01
       -1   -1    0    0    0  501  0.00000000000E+00  0.00000000000E+00  0.13610475936E+04  0.13610475936E+04  0.50400001928E-02 0.  1.
        1   -1    0    0  501    0  0.00000000000E+00  0.00000000000E+00 -0.10594174182E+04  0.10594174182E+04  0.50400001928E-02 0. -1.
    10030    2    1    2    0    0  0.00000000000E+00  0.00000000000E+00  0.30163017537E+03  0.24204650119E+04  0.24015974082E+04 0.  0.
        4    1    3    3  502    0 -0.35699751010E+03 -0.15441631797E+03  0.12957967226E+04  0.13529162504E+04  0.12699999809E+01 0.  1.
       -4    1    3    3    0  502  0.35699751010E+03  0.15441631797E+03 -0.99416654723E+03  0.10675487614E+04  0.12699999809E+01 0. -1.
</event>
<event>
 5   0  0.2215700E-06  0.2397117E+04  0.7818609E-02  0.8440584E-01
       -1   -1    0    0    0  501  0.00000000000E+00  0.00000000000E+00  0.86711877379E+03  0.86711877380E+03  0.50400001928E-02 0.  1.
        1   -1    0    0  501    0  0.00000000000E+00  0.00000000000E+00 -0.16566843740E+04  0.16566843740E+04  0.50400001928E-02 0. -1.
    10030    2    1    2    0    0  0.00000000000E+00  0.00000000000E+00 -0.78956560022E+03  0.25238031478E+04  0.23971167039E+04 0.  0.
        3    1    3    3  502    0  0.15368165619E+03 -0.10590042935E+04  0.17359405412E+03  0.10840862746E+04  0.10100000352E+00 0.  1.
       -3    1    3    3    0  502 -0.15368165619E+03  0.10590042935E+04 -0.96315965434E+03  0.14397168732E+04  0.10100000352E+00 0. -1.
</event>
<event>
 5   0  0.5379778E-06  0.2396737E+04  0.7818609E-02  0.8440726E-01
        2   -1    0    0  501    0  0.00000000000E+00  0.00000000000E+00  0.10056320328E+04  0.10056320328E+04  0.25500000920E-02 0. -1.
       -2   -1    0    0    0  501  0.00000000000E+00  0.00000000000E+00 -0.14280444557E+04  0.14280444557E+04  0.25500000920E-02 0.  1.
    10030    2    1    2    0    0  0.00000000000E+00  0.00000000000E+00 -0.42241242296E+03  0.24336764885E+04  0.23967371561E+04 0.  0.
        5    1    3    3  502    0 -0.58756526839E+03 -0.27468567543E+03  0.81198485317E+03  0.10392433097E+04  0.46999998093E+01 0. -1.
       -5    1    3    3    0  502  0.58756526839E+03  0.27468567543E+03 -0.12343972761E+04  0.13944331788E+04  0.46999998093E+01 0.  1.
</event>
<event>
 5   0  0.2149029E-06  0.2397615E+04  0.7818609E-02  0.8440397E-01
       -1   -1    0    0    0  501  0.00000000000E+00  0.00000000000E+00  0.94961197940E+03  0.94961197941E+03  0.50400001928E-02 0. -1.
        1   -1    0    0  501    0  0.00000000000E+00  0.00000000000E+00 -0.15133965768E+04  0.15133965768E+04  0.50400001928E-02 0.  1.
    10030    2    1    2    0    0  0.00000000000E+00  0.00000000000E+00 -0.56378459739E+03  0.24630085562E+04  0.23976150808E+04 0.  0.
        4    1    3    3  502    0  0.77167865925E+03  0.26920135608E+03  0.61905754669E+03  0.10252761493E+04  0.12699999809E+01 0. -1.
       -4    1    3    3    0  502 -0.77167865925E+03 -0.26920135608E+03 -0.11828421441E+04  0.14377324069E+04  0.12699999809E+01 0.  1.
</event>
<event>
 5   0  0.5379778E-06  0.2403796E+04  0.7818609E-02  0.8438084E-01
       -2   -1    0    0    0  501  0.00000000000E+00  0.00000000000E+00  0.69490108431E+03  0.69490108432E+03  0.25500000920E-02 0.  1.
        2   -1    0    0  501    0  0.00000000000E+00  0.00000000000E+00 -0.20787977394E+04  0.20787977394E+04  0.25500000920E-02 0. -1.
    10030    2    1    2    0    0  0.00000000000E+00  0.00000000000E+00 -0.13838966551E+04  0.27736988237E+04  0.24037960007E+04 0.  0.
        5    1    3    3  502    0 -0.76789608061E+03 -0.82233705548E+03 -0.20425831161E+03  0.11435235771E+04  0.46999998093E+01 0.  1.
       -5    1    3    3    0  502  0.76789608061E+03  0.82233705548E+03 -0.11796383435E+04  0.16301752467E+04  0.46999998093E+01 0. -1.
</event>
<event>
 5   0  0.2149029E-06  0.2407215E+04  0.7818609E-02  0.8436807E-01
       -1   -1    0    0    0  501  0.00000000000E+00  0.00000000000E+00  0.99726682504E+03  0.99726682505E+03  0.50400001928E-02 0. -1.
        1   -1    0    0  501    0  0.00000000000E+00  0.00000000000E+00 -0.14526416064E+04  0.14526416064E+04  0.50400001928E-02 0.  1.
    10030    2    1    2    0    0  0.00000000000E+00  0.00000000000E+00 -0.45537478138E+03  0.24499084315E+04  0.24072152233E+04 0.  0.
        4    1    3    3  502    0  0.34558792220E+03 -0.54211257032E+03  0.80788168819E+03  0.10324686368E+04  0.12699999809E+01 0. -1.
       -4    1    3    3    0  502 -0.34558792220E+03  0.54211257032E+03 -0.12632564696E+04  0.14174397947E+04  0.12699999809E+01 0.  1.
</event>
<event>
 5   0  0.1796750E-06  0.2395314E+04  0.7818609E-02  0.8441260E-01
       -3   -1    0    0    0  501  0.00000000000E+00  0.00000000000E+00  0.11830117109E+04  0.11830117152E+04  0.10100000352E+00 0. -1.
        3   -1    0    0  501    0  0.00000000000E+00  0.00000000000E+00 -0.12124838140E+04  0.12124838182E+04  0.10100000352E+00 0.  1.
    10030    2    1    2    0    0  0.00000000000E+00  0.00000000000E+00 -0.29472103109E+02  0.23954955334E+04  0.23953142269E+04 0.  0.
        4    1    3    3  502    0  0.74842055661E+03 -0.35459022753E+03 -0.87996822096E+03  0.12083928342E+04  0.12699999809E+01 0.  1.
       -4    1    3    3    0  502 -0.74842055661E+03  0.35459022753E+03  0.85049611786E+03  0.11871026992E+04  0.12699999809E+01 0. -1.
</event>
<event>
 5   0  0.2215700E-06  0.2397115E+04  0.7818609E-02  0.8440584E-01
        1   -1    0    0  501    0  0.00000000000E+00  0.00000000000E+00  0.11015147702E+04  0.11015147702E+04  0.50400001928E-02 0.  1.
       -1   -1    0    0    0  501  0.00000000000E+00  0.00000000000E+00 -0.13041498158E+04  0.13041498158E+04  0.50400001928E-02 0. -1.
    10030    2    1    2    0    0  0.00000000000E+00  0.00000000000E+00 -0.20263504560E+03  0.24056645861E+04  0.23971151701E+04 0.  0.
        3    1    3    3  502    0 -0.74055404719E+01  0.63994358074E+03 -0.11183210074E+04  0.12884969982E+04  0.10100000352E+00 0. -1.
       -3    1    3    3    0  502  0.74055404719E+01 -0.63994358074E+03  0.91568596180E+03  0.11171675879E+04  0.10100000352E+00 0.  1.
</event>
<event>
 5   0  0.2215700E-06  0.2398301E+04  0.7818609E-02  0.8440140E-01
       -1   -1    0    0    0  501  0.00000000000E+00  0.00000000000E+00  0.98620753464E+03  0.98620753466E+03  0.50400001928E-02 0.  1.
        1   -1    0    0  501    0  0.00000000000E+00  0.00000000000E+00 -0.14580729416E+04  0.14580729416E+04  0.50400001928E-02 0. -1.
    10030    2    1    2    0    0  0.00000000000E+00  0.00000000000E+00 -0.47186540698E+03  0.24442804763E+04  0.23983014999E+04 0.  0.
        3    1    3    3  502    0 -0.12011986077E+03  0.66653672236E+03 -0.12444812966E+04  0.14168393314E+04  0.10100000352E+00 0. -1.
       -3    1    3    3    0  502  0.12011986077E+03 -0.66653672236E+03  0.77261588960E+03  0.10274411449E+04  0.10100000352E+00 0.  1.
</event>
<event>
 5   0  0.5371843E-06  0.2407959E+04  0.7818609E-02  0.8436530E-01
       -2   -1    0    0    0  501  0.00000000000E+00  0.00000000000E+00  0.15270538358E+04  0.15270538358E+04  0.25500000920E-02 0. -1.
        2   -1    0    0  501    0  0.00000000000E+00  0.00000000000E+00 -0.94925713454E+03  0.94925713454E+03  0.25500000920E-02 0.  1.
    10030    2    1    2    0    0  0.00000000000E+00  0.00000000000E+00  0.57779670121E+03  0.24763109703E+04  0.24079590930E+04 0.  0.
        4    1    3    3  502    0  0.89683069550E+03 -0.52242401547E+03 -0.33861335881E+03  0.10917384156E+04  0.12699999809E+01 0.  1.
       -4    1    3    3    0  502 -0.89683069550E+03  0.52242401547E+03  0.91641006002E+03  0.13845725547E+04  0.12699999809E+01 0. -1.
</event>
<event>
 5   0  0.5268358E-06  0.2398383E+04  0.7818609E-02  0.8440109E-01
        2   -1    0    0  501    0  0.00000000000E+00  0.00000000000E+00  0.15058952015E+04  0.15058952015E+04  0.25500000920E-02 0.  1.
       -2   -1    0    0    0  501  0.00000000000E+00  0.00000000000E+00 -0.95495368554E+03  0.95495368554E+03  0.25500000920E-02 0. -1.
    10030    2    1    2    0    0  0.00000000000E+00  0.00000000000E+00  0.55094151594E+03  0.24608488870E+04  0.23983829325E+04 0.  0.
        2    1    3    3  502    0  0.34120704661E+03  0.39593213562E+03  0.13828750638E+04  0.14783531198E+04  0.25500000920E-02 0.  1.
       -2    1    3    3    0  502 -0.34120704661E+03 -0.39593213562E+03 -0.83193354784E+03  0.98249576727E+03  0.25500000920E-02 0. -1.
</event>
<event>
 5   0  0.2215700E-06  0.2391249E+04  0.7818609E-02  0.8442787E-01
        1   -1    0    0  501    0  0.00000000000E+00  0.00000000000E+00  0.15393621042E+04  0.15393621042E+04  0.50400001928E-02 0. -1.
       -1   -1    0    0    0  501  0.00000000000E+00  0.00000000000E+00 -0.92864300926E+03  0.92864300927E+03  0.50400001928E-02 0.  1.
    10030    2    1    2    0    0  0.00000000000E+00  0.00000000000E+00  0.61071909490E+03  0.24680051134E+04  0.23912489262E+04 0.  0.
        3    1    3    3  502    0  0.27389676571E+03  0.95531599978E+02  0.15024927585E+04  0.15302386168E+04  0.10100000352E+00 0. -1.
       -3    1    3    3    0  502 -0.27389676571E+03 -0.95531599978E+02 -0.89177366361E+03  0.93776649661E+03  0.10100000352E+00 0.  1.
</event>
<event>
 5   0  0.5440503E-06  0.2398730E+04  0.7818609E-02  0.8439979E-01
        2   -1    0    0  501    0  0.00000000000E+00  0.00000000000E+00  0.81887492336E+03  0.81887492337E+03  0.25500000920E-02 0.  1.
       -2   -1    0    0    0  501  0.00000000000E+00  0.00000000000E+00 -0.17566497689E+04  0.17566497689E+04  0.25500000920E-02 0. -1.
    10030    2    1    2    0    0  0.00000000000E+00  0.00000000000E+00 -0.93777484557E+03  0.25755246923E+04  0.23987300348E+04 0.  0.
        3    1    3    3  502    0 -0.78710441468E+03 -0.21209024839E+03 -0.14134784760E+04  0.16316975962E+04  0.10100000352E+00 0. -1.
       -3    1    3    3    0  502  0.78710441468E+03  0.21209024839E+03  0.47570363047E+03  0.94382709609E+03  0.10100000352E+00 0.  1.
</event>
<event>
 5   0  0.2297414E-06  0.2402523E+04  0.7818609E-02  0.8438559E-01
       -1   -1    0    0    0  501  0.00000000000E+00  0.00000000000E+00  0.17965951225E+04  0.17965951225E+04  0.50400001928E-02 0. -1.
        1   -1    0    0  501    0  0.00000000000E+00  0.00000000000E+00 -0.80320250197E+03  0.80320250199E+03  0.50400001928E-02 0.  1.
    10030    2    1    2    0    0  0.00000000000E+00  0.00000000000E+00  0.99339262056E+03  0.25997976245E+04  0.24025234213E+04 0.  0.
        1    1    3    3  502    0 -0.62364822194E+03  0.41026988019E+03 -0.52173723251E+03  0.91075145849E+03  0.50400001928E-02 0.  1.
       -1    1    3    3    0  502  0.62364822194E+03 -0.41026988019E+03  0.15151298531E+04  0.16890461660E+04  0.50400001928E-02 0. -1.
</event>
<event>
 5   0  0.2149029E-06  0.2410834E+04  0.7818609E-02  0.8435459E-01
        1   -1    0    0  501    0  0.00000000000E+00  0.00000000000E+00  0.12415732467E+04  0.12415732468E+04  0.50400001928E-02 0. -1.
       -1   -1    0    0    0  501  0.00000000000E+00  0.00000000000E+00 -0.11703134812E+04  0.11703134812E+04  0.50400001928E-02 0.  1.
    10030    2    1    2    0    0  0.00000000000E+00  0.00000000000E+00  0.71259765517E+02  0.24118867280E+04  0.24108338048E+04 0.  0.
        4    1    3    3  502    0  0.27876741730E+03  0.10939800862E+04 -0.38707636008E+03  0.11934544078E+04  0.12699999809E+01 0.  1.
       -4    1    3    3    0  502 -0.27876741730E+03 -0.10939800862E+04  0.45833612559E+03  0.12184323202E+04  0.12699999809E+01 0. -1.
</event>
<event>
 5   0  0.2149417E-06  0.2433790E+04  0.7818609E-02  0.8426960E-01
        1   -1    0    0  501    0  0.00000000000E+00  0.00000000000E+00  0.14789653529E+04  0.14789653530E+04  0.50400001928E-02 0. -1.
       -1   -1    0    0    0  501  0.00000000000E+00  0.00000000000E+00 -0.10012631914E+04  0.10012631914E+04  0.50400001928E-02 0.  1.
    10030    2    1    2    0    0  0.00000000000E+00  0.00000000000E+00  0.47770216159E+03  0.24802285443E+04  0.24337901054E+04 0.  0.
        5    1    3    3  502    0  0.65606460833E+03  0.62661210606E+03 -0.58764032302E+03  0.10809286475E+04  0.46999998093E+01 0.  1.
       -5    1    3    3    0  502 -0.65606460833E+03 -0.62661210606E+03  0.10653424846E+04  0.13992998968E+04  0.46999998093E+01 0. -1.
</event>
<event>
 5   0  0.5440503E-06  0.2400661E+04  0.7818609E-02  0.8439256E-01
        2   -1    0    0  501    0  0.00000000000E+00  0.00000000000E+00  0.80130480095E+03  0.80130480095E+03  0.25500000920E-02 0. -1.
       -2   -1    0    0    0  501  0.00000000000E+00  0.00000000000E+00 -0.17980583256E+04  0.17980583256E+04  0.25500000920E-02 0.  1.
    10030    2    1    2    0    0  0.00000000000E+00  0.00000000000E+00 -0.99675352463E+03  0.25993631265E+04  0.24006605497E+04 0.  0.
        3    1    3    3  502    0 -0.10225518242E+04 -0.56098893298E+03 -0.80553236404E+03  0.14174636559E+04  0.10100000352E+00 0.  1.
       -3    1    3    3    0  502  0.10225518242E+04  0.56098893298E+03 -0.19122116059E+03  0.11818994706E+04  0.10100000352E+00 0. -1.
</event>
<event>
 5   0  0.2297414E-06  0.2403356E+04  0.7818609E-02  0.8438248E-01
       -1   -1    0    0    0  501  0.00000000000E+00  0.00000000000E+00  0.32899427692E+04  0.32899427692E+04  0.50400001928E-02 0. -1.
        1   -1    0    0  501    0  0.00000000000E+00  0.00000000000E+00 -0.43892247046E+03  0.43892247048E+03  0.50400001928E-02 0.  1.
    10030    2    1    2    0    0  0.00000000000E+00  0.00000000000E+00  0.28510202987E+04  0.37288652397E+04  0.24033558271E+04 0.  0.
        1    1    3    3  502    0  0.28876959679E+03 -0.29583007831E+03 -0.32511995068E+03  0.52593373881E+03  0.50400001928E-02 0.  1.
       -1    1    3    3    0  502 -0.28876959679E+03  0.29583007831E+03  0.31761402494E+04  0.32029315009E+04  0.50400001928E-02 0. -1.
</event>
<event>
 5   0  0.5349036E-06  0.2371781E+04  0.7818609E-02  0.8450145E-01
       -2   -1    0    0    0  501  0.00000000000E+00  0.00000000000E+00  0.11886863304E+04  0.11886863304E+04  0.25500000920E-02 0. -1.
        2   -1    0    0  501    0  0.00000000000E+00  0.00000000000E+00 -0.11831011387E+04  0.11831011388E+04  0.25500000920E-02 0.  1.
    10030    2    1    2    0    0  0.00000000000E+00  0.00000000000E+00  0.55851916149E+01  0.23717874691E+04  0.23717808930E+04 0.  0.
        1    1    3    3  502    0  0.98547102566E+03  0.58830530521E+03  0.30125594442E+03  0.11865965695E+04  0.50400001928E-02 0. -1.
       -1    1    3    3    0  502 -0.98547102566E+03 -0.58830530521E+03 -0.29567075281E+03  0.11851908997E+04  0.50400001928E-02 0.  1.
</event>
<event>
 5   0  0.2149029E-06  0.2400799E+04  0.7818609E-02  0.8439204E-01
        1   -1    0    0  501    0  0.00000000000E+00  0.00000000000E+00  0.10061045896E+04  0.10061045896E+04  0.50400001928E-02 0.  1.
       -1   -1    0    0    0  501  0.00000000000E+00  0.00000000000E+00 -0.14322159281E+04  0.14322159281E+04  0.50400001928E-02 0. -1.
    10030    2    1    2    0    0  0.00000000000E+00  0.00000000000E+00 -0.42611133857E+03  0.24383205177E+04  0.24007990491E+04 0.  0.
        4    1    3    3  502    0 -0.80368907669E+03  0.84168688674E+03  0.85830010557E+02  0.11669281687E+04  0.12699999809E+01 0.  1.
       -4    1    3    3    0  502  0.80368907669E+03 -0.84168688674E+03 -0.51194134913E+03  0.12713923490E+04  0.12699999809E+01 0. -1.
</event>
<event>
 5   0  0.2149417E-06  0.2404917E+04  0.7818609E-02  0.8437665E-01
       -1   -1    0    0    0  501  0.00000000000E+00  0.00000000000E+00  0.15362993547E+04  0.15362993547E+04  0.50400001928E-02 0.  1.
        1   -1    0    0  501    0  0.00000000000E+00  0.00000000000E+00 -0.94116212341E+03  0.94116212342E+03  0.50400001928E-02 0. -1.
    10030    2    1    2    0    0  0.00000000000E+00  0.00000000000E+00  0.59513723125E+03  0.24774614781E+04  0.24049172650E+04 0.  0.
        5    1    3    3  502    0  0.23004168150E+02 -0.81367863685E+03  0.12092980962E+04  0.14577469230E+04  0.46999998093E+01 0.  1.
       -5    1    3    3    0  502 -0.23004168150E+02  0.81367863685E+03 -0.61416086500E+03  0.10197145551E+04  0.46999998093E+01 0. -1.
</event>
<event>
 5   0  0.2254269E-06  0.2399315E+04  0.7818609E-02  0.8439760E-01
        1   -1    0    0  501    0  0.00000000000E+00  0.00000000000E+00  0.10995823071E+04  0.10995823071E+04  0.50400001928E-02 0. -1.
       -1   -1    0    0    0  501  0.00000000000E+00  0.00000000000E+00 -0.13088405246E+04  0.13088405246E+04  0.50400001928E-02 0.  1.
    10030    2    1    2    0    0  0.00000000000E+00  0.00000000000E+00 -0.20925821754E+03  0.24084228317E+04  0.23993148052E+04 0.  0.
        2    1    3    3  502    0  0.63841850185E+03  0.89683807008E+03 -0.58317901541E+03  0.12457907013E+04  0.25500000920E-02 0.  1.
       -2    1    3    3    0  502 -0.63841850185E+03 -0.89683807008E+03  0.37392079787E+03  0.11626321304E+04  0.25500000920E-02 0. -1.
</event>
<event>
 5   0  0.2149029E-06  0.2399764E+04  0.7818609E-02  0.8439592E-01
       -1   -1    0    0    0  501  0.00000000000E+00  0.00000000000E+00  0.89293179763E+03  0.89293179765E+03  0.50400001928E-02 0. -1.
        1   -1    0    0  501    0  0.00000000000E+00  0.00000000000E+00 -0.16123483289E+04  0.16123483290E+04  0.50400001928E-02 0.  1.
    10030    2    1    2    0    0  0.00000000000E+00  0.00000000000E+00 -0.71941653131E+03  0.25052801266E+04  0.23997642316E+04 0.  0.
        4    1    3    3  502    0  0.18546933937E+03 -0.99410891776E+03  0.31449228385E+03  0.10590365554E+04  0.12699999809E+01 0. -1.
       -4    1    3    3    0  502 -0.18546933937E+03  0.99410891776E+03 -0.10339088152E+04  0.14462435712E+04  0.12699999809E+01 0.  1.
</event>
<event>
 5   0  0.2149417E-06  0.2444173E+04  0.7818609E-02  0.8423149E-01
       -1   -1    0    0    0  501  0.00000000000E+00  0.00000000000E+00  0.85129480422E+03  0.85129480424E+03  0.50400001928E-02 0. -1.
        1   -1    0    0  501    0  0.00000000000E+00  0.00000000000E+00 -0.17543802955E+04  0.17543802955E+04  0.50400001928E-02 0.  1.
    10030    2    1    2    0    0  0.00000000000E+00  0.00000000000E+00 -0.90308549131E+03  0.26056750998E+04  0.24441725228E+04 0.  0.
        5    1    3    3  502    0 -0.68464098504E+02 -0.55112280806E+03  0.70898778465E+03  0.90061615083E+03  0.46999998093E+01 0. -1.
       -5    1    3    3    0  502  0.68464098504E+02  0.55112280806E+03 -0.16120732760E+04  0.17050589490E+04  0.46999998093E+01 0.  1.
</event>
<event>
 5   0  0.5268358E-06  0.2408750E+04  0.7818609E-02  0.8436235E-01
        2   -1    0    0  501    0  0.00000000000E+00  0.00000000000E+00  0.12699951385E+04  0.12699951385E+04  0.25500000920E-02 0.  1.
       -2   -1    0    0    0  501  0.00000000000E+00  0.00000000000E+00 -0.11421452667E+04  0.11421452667E+04  0.25500000920E-02 0. -1.
    10030    2    1    2    0    0  0.00000000000E+00  0.00000000000E+00  0.12784987184E+03  0.24121404052E+04  0.24087498302E+04 0.  0.
        2    1    3    3  502    0 -0.91508764454E+03 -0.35229210955E+03  0.76421165208E+03  0.12431872654E+04  0.25500000920E-02 0.  1.
       -2    1    3    3    0  502  0.91508764454E+03  0.35229210955E+03 -0.63636178024E+03  0.11689531398E+04  0.25500000920E-02 0. -1.
</event>
<event>
 5   0  0.2297414E-06  0.2400031E+04  0.7818609E-02  0.8439492E-01
       -1   -1    0    0    0  501  0.00000000000E+00  0.00000000000E+00  0.75677226849E+03  0.75677226850E+03  0.50400001928E-02 0. -1.
        1   -1    0    0  501    0  0.00000000000E+00  0.00000000000E+00 -0.19028674677E+04  0.19028674677E+04  0.50400001928E-02 0.  1.
    10030    2    1    2    0    0  0.00000000000E+00  0.00000000000E+00 -0.11460951992E+04  0.26596397362E+04  0.24000311083E+04 0.  0.
        1    1    3    3  502    0 -0.11043543468E+04 -0.32288460423E+03 -0.95077608585E+03  0.14925910881E+04  0.50400001928E-02 0.  1.
       -1    1    3    3    0  502  0.11043543468E+04  0.32288460423E+03 -0.19531911338E+03  0.11670486481E+04  0.50400001928E-02 0. -1.
</event>
<event>
 5   0  0.2297414E-06  0.2401853E+04  0.7818609E-02  0.8438810E-01
       -1   -1    0    0    0  501  0.00000000000E+00  0.00000000000E+00  0.12239749900E+04  0.12239749900E+04  0.50400001928E-02 0.  1.
        1   -1    0    0  501    0  0.00000000000E+00  0.00000000000E+00 -0.11783123492E+04  0.11783123492E+04  0.50400001928E-02 0. -1.
    10030    2    1    2    0    0  0.00000000000E+00  0.00000000000E+00  0.45662640878E+02  0.24022873392E+04  0.24018533226E+04 0.  0.
        1    1    3    3  502    0  0.11344638284E+04 -0.39241267861E+03 -0.12231503568E+02  0.12004771960E+04  0.50400001928E-02 0. -1.
       -1    1    3    3    0  502 -0.11344638284E+04  0.39241267861E+03  0.57894144446E+02  0.12018101432E+04  0.50400001928E-02 0.  1.
</event>
<event>
 5   0  0.2215700E-06  0.2400429E+04  0.7818609E-02  0.8439343E-01
        1   -1    0    0  501    0  0.00000000000E+00  0.00000000000E+00  0.15434829601E+04  0.15434829601E+04  0.50400001928E-02 0. -1.
       -1   -1    0    0    0  501  0.00000000000E+00  0.00000000000E+00 -0.93328838532E+03  0.93328838533E+03  0.50400001928E-02 0.  1.
    10030    2    1    2    0    0  0.00000000000E+00  0.00000000000E+00  0.61019457474E+03  0.24767713454E+04  0.24004288947E+04 0.  0.
        3    1    3    3  502    0  0.10931290742E+04  0.45830783669E+03  0.11058802743E+03  0.11904650217E+04  0.10100000352E+00 0.  1.
       -3    1    3    3    0  502 -0.10931290742E+04 -0.45830783669E+03  0.49960654732E+03  0.12863063237E+04  0.10100000352E+00 0. -1.
</event>
<event>
 5   0  0.5371843E-06  0.2400132E+04  0.7818609E-02  0.8439454E-01
        2   -1    0    0  501    0  0.00000000000E+00  0.00000000000E+00  0.14901447795E+04  0.14901447795E+04  0.25500000920E-02 0.  1.
       -2   -1    0    0    0  501  0.00000000000E+00  0.00000000000E+00 -0.96645565207E+03  0.96645565207E+03  0.25500000920E-02 0. -1.
    10030    2    1    2    0    0  0.00000000000E+00  0.00000000000E+00  0.52368912738E+03  0.24566004315E+04  0.24001323668E+04 0.  0.
        4    1    3    3  502    0  0.51069260604E+03 -0.55531862651E+03  0.12170599437E+04  0.14319295494E+04  0.12699999809E+01 0.  1.
       -4    1    3    3    0  502 -0.51069260604E+03  0.55531862651E+03 -0.69337081637E+03  0.10246708821E+04  0.12699999809E+01 0. -1.
</event>
<event>
 5   0  0.2215700E-06  0.2399023E+04  0.7818609E-02  0.8439870E-01
       -1   -1    0    0    0  501  0.00000000000E+00  0.00000000000E+00  0.86309586145E+03  0.86309586146E+03  0.50400001928E-02 0. -1.
        1   -1    0    0  501    0  0.00000000000E+00  0.00000000000E+00 -0.16670541959E+04  0.16670541959E+04  0.50400001928E-02 0.  1.
    10030    2    1    2    0    0  0.00000000000E+00  0.00000000000E+00 -0.80395833444E+03  0.25301500574E+04  0.23990227821E+04 0.  0.
        3    1    3    3  502    0  0.25434262942E+03  0.42474345682E+03 -0.15542777608E+04  0.16312193431E+04  0.10100000352E+00 0.  1.
       -3    1    3    3    0  502 -0.25434262942E+03 -0.42474345682E+03  0.75031942638E+03  0.89893071427E+03  0.10100000352E+00 0. -1.
</event>
<event>
 5   0  0.5371843E-06  0.2399450E+04  0.7818609E-02  0.8439710E-01
       -2   -1    0    0    0  501  0.00000000000E+00  0.00000000000E+00  0.84057245507E+03  0.84057245507E+03  0.25500000920E-02 0.  1.
        2   -1    0    0  501    0  0.00000000000E+00  0.00000000000E+00 -0.17123326396E+04  0.17123326396E+04  0.25500000920E-02 0. -1.
    10030    2    1    2    0    0  0.00000000000E+00  0.00000000000E+00 -0.87176018454E+03  0.25529050947E+04  0.23994496459E+04 0.  0.
        4    1    3    3  502    0 -0.93309618018E+03 -0.14979634740E+03 -0.12222213210E+04  0.15449705491E+04  0.12699999809E+01 0. -1.
       -4    1    3    3    0  502  0.93309618018E+03  0.14979634740E+03  0.35046113644E+03  0.10079345456E+04  0.12699999809E+01 0.  1.
</event>
<event>
 5   0  0.5440503E-06  0.2398826E+04  0.7818609E-02  0.8439943E-01
        2   -1    0    0  501    0  0.00000000000E+00  0.00000000000E+00  0.11427542741E+04  0.11427542741E+04  0.25500000920E-02 0.  1.
       -2   -1    0    0    0  501  0.00000000000E+00  0.00000000000E+00 -0.12588810336E+04  0.12588810336E+04  0.25500000920E-02 0. -1.
    10030    2    1    2    0    0  0.00000000000E+00  0.00000000000E+00 -0.11612675946E+03  0.24016353077E+04  0.23988261144E+04 0.  0.
        3    1    3    3  502    0  0.97165979210E+03  0.43046346014E+03 -0.61474522172E+03  0.12277350039E+04  0.10100000352E+00 0. -1.
       -3    1    3    3    0  502 -0.97165979210E+03 -0.43046346014E+03  0.49861846225E+03  0.11739003038E+04  0.10100000352E+00 0.  1.
</event>
<event>
 5   0  0.5349036E-06  0.2398355E+04  0.7818609E-02  0.8440120E-01
       -2   -1    0    0    0  501  0.00000000000E+00  0.00000000000E+00  0.61749472731E+03  0.61749472731E+03  0.25500000920E-02 0. -1.
        2   -1    0    0  501    0  0.00000000000E+00  0.00000000000E+00 -0.23288074349E+04  0.23288074349E+04  0.25500000920E-02 0.  1.
    10030    2    1    2    0    0  0.00000000000E+00  0.00000000000E+00 -0.17113127075E+04  0.29463021622E+04  0.23983546960E+04 0.  0.
        1    1    3    3  502    0 -0.93877919431E+03 -0.60156921082E+03 -0.31340990682E+03  0.11581958646E+04  0.50400001928E-02 0. -1.
       -1    1    3    3    0  502  0.93877919431E+03  0.60156921082E+03 -0.13979028007E+04  0.17881062976E+04  0.50400001928E-02 0.  1.
</event>
<event>
 5   0  0.5371843E-06  0.2390942E+04  0.7818609E-02  0.8442903E-01
       -2   -1    0    0    0  501  0.00000000000E+00  0.00000000000E+00  0.11838772491E+04  0.11838772491E+04  0.25500000920E-02 0.  1.
        2   -1    0    0  501    0  0.00000000000E+00  0.00000000000E+00 -0.12071782027E+04  0.12071782027E+04  0.25500000920E-02 0. -1.
    10030    2    1    2    0    0  0.00000000000E+00  0.00000000000E+00 -0.23300953560E+02  0.23910554518E+04  0.23909419146E+04 0.  0.
        4    1    3    3  502    0  0.76133322409E+03  0.59003771140E+03  0.69646253405E+03  0.11886271296E+04  0.12699999809E+01 0.  1.
       -4    1    3    3    0  502 -0.76133322409E+03 -0.59003771140E+03 -0.71976348761E+03  0.12024283222E+04  0.12699999809E+01 0. -1.
</event>
<event>
 5   0  0.2215700E-06  0.2398781E+04  0.7818609E-02  0.8439960E-01
        1   -1    0    0  501    0  0.00000000000E+00  0.00000000000E+00  0.11488603863E+04  0.11488603863E+04  0.50400001928E-02 0. -1.
       -1   -1    0    0    0  501  0.00000000000E+00  0.00000000000E+00 -0.12521432362E+04  0.12521432363E+04  0.50400001928E-02 0.  1.
    10030    2    1    2    0    0  0.00000000000E+00  0.00000000000E+00 -0.10328284997E+03  0.24010036225E+04  0.23987811589E+04 0.  0.
        3    1    3    3  502    0  0.10789555052E+04 -0.26533483234E+03  0.40042976870E+03  0.11810552762E+04  0.10100000352E+00 0. -1.
       -3    1    3    3    0  502 -0.10789555052E+04  0.26533483234E+03 -0.50371261867E+03  0.12199483464E+04  0.10100000352E+00 0.  1.
</event>
<event>
 5   0  0.5440503E-06  0.2398878E+04  0.7818609E-02  0.8439924E-01
       -2   -1    0    0    0  501  0.00000000000E+00  0.00000000000E+00  0.12442819658E+04  0.12442819658E+04  0.25500000920E-02 0.  1.
        2   -1    0    0  501    0  0.00000000000E+00  0.00000000000E+00 -0.11562123928E+04  0.11562123928E+04  0.25500000920E-02 0. -1.
    10030    2    1    2    0    0  0.00000000000E+00  0.00000000000E+00  0.88069572997E+02  0.24004943585E+04  0.23988782619E+04 0.  0.
        3    1    3    3  502    0  0.34573897064E+03 -0.25901673296E+03  0.11637296727E+04  0.12413266553E+04  0.10100000352E+00 0.  1.
       -3    1    3    3    0  502 -0.34573897064E+03  0.25901673296E+03 -0.10756600997E+04  0.11591677032E+04  0.10100000352E+00 0. -1.
</event>
<event>
 5   0  0.2215700E-06  0.2401671E+04  0.7818609E-02  0.8438878E-01
       -1   -1    0    0    0  501  0.00000000000E+00  0.00000000000E+00  0.21982468294E+04  0.21982468294E+04  0.50400001928E-02 0. -1.
        1   -1    0    0  501    0  0.00000000000E+00  0.00000000000E+00 -0.65597979314E+03  0.65597979316E+03  0.50400001928E-02 0.  1.
    10030    2    1    2    0    0  0.00000000000E+00  0.00000000000E+00  0.15422670363E+04  0.28542266226E+04  0.24016706689E+04 0.  0.
        3    1    3    3  502    0 -0.92557525425E+03 -0.70533322230E+03  0.11233211896E+04  0.16174161527E+04  0.10100000352E+00 0. -1.
       -3    1    3    3    0  502  0.92557525425E+03  0.70533322230E+03  0.41894584664E+03  0.12368104699E+04  0.10100000352E+00 0.  1.
</event>
<event>
 5   0  0.5371843E-06  0.2407142E+04  0.7818609E-02  0.8436835E-01
        2   -1    0    0  501    0  0.00000000000E+00  0.00000000000E+00  0.14325968187E+04  0.14325968187E+04  0.25500000920E-02 0.  1.
       -2   -1    0    0    0  501  0.00000000000E+00  0.00000000000E+00 -0.10111589040E+04  0.10111589040E+04  0.25500000920E-02 0. -1.
    10030    2    1    2    0    0  0.00000000000E+00  0.00000000000E+00  0.42143791475E+03  0.24437557227E+04  0.24071418979E+04 0.  0.
        4    1    3    3  502    0  0.48463989226E+03 -0.60546860153E+03 -0.72366821175E+03  0.10607381139E+04  0.12699999809E+01 0. -1.
       -4    1    3    3    0  502 -0.48463989226E+03  0.60546860153E+03  0.11451061265E+04  0.13830176089E+04  0.12699999809E+01 0.  1.
</event>
<event>
 5   0  0.5268358E-06  0.2399147E+04  0.7818609E-02  0.8439823E-01
       -2   -1    0    0    0  501  0.00000000000E+00  0.00000000000E+00  0.23917199004E+04  0.23917199004E+04  0.25500000920E-02 0. -1.
        2   -1    0    0  501    0  0.00000000000E+00  0.00000000000E+00 -0.60164938113E+03  0.60164938114E+03  0.25500000920E-02 0.  1.
    10030    2    1    2    0    0  0.00000000000E+00  0.00000000000E+00  0.17900705193E+04  0.29933692816E+04  0.23991471801E+04 0.  0.
        2    1    3    3  502    0 -0.92222462247E+03 -0.12427542191E+03 -0.49446692285E+02  0.93187317279E+03  0.25500000920E-02 0.  1.
       -2    1    3    3    0  502  0.92222462247E+03  0.12427542191E+03  0.18395172116E+04  0.20614961088E+04  0.25500000920E-02 0. -1.
</event>
<event>
 5   0  0.5349036E-06  0.2404584E+04  0.7818609E-02  0.8437790E-01
        2   -1    0    0  501    0  0.00000000000E+00  0.00000000000E+00  0.10116921816E+04  0.10116921816E+04  0.25500000920E-02 0.  1.
       -2   -1    0    0    0  501  0.00000000000E+00  0.00000000000E+00 -0.14287997456E+04  0.14287997456E+04  0.25500000920E-02 0. -1.
    10030    2    1    2    0    0  0.00000000000E+00  0.00000000000E+00 -0.41710756400E+03  0.24404919273E+04  0.24045835663E+04 0.  0.
        1    1    3    3  502    0  0.53260071766E+03  0.10467977897E+04  0.52298676691E+02  0.11756633398E+04  0.50400001928E-02 0.  1.
       -1    1    3    3    0  502 -0.53260071766E+03 -0.10467977897E+04 -0.46940624069E+03  0.12648285875E+04  0.50400001928E-02 0. -1.
</event>
<event>
 5   0  0.5440503E-06  0.2412000E+04  0.7818609E-02  0.8435025E-01
       -2   -1    0    0    0  501  0.00000000000E+00  0.00000000000E+00  0.84219731706E+03  0.84219731707E+03  0.25500000920E-02 0.  1.
        2   -1    0    0  501    0  0.00000000000E+00  0.00000000000E+00 -0.17269539997E+04  0.17269539997E+04  0.25500000920E-02 0. -1.
    10030    2    1    2    0    0  0.00000000000E+00  0.00000000000E+00 -0.88475668263E+03  0.25691513168E+04  0.24120000209E+04 0.  0.
        3    1    3    3  502    0 -0.51519959520E+03 -0.52708708674E+03  0.57437488944E+03  0.93442920744E+03  0.10100000352E+00 0.  1.
       -3    1    3    3    0  502  0.51519959520E+03  0.52708708674E+03 -0.14591315721E+04  0.16347221093E+04  0.10100000352E+00 0. -1.
</event>
<event>
 5   0  0.5268358E-06  0.2408998E+04  0.7818609E-02  0.8436142E-01
        2   -1    0    0  501    0  0.00000000000E+00  0.00000000000E+00  0.15106347020E+04  0.15106347020E+04  0.25500000920E-02 0. -1.
       -2   -1    0    0    0  501  0.00000000000E+00  0.00000000000E+00 -0.96040303217E+03  0.96040303217E+03  0.25500000920E-02 0.  1.
    10030    2    1    2    0    0  0.00000000000E+00  0.00000000000E+00  0.55023166984E+03  0.24710377342E+04  0.24089982551E+04 0.  0.
        2    1    3    3  502    0  0.25259733409E+03  0.48859480689E+03  0.13742944659E+04  0.14802755073E+04  0.25500000920E-02 0. -1.
       -2    1    3    3    0  502 -0.25259733409E+03 -0.48859480689E+03 -0.82406279602E+03  0.99076222692E+03  0.25500000920E-02 0.  1.
</event>
<event>
 5   0  0.2149029E-06  0.2382475E+04  0.7818609E-02  0.8446094E-01
       -1   -1    0    0    0  501  0.00000000000E+00  0.00000000000E+00  0.99357925807E+03  0.99357925808E+03  0.50400001928E-02 0. -1.
        1   -1    0    0  501    0  0.00000000000E+00  0.00000000000E+00 -0.14282168750E+04  0.14282168750E+04  0.50400001928E-02 0.  1.
    10030    2    1    2    0    0  0.00000000000E+00  0.00000000000E+00 -0.43463761692E+03  0.24217961331E+04  0.23824749006E+04 0.  0.
        4    1    3    3  502    0  0.45839188234E+03  0.10992021548E+04 -0.19087884525E+03  0.12061529097E+04  0.12699999809E+01 0.  1.
       -4    1    3    3    0  502 -0.45839188234E+03 -0.10992021548E+04 -0.24375877167E+03  0.12156432234E+04  0.12699999809E+01 0. -1.
</event>
<event>
 5   0  0.2254269E-06  0.2395258E+04  0.7818609E-02  0.8441281E-01
        1   -1    0    0  501    0  0.00000000000E+00  0.00000000000E+00  0.17040123621E+04  0.17040123621E+04  0.50400001928E-02 0. -1.
       -1   -1    0    0    0  501  0.00000000000E+00  0.00000000000E+00 -0.84172828165E+03  0.84172828167E+03  0.50400001928E-02 0.  1.
    10030    2    1    2    0    0  0.00000000000E+00  0.00000000000E+00  0.86228408041E+03  0.25457406437E+04  0.23952581468E+04 0.  0.
        2    1    3    3  502    0  0.50234621814E+03 -0.10547456323E+03 -0.71889116925E+03  0.88333522492E+03  0.25500000920E-02 0.  1.
       -2    1    3    3    0  502 -0.50234621814E+03  0.10547456323E+03  0.15811752497E+04  0.16624054188E+04  0.25500000920E-02 0. -1.
</event>
<event>
 5   0  0.2149029E-06  0.2399233E+04  0.7818609E-02  0.8439791E-01
       -1   -1    0    0    0  501  0.00000000000E+00  0.00000000000E+00  0.19884469810E+04  0.19884469810E+04  0.50400001928E-02 0.  1.
        1   -1    0    0  501    0  0.00000000000E+00  0.00000000000E+00 -0.72372065728E+03  0.72372065730E+03  0.50400001928E-02 0. -1.
    10030    2    1    2    0    0  0.00000000000E+00  0.00000000000E+00  0.12647263237E+04  0.27121676383E+04  0.23992333409E+04 0.  0.
        4    1    3    3  502    0 -0.12638631821E+03 -0.11593343095E+04  0.95019121919E+03  0.15042920290E+04  0.12699999809E+01 0.  1.
       -4    1    3    3    0  502  0.12638631821E+03  0.11593343095E+04  0.31453510450E+03  0.12078756093E+04  0.12699999809E+01 0. -1.
</event>
<event>
 5   0  0.2149417E-06  0.2401297E+04  0.7818609E-02  0.8439018E-01
        1   -1    0    0  501    0  0.00000000000E+00  0.00000000000E+00  0.18025136688E+04  0.18025136688E+04  0.50400001928E-02 0.  1.
       -1   -1    0    0    0  501  0.00000000000E+00  0.00000000000E+00 -0.79974830203E+03  0.79974830205E+03  0.50400001928E-02 0. -1.
    10030    2    1    2    0    0  0.00000000000E+00  0.00000000000E+00  0.10027653668E+04  0.26022619708E+04  0.24012973544E+04 0.  0.
        5    1    3    3  502    0  0.91906411031E+03  0.17468745853E+03  0.13169201625E+04  0.16153932497E+04  0.46999998093E+01 0.  1.
       -5    1    3    3    0  502 -0.91906411031E+03 -0.17468745853E+03 -0.31415479571E+03  0.98686872110E+03  0.46999998093E+01 0. -1.
</event>
<event>
 5   0  0.2149417E-06  0.2396689E+04  0.7818609E-02  0.8440744E-01
       -1   -1    0    0    0  501  0.00000000000E+00  0.00000000000E+00  0.14468376389E+04  0.14468376389E+04  0.50400001928E-02 0.  1.
        1   -1    0    0  501    0  0.00000000000E+00  0.00000000000E+00 -0.99252996605E+03  0.99252996606E+03  0.50400001928E-02 0. -1.
    10030    2    1    2    0    0  0.00000000000E+00  0.00000000000E+00  0.45430767287E+03  0.24393676050E+04  0.23966891435E+04 0.  0.
        5    1    3    3  502    0 -0.54834594249E+03  0.76883027644E+03 -0.52369848963E+03  0.10798451114E+04  0.46999998093E+01 0. -1.
       -5    1    3    3    0  502  0.54834594249E+03 -0.76883027644E+03  0.97800616250E+03  0.13595224936E+04  0.46999998093E+01 0.  1.
</event>
<event>
 5   0  0.5440503E-06  0.2411946E+04  0.7818609E-02  0.8435045E-01
        2   -1    0    0  501    0  0.00000000000E+00  0.00000000000E+00  0.83361506717E+03  0.83361506718E+03  0.25500000920E-02 0. -1.
       -2   -1    0    0    0  501  0.00000000000E+00  0.00000000000E+00 -0.17446553538E+04  0.17446553538E+04  0.25500000920E-02 0.  1.
    10030    2    1    2    0    0  0.00000000000E+00  0.00000000000E+00 -0.91104028662E+03  0.25782704210E+04  0.24119460939E+04 0.  0.
        3    1    3    3  502    0 -0.97059522400E+03  0.68984987222E+03 -0.65952898611E+03  0.13612224024E+04  0.10100000352E+00 0.  1.
       -3    1    3    3    0  502  0.97059522400E+03 -0.68984987222E+03 -0.25151130051E+03  0.12170480186E+04  0.10100000352E+00 0. -1.
</event>
<event>
 5   0  0.5440503E-06  0.2397086E+04  0.7818609E-02  0.8440595E-01
        2   -1    0    0  501    0  0.00000000000E+00  0.00000000000E+00  0.16010773218E+04  0.16010773218E+04  0.25500000920E-02 0.  1.
       -2   -1    0    0    0  501  0.00000000000E+00  0.00000000000E+00 -0.89721178721E+03  0.89721178722E+03  0.25500000920E-02 0. -1.
    10030    2    1    2    0    0  0.00000000000E+00  0.00000000000E+00  0.70386553457E+03  0.24982891090E+04  0.23970861022E+04 0.  0.
        3    1    3    3  502    0  0.78092634073E+03 -0.87890496155E+03  0.59453836654E+03  0.13174960192E+04  0.10100000352E+00 0.  1.
       -3    1    3    3    0  502 -0.78092634073E+03  0.87890496155E+03  0.10932716804E+03  0.11807930898E+04  0.10100000352E+00 0. -1.
</event>
<event>
 5   0  0.1796750E-06  0.2403495E+04  0.7818609E-02  0.8438196E-01
       -3   -1    0    0    0  501  0.00000000000E+00  0.00000000000E+00  0.22225381352E+04  0.22225381375E+04  0.10100000352E+00 0. -1.
        3   -1    0    0  501    0  0.00000000000E+00  0.00000000000E+00 -0.64979646991E+03  0.64979647776E+03  0.10100000352E+00 0.  1.
    10030    2    1    2    0    0  0.00000000000E+00  0.00000000000E+00  0.15727416653E+04  0.28723346153E+04  0.24034953290E+04 0.  0.
        4    1    3    3  502    0 -0.62386506160E+03 -0.28170262615E+03 -0.39404420853E+03  0.78983316963E+03  0.12699999809E+01 0.  1.
       -4    1    3    3    0  502  0.62386506160E+03  0.28170262615E+03  0.19667858738E+04  0.20825014456E+04  0.12699999809E+01 0. -1.
</event>
<event>
 5   0  0.5349036E-06  0.2398312E+04  0.7818609E-02  0.8440136E-01
        2   -1    0    0  501    0  0.00000000000E+00  0.00000000000E+00  0.16220674892E+04  0.16220674892E+04  0.25500000920E-02 0.  1.
       -2   -1    0    0    0  501  0.00000000000E+00  0.00000000000E+00 -0.88650723906E+03  0.88650723906E+03  0.25500000920E-02 0. -1.
    10030    2    1    2    0    0  0.00000000000E+00  0.00000000000E+00  0.73556025010E+03  0.25085747282E+04  0.23983115489E+04 0.  0.
        1    1    3    3  502    0  0.93012881138E+02 -0.52322452702E+03  0.14921716330E+04  0.15839796350E+04  0.50400001928E-02 0.  1.
       -1    1    3    3    0  502 -0.93012881138E+02  0.52322452702E+03 -0.75661138288E+03  0.92459509325E+03  0.50400001928E-02 0. -1.
</event>
<event>
 5   0  0.2254269E-06  0.2399210E+04  0.7818609E-02  0.8439799E-01
       -1   -1    0    0    0  501  0.00000000000E+00  0.00000000000E+00  0.76954409519E+03  0.76954409520E+03  0.50400001928E-02 0.  1.
        1   -1    0    0  501    0  0.00000000000E+00  0.00000000000E+00 -0.18700065267E+04  0.18700065267E+04  0.50400001928E-02 0. -1.
    10030    2    1    2    0    0  0.00000000000E+00  0.00000000000E+00 -0.11004624315E+04  0.26395506219E+04  0.23992102706E+04 0.  0.
        2    1    3    3  502    0  0.72416957346E+03 -0.33365025423E+03 -0.15362900818E+04  0.17308758704E+04  0.25500000920E-02 0. -1.
       -2    1    3    3    0  502 -0.72416957346E+03  0.33365025423E+03  0.43582765029E+03  0.90867475151E+03  0.25500000920E-02 0.  1.
</event>
<event>
 5   0  0.5440503E-06  0.2397484E+04  0.7818609E-02  0.8440446E-01
        2   -1    0    0  501    0  0.00000000000E+00  0.00000000000E+00  0.14646849748E+04  0.14646849748E+04  0.25500000920E-02 0.  1.
       -2   -1    0    0    0  501  0.00000000000E+00  0.00000000000E+00 -0.98108645028E+03  0.98108645028E+03  0.25500000920E-02 0. -1.
    10030    2    1    2    0    0  0.00000000000E+00  0.00000000000E+00  0.48359852455E+03  0.24457714251E+04  0.23974841670E+04 0.  0.
        3    1    3    3  502    0  0.42323559835E+03  0.60435376300E+03  0.12056086907E+04  0.14134582300E+04  0.10100000352E+00 0.  1.
       -3    1    3    3    0  502 -0.42323559835E+03 -0.60435376300E+03 -0.72201016617E+03  0.10323131951E+04  0.10100000352E+00 0. -1.
</event>
<event>
 5   0  0.5371843E-06  0.2400524E+04  0.7818609E-02  0.8439307E-01
        2   -1    0    0  501    0  0.00000000000E+00  0.00000000000E+00  0.12180939984E+04  0.12180939984E+04  0.25500000920E-02 0.  1.
       -2   -1    0    0    0  501  0.00000000000E+00  0.00000000000E+00 -0.11826913389E+04  0.11826913389E+04  0.25500000920E-02 0. -1.
    10030    2    1    2    0    0  0.00000000000E+00  0.00000000000E+00  0.35402659532E+02  0.24007853373E+04  0.24005242943E+04 0.  0.
        4    1    3    3  502    0  0.66317097991E+03  0.57333322804E+03  0.83762026261E+03  0.12124834251E+04  0.12699999809E+01 0.  1.
       -4    1    3    3    0  502 -0.66317097991E+03 -0.57333322804E+03 -0.80221760308E+03  0.11883019122E+04  0.12699999809E+01 0. -1.
</event>
<event>
 5   0  0.5379778E-06  0.2399107E+04  0.7818609E-02  0.8439838E-01
        2   -1    0    0  501    0  0.00000000000E+00  0.00000000000E+00  0.13293644338E+04  0.13293644338E+04  0.25500000920E-02 0.  1.
       -2   -1    0    0    0  501  0.00000000000E+00  0.00000000000E+00 -0.10824180471E+04  0.10824180471E+04  0.25500000920E-02 0. -1.
    10030    2    1    2    0    0  0.00000000000E+00  0.00000000000E+00  0.24694638668E+03  0.24117824808E+04  0.23991065456E+04 0.  0.
        5    1    3    3  502    0  0.11316353041E+04 -0.26926243816E+03  0.41794621376E+03  0.12360428187E+04  0.46999998093E+01 0. -1.
       -5    1    3    3    0  502 -0.11316353041E+04  0.26926243816E+03 -0.17099982708E+03  0.11757396621E+04  0.46999998093E+01 0.  1.
</event>
<event>
 5   0  0.2297414E-06  0.2397153E+04  0.7818609E-02  0.8440570E-01
        1   -1    0    0  501    0  0.00000000000E+00  0.00000000000E+00  0.13191336395E+04  0.13191336395E+04  0.50400001928E-02 0. -1.
       -1   -1    0    0    0  501  0.00000000000E+00  0.00000000000E+00 -0.10890367913E+04  0.10890367913E+04  0.50400001928E-02 0.  1.
    10030    2    1    2    0    0  0.00000000000E+00  0.00000000000E+00  0.23009684820E+03  0.24081704308E+04  0.23971525326E+04 0.  0.
        1    1    3    3  502    0  0.58789567128E+03 -0.81740747969E+03 -0.53817768872E+03  0.11416705010E+04  0.50400001928E-02 0.  1.
       -1    1    3    3    0  502 -0.58789567128E+03  0.81740747969E+03  0.76827453692E+03  0.12664999298E+04  0.50400001928E-02 0. -1.
</event>
<event>
 5   0  0.2215700E-06  0.2402651E+04  0.7818609E-02  0.8438512E-01
       -1   -1    0    0    0  501  0.00000000000E+00  0.00000000000E+00  0.67398124003E+03  0.67398124005E+03  0.50400001928E-02 0. -1.
        1   -1    0    0  501    0  0.00000000000E+00  0.00000000000E+00 -0.21412797493E+04  0.21412797493E+04  0.50400001928E-02 0.  1.
    10030    2    1    2    0    0  0.00000000000E+00  0.00000000000E+00 -0.14672985093E+04  0.28152609894E+04  0.24026505203E+04 0.  0.
        3    1    3    3  502    0 -0.55392736174E+03 -0.86429475918E+03 -0.14647771609E+04  0.17886903293E+04  0.10100000352E+00 0.  1.
       -3    1    3    3    0  502  0.55392736174E+03  0.86429475918E+03 -0.25213484462E+01  0.10265706601E+04  0.10100000352E+00 0. -1.
</event>
<event>
 5   0  0.2149029E-06  0.2395658E+04  0.7818609E-02  0.8441131E-01
       -1   -1    0    0    0  501  0.00000000000E+00  0.00000000000E+00  0.11682909540E+04  0.11682909540E+04  0.50400001928E-02 0. -1.
        1   -1    0    0  501    0  0.00000000000E+00  0.00000000000E+00 -0.12281136418E+04  0.12281136418E+04  0.50400001928E-02 0.  1.
    10030    2    1    2    0    0  0.00000000000E+00  0.00000000000E+00 -0.59822687801E+02  0.23964045959E+04  0.23956577871E+04 0.  0.
        4    1    3    3  502    0 -0.76521633358E+03  0.46524357913E+03 -0.82563705244E+03  0.12180664105E+04  0.12699999809E+01 0.  1.
       -4    1    3    3    0  502  0.76521633358E+03 -0.46524357913E+03  0.76581436464E+03  0.11783381854E+04  0.12699999809E+01 0. -1.
</event>
<event>
 5   0  0.2149417E-06  0.2399068E+04  0.7818609E-02  0.8439853E-01
        1   -1    0    0  501    0  0.00000000000E+00  0.00000000000E+00  0.15235112224E+04  0.15235112224E+04  0.50400001928E-02 0.  1.
       -1   -1    0    0    0  501  0.00000000000E+00  0.00000000000E+00 -0.94445083730E+03  0.94445083731E+03  0.50400001928E-02 0. -1.
    10030    2    1    2    0    0  0.00000000000E+00  0.00000000000E+00  0.57906038514E+03  0.24679620598E+04  0.23990676937E+04 0.  0.
        5    1    3    3  502    0  0.10816678894E+03 -0.11944259671E+04  0.26639172609E+03  0.12285520285E+04  0.46999998093E+01 0. -1.
       -5    1    3    3    0  502 -0.10816678894E+03  0.11944259671E+04  0.31266865905E+03  0.12394100312E+04  0.46999998093E+01 0.  1.
</event>
<event>
 5   0  0.5440503E-06  0.2399670E+04  0.7818609E-02  0.8439627E-01
       -2   -1    0    0    0  501  0.00000000000E+00  0.00000000000E+00  0.21879665532E+04  0.21879665532E+04  0.25500000920E-02 0. -1.
        2   -1    0    0  501    0  0.00000000000E+00  0.00000000000E+00 -0.65796445249E+03  0.65796445250E+03  0.25500000920E-02 0.  1.
    10030    2    1    2    0    0  0.00000000000E+00  0.00000000000E+00  0.15300021007E+04  0.28459310057E+04  0.23996701567E+04 0.  0.
        3    1    3    3  502    0 -0.22828107138E+02  0.71702576261E+03 -0.37559961592E+03  0.80976672468E+03  0.10100000352E+00 0.  1.
       -3    1    3    3    0  502  0.22828107138E+02 -0.71702576261E+03  0.19056017166E+04  0.20361642810E+04  0.10100000352E+00 0. -1.
</event>
<event>
 5   0  0.2254269E-06  0.2443752E+04  0.7818609E-02  0.8423303E-01
        1   -1    0    0  501    0  0.00000000000E+00  0.00000000000E+00  0.11787163143E+04  0.11787163143E+04  0.50400001928E-02 0.  1.
       -1   -1    0    0    0  501  0.00000000000E+00  0.00000000000E+00 -0.12666156522E+04  0.12666156522E+04  0.50400001928E-02 0. -1.
    10030    2    1    2    0    0  0.00000000000E+00  0.00000000000E+00 -0.87899337860E+02  0.24453319665E+04  0.24437516512E+04 0.  0.
        2    1    3    3  502    0 -0.60905292513E+03  0.14221954043E+03  0.10063998714E+04  0.11849103614E+04  0.25500000920E-02 0.  1.
       -2    1    3    3    0  502  0.60905292513E+03 -0.14221954043E+03 -0.10942992093E+04  0.12604216052E+04  0.25500000920E-02 0. -1.
</event>
<event>
 5   0  0.2149029E-06  0.2407623E+04  0.7818609E-02  0.8436655E-01
       -1   -1    0    0    0  501  0.00000000000E+00  0.00000000000E+00  0.67308073325E+03  0.67308073327E+03  0.50400001928E-02 0. -1.
        1   -1    0    0  501    0  0.00000000000E+00  0.00000000000E+00 -0.21530286740E+04  0.21530286740E+04  0.50400001928E-02 0.  1.
    10030    2    1    2    0    0  0.00000000000E+00  0.00000000000E+00 -0.14799479407E+04  0.28261094072E+04  0.24076229926E+04 0.  0.
        4    1    3    3  502    0  0.86584526832E+03 -0.65635184663E+03 -0.13153937559E+03  0.10944359257E+04  0.12699999809E+01 0. -1.
       -4    1    3    3    0  502 -0.86584526832E+03  0.65635184663E+03 -0.13484085651E+04  0.17316734815E+04  0.12699999809E+01 0.  1.
</event>
<event>
 5   0  0.2215700E-06  0.2402201E+04  0.7818609E-02  0.8438680E-01
       -1   -1    0    0    0  501  0.00000000000E+00  0.00000000000E+00  0.15180282794E+04  0.15180282794E+04  0.50400001928E-02 0. -1.
        1   -1    0    0  501    0  0.00000000000E+00  0.00000000000E+00 -0.95033974708E+03  0.95033974709E+03  0.50400001928E-02 0.  1.
    10030    2    1    2    0    0  0.00000000000E+00  0.00000000000E+00  0.56768853233E+03  0.24683680265E+04  0.24022011665E+04 0.  0.
        3    1    3    3  502    0 -0.52132405687E+03  0.97151504829E+02  0.13912230563E+04  0.14888649333E+04  0.10100000352E+00 0. -1.
       -3    1    3    3    0  502  0.52132405687E+03 -0.97151504829E+02 -0.82353452396E+03  0.97950309317E+03  0.10100000352E+00 0.  1.
</event>
<event>
 5   0  0.2149029E-06  0.2384083E+04  0.7818609E-02  0.8445487E-01
        1   -1    0    0  501    0  0.00000000000E+00  0.00000000000E+00  0.15628929382E+04  0.15628929382E+04  0.50400001928E-02 0. -1.
       -1   -1    0    0    0  501  0.00000000000E+00  0.00000000000E+00 -0.90918762858E+03  0.90918762860E+03  0.50400001928E-02 0.  1.
    10030    2    1    2    0    0  0.00000000000E+00  0.00000000000E+00  0.65370530959E+03  0.24720805668E+04  0.23840829887E+04 0.  0.
        4    1    3    3  502    0 -0.19797955456E+03 -0.87357865732E+03 -0.48870608050E+03  0.10203777833E+04  0.12699999809E+01 0.  1.
       -4    1    3    3    0  502  0.19797955456E+03  0.87357865732E+03  0.11424113901E+04  0.14517027835E+04  0.12699999809E+01 0. -1.
</event>
<event>
 5   0  0.5268358E-06  0.2399013E+04  0.7818609E-02  0.8439873E-01
       -2   -1    0    0    0  501  0.00000000000E+00  0.00000000000E+00  0.51730096676E+03  0.51730096677E+03  0.25500000920E-02 0.  1.
        2   -1    0    0  501    0  0.00000000000E+00  0.00000000000E+00 -0.27813910008E+04  0.27813910008E+04  0.25500000920E-02 0. -1.
    10030    2    1    2    0    0  0.00000000000E+00  0.00000000000E+00 -0.22640900340E+04  0.32986919676E+04  0.23990133419E+04 0.  0.
        2    1    3    3  502    0 -0.70551446943E+03 -0.47673809626E+03 -0.22937429763E+04  0.24466889300E+04  0.25500000920E-02 0. -1.
       -2    1    3    3    0  502  0.70551446943E+03  0.47673809626E+03  0.29652942254E+02  0.85200303755E+03  0.25500000920E-02 0.  1.
</event>
<event>
 5   0  0.5379778E-06  0.2392800E+04  0.7818609E-02  0.8442204E-01
       -2   -1    0    0    0  501  0.00000000000E+00  0.00000000000E+00  0.17174992893E+04  0.17174992893E+04  0.25500000920E-02 0.  1.
        2   -1    0    0  501    0  0.00000000000E+00  0.00000000000E+00 -0.83340541149E+03  0.83340541149E+03  0.25500000920E-02 0. -1.
    10030    2    1    2    0    0  0.00000000000E+00  0.00000000000E+00  0.88409387786E+03  0.25509047008E+04  0.23928002022E+04 0.  0.
        5    1    3    3  502    0  0.98958770675E+03 -0.67235878949E+03  0.44308098558E+03  0.12758107308E+04  0.46999998093E+01 0. -1.
       -5    1    3    3    0  502 -0.98958770675E+03  0.67235878949E+03  0.44101289228E+03  0.12750939700E+04  0.46999998093E+01 0.  1.
</event>
<event>
 5   0  0.5440503E-06  0.2401703E+04  0.7818609E-02  0.8438866E-01
       -2   -1    0    0    0  501  0.00000000000E+00  0.00000000000E+00  0.82604742033E+03  0.82604742033E+03  0.25500000920E-02 0. -1.
        2   -1    0    0  501    0  0.00000000000E+00  0.00000000000E+00 -0.17457158093E+04  0.17457158093E+04  0.25500000920E-02 0.  1.
    10030    2    1    2    0    0  0.00000000000E+00  0.00000000000E+00 -0.91966838899E+03  0.25717632297E+04  0.24017027634E+04 0.  0.
        3    1    3    3  502    0  0.10170851399E+04 -0.42764814625E+03  0.47754814527E+02  0.11043666290E+04  0.10100000352E+00 0. -1.
       -3    1    3    3    0  502 -0.10170851399E+04  0.42764814625E+03 -0.96742320352E+03  0.14673966007E+04  0.10100000352E+00 0.  1.
</event>
<event>
 5   0  0.5379778E-06  0.2399871E+04  0.7818609E-02  0.8439552E-01
       -2   -1    0    0    0  501  0.00000000000E+00  0.00000000000E+00  0.25378099000E+04  0.25378099000E+04  0.25500000920E-02 0. -1.
        2   -1    0    0  501    0  0.00000000000E+00  0.00000000000E+00 -0.56735743169E+03  0.56735743170E+03  0.25500000920E-02 0.  1.
    10030    2    1    2    0    0  0.00000000000E+00  0.00000000000E+00  0.19704524683E+04  0.31051673317E+04  0.23998710857E+04 0.  0.
        5    1    3    3  502    0  0.56554508433E+02 -0.10585556906E+04  0.17126689527E+04  0.20141984992E+04  0.46999998093E+01 0. -1.
       -5    1    3    3    0  502 -0.56554508433E+02  0.10585556906E+04  0.25778351562E+03  0.10909688325E+04  0.46999998093E+01 0.  1.
</event>
<event>
 5   0  0.2149029E-06  0.2400863E+04  0.7818609E-02  0.8439180E-01
       -1   -1    0    0    0  501  0.00000000000E+00  0.00000000000E+00  0.17488440047E+04  0.17488440047E+04  0.50400001928E-02 0. -1.
        1   -1    0    0  501    0  0.00000000000E+00  0.00000000000E+00 -0.82399364171E+03  0.82399364172E+03  0.50400001928E-02 0.  1.
    10030    2    1    2    0    0  0.00000000000E+00  0.00000000000E+00  0.92485036298E+03  0.25728376464E+04  0.24008634615E+04 0.  0.
        4    1    3    3  502    0 -0.65786872460E+03 -0.41537433195E+01 -0.61360366040E+03  0.89962190799E+03  0.12699999809E+01 0.  1.
       -4    1    3    3    0  502  0.65786872460E+03  0.41537433195E+01  0.15384540234E+04  0.16732157384E+04  0.12699999809E+01 0. -1.
</event>
<event>
 5   0  0.2149417E-06  0.2401361E+04  0.7818609E-02  0.8438994E-01
        1   -1    0    0  501    0  0.00000000000E+00  0.00000000000E+00  0.18861795032E+04  0.18861795032E+04  0.50400001928E-02 0.  1.
       -1   -1    0    0    0  501  0.00000000000E+00  0.00000000000E+00 -0.76431389554E+03  0.76431389556E+03  0.50400001928E-02 0. -1.
    10030    2    1    2    0    0  0.00000000000E+00  0.00000000000E+00  0.11218656077E+04  0.26504933988E+04  0.24013606175E+04 0.  0.
        5    1    3    3  502    0  0.47560472763E+03  0.15180669162E+03  0.17661744563E+04  0.18353853624E+04  0.46999998093E+01 0.  1.
       -5    1    3    3    0  502 -0.47560472763E+03 -0.15180669162E+03 -0.64430884860E+03  0.81510803637E+03  0.46999998093E+01 0. -1.
</event>
<event>
 5   0  0.2215700E-06  0.2404985E+04  0.7818609E-02  0.8437640E-01
        1   -1    0    0  501    0  0.00000000000E+00  0.00000000000E+00  0.24070795574E+04  0.24070795574E+04  0.50400001928E-02 0.  1.
       -1   -1    0    0    0  501  0.00000000000E+00  0.00000000000E+00 -0.60072317631E+03  0.60072317633E+03  0.50400001928E-02 0. -1.
    10030    2    1    2    0    0  0.00000000000E+00  0.00000000000E+00  0.18063563811E+04  0.30078027337E+04  0.24049852202E+04 0.  0.
        3    1    3    3  502    0 -0.20562634101E+02 -0.10103681982E+04  0.17182374555E+04  0.19933907498E+04  0.10100000352E+00 0.  1.
       -3    1    3    3    0  502  0.20562634101E+02  0.10103681982E+04  0.88118925614E+02  0.10144119839E+04  0.10100000352E+00 0. -1.
</event>
<event>
 5   0  0.2149417E-06  0.2395698E+04  0.7818609E-02  0.8441116E-01
       -1   -1    0    0    0  501  0.00000000000E+00  0.00000000000E+00  0.78357048268E+03  0.78357048270E+03  0.50400001928E-02 0. -1.
        1   -1    0    0  501    0  0.00000000000E+00  0.00000000000E+00 -0.18311591915E+04  0.18311591915E+04  0.50400001928E-02 0.  1.
    10030    2    1    2    0    0  0.00000000000E+00  0.00000000000E+00 -0.10475887088E+04  0.26147296742E+04  0.23956980541E+04 0.  0.
        5    1    3    3  502    0 -0.10022106879E+03  0.19551101114E+03 -0.18089706298E+04  0.18222693674E+04  0.46999998093E+01 0.  1.
       -5    1    3    3    0  502  0.10022106879E+03 -0.19551101114E+03  0.76138192100E+03  0.79246030673E+03  0.46999998093E+01 0. -1.
</event>
<event>
 5   0  0.5268358E-06  0.2421137E+04  0.7818609E-02  0.8431632E-01
       -2   -1    0    0    0  501  0.00000000000E+00  0.00000000000E+00  0.67713621355E+03  0.67713621355E+03  0.25500000920E-02 0. -1.
        2   -1    0    0  501    0  0.00000000000E+00  0.00000000000E+00 -0.21642273034E+04  0.21642273034E+04  0.25500000920E-02 0.  1.
    10030    2    1    2    0    0  0.00000000000E+00  0.00000000000E+00 -0.14870910899E+04  0.28413635170E+04  0.24211374860E+04 0.  0.
        2    1    3    3  502    0 -0.81521153197E+03 -0.91907606508E+02 -0.17882560863E+04  0.19674543655E+04  0.25500000920E-02 0.  1.
       -2    1    3    3    0  502  0.81521153197E+03  0.91907606508E+02  0.30116499644E+03  0.87390915150E+03  0.25500000920E-02 0. -1.
</event>
<event>
 5   0  0.5440503E-06  0.2400940E+04  0.7818609E-02  0.8439152E-01
        2   -1    0    0  501    0  0.00000000000E+00  0.00000000000E+00  0.10351761282E+04  0.10351761282E+04  0.25500000920E-02 0.  1.
       -2   -1    0    0    0  501  0.00000000000E+00  0.00000000000E+00 -0.13921569324E+04  0.13921569324E+04  0.25500000920E-02 0. -1.
    10030    2    1    2    0    0  0.00000000000E+00  0.00000000000E+00 -0.35698080415E+03  0.24273330606E+04  0.24009395020E+04 0.  0.
        3    1    3    3  502    0 -0.80210257696E+03 -0.19948945731E+03 -0.10586717566E+04  0.13431122388E+04  0.10100000352E+00 0. -1.
       -3    1    3    3    0  502  0.80210257696E+03  0.19948945731E+03  0.70169095243E+03  0.10842208218E+04  0.10100000352E+00 0.  1.
</event>
<event>
 5   0  0.5440503E-06  0.2398218E+04  0.7818609E-02  0.8440171E-01
       -2   -1    0    0    0  501  0.00000000000E+00  0.00000000000E+00  0.58504706710E+03  0.58504706711E+03  0.25500000920E-02 0.  1.
        2   -1    0    0  501    0  0.00000000000E+00  0.00000000000E+00 -0.24576873013E+04  0.24576873013E+04  0.25500000920E-02 0. -1.
    10030    2    1    2    0    0  0.00000000000E+00  0.00000000000E+00 -0.18726402342E+04  0.30427343684E+04  0.23982182949E+04 0.  0.
        3    1    3    3  502    0  0.82703275635E+03  0.48025760611E+03 -0.18540662330E+04  0.20861908242E+04  0.10100000352E+00 0. -1.
       -3    1    3    3    0  502 -0.82703275635E+03 -0.48025760611E+03 -0.18574001189E+02  0.95654354424E+03  0.10100000352E+00 0.  1.
</event>
<event>
 5   0  0.2254269E-06  0.2402842E+04  0.7818609E-02  0.8438440E-01
        1   -1    0    0  501    0  0.00000000000E+00  0.00000000000E+00  0.94411854021E+03  0.94411854022E+03  0.50400001928E-02 0.  1.
       -1   -1    0    0    0  501  0.00000000000E+00  0.00000000000E+00 -0.15288470872E+04  0.15288470872E+04  0.50400001928E-02 0. -1.
    10030    2    1    2    0    0  0.00000000000E+00  0.00000000000E+00 -0.58472854695E+03  0.24729656274E+04  0.24028423836E+04 0.  0.
        2    1    3    3  502    0 -0.21250632659E+03  0.78080735068E+03 -0.12063080534E+04  0.14525832772E+04  0.25500000920E-02 0. -1.
       -2    1    3    3    0  502  0.21250632659E+03 -0.78080735068E+03  0.62157950640E+03  0.10203823502E+04  0.25500000920E-02 0.  1.
</event>
<event>
 5   0  0.5371843E-06  0.2401858E+04  0.7818609E-02  0.8438808E-01
        2   -1    0    0  501    0  0.00000000000E+00  0.00000000000E+00  0.28500569465E+04  0.28500569465E+04  0.25500000920E-02 0. -1.
       -2   -1    0    0    0  501  0.00000000000E+00  0.00000000000E+00 -0.50603564309E+03  0.50603564310E+03  0.25500000920E-02 0.  1.
    10030    2    1    2    0    0  0.00000000000E+00  0.00000000000E+00  0.23440213034E+04  0.33560925896E+04  0.24018579473E+04 0.  0.
        4    1    3    3  502    0 -0.97618379481E+02 -0.78811732516E+03  0.24307903998E+04  0.25572254196E+04  0.12699999809E+01 0. -1.
       -4    1    3    3    0  502  0.97618379481E+02  0.78811732516E+03 -0.86769096389E+02  0.79886716995E+03  0.12699999809E+01 0.  1.
</event>
<event>
 5   0  0.5440503E-06  0.2408638E+04  0.7818609E-02  0.8436277E-01
        2   -1    0    0  501    0  0.00000000000E+00  0.00000000000E+00  0.28167572044E+04  0.28167572044E+04  0.25500000920E-02 0.  1.
       -2   -1    0    0    0  501  0.00000000000E+00  0.00000000000E+00 -0.51491272422E+03  0.51491272422E+03  0.25500000920E-02 0. -1.
    10030    2    1    2    0    0  0.00000000000E+00  0.00000000000E+00  0.23018444802E+04  0.33316699286E+04  0.24086378936E+04 0.  0.
        3    1    3    3  502    0 -0.65948829335E+03 -0.89245803416E+03  0.50364451659E+03  0.12186320040E+04  0.10100000352E+00 0. -1.
       -3    1    3    3    0  502  0.65948829335E+03  0.89245803416E+03  0.17981999636E+04  0.21130379247E+04  0.10100000352E+00 0.  1.
</event>
<event>
 5   0  0.5440503E-06  0.2403227E+04  0.7818609E-02  0.8438296E-01
        2   -1    0    0  501    0  0.00000000000E+00  0.00000000000E+00  0.19132123013E+04  0.19132123013E+04  0.25500000920E-02 0. -1.
       -2   -1    0    0    0  501  0.00000000000E+00  0.00000000000E+00 -0.75468614349E+03  0.75468614349E+03  0.25500000920E-02 0.  1.
    10030    2    1    2    0    0  0.00000000000E+00  0.00000000000E+00  0.11585261578E+04  0.26678984448E+04  0.24032268419E+04 0.  0.
        3    1    3    3  502    0  0.45211536444E+03 -0.10100414292E+04  0.10991116128E+04  0.15596917449E+04  0.10100000352E+00 0. -1.
       -3    1    3    3    0  502 -0.45211536444E+03  0.10100414292E+04  0.59414545003E+02  0.11082066999E+04  0.10100000352E+00 0.  1.
</event>
<event>
 5   0  0.5440503E-06  0.2404790E+04  0.7818609E-02  0.8437713E-01
        2   -1    0    0  501    0  0.00000000000E+00  0.00000000000E+00  0.31005179123E+04  0.31005179123E+04  0.25500000920E-02 0. -1.
       -2   -1    0    0    0  501  0.00000000000E+00  0.00000000000E+00 -0.46629408413E+03  0.46629408414E+03  0.25500000920E-02 0.  1.
    10030    2    1    2    0    0  0.00000000000E+00  0.00000000000E+00  0.26342238282E+04  0.35668119964E+04  0.24047895212E+04 0.  0.
        3    1    3    3  502    0  0.91124380604E+03  0.10084225485E+03  0.24709883984E+04  0.26355868625E+04  0.10100000352E+00 0. -1.
       -3    1    3    3    0  502 -0.91124380604E+03 -0.10084225485E+03  0.16323542979E+03  0.93122513398E+03  0.10100000352E+00 0.  1.
</event>
<event>
 5   0  0.5379778E-06  0.2400903E+04  0.7818609E-02  0.8439165E-01
       -2   -1    0    0    0  501  0.00000000000E+00  0.00000000000E+00  0.12216108703E+04  0.12216108703E+04  0.25500000920E-02 0. -1.
        2   -1    0    0  501    0  0.00000000000E+00  0.00000000000E+00 -0.11796589569E+04  0.11796589569E+04  0.25500000920E-02 0.  1.
    10030    2    1    2    0    0  0.00000000000E+00  0.00000000000E+00  0.41951913350E+02  0.24012698272E+04  0.24009033341E+04 0.  0.
        5    1    3    3  502    0  0.88853742145E+03  0.29537886461E+03 -0.73034753431E+03  0.11875087511E+04  0.46999998093E+01 0.  1.
       -5    1    3    3    0  502 -0.88853742145E+03 -0.29537886461E+03  0.77229944766E+03  0.12137610761E+04  0.46999998093E+01 0. -1.
</event>
<event>
 5   0  0.2215700E-06  0.2409240E+04  0.7818609E-02  0.8436052E-01
       -1   -1    0    0    0  501  0.00000000000E+00  0.00000000000E+00  0.17134736685E+04  0.17134736685E+04  0.50400001928E-02 0.  1.
        1   -1    0    0  501    0  0.00000000000E+00  0.00000000000E+00 -0.84688150664E+03  0.84688150665E+03  0.50400001928E-02 0. -1.
    10030    2    1    2    0    0  0.00000000000E+00  0.00000000000E+00  0.86659216189E+03  0.25603551752E+04  0.24092398486E+04 0.  0.
        3    1    3    3  502    0  0.18434139832E+03  0.49519559979E+03 -0.71715212235E+03  0.89079044112E+03  0.10100000352E+00 0. -1.
       -3    1    3    3    0  502 -0.18434139832E+03 -0.49519559979E+03  0.15837442842E+04  0.16695647341E+04  0.10100000352E+00 0.  1.
</event>
<event>
 5   0  0.2254269E-06  0.2401176E+04  0.7818609E-02  0.8439063E-01
       -1   -1    0    0    0  501  0.00000000000E+00  0.00000000000E+00  0.14948884768E+04  0.14948884769E+04  0.50400001928E-02 0. -1.
        1   -1    0    0  501    0  0.00000000000E+00  0.00000000000E+00 -0.96422680095E+03  0.96422680097E+03  0.50400001928E-02 0.  1.
    10030    2    1    2    0    0  0.00000000000E+00  0.00000000000E+00  0.53066167589E+03  0.24591152778E+04  0.24011759901E+04 0.  0.
        2    1    3    3  502    0  0.46429025683E+03  0.64927277198E+03  0.11837934650E+04  0.14277561216E+04  0.25500000920E-02 0. -1.
       -2    1    3    3    0  502 -0.46429025683E+03 -0.64927277198E+03 -0.65313178915E+03  0.10313591562E+04  0.25500000920E-02 0.  1.
</event>
<event>
 5   0  0.2149029E-06  0.2397189E+04  0.7818609E-02  0.8440557E-01
       -1   -1    0    0    0  501  0.00000000000E+00  0.00000000000E+00  0.10511345387E+04  0.10511345387E+04  0.50400001928E-02 0.  1.
        1   -1    0    0  501    0  0.00000000000E+00  0.00000000000E+00 -0.13667407321E+04  0.13667407321E+04  0.50400001928E-02 0. -1.
    10030    2    1    2    0    0  0.00000000000E+00  0.00000000000E+00 -0.31560619335E+03  0.24178752708E+04  0.23971886776E+04 0.  0.
        4    1    3    3  502    0 -0.76148402301E+03  0.92560864101E+03 -0.16202279104E+03  0.12094884337E+04  0.12699999809E+01 0. -1.
       -4    1    3    3    0  502  0.76148402301E+03 -0.92560864101E+03 -0.15358340231E+03  0.12083868371E+04  0.12699999809E+01 0.  1.
</event>
<event>
 5   0  0.5440503E-06  0.2399149E+04  0.7818609E-02  0.8439822E-01
       -2   -1    0    0    0  501  0.00000000000E+00  0.00000000000E+00  0.88468764212E+03  0.88468764213E+03  0.25500000920E-02 0. -1.
        2   -1    0    0  501    0  0.00000000000E+00  0.00000000000E+00 -0.16265393324E+04  0.16265393324E+04  0.25500000920E-02 0.  1.
    10030    2    1    2    0    0  0.00000000000E+00  0.00000000000E+00 -0.74185169031E+03  0.25112269746E+04  0.23991492216E+04 0.  0.
        3    1    3    3  502    0  0.16629900573E+03  0.11382659505E+04 -0.14927869578E+02  0.11504466893E+04  0.10100000352E+00 0.  1.
       -3    1    3    3    0  502 -0.16629900573E+03 -0.11382659505E+04 -0.72692382073E+03  0.13607802853E+04  0.10100000352E+00 0. -1.
</event>
<event>
 5   0  0.5440503E-06  0.2402338E+04  0.7818609E-02  0.8438629E-01
        2   -1    0    0  501    0  0.00000000000E+00  0.00000000000E+00  0.15371815960E+04  0.15371815960E+04  0.25500000920E-02 0.  1.
       -2   -1    0    0    0  501  0.00000000000E+00  0.00000000000E+00 -0.93860531140E+03  0.93860531140E+03  0.25500000920E-02 0. -1.
    10030    2    1    2    0    0  0.00000000000E+00  0.00000000000E+00  0.59857628460E+03  0.24757869074E+04  0.24023378702E+04 0.  0.
        3    1    3    3  502    0 -0.93040356474E+03 -0.71210807453E+03  0.26510768698E+02  0.11719434859E+04  0.10100000352E+00 0.  1.
       -3    1    3    3    0  502  0.93040356474E+03  0.71210807453E+03  0.57206551590E+03  0.13038434215E+04  0.10100000352E+00 0. -1.
</event>
<event>
 5   0  0.5349036E-06  0.2395012E+04  0.7818609E-02  0.8441373E-01
        2   -1    0    0  501    0  0.00000000000E+00  0.00000000000E+00  0.11941987940E+04  0.11941987940E+04  0.25500000920E-02 0.  1.
       -2   -1    0    0    0  501  0.00000000000E+00  0.00000000000E+00 -0.12008224949E+04  0.12008224949E+04  0.25500000920E-02 0. -1.
    10030    2    1    2    0    0  0.00000000000E+00  0.00000000000E+00 -0.66237008955E+01  0.23950212889E+04  0.23950121295E+04 0.  0.
        1    1    3    3  502    0  0.54236737532E+03  0.96091854394E+03  0.46197904042E+03  0.11962238301E+04  0.50400001928E-02 0.  1.
       -1    1    3    3    0  502 -0.54236737532E+03 -0.96091854394E+03 -0.46860274132E+03  0.11987974587E+04  0.50400001928E-02 0. -1.
</event>
<event>
 5   0  0.2297414E-06  0.2386923E+04  0.7818609E-02  0.8444416E-01
        1   -1    0    0  501    0  0.00000000000E+00  0.00000000000E+00  0.15935975822E+04  0.15935975822E+04  0.50400001928E-02 0. -1.
       -1   -1    0    0    0  501  0.00000000000E+00  0.00000000000E+00 -0.89379576497E+03  0.89379576499E+03  0.50400001928E-02 0.  1.
    10030    2    1    2    0    0  0.00000000000E+00  0.00000000000E+00  0.69980181718E+03  0.24873933472E+04  0.23869233503E+04 0.  0.
        1    1    3    3  502    0 -0.10252981308E+04  0.47448240000E+03 -0.50974045301E+02  0.11309147440E+04  0.50400001928E-02 0.  1.
       -1    1    3    3    0  502  0.10252981308E+04 -0.47448240000E+03  0.75077586248E+03  0.13564786031E+04  0.50400001928E-02 0. -1.
</event>
<event>
 5   0  0.5268358E-06  0.2401019E+04  0.7818609E-02  0.8439122E-01
        2   -1    0    0  501    0  0.00000000000E+00  0.00000000000E+00  0.10644139274E+04  0.10644139274E+04  0.25500000920E-02 0. -1.
       -2   -1    0    0    0  501  0.00000000000E+00  0.00000000000E+00 -0.13540060929E+04  0.13540060929E+04  0.25500000920E-02 0.  1.
    10030    2    1    2    0    0  0.00000000000E+00  0.00000000000E+00 -0.28959216547E+03  0.24184200203E+04  0.24010189030E+04 0.  0.
        2    1    3    3  502    0 -0.92882391982E+03 -0.75685373069E+03 -0.68874084107E+02  0.12001187788E+04  0.25500000920E-02 0.  1.
       -2    1    3    3    0  502  0.92882391982E+03  0.75685373069E+03 -0.22071808136E+03  0.12183012415E+04  0.25500000920E-02 0. -1.
</event>
<event>
 5   0  0.5440503E-06  0.2403579E+04  0.7818609E-02  0.8438165E-01
       -2   -1    0    0    0  501  0.00000000000E+00  0.00000000000E+00  0.71089338254E+03  0.71089338255E+03  0.25500000920E-02 0. -1.
        2   -1    0    0  501    0  0.00000000000E+00  0.00000000000E+00 -0.20316666581E+04  0.20316666581E+04  0.25500000920E-02 0.  1.
    10030    2    1    2    0    0  0.00000000000E+00  0.00000000000E+00 -0.13207732756E+04  0.27425600407E+04  0.24035793166E+04 0.  0.
        3    1    3    3  502    0 -0.33017121854E+03 -0.22519515081E+03  0.63284700263E+03  0.74847927723E+03  0.10100000352E+00 0. -1.
       -3    1    3    3    0  502  0.33017121854E+03  0.22519515081E+03 -0.19536202782E+04  0.19940807634E+04  0.10100000352E+00 0.  1.
</event>
<event>
 5   0  0.2297414E-06  0.2392244E+04  0.7818609E-02  0.8442413E-01
       -1   -1    0    0    0  501  0.00000000000E+00  0.00000000000E+00  0.80358190516E+03  0.80358190517E+03  0.50400001928E-02 0.  1.
        1   -1    0    0  501    0  0.00000000000E+00  0.00000000000E+00 -0.17804135161E+04  0.17804135161E+04  0.50400001928E-02 0. -1.
    10030    2    1    2    0    0  0.00000000000E+00  0.00000000000E+00 -0.97683161098E+03  0.25839954213E+04  0.23922442060E+04 0.  0.
        1    1    3    3  502    0  0.19536361771E+03 -0.94232085962E+03 -0.12556854808E+04  0.15820498009E+04  0.50400001928E-02 0. -1.
       -1    1    3    3    0  502 -0.19536361771E+03  0.94232085962E+03  0.27885386986E+03  0.10019456205E+04  0.50400001928E-02 0.  1.
</event>
<event>
 5   0  0.5371843E-06  0.2399015E+04  0.7818609E-02  0.8439873E-01
       -2   -1    0    0    0  501  0.00000000000E+00  0.00000000000E+00  0.83179684585E+03  0.83179684585E+03  0.25500000920E-02 0.  1.
        2   -1    0    0  501    0  0.00000000000E+00  0.00000000000E+00 -0.17297706792E+04  0.17297706792E+04  0.25500000920E-02 0. -1.
    10030    2    1    2    0    0  0.00000000000E+00  0.00000000000E+00 -0.89797383333E+03  0.25615675250E+04  0.23990146269E+04 0.  0.
        4    1    3    3  502    0 -0.27068107547E+03 -0.98456817734E+03 -0.11210585915E+04  0.15163827745E+04  0.12699999809E+01 0. -1.
       -4    1    3    3    0  502  0.27068107547E+03  0.98456817734E+03  0.22308475816E+03  0.10451847505E+04  0.12699999809E+01 0.  1.
</event>
<event>
 5   0  0.1796750E-06  0.2405346E+04  0.7818609E-02  0.8437505E-01
        3   -1    0    0  501    0  0.00000000000E+00  0.00000000000E+00  0.11914177587E+04  0.11914177629E+04  0.10100000352E+00 0. -1.
       -3   -1    0    0    0  501  0.00000000000E+00  0.00000000000E+00 -0.12140343181E+04  0.12140343223E+04  0.10100000352E+00 0.  1.
    10030    2    1    2    0    0  0.00000000000E+00  0.00000000000E+00 -0.22616559448E+02  0.24054520852E+04  0.24053457601E+04 0.  0.
        1    1    3    3  502    0  0.35785214025E+02  0.12020979102E+04 -0.21412638015E+02  0.12028210459E+04  0.50400001928E-02 0.  1.
       -1    1    3    3    0  502 -0.35785214025E+02 -0.12020979102E+04 -0.12039214327E+01  0.12026310393E+04  0.50400001928E-02 0. -1.
</event>
<event>
 5   0  0.5379778E-06  0.2405159E+04  0.7818609E-02  0.8437574E-01
        2   -1    0    0  501    0  0.00000000000E+00  0.00000000000E+00  0.86085328994E+03  0.86085328995E+03  0.25500000920E-02 0. -1.
       -2   -1    0    0    0  501  0.00000000000E+00  0.00000000000E+00 -0.16799587382E+04  0.16799587382E+04  0.25500000920E-02 0.  1.
    10030    2    1    2    0    0  0.00000000000E+00  0.00000000000E+00 -0.81910544828E+03  0.25408120282E+04  0.24051594598E+04 0.  0.
        5    1    3    3  502    0  0.71735523534E+03  0.83505015312E+03  0.10175897040E+03  0.11055696586E+04  0.46999998093E+01 0. -1.
       -5    1    3    3    0  502 -0.71735523534E+03 -0.83505015312E+03 -0.92086441867E+03  0.14352423696E+04  0.46999998093E+01 0.  1.
</event>
<event>
 5   0  0.5371843E-06  0.2400194E+04  0.7818609E-02  0.8439431E-01
        2   -1    0    0  501    0  0.00000000000E+00  0.00000000000E+00  0.10758760808E+04  0.10758760808E+04  0.25500000920E-02 0.  1.
       -2   -1    0    0    0  501  0.00000000000E+00  0.00000000000E+00 -0.13386600859E+04  0.13386600859E+04  0.25500000920E-02 0. -1.
    10030    2    1    2    0    0  0.00000000000E+00  0.00000000000E+00 -0.26278400508E+03  0.24145361667E+04  0.24001936311E+04 0.  0.
        4    1    3    3  502    0  0.10373021381E+04 -0.43856867596E+03  0.28568472394E+03  0.11618758900E+04  0.12699999809E+01 0.  1.
       -4    1    3    3    0  502 -0.10373021381E+04  0.43856867596E+03 -0.54846872902E+03  0.12526602767E+04  0.12699999809E+01 0. -1.
</event>
<event>
 5   0  0.5440503E-06  0.2401750E+04  0.7818609E-02  0.8438849E-01
       -2   -1    0    0    0  501  0.00000000000E+00  0.00000000000E+00  0.67584635420E+03  0.67584635421E+03  0.25500000920E-02 0. -1.
        2   -1    0    0  501    0  0.00000000000E+00  0.00000000000E+00 -0.21337694595E+04  0.21337694595E+04  0.25500000920E-02 0.  1.
    10030    2    1    2    0    0  0.00000000000E+00  0.00000000000E+00 -0.14579231053E+04  0.28096158137E+04  0.24017496205E+04 0.  0.
        3    1    3    3  502    0  0.66652776784E+02 -0.87138101876E+03 -0.16924511446E+04  0.19047672717E+04  0.10100000352E+00 0.  1.
       -3    1    3    3    0  502 -0.66652776784E+02  0.87138101876E+03  0.23452803928E+03  0.90484854198E+03  0.10100000352E+00 0. -1.
</event>
<event>
 5   0  0.5379778E-06  0.2398653E+04  0.7818609E-02  0.8440008E-01
        2   -1    0    0  501    0  0.00000000000E+00  0.00000000000E+00  0.22777218057E+04  0.22777218057E+04  0.25500000920E-02 0. -1.
       -2   -1    0    0    0  501  0.00000000000E+00  0.00000000000E+00 -0.63150133465E+03  0.63150133465E+03  0.25500000920E-02 0.  1.
    10030    2    1    2    0    0  0.00000000000E+00  0.00000000000E+00  0.16462204710E+04  0.29092231403E+04  0.23986532557E+04 0.  0.
        5    1    3    3  502    0  0.77524979526E+02 -0.11942561510E+04  0.72834897611E+03  0.14009897208E+04  0.46999998093E+01 0. -1.
       -5    1    3    3    0  502 -0.77524979526E+02  0.11942561510E+04  0.91787149491E+03  0.15082334196E+04  0.46999998093E+01 0.  1.
</event>
<event>
 5   0  0.5371843E-06  0.2407233E+04  0.7818609E-02  0.8436801E-01
        2   -1    0    0  501    0  0.00000000000E+00  0.00000000000E+00  0.24913891525E+04  0.24913891525E+04  0.25500000920E-02 0. -1.
       -2   -1    0    0    0  501  0.00000000000E+00  0.00000000000E+00 -0.58147988449E+03  0.58147988450E+03  0.25500000920E-02 0.  1.
    10030    2    1    2    0    0  0.00000000000E+00  0.00000000000E+00  0.19099092680E+04  0.30728690370E+04  0.24072329980E+04 0.  0.
        4    1    3    3  502    0  0.82235721164E+03  0.46247830021E+02  0.20752962409E+04  0.22327710017E+04  0.12699999809E+01 0. -1.
       -4    1    3    3    0  502 -0.82235721164E+03 -0.46247830021E+02 -0.16538697290E+03  0.84009803537E+03  0.12699999809E+01 0.  1.
</event>
<event>
 5   0  0.5440503E-06  0.2414582E+04  0.7818609E-02  0.8434064E-01
       -2   -1    0    0    0  501  0.00000000000E+00  0.00000000000E+00  0.15271755801E+04  0.15271755801E+04  0.25500000920E-02 0. -1.
        2   -1    0    0  501    0  0.00000000000E+00  0.00000000000E+00 -0.95440980875E+03  0.95440980875E+03  0.25500000920E-02 0.  1.
    10030    2    1    2    0    0  0.00000000000E+00  0.00000000000E+00  0.57276577138E+03  0.24815853889E+04  0.24145818299E+04 0.  0.
        3    1    3    3  502    0 -0.91921930885E+03 -0.64322365858E+02 -0.51529459695E+03  0.10557604067E+04  0.10100000352E+00 0.  1.
       -3    1    3    3    0  502  0.91921930885E+03  0.64322365858E+02  0.10880603683E+04  0.14258249822E+04  0.10100000352E+00 0. -1.
</event>
<event>
 5   0  0.2149417E-06  0.2423872E+04  0.7818609E-02  0.8430620E-01
        1   -1    0    0  501    0  0.00000000000E+00  0.00000000000E+00  0.85398777788E+03  0.85398777789E+03  0.50400001928E-02 0. -1.
       -1   -1    0    0    0  501  0.00000000000E+00  0.00000000000E+00 -0.17199185070E+04  0.17199185070E+04  0.50400001928E-02 0.  1.
    10030    2    1    2    0    0  0.00000000000E+00  0.00000000000E+00 -0.86593072914E+03  0.25739062849E+04  0.24238724257E+04 0.  0.
        5    1    3    3  502    0 -0.10742551451E+04  0.55916375435E+03 -0.48138459108E+03  0.13032426618E+04  0.46999998093E+01 0.  1.
       -5    1    3    3    0  502  0.10742551451E+04 -0.55916375435E+03 -0.38454613805E+03  0.12706636232E+04  0.46999998093E+01 0. -1.
</event>
<event>
 5   0  0.5349036E-06  0.2396907E+04  0.7818609E-02  0.8440663E-01
        2   -1    0    0  501    0  0.00000000000E+00  0.00000000000E+00  0.21893631106E+04  0.21893631106E+04  0.25500000920E-02 0.  1.
       -2   -1    0    0    0  501  0.00000000000E+00  0.00000000000E+00 -0.65603114558E+03  0.65603114559E+03  0.25500000920E-02 0. -1.
    10030    2    1    2    0    0  0.00000000000E+00  0.00000000000E+00  0.15333319651E+04  0.28453942562E+04  0.23969066645E+04 0.  0.
        1    1    3    3  502    0 -0.73496147528E+03 -0.18284460113E+03  0.18692677316E+04  0.20168694481E+04  0.50400001928E-02 0.  1.
       -1    1    3    3    0  502  0.73496147528E+03  0.18284460113E+03 -0.33593576659E+03  0.82852480808E+03  0.50400001928E-02 0. -1.
</event>
<event>
 5   0  0.2215700E-06  0.2407145E+04  0.7818609E-02  0.8436833E-01
        1   -1    0    0  501    0  0.00000000000E+00  0.00000000000E+00  0.10129947673E+04  0.10129947673E+04  0.50400001928E-02 0. -1.
       -1   -1    0    0    0  501  0.00000000000E+00  0.00000000000E+00 -0.14300045904E+04  0.14300045905E+04  0.50400001928E-02 0.  1.
    10030    2    1    2    0    0  0.00000000000E+00  0.00000000000E+00 -0.41700982312E+03  0.24429993578E+04  0.24071453362E+04 0.  0.
        3    1    3    3  502    0  0.22261779375E+03  0.59936977605E+03 -0.12433913073E+04  0.13981504797E+04  0.10100000352E+00 0.  1.
       -3    1    3    3    0  502 -0.22261779375E+03 -0.59936977605E+03  0.82638148417E+03  0.10448488781E+04  0.10100000352E+00 0. -1.
</event>
<event>
 5   0  0.5371843E-06  0.2396784E+04  0.7818609E-02  0.8440709E-01
        2   -1    0    0  501    0  0.00000000000E+00  0.00000000000E+00  0.14282107885E+04  0.14282107886E+04  0.25500000920E-02 0.  1.
       -2   -1    0    0    0  501  0.00000000000E+00  0.00000000000E+00 -0.10055540567E+04  0.10055540567E+04  0.25500000920E-02 0. -1.
    10030    2    1    2    0    0  0.00000000000E+00  0.00000000000E+00  0.42265673184E+03  0.24337648453E+04  0.23967838052E+04 0.  0.
        4    1    3    3  502    0  0.64073786437E+03 -0.26775457522E+03  0.12030780953E+04  0.13891134006E+04  0.12699999809E+01 0.  1.
       -4    1    3    3    0  502 -0.64073786437E+03  0.26775457522E+03 -0.78042136347E+03  0.10446514447E+04  0.12699999809E+01 0. -1.
</event>
<event>
 5   0  0.5349036E-06  0.2400728E+04  0.7818609E-02  0.8439231E-01
        2   -1    0    0  501    0  0.00000000000E+00  0.00000000000E+00  0.15070919649E+04  0.15070919649E+04  0.25500000920E-02 0. -1.
       -2   -1    0    0    0  501  0.00000000000E+00  0.00000000000E+00 -0.95606247049E+03  0.95606247049E+03  0.25500000920E-02 0.  1.
    10030    2    1    2    0    0  0.00000000000E+00  0.00000000000E+00  0.55102949439E+03  0.24631544354E+04  0.24007282788E+04 0.  0.
        1    1    3    3  502    0  0.10619657407E+02 -0.65955837787E+02 -0.95415365345E+03  0.95648948979E+03  0.50400001928E-02 0.  1.
       -1    1    3    3    0  502 -0.10619657407E+02  0.65955837787E+02  0.15051831478E+04  0.15066649456E+04  0.50400001928E-02 0. -1.
</event>
<event>
 5   0  0.5371843E-06  0.2406571E+04  0.7818609E-02  0.8437047E-01
       -2   -1    0    0    0  501  0.00000000000E+00  0.00000000000E+00  0.10752472428E+04  0.10752472428E+04  0.25500000920E-02 0. -1.
        2   -1    0    0  501    0  0.00000000000E+00  0.00000000000E+00 -0.13465707888E+04  0.13465707888E+04  0.25500000920E-02 0.  1.
    10030    2    1    2    0    0  0.00000000000E+00  0.00000000000E+00 -0.27132354602E+03  0.24218180316E+04  0.24065714432E+04 0.  0.
        4    1    3    3  502    0 -0.73719376685E+03  0.25659099208E+03 -0.10572152081E+04  0.13141534142E+04  0.12699999809E+01 0.  1.
       -4    1    3    3    0  502  0.73719376685E+03 -0.25659099208E+03  0.78589166205E+03  0.11076646173E+04  0.12699999809E+01 0. -1.
</event>
<event>
 5   0  0.5349036E-06  0.2396292E+04  0.7818609E-02  0.8440893E-01
        2   -1    0    0  501    0  0.00000000000E+00  0.00000000000E+00  0.81103506381E+03  0.81103506382E+03  0.25500000920E-02 0.  1.
       -2   -1    0    0    0  501  0.00000000000E+00  0.00000000000E+00 -0.17700267597E+04  0.17700267597E+04  0.25500000920E-02 0. -1.
    10030    2    1    2    0    0  0.00000000000E+00  0.00000000000E+00 -0.95899169587E+03  0.25810618235E+04  0.23962919405E+04 0.  0.
        1    1    3    3  502    0  0.68068036114E+03  0.69304466047E+03  0.27595227189E+03  0.10098446969E+04  0.50400001928E-02 0.  1.
       -1    1    3    3    0  502 -0.68068036114E+03 -0.69304466047E+03 -0.12349439678E+04  0.15712171266E+04  0.50400001928E-02 0. -1.
</event>
<event>
 5   0  0.2297414E-06  0.2400284E+04  0.7818609E-02  0.8439397E-01
       -1   -1    0    0    0  501  0.00000000000E+00  0.00000000000E+00  0.91028754060E+03  0.91028754061E+03  0.50400001928E-02 0.  1.
        1   -1    0    0  501    0  0.00000000000E+00  0.00000000000E+00 -0.15822920205E+04  0.15822920205E+04  0.50400001928E-02 0. -1.
    10030    2    1    2    0    0  0.00000000000E+00  0.00000000000E+00 -0.67200447986E+03  0.24925795611E+04  0.24002839097E+04 0.  0.
        1    1    3    3  502    0  0.81102852557E+03  0.79156042436E+03  0.74160704605E+02  0.11357090230E+04  0.50400001928E-02 0.  1.
       -1    1    3    3    0  502 -0.81102852557E+03 -0.79156042436E+03 -0.74616518447E+03  0.13568705381E+04  0.50400001928E-02 0. -1.
</event>
<event>
 5   0  0.2149417E-06  0.2410353E+04  0.7818609E-02  0.8435638E-01
       -1   -1    0    0    0  501  0.00000000000E+00  0.00000000000E+00  0.77970644555E+03  0.77970644556E+03  0.50400001928E-02 0. -1.
        1   -1    0    0  501    0  0.00000000000E+00  0.00000000000E+00 -0.18628174850E+04  0.18628174850E+04  0.50400001928E-02 0.  1.
    10030    2    1    2    0    0  0.00000000000E+00  0.00000000000E+00 -0.10831110395E+04  0.26425239306E+04  0.24103533351E+04 0.  0.
        5    1    3    3  502    0 -0.10001740135E+04  0.36002759234E+02  0.19452052391E+03  0.10195609742E+04  0.46999998093E+01 0. -1.
       -5    1    3    3    0  502  0.10001740135E+04 -0.36002759234E+02 -0.12776315634E+04  0.16229629563E+04  0.46999998093E+01 0.  1.
</event>
<event>
 5   0  0.5371843E-06  0.2401965E+04  0.7818609E-02  0.8438768E-01
        2   -1    0    0  501    0  0.00000000000E+00  0.00000000000E+00  0.15895587883E+04  0.15895587883E+04  0.25500000920E-02 0.  1.
       -2   -1    0    0    0  501  0.00000000000E+00  0.00000000000E+00 -0.90739592852E+03  0.90739592852E+03  0.25500000920E-02 0. -1.
    10030    2    1    2    0    0  0.00000000000E+00  0.00000000000E+00  0.68216285975E+03  0.24969547168E+04  0.24019651726E+04 0.  0.
        4    1    3    3  502    0  0.96209092975E+03 -0.71824100745E+03  0.37171646120E+03  0.12568467855E+04  0.12699999809E+01 0. -1.
       -4    1    3    3    0  502 -0.96209092975E+03  0.71824100745E+03  0.31044639855E+03  0.12401079313E+04  0.12699999809E+01 0.  1.
</event>
<event>
 5   0  0.5349036E-06  0.2382715E+04  0.7818609E-02  0.8446003E-01
       -2   -1    0    0    0  501  0.00000000000E+00  0.00000000000E+00  0.81881287839E+03  0.81881287839E+03  0.25500000920E-02 0.  1.
        2   -1    0    0  501    0  0.00000000000E+00  0.00000000000E+00 -0.17334024679E+04  0.17334024679E+04  0.25500000920E-02 0. -1.
    10030    2    1    2    0    0  0.00000000000E+00  0.00000000000E+00 -0.91458958949E+03  0.25522153463E+04  0.23827146402E+04 0.  0.
        1    1    3    3  502    0 -0.25095927398E+03 -0.11465993037E+04 -0.23866265582E+03  0.11977605703E+04  0.50400001928E-02 0.  1.
       -1    1    3    3    0  502  0.25095927398E+03  0.11465993037E+04 -0.67592693367E+03  0.13544547760E+04  0.50400001928E-02 0. -1.
</event>
<event>
 5   0  0.5268358E-06  0.2400584E+04  0.7818609E-02  0.8439285E-01
       -2   -1    0    0    0  501  0.00000000000E+00  0.00000000000E+00  0.12820907768E+04  0.12820907768E+04  0.25500000920E-02 0. -1.
        2   -1    0    0  501    0  0.00000000000E+00  0.00000000000E+00 -0.11237116617E+04  0.11237116617E+04  0.25500000920E-02 0.  1.
    10030    2    1    2    0    0  0.00000000000E+00  0.00000000000E+00  0.15837911509E+03  0.24058024385E+04  0.24005835601E+04 0.  0.
        2    1    3    3  502    0  0.50189656440E+03  0.29752000183E+03 -0.97203414839E+03  0.11336969165E+04  0.25500000920E-02 0.  1.
       -2    1    3    3    0  502 -0.50189656440E+03 -0.29752000183E+03  0.11304132635E+04  0.12721055220E+04  0.25500000920E-02 0. -1.
</event>
<event>
 5   0  0.5379778E-06  0.2398177E+04  0.7818609E-02  0.8440186E-01
        2   -1    0    0  501    0  0.00000000000E+00  0.00000000000E+00  0.15727823824E+04  0.15727823824E+04  0.25500000920E-02 0. -1.
       -2   -1    0    0    0  501  0.00000000000E+00  0.00000000000E+00 -0.91418427870E+03  0.91418427870E+03  0.25500000920E-02 0.  1.
    10030    2    1    2    0    0  0.00000000000E+00  0.00000000000E+00  0.65859810366E+03  0.24869666611E+04  0.23981767473E+04 0.  0.
        5    1    3    3  502    0 -0.13824254229E+02  0.41649802441E+03 -0.83666321012E+03  0.93471339538E+03  0.46999998093E+01 0.  1.
       -5    1    3    3    0  502  0.13824254229E+02 -0.41649802441E+03  0.14952613138E+04  0.15522532657E+04  0.46999998093E+01 0. -1.
</event>
<event>
 5   0  0.5268358E-06  0.2400136E+04  0.7818609E-02  0.8439453E-01
       -2   -1    0    0    0  501  0.00000000000E+00  0.00000000000E+00  0.12103126255E+04  0.12103126255E+04  0.25500000920E-02 0.  1.
        2   -1    0    0  501    0  0.00000000000E+00  0.00000000000E+00 -0.11899102022E+04  0.11899102022E+04  0.25500000920E-02 0. -1.
    10030    2    1    2    0    0  0.00000000000E+00  0.00000000000E+00  0.20402423239E+02  0.24002228277E+04  0.24001361136E+04 0.  0.
        2    1    3    3  502    0 -0.19051137636E+03  0.64356139465E+03  0.10050725612E+04  0.12085680397E+04  0.25500000920E-02 0.  1.
       -2    1    3    3    0  502  0.19051137636E+03 -0.64356139465E+03 -0.98467013796E+03  0.11916547880E+04  0.25500000920E-02 0. -1.
</event>
<event>
 5   0  0.2215700E-06  0.2420722E+04  0.7818609E-02  0.8431786E-01
        1   -1    0    0  501    0  0.00000000000E+00  0.00000000000E+00  0.12512066661E+04  0.12512066661E+04  0.50400001928E-02 0.  1.
       -1   -1    0    0    0  501  0.00000000000E+00  0.00000000000E+00 -0.11708482622E+04  0.11708482622E+04  0.50400001928E-02 0. -1.
    10030    2    1    2    0    0  0.00000000000E+00  0.00000000000E+00  0.80358403961E+02  0.24220549283E+04  0.24207215045E+04 0.  0.
        3    1    3    3  502    0  0.83151539014E+03  0.55854141443E+03 -0.63959682237E+03  0.11884740052E+04  0.10100000352E+00 0. -1.
       -3    1    3    3    0  502 -0.83151539014E+03 -0.55854141443E+03  0.71995522633E+03  0.12335809231E+04  0.10100000352E+00 0.  1.
</event>
<event>
 5   0  0.5349036E-06  0.2395132E+04  0.7818609E-02  0.8441328E-01
        2   -1    0    0  501    0  0.00000000000E+00  0.00000000000E+00  0.14897785178E+04  0.14897785178E+04  0.25500000920E-02 0. -1.
       -2   -1    0    0    0  501  0.00000000000E+00  0.00000000000E+00 -0.96266987597E+03  0.96266987598E+03  0.25500000920E-02 0.  1.
    10030    2    1    2    0    0  0.00000000000E+00  0.00000000000E+00  0.52710864179E+03  0.24524483937E+04  0.23951324815E+04 0.  0.
        1    1    3    3  502    0 -0.63377894738E+03  0.90672931741E+03  0.73314781880E+03  0.13271546758E+04  0.50400001928E-02 0.  1.
       -1    1    3    3    0  502  0.63377894738E+03 -0.90672931741E+03 -0.20603917701E+03  0.11252937180E+04  0.50400001928E-02 0. -1.
</event>
<event>
 5   0  0.2149029E-06  0.2401367E+04  0.7818609E-02  0.8438992E-01
       -1   -1    0    0    0  501  0.00000000000E+00  0.00000000000E+00  0.72580458066E+03  0.72580458068E+03  0.50400001928E-02 0. -1.
        1   -1    0    0  501    0  0.00000000000E+00  0.00000000000E+00 -0.19862666589E+04  0.19862666589E+04  0.50400001928E-02 0.  1.
    10030    2    1    2    0    0  0.00000000000E+00  0.00000000000E+00 -0.12604620783E+04  0.27120712396E+04  0.24013674767E+04 0.  0.
        4    1    3    3  502    0 -0.75138219083E+03  0.91240674564E+03 -0.86868552045E+03  0.14668597113E+04  0.12699999809E+01 0.  1.
       -4    1    3    3    0  502  0.75138219083E+03 -0.91240674564E+03 -0.39177655780E+03  0.12452115283E+04  0.12699999809E+01 0. -1.
</event>
<event>
 5   0  0.2149029E-06  0.2400139E+04  0.7818609E-02  0.8439451E-01
        1   -1    0    0  501    0  0.00000000000E+00  0.00000000000E+00  0.17601905261E+04  0.17601905261E+04  0.50400001928E-02 0.  1.
       -1   -1    0    0    0  501  0.00000000000E+00  0.00000000000E+00 -0.81818835497E+03  0.81818835498E+03  0.50400001928E-02 0. -1.
    10030    2    1    2    0    0  0.00000000000E+00  0.00000000000E+00  0.94200217111E+03  0.25783788811E+04  0.24001394884E+04 0.  0.
        4    1    3    3  502    0 -0.51960029699E+03 -0.91968853405E+03  0.10828160420E+04  0.15127140053E+04  0.12699999809E+01 0.  1.
       -4    1    3    3    0  502  0.51960029699E+03  0.91968853405E+03 -0.14081387084E+03  0.10656648757E+04  0.12699999809E+01 0. -1.
</event>
<event>
 5   0  0.5440503E-06  0.2398851E+04  0.7818609E-02  0.8439934E-01
        2   -1    0    0  501    0  0.00000000000E+00  0.00000000000E+00  0.20949837299E+04  0.20949837299E+04  0.25500000920E-02 0.  1.
       -2   -1    0    0    0  501  0.00000000000E+00  0.00000000000E+00 -0.68669831221E+03  0.68669831222E+03  0.25500000920E-02 0. -1.
    10030    2    1    2    0    0  0.00000000000E+00  0.00000000000E+00  0.14082854177E+04  0.27816820421E+04  0.23988512179E+04 0.  0.
        3    1    3    3  502    0 -0.69132701402E+02  0.97989616646E+03  0.15021945240E+04  0.17948716460E+04  0.10100000352E+00 0.  1.
       -3    1    3    3    0  502  0.69132701402E+02 -0.97989616646E+03 -0.93909106316E+02  0.98681039612E+03  0.10100000352E+00 0. -1.
</event>
<event>
 5   0  0.5379778E-06  0.2402184E+04  0.7818609E-02  0.8438686E-01
       -2   -1    0    0    0  501  0.00000000000E+00  0.00000000000E+00  0.91655414337E+03  0.91655414337E+03  0.25500000920E-02 0. -1.
        2   -1    0    0  501    0  0.00000000000E+00  0.00000000000E+00 -0.15739631214E+04  0.15739631214E+04  0.25500000920E-02 0.  1.
    10030    2    1    2    0    0  0.00000000000E+00  0.00000000000E+00 -0.65740897807E+03  0.24905172648E+04  0.24021843563E+04 0.  0.
        5    1    3    3  502    0  0.20433141531E+03  0.24737013147E+03 -0.15287011417E+04  0.15620155504E+04  0.46999998093E+01 0.  1.
       -5    1    3    3    0  502 -0.20433141531E+03 -0.24737013147E+03  0.87129216361E+03  0.92850171438E+03  0.46999998093E+01 0. -1.
</event>
<event>
 5   0  0.5379778E-06  0.2401681E+04  0.7818609E-02  0.8438875E-01
       -2   -1    0    0    0  501  0.00000000000E+00  0.00000000000E+00  0.88675709723E+03  0.88675709723E+03  0.25500000920E-02 0. -1.
        2   -1    0    0  501    0  0.00000000000E+00  0.00000000000E+00 -0.16261699724E+04  0.16261699724E+04  0.25500000920E-02 0.  1.
    10030    2    1    2    0    0  0.00000000000E+00  0.00000000000E+00 -0.73941287516E+03  0.25129270696E+04  0.24016808816E+04 0.  0.
        5    1    3    3  502    0  0.99044497871E+03 -0.63379495105E+03 -0.11487135325E+03  0.11814799252E+04  0.46999998093E+01 0. -1.
       -5    1    3    3    0  502 -0.99044497871E+03  0.63379495105E+03 -0.62454152191E+03  0.13314471444E+04  0.46999998093E+01 0.  1.
</event>
<event>
 5   0  0.5349036E-06  0.2396660E+04  0.7818609E-02  0.8440755E-01
        2   -1    0    0  501    0  0.00000000000E+00  0.00000000000E+00  0.17270270001E+04  0.17270270001E+04  0.25500000920E-02 0. -1.
       -2   -1    0    0    0  501  0.00000000000E+00  0.00000000000E+00 -0.83148392091E+03  0.83148392092E+03  0.25500000920E-02 0.  1.
    10030    2    1    2    0    0  0.00000000000E+00  0.00000000000E+00  0.89554307922E+03  0.25585109210E+04  0.23966603277E+04 0.  0.
        1    1    3    3  502    0 -0.95399923153E+03 -0.75432652059E+02 -0.32217757275E+03  0.10097539340E+04  0.50400001928E-02 0.  1.
       -1    1    3    3    0  502  0.95399923153E+03  0.75432652059E+02  0.12177206520E+04  0.15487569871E+04  0.50400001928E-02 0. -1.
</event>
<event>
 5   0  0.2297414E-06  0.2399661E+04  0.7818609E-02  0.8439631E-01
       -1   -1    0    0    0  501  0.00000000000E+00  0.00000000000E+00  0.10753917411E+04  0.10753917412E+04  0.50400001928E-02 0. -1.
        1   -1    0    0  501    0  0.00000000000E+00  0.00000000000E+00 -0.13386683660E+04  0.13386683660E+04  0.50400001928E-02 0.  1.
    10030    2    1    2    0    0  0.00000000000E+00  0.00000000000E+00 -0.26327662482E+03  0.24140601071E+04  0.23996607301E+04 0.  0.
        1    1    3    3  502    0 -0.11217863257E+04 -0.41685196380E+03 -0.21831088067E+03  0.12164825362E+04  0.50400001928E-02 0. -1.
       -1    1    3    3    0  502  0.11217863257E+04  0.41685196380E+03 -0.44965744156E+02  0.11975775709E+04  0.50400001928E-02 0.  1.
</event>
<event>
 5   0  0.1796750E-06  0.2399676E+04  0.7818609E-02  0.8439625E-01
       -3   -1    0    0    0  501  0.00000000000E+00  0.00000000000E+00  0.13934901491E+04  0.13934901527E+04  0.10100000352E+00 0.  1.
        3   -1    0    0  501    0  0.00000000000E+00  0.00000000000E+00 -0.10330974658E+04  0.10330974707E+04  0.10100000352E+00 0. -1.
    10030    2    1    2    0    0  0.00000000000E+00  0.00000000000E+00  0.36039268329E+03  0.24265876235E+04  0.23996759382E+04 0.  0.
        1    1    3    3  502    0  0.68740882960E+03  0.98285425286E+03  0.21339393172E+03  0.12182242616E+04  0.50400001928E-02 0.  1.
       -1    1    3    3    0  502 -0.68740882960E+03 -0.98285425286E+03  0.14699875158E+03  0.12083633619E+04  0.50400001928E-02 0. -1.
</event>
<event>
 5   0  0.5379778E-06  0.2396269E+04  0.7818609E-02  0.8440902E-01
        2   -1    0    0  501    0  0.00000000000E+00  0.00000000000E+00  0.17404126733E+04  0.17404126733E+04  0.25500000920E-02 0.  1.
       -2   -1    0    0    0  501  0.00000000000E+00  0.00000000000E+00 -0.82481981404E+03  0.82481981404E+03  0.25500000920E-02 0. -1.
    10030    2    1    2    0    0  0.00000000000E+00  0.00000000000E+00  0.91559285930E+03  0.25652324874E+04  0.23962694820E+04 0.  0.
        5    1    3    3  502    0 -0.12568835345E+03  0.57267538822E+01  0.17333110813E+04  0.17378779452E+04  0.46999998093E+01 0.  1.
       -5    1    3    3    0  502  0.12568835345E+03 -0.57267538822E+01 -0.81771822199E+03  0.82735454218E+03  0.46999998093E+01 0. -1.
</event>
<event>
 5   0  0.5268358E-06  0.2392989E+04  0.7818609E-02  0.8442133E-01
       -2   -1    0    0    0  501  0.00000000000E+00  0.00000000000E+00  0.65094149130E+03  0.65094149130E+03  0.25500000920E-02 0. -1.
        2   -1    0    0  501    0  0.00000000000E+00  0.00000000000E+00 -0.21992752439E+04  0.21992752439E+04  0.25500000920E-02 0.  1.
    10030    2    1    2    0    0  0.00000000000E+00  0.00000000000E+00 -0.15483337526E+04  0.28502167352E+04  0.23929893498E+04 0.  0.
        2    1    3    3  502    0  0.11092393451E+04 -0.43265700074E+03 -0.63326026831E+03  0.13485631511E+04  0.25500000920E-02 0. -1.
       -2    1    3    3    0  502 -0.11092393451E+04  0.43265700074E+03 -0.91507348427E+03  0.15016535841E+04  0.25500000920E-02 0.  1.
</event>
<event>
 5   0  0.5440503E-06  0.2402802E+04  0.7818609E-02  0.8438455E-01
       -2   -1    0    0    0  501  0.00000000000E+00  0.00000000000E+00  0.59910032859E+03  0.59910032860E+03  0.25500000920E-02 0.  1.
        2   -1    0    0  501    0  0.00000000000E+00  0.00000000000E+00 -0.24092199949E+04  0.24092199949E+04  0.25500000920E-02 0. -1.
    10030    2    1    2    0    0  0.00000000000E+00  0.00000000000E+00 -0.18101196663E+04  0.30083203235E+04  0.24028021064E+04 0.  0.
        3    1    3    3  502    0 -0.21603827512E+03 -0.40152435065E+03 -0.22966847638E+04  0.23415070478E+04  0.10100000352E+00 0. -1.
       -3    1    3    3    0  502  0.21603827512E+03  0.40152435065E+03  0.48656509743E+03  0.66681327575E+03  0.10100000352E+00 0.  1.
</event>
<event>
 5   0  0.2297414E-06  0.2399713E+04  0.7818609E-02  0.8439611E-01
       -1   -1    0    0    0  501  0.00000000000E+00  0.00000000000E+00  0.78171514366E+03  0.78171514368E+03  0.50400001928E-02 0.  1.
        1   -1    0    0  501    0  0.00000000000E+00  0.00000000000E+00 -0.18416625486E+04  0.18416625486E+04  0.50400001928E-02 0. -1.
    10030    2    1    2    0    0  0.00000000000E+00  0.00000000000E+00 -0.10599474049E+04  0.26233776923E+04  0.23997129026E+04 0.  0.
        1    1    3    3  502    0 -0.94106966920E+03 -0.70772158378E+03 -0.27788735420E+03  0.12098360815E+04  0.50400001928E-02 0. -1.
       -1    1    3    3    0  502  0.94106966920E+03  0.70772158378E+03 -0.78206005074E+03  0.14135416108E+04  0.50400001928E-02 0.  1.
</event>
<event>
 5   0  0.5440503E-06  0.2402100E+04  0.7818609E-02  0.8438718E-01
        2   -1    0    0  501    0  0.00000000000E+00  0.00000000000E+00  0.16031919210E+04  0.16031919210E+04  0.25500000920E-02 0. -1.
       -2   -1    0    0    0  501  0.00000000000E+00  0.00000000000E+00 -0.89978096332E+03  0.89978096332E+03  0.25500000920E-02 0.  1.
    10030    2    1    2    0    0  0.00000000000E+00  0.00000000000E+00  0.70341095768E+03  0.25029728843E+04  0.24021003901E+04 0.  0.
        3    1    3    3  502    0  0.11717605086E+04  0.25723742517E+03  0.41181485115E+03  0.12683789908E+04  0.10100000352E+00 0. -1.
       -3    1    3    3    0  502 -0.11717605086E+04 -0.25723742517E+03  0.29159610653E+03  0.12345938935E+04  0.10100000352E+00 0.  1.
</event>
<event>
 5   0  0.1796750E-06  0.2398553E+04  0.7818609E-02  0.8440045E-01
       -4   -1    0    0    0  501  0.00000000000E+00  0.00000000000E+00  0.11930998170E+04  0.11931004929E+04  0.12699999809E+01 0. -1.
        4   -1    0    0  501    0  0.00000000000E+00  0.00000000000E+00 -0.12054838538E+04  0.12054845228E+04  0.12699999809E+01 0.  1.
    10030    2    1    2    0    0  0.00000000000E+00  0.00000000000E+00 -0.12384036795E+02  0.23985850157E+04  0.23985530457E+04 0.  0.
        1    1    3    3  502    0  0.83586253465E+02  0.46163273351E+03  0.10975313209E+04  0.11935939187E+04  0.50400001928E-02 0. -1.
       -1    1    3    3    0  502 -0.83586253465E+02 -0.46163273351E+03 -0.11099153577E+04  0.12049910970E+04  0.50400001928E-02 0.  1.
</event>
<event>
 5   0  0.2297414E-06  0.2398656E+04  0.7818609E-02  0.8440007E-01
        1   -1    0    0  501    0  0.00000000000E+00  0.00000000000E+00  0.11454788365E+04  0.11454788366E+04  0.50400001928E-02 0. -1.
       -1   -1    0    0    0  501  0.00000000000E+00  0.00000000000E+00 -0.12557080992E+04  0.12557080992E+04  0.50400001928E-02 0.  1.
    10030    2    1    2    0    0  0.00000000000E+00  0.00000000000E+00 -0.11022926265E+03  0.24011869358E+04  0.23986555005E+04 0.  0.
        1    1    3    3  502    0  0.57416748253E+03  0.26968875124E+03  0.96379388039E+03  0.11538192945E+04  0.50400001928E-02 0. -1.
       -1    1    3    3    0  502 -0.57416748253E+03 -0.26968875124E+03 -0.10740231430E+04  0.12473676412E+04  0.50400001928E-02 0.  1.
</event>
<event>
 5   0  0.2254269E-06  0.2400064E+04  0.7818609E-02  0.8439480E-01
        1   -1    0    0  501    0  0.00000000000E+00  0.00000000000E+00  0.73846303831E+03  0.73846303832E+03  0.50400001928E-02 0.  1.
       -1   -1    0    0    0  501  0.00000000000E+00  0.00000000000E+00 -0.19500997764E+04  0.19500997764E+04  0.50400001928E-02 0. -1.
    10030    2    1    2    0    0  0.00000000000E+00  0.00000000000E+00 -0.12116367381E+04  0.26885628147E+04  0.24000638374E+04 0.  0.
        2    1    3    3  502    0 -0.84897435895E+03  0.42600138443E+03  0.21571410749E+03  0.97404682529E+03  0.25500000920E-02 0.  1.
       -2    1    3    3    0  502  0.84897435895E+03 -0.42600138443E+03 -0.14273508456E+04  0.17145159895E+04  0.25500000920E-02 0. -1.
</event>
<event>
 5   0  0.5371843E-06  0.2432758E+04  0.7818609E-02  0.8427340E-01
        2   -1    0    0  501    0  0.00000000000E+00  0.00000000000E+00  0.19186566707E+04  0.19186566707E+04  0.25500000920E-02 0. -1.
       -2   -1    0    0    0  501  0.00000000000E+00  0.00000000000E+00 -0.77115293250E+03  0.77115293250E+03  0.25500000920E-02 0.  1.
    10030    2    1    2    0    0  0.00000000000E+00  0.00000000000E+00  0.11475037382E+04  0.26898096032E+04  0.24327578738E+04 0.  0.
        4    1    3    3  502    0 -0.65040955841E+03 -0.61908589091E+03 -0.33348204157E+03  0.95786837245E+03  0.12699999809E+01 0.  1.
       -4    1    3    3    0  502  0.65040955841E+03  0.61908589091E+03  0.14809857798E+04  0.17319412308E+04  0.12699999809E+01 0. -1.
</event>
<event>
 5   0  0.5371843E-06  0.2400923E+04  0.7818609E-02  0.8439158E-01
        2   -1    0    0  501    0  0.00000000000E+00  0.00000000000E+00  0.11686227247E+04  0.11686227247E+04  0.25500000920E-02 0.  1.
       -2   -1    0    0    0  501  0.00000000000E+00  0.00000000000E+00 -0.12331680689E+04  0.12331680689E+04  0.25500000920E-02 0. -1.
    10030    2    1    2    0    0  0.00000000000E+00  0.00000000000E+00 -0.64545344198E+02  0.24017907936E+04  0.24009233463E+04 0.  0.
        4    1    3    3  502    0 -0.88867152570E+03  0.98537406058E+02 -0.83359885952E+03  0.12224301094E+04  0.12699999809E+01 0. -1.
       -4    1    3    3    0  502  0.88867152570E+03 -0.98537406058E+02  0.76905351532E+03  0.11793606841E+04  0.12699999809E+01 0.  1.
</event>
<event>
 5   0  0.5268358E-06  0.2409224E+04  0.7818609E-02  0.8436058E-01
        2   -1    0    0  501    0  0.00000000000E+00  0.00000000000E+00  0.16792590743E+04  0.16792590743E+04  0.25500000920E-02 0. -1.
       -2   -1    0    0    0  501  0.00000000000E+00  0.00000000000E+00 -0.86412502916E+03  0.86412502916E+03  0.25500000920E-02 0.  1.
    10030    2    1    2    0    0  0.00000000000E+00  0.00000000000E+00  0.81513404519E+03  0.25433841035E+04  0.24092237726E+04 0.  0.
        2    1    3    3  502    0 -0.67623183826E+03 -0.73521691914E+03 -0.30316645974E+03  0.10439077160E+04  0.25500000920E-02 0.  1.
       -2    1    3    3    0  502  0.67623183826E+03  0.73521691914E+03  0.11183005049E+04  0.14994763875E+04  0.25500000920E-02 0. -1.
</event>
<event>
 5   0  0.5349036E-06  0.2393274E+04  0.7818609E-02  0.8442026E-01
        2   -1    0    0  501    0  0.00000000000E+00  0.00000000000E+00  0.16721119835E+04  0.16721119835E+04  0.25500000920E-02 0.  1.
       -2   -1    0    0    0  501  0.00000000000E+00  0.00000000000E+00 -0.85636641659E+03  0.85636641659E+03  0.25500000920E-02 0. -1.
    10030    2    1    2    0    0  0.00000000000E+00  0.00000000000E+00  0.81574556689E+03  0.25284784001E+04  0.23932743657E+04 0.  0.
        1    1    3    3  502    0 -0.63069858993E+03  0.65832348305E+03 -0.41100839212E+03  0.10000492078E+04  0.50400001928E-02 0. -1.
       -1    1    3    3    0  502  0.63069858993E+03 -0.65832348305E+03  0.12267539590E+04  0.15284291922E+04  0.50400001928E-02 0.  1.
</event>
<event>
 5   0  0.5371843E-06  0.2399271E+04  0.7818609E-02  0.8439777E-01
       -2   -1    0    0    0  501  0.00000000000E+00  0.00000000000E+00  0.99136530124E+03  0.99136530124E+03  0.25500000920E-02 0. -1.
        2   -1    0    0  501    0  0.00000000000E+00  0.00000000000E+00 -0.14516600323E+04  0.14516600323E+04  0.25500000920E-02 0.  1.
    10030    2    1    2    0    0  0.00000000000E+00  0.00000000000E+00 -0.46029473105E+03  0.24430253335E+04  0.23992710436E+04 0.  0.
        4    1    3    3  502    0  0.10487895876E+04  0.23800153275E+03 -0.77136610948E+03  0.13234846491E+04  0.12699999809E+01 0.  1.
       -4    1    3    3    0  502 -0.10487895876E+04 -0.23800153275E+03  0.31107137843E+03  0.11195406844E+04  0.12699999809E+01 0. -1.
</event>
<event>
 5   0  0.5379778E-06  0.2401863E+04  0.7818609E-02  0.8438807E-01
        2   -1    0    0  501    0  0.00000000000E+00  0.00000000000E+00  0.13542868677E+04  0.13542868677E+04  0.25500000920E-02 0. -1.
       -2   -1    0    0    0  501  0.00000000000E+00  0.00000000000E+00 -0.10649413717E+04  0.10649413717E+04  0.25500000920E-02 0.  1.
    10030    2    1    2    0    0  0.00000000000E+00  0.00000000000E+00  0.28934549599E+03  0.24192282394E+04  0.24018627060E+04 0.  0.
        5    1    3    3  502    0  0.16678538492E+03 -0.70351652730E+03  0.11104908872E+04  0.13251282841E+04  0.46999998093E+01 0. -1.
       -5    1    3    3    0  502 -0.16678538492E+03  0.70351652730E+03 -0.82114539117E+03  0.10940999553E+04  0.46999998093E+01 0.  1.
</event>
<event>
 5   0  0.2215700E-06  0.2393233E+04  0.7818609E-02  0.8442042E-01
       -1   -1    0    0    0  501  0.00000000000E+00  0.00000000000E+00  0.14145400703E+04  0.14145400703E+04  0.50400001928E-02 0. -1.
        1   -1    0    0  501    0  0.00000000000E+00  0.00000000000E+00 -0.10122658030E+04  0.10122658030E+04  0.50400001928E-02 0.  1.
    10030    2    1    2    0    0  0.00000000000E+00  0.00000000000E+00  0.40227426730E+03  0.24268058733E+04  0.23932325755E+04 0.  0.
        3    1    3    3  502    0  0.80918413205E+03  0.69412380704E+03 -0.34990471698E+03  0.11220606669E+04  0.10100000352E+00 0. -1.
       -3    1    3    3    0  502 -0.80918413205E+03 -0.69412380704E+03  0.75217898428E+03  0.13047452064E+04  0.10100000352E+00 0.  1.
</event>
<event>
 5   0  0.2215700E-06  0.2398350E+04  0.7818609E-02  0.8440121E-01
       -1   -1    0    0    0  501  0.00000000000E+00  0.00000000000E+00  0.74542426321E+03  0.74542426323E+03  0.50400001928E-02 0.  1.
        1   -1    0    0  501    0  0.00000000000E+00  0.00000000000E+00 -0.19291309110E+04  0.19291309110E+04  0.50400001928E-02 0. -1.
    10030    2    1    2    0    0  0.00000000000E+00  0.00000000000E+00 -0.11837066478E+04  0.26745551742E+04  0.23983502563E+04 0.  0.
        3    1    3    3  502    0  0.19493474393E+03 -0.11762372843E+04 -0.44866309421E+03  0.12739043472E+04  0.10100000352E+00 0.  1.
       -3    1    3    3    0  502 -0.19493474393E+03  0.11762372843E+04 -0.73504355357E+03  0.14006508270E+04  0.10100000352E+00 0. -1.
</event>
<event>
 5   0  0.2149029E-06  0.2402595E+04  0.7818609E-02  0.8438533E-01
       -1   -1    0    0    0  501  0.00000000000E+00  0.00000000000E+00  0.13249370939E+04  0.13249370939E+04  0.50400001928E-02 0.  1.
        1   -1    0    0  501    0  0.00000000000E+00  0.00000000000E+00 -0.10891957644E+04  0.10891957644E+04  0.50400001928E-02 0. -1.
    10030    2    1    2    0    0  0.00000000000E+00  0.00000000000E+00  0.23574132950E+03  0.24141328582E+04  0.24025951558E+04 0.  0.
        4    1    3    3  502    0 -0.93768135004E+02 -0.11570134361E+04 -0.19287438651E+03  0.11767220132E+04  0.12699999809E+01 0. -1.
       -4    1    3    3    0  502  0.93768135004E+02  0.11570134361E+04  0.42861571600E+03  0.12374108450E+04  0.12699999809E+01 0.  1.
</event>
<event>
 5   0  0.2297414E-06  0.2391398E+04  0.7818609E-02  0.8442731E-01
       -1   -1    0    0    0  501  0.00000000000E+00  0.00000000000E+00  0.13993959902E+04  0.13993959902E+04  0.50400001928E-02 0. -1.
        1   -1    0    0  501    0  0.00000000000E+00  0.00000000000E+00 -0.10216522191E+04  0.10216522191E+04  0.50400001928E-02 0.  1.
    10030    2    1    2    0    0  0.00000000000E+00  0.00000000000E+00  0.37774377110E+03  0.24210482092E+04  0.23913979332E+04 0.  0.
        1    1    3    3  502    0 -0.50592626247E+03  0.75551332254E+03  0.97498776156E+03  0.13331777446E+04  0.50400001928E-02 0. -1.
       -1    1    3    3    0  502  0.50592626247E+03 -0.75551332254E+03 -0.59724399045E+03  0.10878704646E+04  0.50400001928E-02 0.  1.
</event>
<event>
 5   0  0.5349036E-06  0.2400570E+04  0.7818609E-02  0.8439290E-01
       -2   -1    0    0    0  501  0.00000000000E+00  0.00000000000E+00  0.11156074005E+04  0.11156074005E+04  0.25500000920E-02 0. -1.
        2   -1    0    0  501    0  0.00000000000E+00  0.00000000000E+00 -0.12913897274E+04  0.12913897274E+04  0.25500000920E-02 0.  1.
    10030    2    1    2    0    0  0.00000000000E+00  0.00000000000E+00 -0.17578232692E+03  0.24069971279E+04  0.24005698797E+04 0.  0.
        1    1    3    3  502    0 -0.45799774813E+03  0.87523939137E+03  0.59575395929E+03  0.11535721519E+04  0.50400001928E-02 0. -1.
       -1    1    3    3    0  502  0.45799774813E+03 -0.87523939137E+03 -0.77153628622E+03  0.12534249760E+04  0.50400001928E-02 0.  1.
</event>
<event>
 5   0  0.5371843E-06  0.2381925E+04  0.7818609E-02  0.8446302E-01
       -2   -1    0    0    0  501  0.00000000000E+00  0.00000000000E+00  0.10801581803E+04  0.10801581803E+04  0.25500000920E-02 0.  1.
        2   -1    0    0  501    0  0.00000000000E+00  0.00000000000E+00 -0.13131331165E+04  0.13131331165E+04  0.25500000920E-02 0. -1.
    10030    2    1    2    0    0  0.00000000000E+00  0.00000000000E+00 -0.23297493622E+03  0.23932912968E+04  0.23819248330E+04 0.  0.
        4    1    3    3  502    0 -0.11118372510E+04 -0.19235825329E+03 -0.49936504380E+03  0.12339168652E+04  0.12699999809E+01 0. -1.
       -4    1    3    3    0  502  0.11118372510E+04  0.19235825329E+03  0.26639010757E+03  0.11593744316E+04  0.12699999809E+01 0.  1.
</event>
<event>
 5   0  0.5268358E-06  0.2403836E+04  0.7818609E-02  0.8438069E-01
       -2   -1    0    0    0  501  0.00000000000E+00  0.00000000000E+00  0.66705998903E+03  0.66705998904E+03  0.25500000920E-02 0. -1.
        2   -1    0    0  501    0  0.00000000000E+00  0.00000000000E+00 -0.21656328994E+04  0.21656328994E+04  0.25500000920E-02 0.  1.
    10030    2    1    2    0    0  0.00000000000E+00  0.00000000000E+00 -0.14985729103E+04  0.28326928884E+04  0.24038361493E+04 0.  0.
        2    1    3    3  502    0  0.10064262938E+04  0.65017931967E+03 -0.63761725207E+03  0.13572703462E+04  0.25500000920E-02 0. -1.
       -2    1    3    3    0  502 -0.10064262938E+04 -0.65017931967E+03 -0.86095565826E+03  0.14754225422E+04  0.25500000920E-02 0.  1.
</event>
<event>
 5   0  0.1796750E-06  0.2400832E+04  0.7818609E-02  0.8439192E-01
        3   -1    0    0  501    0  0.00000000000E+00  0.00000000000E+00  0.10481070861E+04  0.10481070909E+04  0.10100000352E+00 0.  1.
       -3   -1    0    0    0  501  0.00000000000E+00  0.00000000000E+00 -0.13748578640E+04  0.13748578677E+04  0.10100000352E+00 0. -1.
    10030    2    1    2    0    0  0.00000000000E+00  0.00000000000E+00 -0.32675077791E+03  0.24229649586E+04  0.24008317558E+04 0.  0.
        2    1    3    3  502    0 -0.76798303866E+03  0.39245300161E+03 -0.10060466249E+04  0.13251215482E+04  0.25500000920E-02 0. -1.
       -2    1    3    3    0  502  0.76798303866E+03 -0.39245300161E+03  0.67929584694E+03  0.10978434104E+04  0.25500000920E-02 0.  1.
</event>
<event>
 5   0  0.2215700E-06  0.2400575E+04  0.7818609E-02  0.8439288E-01
       -1   -1    0    0    0  501  0.00000000000E+00  0.00000000000E+00  0.94189031232E+03  0.94189031233E+03  0.50400001928E-02 0.  1.
        1   -1    0    0  501    0  0.00000000000E+00  0.00000000000E+00 -0.15295733958E+04  0.15295733958E+04  0.50400001928E-02 0. -1.
    10030    2    1    2    0    0  0.00000000000E+00  0.00000000000E+00 -0.58768308346E+03  0.24714637081E+04  0.24005752340E+04 0.  0.
        3    1    3    3  502    0 -0.15444595370E+03  0.94429903164E+03 -0.10399034552E+04  0.14131360232E+04  0.10100000352E+00 0. -1.
       -3    1    3    3    0  502  0.15444595370E+03 -0.94429903164E+03  0.45222037177E+03  0.10583276849E+04  0.10100000352E+00 0.  1.
</event>
<event>
 5   0  0.5349036E-06  0.2394323E+04  0.7818609E-02  0.8441632E-01
       -2   -1    0    0    0  501  0.00000000000E+00  0.00000000000E+00  0.11213964098E+04  0.11213964098E+04  0.25500000920E-02 0.  1.
        2   -1    0    0  501    0  0.00000000000E+00  0.00000000000E+00 -0.12780453478E+04  0.12780453478E+04  0.25500000920E-02 0. -1.
    10030    2    1    2    0    0  0.00000000000E+00  0.00000000000E+00 -0.15664893798E+03  0.23994417575E+04  0.23943228391E+04 0.  0.
        1    1    3    3  502    0  0.96431364934E+03 -0.68759034477E+03 -0.25338098090E+03  0.12111495440E+04  0.50400001928E-02 0. -1.
       -1    1    3    3    0  502 -0.96431364934E+03  0.68759034477E+03  0.96732042920E+02  0.11882922135E+04  0.50400001928E-02 0.  1.
</event>
<event>
 5   0  0.2149029E-06  0.2400121E+04  0.7818609E-02  0.8439458E-01
        1   -1    0    0  501    0  0.00000000000E+00  0.00000000000E+00  0.15664604404E+04  0.15664604404E+04  0.50400001928E-02 0.  1.
       -1   -1    0    0    0  501  0.00000000000E+00  0.00000000000E+00 -0.91936282864E+03  0.91936282866E+03  0.50400001928E-02 0. -1.
    10030    2    1    2    0    0  0.00000000000E+00  0.00000000000E+00  0.64709761176E+03  0.24858232691E+04  0.24001212482E+04 0.  0.
        4    1    3    3  502    0  0.61511535704E+03  0.23393424507E+03 -0.71580392766E+03  0.97235230716E+03  0.12699999809E+01 0. -1.
       -4    1    3    3    0  502 -0.61511535704E+03 -0.23393424507E+03  0.13629015394E+04  0.15134709619E+04  0.12699999809E+01 0.  1.
</event>
<event>
 5   0  0.2215700E-06  0.2398594E+04  0.7818609E-02  0.8440030E-01
        1   -1    0    0  501    0  0.00000000000E+00  0.00000000000E+00  0.15259419444E+04  0.15259419444E+04  0.50400001928E-02 0. -1.
       -1   -1    0    0    0  501  0.00000000000E+00  0.00000000000E+00 -0.94257392846E+03  0.94257392847E+03  0.50400001928E-02 0.  1.
    10030    2    1    2    0    0  0.00000000000E+00  0.00000000000E+00  0.58336801598E+03  0.24685158729E+04  0.23985938324E+04 0.  0.
        3    1    3    3  502    0  0.27716737777E+03 -0.49765837538E+03 -0.79446190818E+03  0.97757626180E+03  0.10100000352E+00 0.  1.
       -3    1    3    3    0  502 -0.27716737777E+03  0.49765837538E+03  0.13778299242E+04  0.14909396111E+04  0.10100000352E+00 0. -1.
</event>
<event>
 5   0  0.2297414E-06  0.2399191E+04  0.7818609E-02  0.8439807E-01
        1   -1    0    0  501    0  0.00000000000E+00  0.00000000000E+00  0.17875192074E+04  0.17875192074E+04  0.50400001928E-02 0.  1.
       -1   -1    0    0    0  501  0.00000000000E+00  0.00000000000E+00 -0.80504262283E+03  0.80504262285E+03  0.50400001928E-02 0. -1.
    10030    2    1    2    0    0  0.00000000000E+00  0.00000000000E+00  0.98247658455E+03  0.25925618302E+04  0.23991908228E+04 0.  0.
        1    1    3    3  502    0 -0.69051627220E+03  0.26892263900E+03  0.15106138431E+04  0.16825832196E+04  0.50400001928E-02 0.  1.
       -1    1    3    3    0  502  0.69051627220E+03 -0.26892263900E+03 -0.52813725853E+03  0.90997861064E+03  0.50400001928E-02 0. -1.
</event>
<event>
 5   0  0.1796750E-06  0.2404846E+04  0.7818609E-02  0.8437691E-01
       -3   -1    0    0    0  501  0.00000000000E+00  0.00000000000E+00  0.13013392878E+04  0.13013392917E+04  0.10100000352E+00 0.  1.
        3   -1    0    0  501    0  0.00000000000E+00  0.00000000000E+00 -0.11110258697E+04  0.11110258743E+04  0.10100000352E+00 0. -1.
    10030    2    1    2    0    0  0.00000000000E+00  0.00000000000E+00  0.19031341802E+03  0.24123651660E+04  0.24048464602E+04 0.  0.
        2    1    3    3  502    0 -0.75093589640E+02 -0.44073399232E+03 -0.10245482049E+04  0.11178481665E+04  0.25500000920E-02 0. -1.
       -2    1    3    3    0  502  0.75093589640E+02  0.44073399232E+03  0.12148616229E+04  0.12945169995E+04  0.25500000920E-02 0.  1.
</event>
<event>
 5   0  0.2215700E-06  0.2407828E+04  0.7818609E-02  0.8436579E-01
        1   -1    0    0  501    0  0.00000000000E+00  0.00000000000E+00  0.15858407330E+04  0.15858407330E+04  0.50400001928E-02 0.  1.
       -1   -1    0    0    0  501  0.00000000000E+00  0.00000000000E+00 -0.91396911140E+03  0.91396911141E+03  0.50400001928E-02 0. -1.
    10030    2    1    2    0    0  0.00000000000E+00  0.00000000000E+00  0.67187162164E+03  0.24998098445E+04  0.24078284371E+04 0.  0.
        3    1    3    3  502    0  0.18227697483E+03  0.83255028748E+03  0.12187391472E+04  0.14871751732E+04  0.10100000352E+00 0.  1.
       -3    1    3    3    0  502 -0.18227697483E+03 -0.83255028748E+03 -0.54686752554E+03  0.10126346713E+04  0.10100000352E+00 0. -1.
</event>
<event>
 5   0  0.5371843E-06  0.2429030E+04  0.7818609E-02  0.8428715E-01
       -2   -1    0    0    0  501  0.00000000000E+00  0.00000000000E+00  0.87277294471E+03  0.87277294471E+03  0.25500000920E-02 0. -1.
        2   -1    0    0  501    0  0.00000000000E+00  0.00000000000E+00 -0.16900688264E+04  0.16900688264E+04  0.25500000920E-02 0.  1.
    10030    2    1    2    0    0  0.00000000000E+00  0.00000000000E+00 -0.81729588171E+03  0.25628417711E+04  0.24290297210E+04 0.  0.
        4    1    3    3  502    0  0.99987034089E+03  0.68254470410E+03 -0.30615346438E+03  0.12487351714E+04  0.12699999809E+01 0.  1.
       -4    1    3    3    0  502 -0.99987034089E+03 -0.68254470410E+03 -0.51114241733E+03  0.13141065997E+04  0.12699999809E+01 0. -1.
</event>
<event>
 5   0  0.5349036E-06  0.2399190E+04  0.7818609E-02  0.8439807E-01
        2   -1    0    0  501    0  0.00000000000E+00  0.00000000000E+00  0.82874792090E+03  0.82874792090E+03  0.25500000920E-02 0. -1.
       -2   -1    0    0    0  501  0.00000000000E+00  0.00000000000E+00 -0.17363876055E+04  0.17363876055E+04  0.25500000920E-02 0.  1.
    10030    2    1    2    0    0  0.00000000000E+00  0.00000000000E+00 -0.90763968457E+03  0.25651355264E+04  0.23991895448E+04 0.  0.
        1    1    3    3  502    0  0.24684332291E+03  0.44078432426E+03 -0.16171041557E+04  0.16941807156E+04  0.50400001928E-02 0.  1.
       -1    1    3    3    0  502 -0.24684332291E+03 -0.44078432426E+03  0.70946447115E+03  0.87095481079E+03  0.50400001928E-02 0. -1.
</event>
<event>
 5   0  0.2149029E-06  0.2397330E+04  0.7818609E-02  0.8440504E-01
       -1   -1    0    0    0  501  0.00000000000E+00  0.00000000000E+00  0.98156344504E+03  0.98156344505E+03  0.50400001928E-02 0. -1.
        1   -1    0    0  501    0  0.00000000000E+00  0.00000000000E+00 -0.14637846856E+04  0.14637846856E+04  0.50400001928E-02 0.  1.
    10030    2    1    2    0    0  0.00000000000E+00  0.00000000000E+00 -0.48222124056E+03  0.24453481307E+04  0.23973297969E+04 0.  0.
        4    1    3    3  502    0  0.62283799175E+03 -0.90960295154E+03 -0.72116582486E+03  0.13173406747E+04  0.12699999809E+01 0.  1.
       -4    1    3    3    0  502 -0.62283799175E+03  0.90960295154E+03  0.23894458430E+03  0.11280074559E+04  0.12699999809E+01 0. -1.
</event>
<event>
 5   0  0.5379778E-06  0.2394734E+04  0.7818609E-02  0.8441478E-01
        2   -1    0    0  501    0  0.00000000000E+00  0.00000000000E+00  0.19225264824E+04  0.19225264824E+04  0.25500000920E-02 0.  1.
       -2   -1    0    0    0  501  0.00000000000E+00  0.00000000000E+00 -0.74573079079E+03  0.74573079080E+03  0.25500000920E-02 0. -1.
    10030    2    1    2    0    0  0.00000000000E+00  0.00000000000E+00  0.11767956917E+04  0.26682572732E+04  0.23947335502E+04 0.  0.
        5    1    3    3  502    0  0.41843890728E+03 -0.26681013102E+03  0.18025315835E+04  0.18696044942E+04  0.46999998093E+01 0.  1.
       -5    1    3    3    0  502 -0.41843890728E+03  0.26681013102E+03 -0.62573589186E+03  0.79865277906E+03  0.46999998093E+01 0. -1.
</event>
<event>
 5   0  0.2149029E-06  0.2398113E+04  0.7818609E-02  0.8440210E-01
        1   -1    0    0  501    0  0.00000000000E+00  0.00000000000E+00  0.21013553980E+04  0.21013553980E+04  0.50400001928E-02 0. -1.
       -1   -1    0    0    0  501  0.00000000000E+00  0.00000000000E+00 -0.68419483723E+03  0.68419483725E+03  0.50400001928E-02 0.  1.
    10030    2    1    2    0    0  0.00000000000E+00  0.00000000000E+00  0.14171605608E+04  0.27855502352E+04  0.23981130203E+04 0.  0.
        4    1    3    3  502    0  0.24191078747E+03  0.29613618734E+03  0.20286336317E+04  0.20643578893E+04  0.12699999809E+01 0. -1.
       -4    1    3    3    0  502 -0.24191078747E+03 -0.29613618734E+03 -0.61147307091E+03  0.72119234597E+03  0.12699999809E+01 0.  1.
</event>
<event>
 5   0  0.2297414E-06  0.2396712E+04  0.7818609E-02  0.8440736E-01
        1   -1    0    0  501    0  0.00000000000E+00  0.00000000000E+00  0.13749137181E+04  0.13749137181E+04  0.50400001928E-02 0.  1.
       -1   -1    0    0    0  501  0.00000000000E+00  0.00000000000E+00 -0.10444704156E+04  0.10444704156E+04  0.50400001928E-02 0. -1.
    10030    2    1    2    0    0  0.00000000000E+00  0.00000000000E+00  0.33044330254E+03  0.24193841337E+04  0.23967116660E+04 0.  0.
        1    1    3    3  502    0 -0.19580384630E+03 -0.76746751897E+03  0.10730124104E+04  0.13336795611E+04  0.50400001928E-02 0.  1.
       -1    1    3    3    0  502  0.19580384630E+03  0.76746751897E+03 -0.74256910784E+03  0.10857045725E+04  0.50400001928E-02 0. -1.
</event>
<event>
 5   0  0.2215700E-06  0.2389379E+04  0.7818609E-02  0.8443491E-01
       -1   -1    0    0    0  501  0.00000000000E+00  0.00000000000E+00  0.93222814129E+03  0.93222814130E+03  0.50400001928E-02 0.  1.
        1   -1    0    0  501    0  0.00000000000E+00  0.00000000000E+00 -0.15310441883E+04  0.15310441883E+04  0.50400001928E-02 0. -1.
    10030    2    1    2    0    0  0.00000000000E+00  0.00000000000E+00 -0.59881604697E+03  0.24632723296E+04  0.23893785618E+04 0.  0.
        3    1    3    3  502    0  0.78924592796E+03  0.40799266528E+03  0.52398840898E+03  0.10314703159E+04  0.10100000352E+00 0.  1.
       -3    1    3    3    0  502 -0.78924592796E+03 -0.40799266528E+03 -0.11228044559E+04  0.14318020136E+04  0.10100000352E+00 0. -1.
</event>
<event>
 5   0  0.2215700E-06  0.2403579E+04  0.7818609E-02  0.8438165E-01
        1   -1    0    0  501    0  0.00000000000E+00  0.00000000000E+00  0.91565457438E+03  0.91565457439E+03  0.50400001928E-02 0.  1.
       -1   -1    0    0    0  501  0.00000000000E+00  0.00000000000E+00 -0.15773390698E+04  0.15773390698E+04  0.50400001928E-02 0. -1.
    10030    2    1    2    0    0  0.00000000000E+00  0.00000000000E+00 -0.66168449539E+03  0.24929936442E+04  0.24035787773E+04 0.  0.
        3    1    3    3  502    0  0.87319095468E+03  0.71980143769E+03 -0.75051930898E+03  0.13578865182E+04  0.10100000352E+00 0. -1.
       -3    1    3    3    0  502 -0.87319095468E+03 -0.71980143769E+03  0.88834813593E+02  0.11351071259E+04  0.10100000352E+00 0.  1.
</event>
<event>
 5   0  0.5379778E-06  0.2410751E+04  0.7818609E-02  0.8435490E-01
       -2   -1    0    0    0  501  0.00000000000E+00  0.00000000000E+00  0.13421488161E+04  0.13421488161E+04  0.25500000920E-02 0.  1.
        2   -1    0    0  501    0  0.00000000000E+00  0.00000000000E+00 -0.10825399424E+04  0.10825399424E+04  0.25500000920E-02 0. -1.
    10030    2    1    2    0    0  0.00000000000E+00  0.00000000000E+00  0.25960887373E+03  0.24246887585E+04  0.24107506732E+04 0.  0.
        5    1    3    3  502    0  0.77381163802E+03  0.30724347962E+03 -0.74685678877E+03  0.11184811844E+04  0.46999998093E+01 0. -1.
       -5    1    3    3    0  502 -0.77381163802E+03 -0.30724347962E+03  0.10064656625E+04  0.13062075741E+04  0.46999998093E+01 0.  1.
</event>
<event>
 5   0  0.5349036E-06  0.2398634E+04  0.7818609E-02  0.8440015E-01
        2   -1    0    0  501    0  0.00000000000E+00  0.00000000000E+00  0.18806999428E+04  0.18806999428E+04  0.25500000920E-02 0.  1.
       -2   -1    0    0    0  501  0.00000000000E+00  0.00000000000E+00 -0.76480092830E+03  0.76480092831E+03  0.25500000920E-02 0. -1.
    10030    2    1    2    0    0  0.00000000000E+00  0.00000000000E+00  0.11158990145E+04  0.26455008711E+04  0.23986338296E+04 0.  0.
        1    1    3    3  502    0 -0.87393328814E+03 -0.42588112026E+03  0.13325314168E+04  0.16494769163E+04  0.50400001928E-02 0. -1.
       -1    1    3    3    0  502  0.87393328814E+03  0.42588112026E+03 -0.21663240232E+03  0.99602395477E+03  0.50400001928E-02 0.  1.
</event>
<event>
 5   0  0.2149029E-06  0.2396917E+04  0.7818609E-02  0.8440659E-01
       -1   -1    0    0    0  501  0.00000000000E+00  0.00000000000E+00  0.11318484740E+04  0.11318484740E+04  0.50400001928E-02 0. -1.
        1   -1    0    0  501    0  0.00000000000E+00  0.00000000000E+00 -0.12689887128E+04  0.12689887128E+04  0.50400001928E-02 0.  1.
    10030    2    1    2    0    0  0.00000000000E+00  0.00000000000E+00 -0.13714023885E+03  0.24008371868E+04  0.23969171351E+04 0.  0.
        4    1    3    3  502    0 -0.41781143669E+03  0.81970373373E+03  0.70068377000E+03  0.11564773954E+04  0.12699999809E+01 0. -1.
       -4    1    3    3    0  502  0.41781143669E+03 -0.81970373373E+03 -0.83782400886E+03  0.12443597914E+04  0.12699999809E+01 0.  1.
</event>
<event>
 5   0  0.2215700E-06  0.2395578E+04  0.7818609E-02  0.8441161E-01
        1   -1    0    0  501    0  0.00000000000E+00  0.00000000000E+00  0.11205884017E+04  0.11205884017E+04  0.50400001928E-02 0. -1.
       -1   -1    0    0    0  501  0.00000000000E+00  0.00000000000E+00 -0.12803080931E+04  0.12803080931E+04  0.50400001928E-02 0.  1.
    10030    2    1    2    0    0  0.00000000000E+00  0.00000000000E+00 -0.15971969138E+03  0.24008964948E+04  0.23955779259E+04 0.  0.
        3    1    3    3  502    0 -0.34215076119E+03  0.90319858966E+03 -0.78985594667E+03  0.12476807534E+04  0.10100000352E+00 0.  1.
       -3    1    3    3    0  502  0.34215076119E+03 -0.90319858966E+03  0.63013625530E+03  0.11532157414E+04  0.10100000352E+00 0. -1.
</event>
<event>
 5   0  0.5379778E-06  0.2398711E+04  0.7818609E-02  0.8439986E-01
        2   -1    0    0  501    0  0.00000000000E+00  0.00000000000E+00  0.11744800252E+04  0.11744800252E+04  0.25500000920E-02 0. -1.
       -2   -1    0    0    0  501  0.00000000000E+00  0.00000000000E+00 -0.12247578201E+04  0.12247578201E+04  0.25500000920E-02 0.  1.
    10030    2    1    2    0    0  0.00000000000E+00  0.00000000000E+00 -0.50277794906E+02  0.23992378453E+04  0.23987109833E+04 0.  0.
        5    1    3    3  502    0 -0.41187710009E+03 -0.25300344929E+03 -0.11230037874E+04  0.12226254894E+04  0.46999998093E+01 0.  1.
       -5    1    3    3    0  502  0.41187710009E+03  0.25300344929E+03  0.10727259925E+04  0.11766123558E+04  0.46999998093E+01 0. -1.
</event>
<event>
 5   0  0.2149417E-06  0.2400490E+04  0.7818609E-02  0.8439320E-01
       -1   -1    0    0    0  501  0.00000000000E+00  0.00000000000E+00  0.83857747379E+03  0.83857747381E+03  0.50400001928E-02 0. -1.
        1   -1    0    0  501    0  0.00000000000E+00  0.00000000000E+00 -0.17178951179E+04  0.17178951179E+04  0.50400001928E-02 0.  1.
    10030    2    1    2    0    0  0.00000000000E+00  0.00000000000E+00 -0.87931764410E+03  0.25564725917E+04  0.24004900735E+04 0.  0.
        5    1    3    3  502    0 -0.67883030343E+03 -0.25312551241E+03  0.57943411332E+03  0.92771174810E+03  0.46999998093E+01 0. -1.
       -5    1    3    3    0  502  0.67883030343E+03  0.25312551241E+03 -0.14587517574E+04  0.16287608436E+04  0.46999998093E+01 0.  1.
</event>
<event>
 5   0  0.2215700E-06  0.2400395E+04  0.7818609E-02  0.8439356E-01
       -1   -1    0    0    0  501  0.00000000000E+00  0.00000000000E+00  0.63090035692E+03  0.63090035694E+03  0.50400001928E-02 0. -1.
        1   -1    0    0  501    0  0.00000000000E+00  0.00000000000E+00 -0.22832042613E+04  0.22832042613E+04  0.50400001928E-02 0.  1.
    10030    2    1    2    0    0  0.00000000000E+00  0.00000000000E+00 -0.16523039043E+04  0.29141046182E+04  0.24003952869E+04 0.  0.
        3    1    3    3  502    0  0.64097496280E+03  0.97972434412E+03 -0.50549305918E+03  0.12752379921E+04  0.10100000352E+00 0. -1.
       -3    1    3    3    0  502 -0.64097496280E+03 -0.97972434412E+03 -0.11468108452E+04  0.16388666261E+04  0.10100000352E+00 0.  1.
</event>
<event>
 5   0  0.5371843E-06  0.2400471E+04  0.7818609E-02  0.8439327E-01
        2   -1    0    0  501    0  0.00000000000E+00  0.00000000000E+00  0.13842942766E+04  0.13842942766E+04  0.25500000920E-02 0.  1.
       -2   -1    0    0    0  501  0.00000000000E+00  0.00000000000E+00 -0.10406495569E+04  0.10406495569E+04  0.25500000920E-02 0. -1.
    10030    2    1    2    0    0  0.00000000000E+00  0.00000000000E+00  0.34364471975E+03  0.24249438335E+04  0.24004709751E+04 0.  0.
        4    1    3    3  502    0 -0.75421555041E+03  0.57870084745E+03 -0.56833275064E+03  0.11075827263E+04  0.12699999809E+01 0. -1.
       -4    1    3    3    0  502  0.75421555041E+03 -0.57870084745E+03  0.91197747039E+03  0.13173611072E+04  0.12699999809E+01 0.  1.
</event>
<event>
 5   0  0.5268358E-06  0.2399304E+04  0.7818609E-02  0.8439764E-01
       -2   -1    0    0    0  501  0.00000000000E+00  0.00000000000E+00  0.76511667459E+03  0.76511667460E+03  0.25500000920E-02 0. -1.
        2   -1    0    0  501    0  0.00000000000E+00  0.00000000000E+00 -0.18809749700E+04  0.18809749700E+04  0.25500000920E-02 0.  1.
    10030    2    1    2    0    0  0.00000000000E+00  0.00000000000E+00 -0.11158582954E+04  0.26460916446E+04  0.23993043275E+04 0.  0.
        2    1    3    3  502    0 -0.20101821941E+03 -0.81829447768E+03  0.38380500966E+03  0.92591601249E+03  0.25500000920E-02 0. -1.
       -2    1    3    3    0  502  0.20101821941E+03  0.81829447768E+03 -0.14996633051E+04  0.17201756321E+04  0.25500000920E-02 0.  1.
</event>
<event>
 5   0  0.2254269E-06  0.2400406E+04  0.7818609E-02  0.8439352E-01
        1   -1    0    0  501    0  0.00000000000E+00  0.00000000000E+00  0.10850331012E+04  0.10850331012E+04  0.50400001928E-02 0. -1.
       -1   -1    0    0    0  501  0.00000000000E+00  0.00000000000E+00 -0.13275969588E+04  0.13275969588E+04  0.50400001928E-02 0.  1.
    10030    2    1    2    0    0  0.00000000000E+00  0.00000000000E+00 -0.24256385756E+03  0.24126300600E+04  0.24004055035E+04 0.  0.
        2    1    3    3  502    0  0.74875505414E+03  0.50408693499E+03 -0.91635338088E+03  0.12862508650E+04  0.25500000920E-02 0.  1.
       -2    1    3    3    0  502 -0.74875505414E+03 -0.50408693499E+03  0.67378952332E+03  0.11263791950E+04  0.25500000920E-02 0. -1.
</event>
<event>
 5   0  0.5268358E-06  0.2400966E+04  0.7818609E-02  0.8439142E-01
        2   -1    0    0  501    0  0.00000000000E+00  0.00000000000E+00  0.20916589373E+04  0.20916589373E+04  0.25500000920E-02 0.  1.
       -2   -1    0    0    0  501  0.00000000000E+00  0.00000000000E+00 -0.68900333626E+03  0.68900333626E+03  0.25500000920E-02 0. -1.
    10030    2    1    2    0    0  0.00000000000E+00  0.00000000000E+00  0.14026556010E+04  0.27806622736E+04  0.24009664605E+04 0.  0.
        2    1    3    3  502    0  0.75816754507E+03 -0.92975308962E+03  0.75182538217E+03  0.14158037432E+04  0.25500000920E-02 0. -1.
       -2    1    3    3    0  502 -0.75816754507E+03  0.92975308962E+03  0.65083021888E+03  0.13648585303E+04  0.25500000920E-02 0.  1.
</event>
<event>
 5   0  0.2254269E-06  0.2400534E+04  0.7818609E-02  0.8439304E-01
       -1   -1    0    0    0  501  0.00000000000E+00  0.00000000000E+00  0.12888001752E+04  0.12888001752E+04  0.50400001928E-02 0.  1.
        1   -1    0    0  501    0  0.00000000000E+00  0.00000000000E+00 -0.11178150813E+04  0.11178150813E+04  0.50400001928E-02 0. -1.
    10030    2    1    2    0    0  0.00000000000E+00  0.00000000000E+00  0.17098509388E+03  0.24066152566E+04  0.24005335013E+04 0.  0.
        2    1    3    3  502    0  0.53119857381E+03 -0.76573630088E+03 -0.67280742830E+03  0.11494319653E+04  0.25500000920E-02 0. -1.
       -2    1    3    3    0  502 -0.53119857381E+03  0.76573630088E+03  0.84379252217E+03  0.12571832912E+04  0.25500000920E-02 0.  1.
</event>
<event>
 5   0  0.2297414E-06  0.2425857E+04  0.7818609E-02  0.8429886E-01
        1   -1    0    0  501    0  0.00000000000E+00  0.00000000000E+00  0.24290188072E+04  0.24290188072E+04  0.50400001928E-02 0.  1.
       -1   -1    0    0    0  501  0.00000000000E+00  0.00000000000E+00 -0.60567499126E+03  0.60567499128E+03  0.50400001928E-02 0. -1.
    10030    2    1    2    0    0  0.00000000000E+00  0.00000000000E+00  0.18233438159E+04  0.30346937985E+04  0.24258573288E+04 0.  0.
        1    1    3    3  502    0 -0.11290712137E+04 -0.72119248393E+02  0.14586696867E+04  0.18460011502E+04  0.50400001928E-02 0. -1.
       -1    1    3    3    0  502  0.11290712137E+04  0.72119248393E+02  0.36467412925E+03  0.11886926483E+04  0.50400001928E-02 0.  1.
</event>
<event>
 5   0  0.5268358E-06  0.2396696E+04  0.7818609E-02  0.8440742E-01
        2   -1    0    0  501    0  0.00000000000E+00  0.00000000000E+00  0.13595043365E+04  0.13595043365E+04  0.25500000920E-02 0. -1.
       -2   -1    0    0    0  501  0.00000000000E+00  0.00000000000E+00 -0.10562951128E+04  0.10562951128E+04  0.25500000920E-02 0.  1.
    10030    2    1    2    0    0  0.00000000000E+00  0.00000000000E+00  0.30320922374E+03  0.24157994493E+04  0.23966958810E+04 0.  0.
        2    1    3    3  502    0  0.42707698686E+03 -0.52302952037E+03 -0.84627789823E+03  0.10826545677E+04  0.25500000920E-02 0.  1.
       -2    1    3    3    0  502 -0.42707698686E+03  0.52302952037E+03  0.11494871220E+04  0.13331448816E+04  0.25500000920E-02 0. -1.
</event>
<event>
 5   0  0.5371843E-06  0.2399699E+04  0.7818609E-02  0.8439616E-01
        2   -1    0    0  501    0  0.00000000000E+00  0.00000000000E+00  0.16646346326E+04  0.16646346326E+04  0.25500000920E-02 0. -1.
       -2   -1    0    0    0  501  0.00000000000E+00  0.00000000000E+00 -0.86483754650E+03  0.86483754651E+03  0.25500000920E-02 0.  1.
    10030    2    1    2    0    0  0.00000000000E+00  0.00000000000E+00  0.79979708612E+03  0.25294721791E+04  0.23996987574E+04 0.  0.
        4    1    3    3  502    0 -0.87740576113E+03 -0.31498858108E+02 -0.46213183266E+03  0.99216958801E+03  0.12699999809E+01 0.  1.
       -4    1    3    3    0  502  0.87740576113E+03  0.31498858108E+02  0.12619289188E+04  0.15373025911E+04  0.12699999809E+01 0. -1.
</event>
<event>
 5   0  0.5349036E-06  0.2398735E+04  0.7818609E-02  0.8439977E-01
        2   -1    0    0  501    0  0.00000000000E+00  0.00000000000E+00  0.19915067236E+04  0.19915067236E+04  0.25500000920E-02 0.  1.
       -2   -1    0    0    0  501  0.00000000000E+00  0.00000000000E+00 -0.72230835089E+03  0.72230835090E+03  0.25500000920E-02 0. -1.
    10030    2    1    2    0    0  0.00000000000E+00  0.00000000000E+00  0.12691983727E+04  0.27138150745E+04  0.23987346142E+04 0.  0.
        1    1    3    3  502    0  0.47439513526E+03  0.98692105720E+03  0.11881741824E+04  0.16158037645E+04  0.50400001928E-02 0.  1.
       -1    1    3    3    0  502 -0.47439513526E+03 -0.98692105720E+03  0.81024190281E+02  0.10980113100E+04  0.50400001928E-02 0. -1.
</event>
<event>
 5   0  0.5349036E-06  0.2401420E+04  0.7818609E-02  0.8438972E-01
       -2   -1    0    0    0  501  0.00000000000E+00  0.00000000000E+00  0.78198750703E+03  0.78198750703E+03  0.25500000920E-02 0. -1.
        2   -1    0    0  501    0  0.00000000000E+00  0.00000000000E+00 -0.18436410987E+04  0.18436410987E+04  0.25500000920E-02 0.  1.
    10030    2    1    2    0    0  0.00000000000E+00  0.00000000000E+00 -0.10616535917E+04  0.26256286057E+04  0.24014198355E+04 0.  0.
        1    1    3    3  502    0  0.28874159415E+03  0.58211151414E+03  0.57313564438E+03  0.86643521972E+03  0.50400001928E-02 0. -1.
       -1    1    3    3    0  502 -0.28874159415E+03 -0.58211151414E+03 -0.16347892360E+04  0.17591933860E+04  0.50400001928E-02 0.  1.
</event>
<event>
 5   0  0.2254269E-06  0.2401722E+04  0.7818609E-02  0.8438859E-01
       -1   -1    0    0    0  501  0.00000000000E+00  0.00000000000E+00  0.75094538222E+03  0.75094538223E+03  0.50400001928E-02 0. -1.
        1   -1    0    0  501    0  0.00000000000E+00  0.00000000000E+00 -0.19203348612E+04  0.19203348612E+04  0.50400001928E-02 0.  1.
    10030    2    1    2    0    0  0.00000000000E+00  0.00000000000E+00 -0.11693894789E+04  0.26712802434E+04  0.24017215462E+04 0.  0.
        2    1    3    3  502    0 -0.93837712414E+03  0.44191706299E+02 -0.14166901469E+04  0.16998574959E+04  0.25500000920E-02 0.  1.
       -2    1    3    3    0  502  0.93837712414E+03 -0.44191706299E+02  0.24730066795E+03  0.97142274751E+03  0.25500000920E-02 0. -1.
</event>
<event>
 5   0  0.2254269E-06  0.2401028E+04  0.7818609E-02  0.8439119E-01
       -1   -1    0    0    0  501  0.00000000000E+00  0.00000000000E+00  0.14367859240E+04  0.14367859240E+04  0.50400001928E-02 0. -1.
        1   -1    0    0  501    0  0.00000000000E+00  0.00000000000E+00 -0.10030956209E+04  0.10030956209E+04  0.50400001928E-02 0.  1.
    10030    2    1    2    0    0  0.00000000000E+00  0.00000000000E+00  0.43369030312E+03  0.24398815448E+04  0.24010278370E+04 0.  0.
        2    1    3    3  502    0  0.53849273774E+03 -0.39072256974E+03 -0.79862290193E+03  0.10394407605E+04  0.25500000920E-02 0.  1.
       -2    1    3    3    0  502 -0.53849273774E+03  0.39072256974E+03  0.12323132050E+04  0.14004407843E+04  0.25500000920E-02 0. -1.
</event>
<event>
 5   0  0.5349036E-06  0.2402551E+04  0.7818609E-02  0.8438549E-01
       -2   -1    0    0    0  501  0.00000000000E+00  0.00000000000E+00  0.13479406578E+04  0.13479406578E+04  0.25500000920E-02 0. -1.
        2   -1    0    0  501    0  0.00000000000E+00  0.00000000000E+00 -0.10705685815E+04  0.10705685815E+04  0.25500000920E-02 0.  1.
    10030    2    1    2    0    0  0.00000000000E+00  0.00000000000E+00  0.27737207629E+03  0.24185092393E+04  0.24025510758E+04 0.  0.
        1    1    3    3  502    0  0.73527838706E+02 -0.11471301993E+04 -0.21255690734E+03  0.11689715463E+04  0.50400001928E-02 0. -1.
       -1    1    3    3    0  502 -0.73527838706E+02  0.11471301993E+04  0.48992898363E+03  0.12495376930E+04  0.50400001928E-02 0.  1.
</event>
<event>
 5   0  0.5379778E-06  0.2386837E+04  0.7818609E-02  0.8444448E-01
       -2   -1    0    0    0  501  0.00000000000E+00  0.00000000000E+00  0.55365539193E+03  0.55365539194E+03  0.25500000920E-02 0.  1.
        2   -1    0    0  501    0  0.00000000000E+00  0.00000000000E+00 -0.25724443944E+04  0.25724443944E+04  0.25500000920E-02 0. -1.
    10030    2    1    2    0    0  0.00000000000E+00  0.00000000000E+00 -0.20187890025E+04  0.31260997863E+04  0.23868369944E+04 0.  0.
        5    1    3    3  502    0  0.11559076270E+04 -0.13180178253E+03 -0.66106808621E+03  0.13381058466E+04  0.46999998093E+01 0.  1.
       -5    1    3    3    0  502 -0.11559076270E+04  0.13180178253E+03 -0.13577209163E+04  0.17879939397E+04  0.46999998093E+01 0. -1.
</event>
<event>
 5   0  0.5371843E-06  0.2399742E+04  0.7818609E-02  0.8439600E-01
        2   -1    0    0  501    0  0.00000000000E+00  0.00000000000E+00  0.24563319476E+04  0.24563319476E+04  0.25500000920E-02 0. -1.
       -2   -1    0    0    0  501  0.00000000000E+00  0.00000000000E+00 -0.58611380385E+03  0.58611380385E+03  0.25500000920E-02 0.  1.
    10030    2    1    2    0    0  0.00000000000E+00  0.00000000000E+00  0.18702181438E+04  0.30424457515E+04  0.23997417039E+04 0.  0.
        4    1    3    3  502    0  0.21667032310E+03 -0.11794462702E+04  0.98659132165E+03  0.15528694672E+04  0.12699999809E+01 0. -1.
       -4    1    3    3    0  502 -0.21667032310E+03  0.11794462702E+04  0.88362682215E+03  0.14895762843E+04  0.12699999809E+01 0.  1.
</event>
<event>
 5   0  0.2297414E-06  0.2433965E+04  0.7818609E-02  0.8426896E-01
       -1   -1    0    0    0  501  0.00000000000E+00  0.00000000000E+00  0.12908533924E+04  0.12908533924E+04  0.50400001928E-02 0. -1.
        1   -1    0    0  501    0  0.00000000000E+00  0.00000000000E+00 -0.11473386276E+04  0.11473386276E+04  0.50400001928E-02 0.  1.
    10030    2    1    2    0    0  0.00000000000E+00  0.00000000000E+00  0.14351476481E+03  0.24381920201E+04  0.24339646339E+04 0.  0.
        1    1    3    3  502    0  0.38109568732E+03  0.10860880188E+04 -0.32418200170E+03  0.11957905660E+04  0.50400001928E-02 0.  1.
       -1    1    3    3    0  502 -0.38109568732E+03 -0.10860880188E+04  0.46769676650E+03  0.12424014540E+04  0.50400001928E-02 0. -1.
</event>
<event>
 5   0  0.5440503E-06  0.2395016E+04  0.7818609E-02  0.8441372E-01
       -2   -1    0    0    0  501  0.00000000000E+00  0.00000000000E+00  0.56560307000E+03  0.56560307000E+03  0.25500000920E-02 0.  1.
        2   -1    0    0  501    0  0.00000000000E+00  0.00000000000E+00 -0.25353913299E+04  0.25353913299E+04  0.25500000920E-02 0. -1.
    10030    2    1    2    0    0  0.00000000000E+00  0.00000000000E+00 -0.19697882599E+04  0.31009943999E+04  0.23950157577E+04 0.  0.
        3    1    3    3  502    0  0.10912426045E+04  0.45775161639E+03 -0.12225052112E+04  0.17014305645E+04  0.10100000352E+00 0.  1.
       -3    1    3    3    0  502 -0.10912426045E+04 -0.45775161639E+03 -0.74728304874E+03  0.13995638354E+04  0.10100000352E+00 0. -1.
</event>
<event>
 5   0  0.5349036E-06  0.2403489E+04  0.7818609E-02  0.8438198E-01
       -2   -1    0    0    0  501  0.00000000000E+00  0.00000000000E+00  0.54773288272E+03  0.54773288273E+03  0.25500000920E-02 0. -1.
        2   -1    0    0  501    0  0.00000000000E+00  0.00000000000E+00 -0.26366682972E+04  0.26366682972E+04  0.25500000920E-02 0.  1.
    10030    2    1    2    0    0  0.00000000000E+00  0.00000000000E+00 -0.20889354145E+04  0.31844011799E+04  0.24034890699E+04 0.  0.
        1    1    3    3  502    0  0.11906632869E+03 -0.44611370291E+03  0.42552064239E+03  0.62790289351E+03  0.50400001928E-02 0. -1.
       -1    1    3    3    0  502 -0.11906632869E+03  0.44611370291E+03 -0.25144560569E+04  0.25564982864E+04  0.50400001928E-02 0.  1.
</event>
<event>
 5   0  0.2149029E-06  0.2396472E+04  0.7818609E-02  0.8440825E-01
       -1   -1    0    0    0  501  0.00000000000E+00  0.00000000000E+00  0.65138025616E+03  0.65138025618E+03  0.50400001928E-02 0. -1.
        1   -1    0    0  501    0  0.00000000000E+00  0.00000000000E+00 -0.22041960468E+04  0.22041960468E+04  0.50400001928E-02 0.  1.
    10030    2    1    2    0    0  0.00000000000E+00  0.00000000000E+00 -0.15528157906E+04  0.28555763030E+04  0.23964722286E+04 0.  0.
        4    1    3    3  502    0  0.71650043672E+03  0.85999224421E+03 -0.12858791951E+04  0.17048303298E+04  0.12699999809E+01 0. -1.
       -4    1    3    3    0  502 -0.71650043672E+03 -0.85999224421E+03 -0.26693659551E+03  0.11507459732E+04  0.12699999809E+01 0.  1.
</event>
<event>
 5   0  0.5440503E-06  0.2404442E+04  0.7818609E-02  0.8437842E-01
        2   -1    0    0  501    0  0.00000000000E+00  0.00000000000E+00  0.84945232361E+03  0.84945232362E+03  0.25500000920E-02 0. -1.
       -2   -1    0    0    0  501  0.00000000000E+00  0.00000000000E+00 -0.17014912110E+04  0.17014912110E+04  0.25500000920E-02 0.  1.
    10030    2    1    2    0    0  0.00000000000E+00  0.00000000000E+00 -0.85203888741E+03  0.25509435346E+04  0.24044422745E+04 0.  0.
        3    1    3    3  502    0 -0.30897663531E+03  0.63363574059E+03 -0.14592006611E+04  0.16205639118E+04  0.10100000352E+00 0.  1.
       -3    1    3    3    0  502  0.30897663531E+03 -0.63363574059E+03  0.60716177365E+03  0.93037962280E+03  0.10100000352E+00 0. -1.
</event>
<event>
 5   0  0.5349036E-06  0.2398626E+04  0.7818609E-02  0.8440018E-01
       -2   -1    0    0    0  501  0.00000000000E+00  0.00000000000E+00  0.57134943412E+03  0.57134943412E+03  0.25500000920E-02 0. -1.
        2   -1    0    0  501    0  0.00000000000E+00  0.00000000000E+00 -0.25174637213E+04  0.25174637213E+04  0.25500000920E-02 0.  1.
    10030    2    1    2    0    0  0.00000000000E+00  0.00000000000E+00 -0.19461142872E+04  0.30888131554E+04  0.23986258337E+04 0.  0.
        1    1    3    3  502    0 -0.73815301341E+03 -0.94149052563E+03 -0.86472443414E+03  0.14761512890E+04  0.50400001928E-02 0.  1.
       -1    1    3    3    0  502  0.73815301341E+03  0.94149052563E+03 -0.10813898530E+04  0.16126618664E+04  0.50400001928E-02 0. -1.
</event>
<event>
 5   0  0.2254269E-06  0.2399705E+04  0.7818609E-02  0.8439614E-01
       -1   -1    0    0    0  501  0.00000000000E+00  0.00000000000E+00  0.17541715126E+04  0.17541715126E+04  0.50400001928E-02 0.  1.
        1   -1    0    0  501    0  0.00000000000E+00  0.00000000000E+00 -0.82069876202E+03  0.82069876204E+03  0.50400001928E-02 0. -1.
    10030    2    1    2    0    0  0.00000000000E+00  0.00000000000E+00  0.93347275057E+03  0.25748702746E+04  0.23997053059E+04 0.  0.
        2    1    3    3  502    0 -0.54100559232E+03 -0.79353415969E+03 -0.30497179207E+03  0.10076662679E+04  0.25500000920E-02 0. -1.
       -2    1    3    3    0  502  0.54100559232E+03  0.79353415969E+03  0.12384445426E+04  0.15672040067E+04  0.25500000920E-02 0.  1.
</event>
<event>
 5   0  0.5379778E-06  0.2399970E+04  0.7818609E-02  0.8439515E-01
       -2   -1    0    0    0  501  0.00000000000E+00  0.00000000000E+00  0.81211557646E+03  0.81211557646E+03  0.25500000920E-02 0. -1.
        2   -1    0    0  501    0  0.00000000000E+00  0.00000000000E+00 -0.17731021837E+04  0.17731021837E+04  0.25500000920E-02 0.  1.
    10030    2    1    2    0    0  0.00000000000E+00  0.00000000000E+00 -0.96098660722E+03  0.25852177601E+04  0.23999699182E+04 0.  0.
        5    1    3    3  502    0  0.39264766049E+03  0.35539317443E+03  0.67940580305E+03  0.86144693912E+03  0.46999998093E+01 0. -1.
       -5    1    3    3    0  502 -0.39264766049E+03 -0.35539317443E+03 -0.16403924103E+04  0.17237708210E+04  0.46999998093E+01 0.  1.
</event>
<event>
 5   0  0.2297414E-06  0.2409822E+04  0.7818609E-02  0.8435836E-01
        1   -1    0    0  501    0  0.00000000000E+00  0.00000000000E+00  0.20028192788E+04  0.20028192788E+04  0.50400001928E-02 0.  1.
       -1   -1    0    0    0  501  0.00000000000E+00  0.00000000000E+00 -0.72488338948E+03  0.72488338950E+03  0.50400001928E-02 0. -1.
    10030    2    1    2    0    0  0.00000000000E+00  0.00000000000E+00  0.12779358893E+04  0.27277026683E+04  0.24098219248E+04 0.  0.
        1    1    3    3  502    0 -0.78679193783E+02 -0.11057322847E+04  0.11734600075E+04  0.16142622743E+04  0.50400001928E-02 0.  1.
       -1    1    3    3    0  502  0.78679193783E+02  0.11057322847E+04  0.10447588181E+03  0.11134403940E+04  0.50400001928E-02 0. -1.
</event>
<event>
 5   0  0.5349036E-06  0.2379214E+04  0.7818609E-02  0.8447327E-01
       -2   -1    0    0    0  501  0.00000000000E+00  0.00000000000E+00  0.55979086750E+03  0.55979086750E+03  0.25500000920E-02 0.  1.
        2   -1    0    0  501    0  0.00000000000E+00  0.00000000000E+00 -0.25280241499E+04  0.25280241499E+04  0.25500000920E-02 0. -1.
    10030    2    1    2    0    0  0.00000000000E+00  0.00000000000E+00 -0.19682332824E+04  0.30878150174E+04  0.23792140147E+04 0.  0.
        1    1    3    3  502    0  0.57332555966E+03 -0.84710795716E+03 -0.17723501098E+04  0.20463428355E+04  0.50400001928E-02 0. -1.
       -1    1    3    3    0  502 -0.57332555966E+03  0.84710795716E+03 -0.19588317259E+03  0.10414721819E+04  0.50400001928E-02 0.  1.
</event>
<event>
 5   0  0.5268358E-06  0.2399391E+04  0.7818609E-02  0.8439732E-01
       -2   -1    0    0    0  501  0.00000000000E+00  0.00000000000E+00  0.78787547206E+03  0.78787547206E+03  0.25500000920E-02 0.  1.
        2   -1    0    0  501    0  0.00000000000E+00  0.00000000000E+00 -0.18267727053E+04  0.18267727053E+04  0.25500000920E-02 0. -1.
    10030    2    1    2    0    0  0.00000000000E+00  0.00000000000E+00 -0.10388972332E+04  0.26146481773E+04  0.23993910957E+04 0.  0.
        2    1    3    3  502    0 -0.26060293951E+03 -0.55706203456E+03  0.60302867473E+03  0.86132199843E+03  0.25500000920E-02 0.  1.
       -2    1    3    3    0  502  0.26060293951E+03  0.55706203456E+03 -0.16419259080E+04  0.17533261789E+04  0.25500000920E-02 0. -1.
</event>
<event>
 5   0  0.1796750E-06  0.2400248E+04  0.7818609E-02  0.8439411E-01
        3   -1    0    0  501    0  0.00000000000E+00  0.00000000000E+00  0.15018262207E+04  0.15018262241E+04  0.10100000352E+00 0.  1.
       -3   -1    0    0    0  501  0.00000000000E+00  0.00000000000E+00 -0.95903058677E+03  0.95903059209E+03  0.10100000352E+00 0. -1.
    10030    2    1    2    0    0  0.00000000000E+00  0.00000000000E+00  0.54279563395E+03  0.24608568162E+04  0.24002477309E+04 0.  0.
        2    1    3    3  502    0 -0.68025234371E+03  0.30730203815E+03  0.12348718500E+04  0.14429436163E+04  0.25500000920E-02 0.  1.
       -2    1    3    3    0  502  0.68025234371E+03 -0.30730203815E+03 -0.69207621606E+03  0.10179131999E+04  0.25500000920E-02 0. -1.
</event>
<event>
 5   0  0.2215700E-06  0.2399174E+04  0.7818609E-02  0.8439813E-01
        1   -1    0    0  501    0  0.00000000000E+00  0.00000000000E+00  0.24997948872E+04  0.24997948872E+04  0.50400001928E-02 0. -1.
       -1   -1    0    0    0  501  0.00000000000E+00  0.00000000000E+00 -0.57565071270E+03  0.57565071272E+03  0.50400001928E-02 0.  1.
    10030    2    1    2    0    0  0.00000000000E+00  0.00000000000E+00  0.19241441745E+04  0.30754455999E+04  0.23991737815E+04 0.  0.
        3    1    3    3  502    0  0.84570434046E+03 -0.67758250344E+03  0.16215536434E+04  0.19503256418E+04  0.10100000352E+00 0.  1.
       -3    1    3    3    0  502 -0.84570434046E+03  0.67758250344E+03  0.30259053109E+03  0.11251199581E+04  0.10100000352E+00 0. -1.
</event>
<event>
 5   0  0.5440503E-06  0.2401610E+04  0.7818609E-02  0.8438901E-01
       -2   -1    0    0    0  501  0.00000000000E+00  0.00000000000E+00  0.85187257210E+03  0.85187257210E+03  0.25500000920E-02 0. -1.
        2   -1    0    0  501    0  0.00000000000E+00  0.00000000000E+00 -0.16926628955E+04  0.16926628955E+04  0.25500000920E-02 0.  1.
    10030    2    1    2    0    0  0.00000000000E+00  0.00000000000E+00 -0.84079032340E+03  0.25445354676E+04  0.24016103718E+04 0.  0.
        3    1    3    3  502    0  0.87790895897E+03 -0.74598828870E+03 -0.61549758000E+02  0.11536945220E+04  0.10100000352E+00 0. -1.
       -3    1    3    3    0  502 -0.87790895897E+03  0.74598828870E+03 -0.77924056540E+03  0.13908409456E+04  0.10100000352E+00 0.  1.
</event>
<event>
 5   0  0.5379778E-06  0.2396766E+04  0.7818609E-02  0.8440715E-01
       -2   -1    0    0    0  501  0.00000000000E+00  0.00000000000E+00  0.12665669819E+04  0.12665669819E+04  0.25500000920E-02 0. -1.
        2   -1    0    0  501    0  0.00000000000E+00  0.00000000000E+00 -0.11338694514E+04  0.11338694514E+04  0.25500000920E-02 0.  1.
    10030    2    1    2    0    0  0.00000000000E+00  0.00000000000E+00  0.13269753048E+03  0.24004364333E+04  0.23967658283E+04 0.  0.
        5    1    3    3  502    0 -0.10186967430E+04 -0.25234993340E+03  0.64574660928E+03  0.12322476685E+04  0.46999998093E+01 0. -1.
       -5    1    3    3    0  502  0.10186967430E+04  0.25234993340E+03 -0.51304907880E+03  0.11681887649E+04  0.46999998093E+01 0.  1.
</event>
<event>
 5   0  0.1796750E-06  0.2397279E+04  0.7818609E-02  0.8440523E-01
       -3   -1    0    0    0  501  0.00000000000E+00  0.00000000000E+00  0.68256105452E+03  0.68256106199E+03  0.10100000352E+00 0. -1.
        3   -1    0    0  501    0  0.00000000000E+00  0.00000000000E+00 -0.21049201791E+04  0.21049201815E+04  0.10100000352E+00 0.  1.
    10030    2    1    2    0    0  0.00000000000E+00  0.00000000000E+00 -0.14223591246E+04  0.27874812435E+04  0.23972789165E+04 0.  0.
        2    1    3    3  502    0 -0.18547579024E+03 -0.45415157857E+03 -0.19828477215E+04  0.20426306596E+04  0.25500000920E-02 0.  1.
       -2    1    3    3    0  502  0.18547579024E+03  0.45415157857E+03  0.56048859689E+03  0.74485058389E+03  0.25500000920E-02 0. -1.
</event>
<event>
 5   0  0.5349036E-06  0.2387361E+04  0.7818609E-02  0.8444251E-01
        2   -1    0    0  501    0  0.00000000000E+00  0.00000000000E+00  0.72745751871E+03  0.72745751871E+03  0.25500000920E-02 0.  1.
       -2   -1    0    0    0  501  0.00000000000E+00  0.00000000000E+00 -0.19587025640E+04  0.19587025640E+04  0.25500000920E-02 0. -1.
    10030    2    1    2    0    0  0.00000000000E+00  0.00000000000E+00 -0.12312450453E+04  0.26861600827E+04  0.23873608082E+04 0.  0.
        1    1    3    3  502    0  0.44746820030E+03  0.10372838488E+04 -0.10494837274E+04  0.15419473621E+04  0.50400001928E-02 0. -1.
       -1    1    3    3    0  502 -0.44746820030E+03 -0.10372838488E+04 -0.18176131786E+03  0.11442127206E+04  0.50400001928E-02 0.  1.
</event>
<event>
 5   0  0.2297414E-06  0.2398163E+04  0.7818609E-02  0.8440191E-01
        1   -1    0    0  501    0  0.00000000000E+00  0.00000000000E+00  0.62142660507E+03  0.62142660509E+03  0.50400001928E-02 0.  1.
       -1   -1    0    0    0  501  0.00000000000E+00  0.00000000000E+00 -0.23137035894E+04  0.23137035894E+04  0.50400001928E-02 0. -1.
    10030    2    1    2    0    0  0.00000000000E+00  0.00000000000E+00 -0.16922769843E+04  0.29351301945E+04  0.23981634362E+04 0.  0.
        1    1    3    3  502    0  0.10814492994E+04 -0.40186376415E+03 -0.12460583782E+04  0.16981426777E+04  0.50400001928E-02 0.  1.
       -1    1    3    3    0  502 -0.10814492994E+04  0.40186376415E+03 -0.44621860610E+03  0.12369875167E+04  0.50400001928E-02 0. -1.
</event>
<event>
 5   0  0.5440503E-06  0.2392889E+04  0.7818609E-02  0.8442170E-01
        2   -1    0    0  501    0  0.00000000000E+00  0.00000000000E+00  0.17076956756E+04  0.17076956756E+04  0.25500000920E-02 0.  1.
       -2   -1    0    0    0  501  0.00000000000E+00  0.00000000000E+00 -0.83825228341E+03  0.83825228341E+03  0.25500000920E-02 0. -1.
    10030    2    1    2    0    0  0.00000000000E+00  0.00000000000E+00  0.86944339220E+03  0.25459479590E+04  0.23928892991E+04 0.  0.
        3    1    3    3  502    0 -0.11141157650E+04 -0.14870133963E+03 -0.15213822173E+01  0.11239965974E+04  0.10100000352E+00 0. -1.
       -3    1    3    3    0  502  0.11141157650E+04  0.14870133963E+03  0.87096477442E+03  0.14219513616E+04  0.10100000352E+00 0.  1.
</event>
<event>
 5   0  0.5371843E-06  0.2400183E+04  0.7818609E-02  0.8439435E-01
       -2   -1    0    0    0  501  0.00000000000E+00  0.00000000000E+00  0.11141063117E+04  0.11141063117E+04  0.25500000920E-02 0. -1.
        2   -1    0    0  501    0  0.00000000000E+00  0.00000000000E+00 -0.12927132150E+04  0.12927132150E+04  0.25500000920E-02 0.  1.
    10030    2    1    2    0    0  0.00000000000E+00  0.00000000000E+00 -0.17860690329E+03  0.24068195267E+04  0.24001832864E+04 0.  0.
        4    1    3    3  502    0 -0.22880792507E+03  0.58731102940E+03  0.93476010945E+03  0.11274153569E+04  0.12699999809E+01 0. -1.
       -4    1    3    3    0  502  0.22880792507E+03 -0.58731102940E+03 -0.11133670127E+04  0.12794041698E+04  0.12699999809E+01 0.  1.
</event>
<event>
 5   0  0.5268358E-06  0.2401131E+04  0.7818609E-02  0.8439080E-01
       -2   -1    0    0    0  501  0.00000000000E+00  0.00000000000E+00  0.87565921193E+03  0.87565921193E+03  0.25500000920E-02 0.  1.
        2   -1    0    0  501    0  0.00000000000E+00  0.00000000000E+00 -0.16460262206E+04  0.16460262206E+04  0.25500000920E-02 0. -1.
    10030    2    1    2    0    0  0.00000000000E+00  0.00000000000E+00 -0.77036700865E+03  0.25216854325E+04  0.24011314193E+04 0.  0.
        2    1    3    3  502    0 -0.34413745914E+03 -0.98769096142E+03 -0.10041770688E+04  0.14499433132E+04  0.25500000920E-02 0. -1.
       -2    1    3    3    0  502  0.34413745914E+03  0.98769096142E+03  0.23381006014E+03  0.10717421193E+04  0.25500000920E-02 0.  1.
</event>
<event>
 5   0  0.5268358E-06  0.2408553E+04  0.7818609E-02  0.8436309E-01
       -2   -1    0    0    0  501  0.00000000000E+00  0.00000000000E+00  0.53488456684E+03  0.53488456684E+03  0.25500000920E-02 0. -1.
        2   -1    0    0  501    0  0.00000000000E+00  0.00000000000E+00 -0.27113914029E+04  0.27113914029E+04  0.25500000920E-02 0.  1.
    10030    2    1    2    0    0  0.00000000000E+00  0.00000000000E+00 -0.21765068361E+04  0.32462759698E+04  0.24085526078E+04 0.  0.
        2    1    3    3  502    0 -0.81061479787E+03  0.23974926091E+03  0.67808937438E+02  0.84804133781E+03  0.25500000920E-02 0. -1.
       -2    1    3    3    0  502  0.81061479787E+03 -0.23974926091E+03 -0.22443157735E+04  0.23982346320E+04  0.25500000920E-02 0.  1.
</event>
<event>
 5   0  0.5349036E-06  0.2402386E+04  0.7818609E-02  0.8438611E-01
       -2   -1    0    0    0  501  0.00000000000E+00  0.00000000000E+00  0.18813820911E+04  0.18813820911E+04  0.25500000920E-02 0.  1.
        2   -1    0    0  501    0  0.00000000000E+00  0.00000000000E+00 -0.76691753860E+03  0.76691753860E+03  0.25500000920E-02 0. -1.
    10030    2    1    2    0    0  0.00000000000E+00  0.00000000000E+00  0.11144645525E+04  0.26482996297E+04  0.24023862491E+04 0.  0.
        1    1    3    3  502    0 -0.11703043863E+04 -0.76126680593E+02  0.84354374563E+03  0.14446361752E+04  0.50400001928E-02 0.  1.
       -1    1    3    3    0  502  0.11703043863E+04  0.76126680593E+02  0.27092080686E+03  0.12036634545E+04  0.50400001928E-02 0. -1.
</event>
<event>
 5   0  0.1796750E-06  0.2400123E+04  0.7818609E-02  0.8439458E-01
       -3   -1    0    0    0  501  0.00000000000E+00  0.00000000000E+00  0.19229115197E+04  0.19229115223E+04  0.10100000352E+00 0.  1.
        3   -1    0    0  501    0  0.00000000000E+00  0.00000000000E+00 -0.74894105339E+03  0.74894106020E+03  0.10100000352E+00 0. -1.
    10030    2    1    2    0    0  0.00000000000E+00  0.00000000000E+00  0.11739704663E+04  0.26718525825E+04  0.24001228233E+04 0.  0.
        2    1    3    3  502    0 -0.43039778984E+03  0.54300217542E+03 -0.50376874326E+03  0.85666595981E+03  0.25500000920E-02 0. -1.
       -2    1    3    3    0  502  0.43039778984E+03 -0.54300217542E+03  0.16777392095E+04  0.18151866227E+04  0.25500000920E-02 0.  1.
</event>
<event>
 5   0  0.2297414E-06  0.2402246E+04  0.7818609E-02  0.8438663E-01
       -1   -1    0    0    0  501  0.00000000000E+00  0.00000000000E+00  0.50368430104E+03  0.50368430106E+03  0.50400001928E-02 0. -1.
        1   -1    0    0  501    0  0.00000000000E+00  0.00000000000E+00 -0.28642874153E+04  0.28642874153E+04  0.50400001928E-02 0.  1.
    10030    2    1    2    0    0  0.00000000000E+00  0.00000000000E+00 -0.23606031142E+04  0.33679717163E+04  0.24022461196E+04 0.  0.
        1    1    3    3  502    0  0.17105674716E+03  0.13905770266E+03  0.47507868092E+03  0.52373391003E+03  0.50400001928E-02 0. -1.
       -1    1    3    3    0  502 -0.17105674716E+03 -0.13905770266E+03 -0.28356817951E+04  0.28442378063E+04  0.50400001928E-02 0.  1.
</event>
<event>
 5   0  0.5349036E-06  0.2401213E+04  0.7818609E-02  0.8439049E-01
        2   -1    0    0  501    0  0.00000000000E+00  0.00000000000E+00  0.13159119390E+04  0.13159119390E+04  0.25500000920E-02 0.  1.
       -2   -1    0    0    0  501  0.00000000000E+00  0.00000000000E+00 -0.10954049467E+04  0.10954049467E+04  0.25500000920E-02 0. -1.
    10030    2    1    2    0    0  0.00000000000E+00  0.00000000000E+00  0.22050699234E+03  0.24113168857E+04  0.24012133994E+04 0.  0.
        1    1    3    3  502    0 -0.38196332888E+03 -0.35069388701E+03  0.11976644601E+04  0.13050985963E+04  0.50400001928E-02 0.  1.
       -1    1    3    3    0  502  0.38196332888E+03  0.35069388701E+03 -0.97715746776E+03  0.11062182894E+04  0.50400001928E-02 0. -1.
</event>
<event>
 5   0  0.2149029E-06  0.2443392E+04  0.7818609E-02  0.8423435E-01
       -1   -1    0    0    0  501  0.00000000000E+00  0.00000000000E+00  0.83948108016E+03  0.83948108017E+03  0.50400001928E-02 0.  1.
        1   -1    0    0  501    0  0.00000000000E+00  0.00000000000E+00 -0.17779327743E+04  0.17779327743E+04  0.50400001928E-02 0. -1.
    10030    2    1    2    0    0  0.00000000000E+00  0.00000000000E+00 -0.93845169413E+03  0.26174138545E+04  0.24433918440E+04 0.  0.
        4    1    3    3  502    0  0.51649863088E+03  0.58194468839E+03  0.53971971557E+03  0.94695799291E+03  0.12699999809E+01 0.  1.
       -4    1    3    3    0  502 -0.51649863088E+03 -0.58194468839E+03 -0.14781714097E+04  0.16704558616E+04  0.12699999809E+01 0. -1.
</event>
<event>
 5   0  0.2215700E-06  0.2403354E+04  0.7818609E-02  0.8438249E-01
        1   -1    0    0  501    0  0.00000000000E+00  0.00000000000E+00  0.16743529406E+04  0.16743529406E+04  0.50400001928E-02 0.  1.
       -1   -1    0    0    0  501  0.00000000000E+00  0.00000000000E+00 -0.86243889613E+03  0.86243889615E+03  0.50400001928E-02 0. -1.
    10030    2    1    2    0    0  0.00000000000E+00  0.00000000000E+00  0.81191404442E+03  0.25367918367E+04  0.24033535752E+04 0.  0.
        3    1    3    3  502    0 -0.70709923155E+03  0.90902280304E+03  0.76810298039E+03  0.13843027048E+04  0.10100000352E+00 0.  1.
       -3    1    3    3    0  502  0.70709923155E+03 -0.90902280304E+03  0.43811064033E+02  0.11524891319E+04  0.10100000352E+00 0. -1.
</event>
<event>
 5   0  0.2149029E-06  0.2401200E+04  0.7818609E-02  0.8439054E-01
        1   -1    0    0  501    0  0.00000000000E+00  0.00000000000E+00  0.16747456653E+04  0.16747456653E+04  0.50400001928E-02 0. -1.
       -1   -1    0    0    0  501  0.00000000000E+00  0.00000000000E+00 -0.86069206190E+03  0.86069206191E+03  0.50400001928E-02 0.  1.
    10030    2    1    2    0    0  0.00000000000E+00  0.00000000000E+00  0.81405360337E+03  0.25354377272E+04  0.24011999499E+04 0.  0.
        4    1    3    3  502    0 -0.94374588576E+03  0.44469622056E+03  0.10344043758E+04  0.14691511328E+04  0.12699999809E+01 0. -1.
       -4    1    3    3    0  502  0.94374588576E+03 -0.44469622056E+03 -0.22035077246E+03  0.10662865944E+04  0.12699999809E+01 0.  1.
</event>
<event>
 5   0  0.5349036E-06  0.2398434E+04  0.7818609E-02  0.8440090E-01
        2   -1    0    0  501    0  0.00000000000E+00  0.00000000000E+00  0.16174435543E+04  0.16174435543E+04  0.25500000920E-02 0.  1.
       -2   -1    0    0    0  501  0.00000000000E+00  0.00000000000E+00 -0.88913216514E+03  0.88913216515E+03  0.25500000920E-02 0. -1.
    10030    2    1    2    0    0  0.00000000000E+00  0.00000000000E+00  0.72831138911E+03  0.25065757194E+04  0.23984337301E+04 0.  0.
        1    1    3    3  502    0  0.75269452000E+03 -0.10981921892E+03  0.13330558463E+04  0.15348117770E+04  0.50400001928E-02 0.  1.
       -1    1    3    3    0  502 -0.75269452000E+03  0.10981921892E+03 -0.60474445720E+03  0.97176394244E+03  0.50400001928E-02 0. -1.
</event>
<event>
 5   0  0.2254269E-06  0.2407459E+04  0.7818609E-02  0.8436716E-01
        1   -1    0    0  501    0  0.00000000000E+00  0.00000000000E+00  0.80716613805E+03  0.80716613806E+03  0.50400001928E-02 0. -1.
       -1   -1    0    0    0  501  0.00000000000E+00  0.00000000000E+00 -0.17951264404E+04  0.17951264404E+04  0.50400001928E-02 0.  1.
    10030    2    1    2    0    0  0.00000000000E+00  0.00000000000E+00 -0.98796030238E+03  0.26022925785E+04  0.24074594711E+04 0.  0.
        2    1    3    3  502    0 -0.77461167588E+03  0.30342034215E+03  0.44641442361E+03  0.94412551604E+03  0.25500000920E-02 0. -1.
       -2    1    3    3    0  502  0.77461167588E+03 -0.30342034215E+03 -0.14343747260E+04  0.16581670624E+04  0.25500000920E-02 0.  1.
</event>
<event>
 5   0  0.2149417E-06  0.2397247E+04  0.7818609E-02  0.8440535E-01
        1   -1    0    0  501    0  0.00000000000E+00  0.00000000000E+00  0.12346206208E+04  0.12346206209E+04  0.50400001928E-02 0.  1.
       -1   -1    0    0    0  501  0.00000000000E+00  0.00000000000E+00 -0.11636761122E+04  0.11636761123E+04  0.50400001928E-02 0. -1.
    10030    2    1    2    0    0  0.00000000000E+00  0.00000000000E+00  0.70944508603E+02  0.23982967331E+04  0.23972471914E+04 0.  0.
        5    1    3    3  502    0  0.51807160057E+03  0.60935437169E+03 -0.85764783516E+03  0.11727287976E+04  0.46999998093E+01 0. -1.
       -5    1    3    3    0  502 -0.51807160057E+03 -0.60935437169E+03  0.92859234376E+03  0.12255679355E+04  0.46999998093E+01 0.  1.
</event>
<event>
 5   0  0.2149417E-06  0.2394100E+04  0.7818609E-02  0.8441716E-01
       -1   -1    0    0    0  501  0.00000000000E+00  0.00000000000E+00  0.11198272414E+04  0.11198272414E+04  0.50400001928E-02 0. -1.
        1   -1    0    0  501    0  0.00000000000E+00  0.00000000000E+00 -0.12795982365E+04  0.12795982365E+04  0.50400001928E-02 0.  1.
    10030    2    1    2    0    0  0.00000000000E+00  0.00000000000E+00 -0.15977099517E+03  0.23994254779E+04  0.23941002179E+04 0.  0.
        5    1    3    3  502    0  0.42005477791E+03 -0.51434113432E+03 -0.10780496339E+04  0.12661776819E+04  0.46999998093E+01 0.  1.
       -5    1    3    3    0  502 -0.42005477791E+03  0.51434113432E+03  0.91827863873E+03  0.11332477961E+04  0.46999998093E+01 0. -1.
</event>
<event>
 5   0  0.5349036E-06  0.2397676E+04  0.7818609E-02  0.8440374E-01
        2   -1    0    0  501    0  0.00000000000E+00  0.00000000000E+00  0.10928524901E+04  0.10928524901E+04  0.25500000920E-02 0.  1.
       -2   -1    0    0    0  501  0.00000000000E+00  0.00000000000E+00 -0.13151022431E+04  0.13151022431E+04  0.25500000920E-02 0. -1.
    10030    2    1    2    0    0  0.00000000000E+00  0.00000000000E+00 -0.22224975302E+03  0.24079547332E+04  0.23976761758E+04 0.  0.
        1    1    3    3  502    0 -0.82484252048E+03  0.17507088086E+03 -0.96695041916E+03  0.12829684759E+04  0.50400001928E-02 0. -1.
       -1    1    3    3    0  502  0.82484252048E+03 -0.17507088086E+03  0.74470066614E+03  0.11249862573E+04  0.50400001928E-02 0.  1.
</event>
<event>
 5   0  0.2149417E-06  0.2399899E+04  0.7818609E-02  0.8439541E-01
        1   -1    0    0  501    0  0.00000000000E+00  0.00000000000E+00  0.14270333283E+04  0.14270333283E+04  0.50400001928E-02 0.  1.
       -1   -1    0    0    0  501  0.00000000000E+00  0.00000000000E+00 -0.10090015875E+04  0.10090015875E+04  0.50400001928E-02 0. -1.
    10030    2    1    2    0    0  0.00000000000E+00  0.00000000000E+00  0.41803174075E+03  0.24360349158E+04  0.23998990760E+04 0.  0.
        5    1    3    3  502    0  0.89942570601E+03 -0.42102897004E+03  0.89267391677E+03  0.13353354657E+04  0.46999998093E+01 0.  1.
       -5    1    3    3    0  502 -0.89942570601E+03  0.42102897004E+03 -0.47464217602E+03  0.11006994501E+04  0.46999998093E+01 0. -1.
</event>
<event>
 5   0  0.5268358E-06  0.2398616E+04  0.7818609E-02  0.8440022E-01
        2   -1    0    0  501    0  0.00000000000E+00  0.00000000000E+00  0.16263983446E+04  0.16263983446E+04  0.25500000920E-02 0. -1.
       -2   -1    0    0    0  501  0.00000000000E+00  0.00000000000E+00 -0.88437123097E+03  0.88437123097E+03  0.25500000920E-02 0.  1.
    10030    2    1    2    0    0  0.00000000000E+00  0.00000000000E+00  0.74202711367E+03  0.25107695756E+04  0.23986161895E+04 0.  0.
        2    1    3    3  502    0  0.16330582128E+03  0.65286525782E+02 -0.87079951037E+03  0.88838218632E+03  0.25500000920E-02 0.  1.
       -2    1    3    3    0  502 -0.16330582128E+03 -0.65286525782E+02  0.16128266240E+04  0.16223873893E+04  0.25500000920E-02 0. -1.
</event>
<event>
 5   0  0.2254269E-06  0.2401494E+04  0.7818609E-02  0.8438944E-01
        1   -1    0    0  501    0  0.00000000000E+00  0.00000000000E+00  0.15628383504E+04  0.15628383504E+04  0.50400001928E-02 0.  1.
       -1   -1    0    0    0  501  0.00000000000E+00  0.00000000000E+00 -0.92254807601E+03  0.92254807602E+03  0.50400001928E-02 0. -1.
    10030    2    1    2    0    0  0.00000000000E+00  0.00000000000E+00  0.64029027442E+03  0.24853864265E+04  0.24014941294E+04 0.  0.
        2    1    3    3  502    0  0.53983527474E+02 -0.67097816105E+03  0.13491976648E+04  0.15077998052E+04  0.25500000920E-02 0.  1.
       -2    1    3    3    0  502 -0.53983527474E+02  0.67097816105E+03 -0.70890739041E+03  0.97758662124E+03  0.25500000920E-02 0. -1.
</event>
<event>
 5   0  0.5379778E-06  0.2394393E+04  0.7818609E-02  0.8441606E-01
       -2   -1    0    0    0  501  0.00000000000E+00  0.00000000000E+00  0.12386212079E+04  0.12386212079E+04  0.25500000920E-02 0. -1.
        2   -1    0    0  501    0  0.00000000000E+00  0.00000000000E+00 -0.11571572148E+04  0.11571572148E+04  0.25500000920E-02 0.  1.
    10030    2    1    2    0    0  0.00000000000E+00  0.00000000000E+00  0.81463993125E+02  0.23957784228E+04  0.23943930063E+04 0.  0.
        5    1    3    3  502    0  0.79445077781E+03 -0.89490465806E+03  0.76121824339E+02  0.11990925767E+04  0.46999998093E+01 0.  1.
       -5    1    3    3    0  502 -0.79445077781E+03  0.89490465806E+03  0.53421687861E+01  0.11966858461E+04  0.46999998093E+01 0. -1.
</event>
<event>
 5   0  0.5371843E-06  0.2399899E+04  0.7818609E-02  0.8439541E-01
       -2   -1    0    0    0  501  0.00000000000E+00  0.00000000000E+00  0.11501262939E+04  0.11501262939E+04  0.25500000920E-02 0. -1.
        2   -1    0    0  501    0  0.00000000000E+00  0.00000000000E+00 -0.12519310574E+04  0.12519310574E+04  0.25500000920E-02 0.  1.
    10030    2    1    2    0    0  0.00000000000E+00  0.00000000000E+00 -0.10180476354E+03  0.24020573513E+04  0.23998990206E+04 0.  0.
        4    1    3    3  502    0  0.66934965340E+03  0.48375011250E+03  0.82041719333E+03  0.11641001305E+04  0.12699999809E+01 0. -1.
       -4    1    3    3    0  502 -0.66934965340E+03 -0.48375011250E+03 -0.92222195687E+03  0.12379572208E+04  0.12699999809E+01 0.  1.
</event>
<event>
 5   0  0.5371843E-06  0.2394385E+04  0.7818609E-02  0.8441609E-01
       -2   -1    0    0    0  501  0.00000000000E+00  0.00000000000E+00  0.71175114886E+03  0.71175114886E+03  0.25500000920E-02 0. -1.
        2   -1    0    0  501    0  0.00000000000E+00  0.00000000000E+00 -0.20137237867E+04  0.20137237867E+04  0.25500000920E-02 0.  1.
    10030    2    1    2    0    0  0.00000000000E+00  0.00000000000E+00 -0.13019726379E+04  0.27254749356E+04  0.23943852812E+04 0.  0.
        4    1    3    3  502    0 -0.34081172389E+03 -0.95777371733E+03  0.68730525672E+02  0.10189252293E+04  0.12699999809E+01 0. -1.
       -4    1    3    3    0  502  0.34081172389E+03  0.95777371733E+03 -0.13707031635E+04  0.17065497063E+04  0.12699999809E+01 0.  1.
</event>
<event>
 5   0  0.1796750E-06  0.2400368E+04  0.7818609E-02  0.8439366E-01
        3   -1    0    0  501    0  0.00000000000E+00  0.00000000000E+00  0.92084079047E+03  0.92084079601E+03  0.10100000352E+00 0.  1.
       -3   -1    0    0    0  501  0.00000000000E+00  0.00000000000E+00 -0.15642672742E+04  0.15642672775E+04  0.10100000352E+00 0. -1.
    10030    2    1    2    0    0  0.00000000000E+00  0.00000000000E+00 -0.64342648375E+03  0.24851080735E+04  0.24003675754E+04 0.  0.
        2    1    3    3  502    0 -0.95832087186E+03 -0.19743733789E+03 -0.10412904266E+04  0.14288618367E+04  0.25500000920E-02 0. -1.
       -2    1    3    3    0  502  0.95832087186E+03  0.19743733789E+03  0.39786394281E+03  0.10562462368E+04  0.25500000920E-02 0.  1.
</event>
<event>
 5   0  0.1796750E-06  0.2407799E+04  0.7818609E-02  0.8436589E-01
       -3   -1    0    0    0  501  0.00000000000E+00  0.00000000000E+00  0.10325481968E+04  0.10325482017E+04  0.10100000352E+00 0. -1.
        3   -1    0    0  501    0  0.00000000000E+00  0.00000000000E+00 -0.14036868555E+04  0.14036868591E+04  0.10100000352E+00 0.  1.
    10030    2    1    2    0    0  0.00000000000E+00  0.00000000000E+00 -0.37113865873E+03  0.24362350608E+04  0.24077992789E+04 0.  0.
        3    1    3    3  502    0 -0.45836320848E+03  0.22538586545E+03  0.91747918127E+03  0.10500779388E+04  0.10100000352E+00 0. -1.
       -3    1    3    3    0  502  0.45836320848E+03 -0.22538586545E+03 -0.12886178400E+04  0.13861571220E+04  0.10100000352E+00 0.  1.
</event>
<event>
 5   0  0.2149417E-06  0.2401443E+04  0.7818609E-02  0.8438963E-01
        1   -1    0    0  501    0  0.00000000000E+00  0.00000000000E+00  0.11662437127E+04  0.11662437127E+04  0.50400001928E-02 0. -1.
       -1   -1    0    0    0  501  0.00000000000E+00  0.00000000000E+00 -0.12362188844E+04  0.12362188844E+04  0.50400001928E-02 0.  1.
    10030    2    1    2    0    0  0.00000000000E+00  0.00000000000E+00 -0.69975171729E+02  0.24024625971E+04  0.24014433172E+04 0.  0.
        5    1    3    3  502    0  0.59261021530E+03 -0.59876842403E+03  0.82094549413E+03  0.11763010190E+04  0.46999998093E+01 0. -1.
       -5    1    3    3    0  502 -0.59261021530E+03  0.59876842403E+03 -0.89092066586E+03  0.12261615781E+04  0.46999998093E+01 0.  1.
</event>
<event>
 5   0  0.5349036E-06  0.2395096E+04  0.7818609E-02  0.8441342E-01
       -2   -1    0    0    0  501  0.00000000000E+00  0.00000000000E+00  0.10477811290E+04  0.10477811290E+04  0.25500000920E-02 0.  1.
        2   -1    0    0  501    0  0.00000000000E+00  0.00000000000E+00 -0.13687225199E+04  0.13687225199E+04  0.25500000920E-02 0. -1.
    10030    2    1    2    0    0  0.00000000000E+00  0.00000000000E+00 -0.32094139091E+03  0.24165036489E+04  0.23950963465E+04 0.  0.
        1    1    3    3  502    0  0.26396706100E+03 -0.94478704406E+03 -0.85350199865E+03  0.13002949010E+04  0.50400001928E-02 0. -1.
       -1    1    3    3    0  502 -0.26396706100E+03  0.94478704406E+03  0.53256060774E+03  0.11162087479E+04  0.50400001928E-02 0.  1.
</event>
<event>
 5   0  0.5379778E-06  0.2397738E+04  0.7818609E-02  0.8440351E-01
       -2   -1    0    0    0  501  0.00000000000E+00  0.00000000000E+00  0.78180342321E+03  0.78180342321E+03  0.25500000920E-02 0.  1.
        2   -1    0    0  501    0  0.00000000000E+00  0.00000000000E+00 -0.18384253963E+04  0.18384253963E+04  0.25500000920E-02 0. -1.
    10030    2    1    2    0    0  0.00000000000E+00  0.00000000000E+00 -0.10566219731E+04  0.26202288195E+04  0.23977383245E+04 0.  0.
        5    1    3    3  502    0 -0.31374584580E+03 -0.97589939711E+03 -0.12076453416E+04  0.15840598001E+04  0.46999998093E+01 0.  1.
       -5    1    3    3    0  502  0.31374584580E+03  0.97589939711E+03  0.15102336852E+03  0.10361690195E+04  0.46999998093E+01 0. -1.
</event>
<event>
 5   0  0.2149417E-06  0.2398723E+04  0.7818609E-02  0.8439982E-01
        1   -1    0    0  501    0  0.00000000000E+00  0.00000000000E+00  0.17950645802E+04  0.17950645802E+04  0.50400001928E-02 0. -1.
       -1   -1    0    0    0  501  0.00000000000E+00  0.00000000000E+00 -0.80134600012E+03  0.80134600014E+03  0.50400001928E-02 0.  1.
    10030    2    1    2    0    0  0.00000000000E+00  0.00000000000E+00  0.99371858007E+03  0.25964105803E+04  0.23987228446E+04 0.  0.
        5    1    3    3  502    0  0.21122952049E+03 -0.10051955147E+04  0.11670908940E+04  0.15547215757E+04  0.46999998093E+01 0.  1.
       -5    1    3    3    0  502 -0.21122952049E+03  0.10051955147E+04 -0.17337231394E+03  0.10416890046E+04  0.46999998093E+01 0. -1.
</event>
<event>
 5   0  0.5371843E-06  0.2401113E+04  0.7818609E-02  0.8439087E-01
       -2   -1    0    0    0  501  0.00000000000E+00  0.00000000000E+00  0.10804427533E+04  0.10804427533E+04  0.25500000920E-02 0.  1.
        2   -1    0    0  501    0  0.00000000000E+00  0.00000000000E+00 -0.13340231491E+04  0.13340231491E+04  0.25500000920E-02 0. -1.
    10030    2    1    2    0    0  0.00000000000E+00  0.00000000000E+00 -0.25358039583E+03  0.24144659024E+04  0.24011127789E+04 0.  0.
        4    1    3    3  502    0 -0.10137141334E+04  0.64218275554E+03 -0.16331014901E+03  0.12110684759E+04  0.12699999809E+01 0. -1.
       -4    1    3    3    0  502  0.10137141334E+04 -0.64218275554E+03 -0.90270246823E+02  0.12033974265E+04  0.12699999809E+01 0.  1.
</event>
<event>
 5   0  0.5349036E-06  0.2400582E+04  0.7818609E-02  0.8439286E-01
        2   -1    0    0  501    0  0.00000000000E+00  0.00000000000E+00  0.18138907630E+04  0.18138907630E+04  0.25500000920E-02 0. -1.
       -2   -1    0    0    0  501  0.00000000000E+00  0.00000000000E+00 -0.79425865420E+03  0.79425865421E+03  0.25500000920E-02 0.  1.
    10030    2    1    2    0    0  0.00000000000E+00  0.00000000000E+00  0.10196321088E+04  0.26081494172E+04  0.24005819597E+04 0.  0.
        1    1    3    3  502    0  0.78280426049E+03 -0.56010482760E+03 -0.26926265467E+03  0.99950102820E+03  0.50400001928E-02 0.  1.
       -1    1    3    3    0  502 -0.78280426049E+03  0.56010482760E+03  0.12888947635E+04  0.16086483890E+04  0.50400001928E-02 0. -1.
</event>
<event>
 5   0  0.2215700E-06  0.2385881E+04  0.7818609E-02  0.8444809E-01
        1   -1    0    0  501    0  0.00000000000E+00  0.00000000000E+00  0.81025182256E+03  0.81025182258E+03  0.50400001928E-02 0. -1.
       -1   -1    0    0    0  501  0.00000000000E+00  0.00000000000E+00 -0.17563758447E+04  0.17563758447E+04  0.50400001928E-02 0.  1.
    10030    2    1    2    0    0  0.00000000000E+00  0.00000000000E+00 -0.94612402217E+03  0.25666276673E+04  0.23858807425E+04 0.  0.
        3    1    3    3  502    0  0.65304749956E+03  0.58433479639E+03  0.39769560564E+03  0.96233050243E+03  0.10100000352E+00 0. -1.
       -3    1    3    3    0  502 -0.65304749956E+03 -0.58433479639E+03 -0.13438196278E+04  0.16042971649E+04  0.10100000352E+00 0.  1.
</event>
<event>
 5   0  0.5440503E-06  0.2400388E+04  0.7818609E-02  0.8439358E-01
        2   -1    0    0  501    0  0.00000000000E+00  0.00000000000E+00  0.21528216796E+04  0.21528216796E+04  0.25500000920E-02 0.  1.
       -2   -1    0    0    0  501  0.00000000000E+00  0.00000000000E+00 -0.66910611793E+03  0.66910611793E+03  0.25500000920E-02 0. -1.
    10030    2    1    2    0    0  0.00000000000E+00  0.00000000000E+00  0.14837155617E+04  0.28219277975E+04  0.24003884324E+04 0.  0.
        3    1    3    3  502    0  0.84960520920E+02 -0.11965104727E+04  0.69467855573E+03  0.13861579663E+04  0.10100000352E+00 0. -1.
       -3    1    3    3    0  502 -0.84960520920E+02  0.11965104727E+04  0.78903700592E+03  0.14357698313E+04  0.10100000352E+00 0.  1.
</event>
<event>
 5   0  0.2215700E-06  0.2400287E+04  0.7818609E-02  0.8439396E-01
       -1   -1    0    0    0  501  0.00000000000E+00  0.00000000000E+00  0.12005043120E+04  0.12005043120E+04  0.50400001928E-02 0.  1.
        1   -1    0    0  501    0  0.00000000000E+00  0.00000000000E+00 -0.11997831649E+04  0.11997831649E+04  0.50400001928E-02 0. -1.
    10030    2    1    2    0    0  0.00000000000E+00  0.00000000000E+00  0.72114709512E+00  0.24002874769E+04  0.24002873685E+04 0.  0.
        3    1    3    3  502    0  0.90475537917E+02 -0.61390756150E+03  0.10276271557E+04  0.12004523724E+04  0.10100000352E+00 0.  1.
       -3    1    3    3    0  502 -0.90475537917E+02  0.61390756150E+03 -0.10269060087E+04  0.11998351044E+04  0.10100000352E+00 0. -1.
</event>
<event>
 5   0  0.2149417E-06  0.2393587E+04  0.7818609E-02  0.8441908E-01
       -1   -1    0    0    0  501  0.00000000000E+00  0.00000000000E+00  0.12334747931E+04  0.12334747931E+04  0.50400001928E-02 0.  1.
        1   -1    0    0  501    0  0.00000000000E+00  0.00000000000E+00 -0.11612030794E+04  0.11612030794E+04  0.50400001928E-02 0. -1.
    10030    2    1    2    0    0  0.00000000000E+00  0.00000000000E+00  0.72271713732E+02  0.23946778726E+04  0.23935870389E+04 0.  0.
        5    1    3    3  502    0 -0.59352109716E+02 -0.47990396021E+03 -0.10591060149E+04  0.11642843831E+04  0.46999998093E+01 0. -1.
       -5    1    3    3    0  502  0.59352109716E+02  0.47990396021E+03  0.11313777286E+04  0.12303934894E+04  0.46999998093E+01 0.  1.
</event>
<event>
 5   0  0.2297414E-06  0.2426307E+04  0.7818609E-02  0.8429720E-01
       -1   -1    0    0    0  501  0.00000000000E+00  0.00000000000E+00  0.10108672052E+04  0.10108672053E+04  0.50400001928E-02 0.  1.
        1   -1    0    0  501    0  0.00000000000E+00  0.00000000000E+00 -0.14559195409E+04  0.14559195409E+04  0.50400001928E-02 0. -1.
    10030    2    1    2    0    0  0.00000000000E+00  0.00000000000E+00 -0.44505233563E+03  0.24667867461E+04  0.24263069199E+04 0.  0.
        1    1    3    3  502    0  0.59914015257E+03  0.80234227361E+03  0.47374949133E+03  0.11077728228E+04  0.50400001928E-02 0.  1.
       -1    1    3    3    0  502 -0.59914015257E+03 -0.80234227361E+03 -0.91880182696E+03  0.13590139233E+04  0.50400001928E-02 0. -1.
</event>
<event>
 5   0  0.2297414E-06  0.2404735E+04  0.7818609E-02  0.8437733E-01
        1   -1    0    0  501    0  0.00000000000E+00  0.00000000000E+00  0.20119315516E+04  0.20119315516E+04  0.50400001928E-02 0.  1.
       -1   -1    0    0    0  501  0.00000000000E+00  0.00000000000E+00 -0.71855711098E+03  0.71855711100E+03  0.50400001928E-02 0. -1.
    10030    2    1    2    0    0  0.00000000000E+00  0.00000000000E+00  0.12933744407E+04  0.27304886626E+04  0.24047350983E+04 0.  0.
        1    1    3    3  502    0 -0.36804806640E+03  0.24174118679E+03  0.19170822766E+04  0.19670034662E+04  0.50400001928E-02 0.  1.
       -1    1    3    3    0  502  0.36804806640E+03 -0.24174118679E+03 -0.62370783596E+03  0.76348519647E+03  0.50400001928E-02 0. -1.
</event>
<event>
 5   0  0.5440503E-06  0.2395603E+04  0.7818609E-02  0.8441151E-01
        2   -1    0    0  501    0  0.00000000000E+00  0.00000000000E+00  0.18234550666E+04  0.18234550666E+04  0.25500000920E-02 0.  1.
       -2   -1    0    0    0  501  0.00000000000E+00  0.00000000000E+00 -0.78681883427E+03  0.78681883428E+03  0.25500000920E-02 0. -1.
    10030    2    1    2    0    0  0.00000000000E+00  0.00000000000E+00  0.10366362324E+04  0.26102739009E+04  0.23956032976E+04 0.  0.
        3    1    3    3  502    0  0.10477517087E+04 -0.39462329109E+03  0.54474739348E+02  0.11209276035E+04  0.10100000352E+00 0.  1.
       -3    1    3    3    0  502 -0.10477517087E+04  0.39462329109E+03  0.98216149300E+03  0.14893462974E+04  0.10100000352E+00 0. -1.
</event>
<event>
 5   0  0.2297414E-06  0.2396634E+04  0.7818609E-02  0.8440765E-01
       -1   -1    0    0    0  501  0.00000000000E+00  0.00000000000E+00  0.10698150237E+04  0.10698150237E+04  0.50400001928E-02 0. -1.
        1   -1    0    0  501    0  0.00000000000E+00  0.00000000000E+00 -0.13422540421E+04  0.13422540421E+04  0.50400001928E-02 0.  1.
    10030    2    1    2    0    0  0.00000000000E+00  0.00000000000E+00 -0.27243901834E+03  0.24120690658E+04  0.23966339227E+04 0.  0.
        1    1    3    3  502    0 -0.23993745314E+03  0.10450389174E+03  0.10407015576E+04  0.10731033393E+04  0.50400001928E-02 0. -1.
       -1    1    3    3    0  502  0.23993745314E+03 -0.10450389174E+03 -0.13131405759E+04  0.13389657266E+04  0.50400001928E-02 0.  1.
</event>
<event>
 5   0  0.2254269E-06  0.2399423E+04  0.7818609E-02  0.8439720E-01
        1   -1    0    0  501    0  0.00000000000E+00  0.00000000000E+00  0.15045646135E+04  0.15045646135E+04  0.50400001928E-02 0. -1.
       -1   -1    0    0    0  501  0.00000000000E+00  0.00000000000E+00 -0.95662705494E+03  0.95662705495E+03  0.50400001928E-02 0.  1.
    10030    2    1    2    0    0  0.00000000000E+00  0.00000000000E+00  0.54793755853E+03  0.24611916684E+04  0.23994226099E+04 0.  0.
        2    1    3    3  502    0  0.14794866040E+03  0.10720194937E+04 -0.25723614976E+03  0.11123331505E+04  0.25500000920E-02 0. -1.
       -2    1    3    3    0  502 -0.14794866040E+03 -0.10720194937E+04  0.80517370829E+03  0.13488585179E+04  0.25500000920E-02 0.  1.
</event>
<event>
 5   0  0.2149417E-06  0.2405709E+04  0.7818609E-02  0.8437369E-01
        1   -1    0    0  501    0  0.00000000000E+00  0.00000000000E+00  0.17635862530E+04  0.17635862530E+04  0.50400001928E-02 0. -1.
       -1   -1    0    0    0  501  0.00000000000E+00  0.00000000000E+00 -0.82040696459E+03  0.82040696460E+03  0.50400001928E-02 0.  1.
    10030    2    1    2    0    0  0.00000000000E+00  0.00000000000E+00  0.94317928845E+03  0.25839932176E+04  0.24057085814E+04 0.  0.
        5    1    3    3  502    0 -0.40570729939E+03 -0.29289787217E+03  0.16464747747E+04  0.17208395771E+04  0.46999998093E+01 0. -1.
       -5    1    3    3    0  502  0.40570729939E+03  0.29289787217E+03 -0.70329548624E+03  0.86315364059E+03  0.46999998093E+01 0.  1.
</event>
<event>
 5   0  0.5349036E-06  0.2399241E+04  0.7818609E-02  0.8439788E-01
        2   -1    0    0  501    0  0.00000000000E+00  0.00000000000E+00  0.83695374015E+03  0.83695374016E+03  0.25500000920E-02 0.  1.
       -2   -1    0    0    0  501  0.00000000000E+00  0.00000000000E+00 -0.17194369008E+04  0.17194369008E+04  0.25500000920E-02 0. -1.
    10030    2    1    2    0    0  0.00000000000E+00  0.00000000000E+00 -0.88248316065E+03  0.25563906410E+04  0.23992408342E+04 0.  0.
        1    1    3    3  502    0  0.11622023349E+04 -0.13610785431E+03 -0.72284318030E+03  0.13754060777E+04  0.50400001928E-02 0. -1.
       -1    1    3    3    0  502 -0.11622023349E+04  0.13610785431E+03 -0.15963998035E+03  0.11809845632E+04  0.50400001928E-02 0.  1.
</event>
<event>
 5   0  0.5440503E-06  0.2395432E+04  0.7818609E-02  0.8441216E-01
        2   -1    0    0  501    0  0.00000000000E+00  0.00000000000E+00  0.25389661775E+04  0.25389661775E+04  0.25500000920E-02 0. -1.
       -2   -1    0    0    0  501  0.00000000000E+00  0.00000000000E+00 -0.56500315849E+03  0.56500315850E+03  0.25500000920E-02 0.  1.
    10030    2    1    2    0    0  0.00000000000E+00  0.00000000000E+00  0.19739630190E+04  0.31039693360E+04  0.23954322446E+04 0.  0.
        3    1    3    3  502    0  0.10402984944E+04  0.49630966171E+03  0.14088186313E+04  0.18202511321E+04  0.10100000352E+00 0.  1.
       -3    1    3    3    0  502 -0.10402984944E+04 -0.49630966171E+03  0.56514438762E+03  0.12837182038E+04  0.10100000352E+00 0. -1.
</event>
<event>
 5   0  0.2297414E-06  0.2398525E+04  0.7818609E-02  0.8440056E-01
       -1   -1    0    0    0  501  0.00000000000E+00  0.00000000000E+00  0.81221423475E+03  0.81221423477E+03  0.50400001928E-02 0.  1.
        1   -1    0    0  501    0  0.00000000000E+00  0.00000000000E+00 -0.17707526344E+04  0.17707526344E+04  0.50400001928E-02 0. -1.
    10030    2    1    2    0    0  0.00000000000E+00  0.00000000000E+00 -0.95853839960E+03  0.25829668691E+04  0.23985249600E+04 0.  0.
        1    1    3    3  502    0  0.25300895834E+03 -0.10774086409E+03 -0.17363413331E+04  0.17579826085E+04  0.50400001928E-02 0. -1.
       -1    1    3    3    0  502 -0.25300895834E+03  0.10774086409E+03  0.77780293352E+03  0.82498426059E+03  0.50400001928E-02 0.  1.
</event>
<event>
 5   0  0.2254269E-06  0.2400972E+04  0.7818609E-02  0.8439140E-01
       -1   -1    0    0    0  501  0.00000000000E+00  0.00000000000E+00  0.15927562313E+04  0.15927562313E+04  0.50400001928E-02 0.  1.
        1   -1    0    0  501    0  0.00000000000E+00  0.00000000000E+00 -0.90482586845E+03  0.90482586846E+03  0.50400001928E-02 0. -1.
    10030    2    1    2    0    0  0.00000000000E+00  0.00000000000E+00  0.68793036286E+03  0.24975820998E+04  0.24009723366E+04 0.  0.
        2    1    3    3  502    0  0.71227549633E+03  0.20757335735E+02  0.13489661179E+04  0.15256070388E+04  0.25500000920E-02 0.  1.
       -2    1    3    3    0  502 -0.71227549633E+03 -0.20757335735E+02 -0.66103575504E+03  0.97197506095E+03  0.25500000920E-02 0. -1.
</event>
<event>
 5   0  0.2149029E-06  0.2397979E+04  0.7818609E-02  0.8440260E-01
        1   -1    0    0  501    0  0.00000000000E+00  0.00000000000E+00  0.12306407995E+04  0.12306407995E+04  0.50400001928E-02 0.  1.
       -1   -1    0    0    0  501  0.00000000000E+00  0.00000000000E+00 -0.11681526280E+04  0.11681526281E+04  0.50400001928E-02 0. -1.
    10030    2    1    2    0    0  0.00000000000E+00  0.00000000000E+00  0.62488171487E+02  0.23987934276E+04  0.23979793862E+04 0.  0.
        4    1    3    3  502    0  0.10843331144E+04  0.20269725974E+03  0.50120159806E+03  0.12116390292E+04  0.12699999809E+01 0.  1.
       -4    1    3    3    0  502 -0.10843331144E+04 -0.20269725974E+03 -0.43871342657E+03  0.11871543984E+04  0.12699999809E+01 0. -1.
</event>
<event>
 5   0  0.2215700E-06  0.2404460E+04  0.7818609E-02  0.8437836E-01
       -1   -1    0    0    0  501  0.00000000000E+00  0.00000000000E+00  0.20146563874E+04  0.20146563874E+04  0.50400001928E-02 0.  1.
        1   -1    0    0  501    0  0.00000000000E+00  0.00000000000E+00 -0.71742132186E+03  0.71742132188E+03  0.50400001928E-02 0. -1.
    10030    2    1    2    0    0  0.00000000000E+00  0.00000000000E+00  0.12972350655E+04  0.27320777093E+04  0.24044603957E+04 0.  0.
        3    1    3    3  502    0  0.67444312222E+03 -0.47760679755E+03  0.16407277702E+04  0.18371089799E+04  0.10100000352E+00 0.  1.
       -3    1    3    3    0  502 -0.67444312222E+03  0.47760679755E+03 -0.34349270463E+03  0.89496872935E+03  0.10100000352E+00 0. -1.
</event>
<event>
 5   0  0.2297414E-06  0.2398318E+04  0.7818609E-02  0.8440133E-01
       -1   -1    0    0    0  501  0.00000000000E+00  0.00000000000E+00  0.89332371442E+03  0.89332371444E+03  0.50400001928E-02 0. -1.
        1   -1    0    0  501    0  0.00000000000E+00  0.00000000000E+00 -0.16096992267E+04  0.16096992267E+04  0.50400001928E-02 0.  1.
    10030    2    1    2    0    0  0.00000000000E+00  0.00000000000E+00 -0.71637551223E+03  0.25030229411E+04  0.23983181543E+04 0.  0.
        1    1    3    3  502    0  0.77927890134E+03  0.42654792276E+03  0.48243535314E+03  0.10109216619E+04  0.50400001928E-02 0. -1.
       -1    1    3    3    0  502 -0.77927890134E+03 -0.42654792276E+03 -0.11988108654E+04  0.14921012792E+04  0.50400001928E-02 0.  1.
</event>
<event>
 5   0  0.5371843E-06  0.2393194E+04  0.7818609E-02  0.8442056E-01
        2   -1    0    0  501    0  0.00000000000E+00  0.00000000000E+00  0.23444642375E+04  0.23444642375E+04  0.25500000920E-02 0.  1.
       -2   -1    0    0    0  501  0.00000000000E+00  0.00000000000E+00 -0.61073431833E+03  0.61073431834E+03  0.25500000920E-02 0. -1.
    10030    2    1    2    0    0  0.00000000000E+00  0.00000000000E+00  0.17337299191E+04  0.29551985558E+04  0.23931943239E+04 0.  0.
        4    1    3    3  502    0  0.98162930571E+03 -0.51137522023E+03  0.30539887714E+03  0.11482032907E+04  0.12699999809E+01 0. -1.
       -4    1    3    3    0  502 -0.98162930571E+03  0.51137522023E+03  0.14283310420E+04  0.18069952651E+04  0.12699999809E+01 0.  1.
</event>
<event>
 5   0  0.5371843E-06  0.2411725E+04  0.7818609E-02  0.8435127E-01
        2   -1    0    0  501    0  0.00000000000E+00  0.00000000000E+00  0.13673157200E+04  0.13673157200E+04  0.25500000920E-02 0.  1.
       -2   -1    0    0    0  501  0.00000000000E+00  0.00000000000E+00 -0.10634738410E+04  0.10634738410E+04  0.25500000920E-02 0. -1.
    10030    2    1    2    0    0  0.00000000000E+00  0.00000000000E+00  0.30384187901E+03  0.24307895611E+04  0.24117251093E+04 0.  0.
        4    1    3    3  502    0  0.42723950401E+03  0.18348778037E+03 -0.96948436792E+03  0.10752222616E+04  0.12699999809E+01 0. -1.
       -4    1    3    3    0  502 -0.42723950401E+03 -0.18348778037E+03  0.12733262469E+04  0.13555672995E+04  0.12699999809E+01 0.  1.
</event>
<event>
 5   0  0.2215700E-06  0.2414580E+04  0.7818609E-02  0.8434065E-01
       -1   -1    0    0    0  501  0.00000000000E+00  0.00000000000E+00  0.97595603443E+03  0.97595603444E+03  0.50400001928E-02 0. -1.
        1   -1    0    0  501    0  0.00000000000E+00  0.00000000000E+00 -0.14934579622E+04  0.14934579622E+04  0.50400001928E-02 0.  1.
    10030    2    1    2    0    0  0.00000000000E+00  0.00000000000E+00 -0.51750192776E+03  0.24694139966E+04  0.24145801377E+04 0.  0.
        3    1    3    3  502    0 -0.84845320563E+03 -0.50867485361E+03 -0.96651199706E+03  0.13830287052E+04  0.10100000352E+00 0.  1.
       -3    1    3    3    0  502  0.84845320563E+03  0.50867485361E+03  0.44901006930E+03  0.10863852914E+04  0.10100000352E+00 0. -1.
</event>
<event>
 5   0  0.2149029E-06  0.2396115E+04  0.7818609E-02  0.8440960E-01
       -1   -1    0    0    0  501  0.00000000000E+00  0.00000000000E+00  0.62550498213E+03  0.62550498215E+03  0.50400001928E-02 0. -1.
        1   -1    0    0  501    0  0.00000000000E+00  0.00000000000E+00 -0.22946924075E+04  0.22946924075E+04  0.50400001928E-02 0.  1.
    10030    2    1    2    0    0  0.00000000000E+00  0.00000000000E+00 -0.16691874254E+04  0.29201973897E+04  0.23961147998E+04 0.  0.
        4    1    3    3  502    0 -0.52140866229E+03 -0.23151314031E+03 -0.21185242896E+04  0.21939945546E+04  0.12699999809E+01 0.  1.
       -4    1    3    3    0  502  0.52140866229E+03  0.23151314031E+03  0.44933686418E+03  0.72620283507E+03  0.12699999809E+01 0. -1.
</event>
<event>
 5   0  0.5371843E-06  0.2401597E+04  0.7818609E-02  0.8438906E-01
       -2   -1    0    0    0  501  0.00000000000E+00  0.00000000000E+00  0.12226731625E+04  0.12226731625E+04  0.25500000920E-02 0.  1.
        2   -1    0    0  501    0  0.00000000000E+00  0.00000000000E+00 -0.11793150767E+04  0.11793150767E+04  0.25500000920E-02 0. -1.
    10030    2    1    2    0    0  0.00000000000E+00  0.00000000000E+00  0.43358085849E+02  0.24019882392E+04  0.24015968808E+04 0.  0.
        4    1    3    3  502    0  0.29819725856E+03 -0.86718698576E+03 -0.75367654832E+03  0.11869982416E+04  0.12699999809E+01 0. -1.
       -4    1    3    3    0  502 -0.29819725856E+03  0.86718698576E+03  0.79703463417E+03  0.12149899976E+04  0.12699999809E+01 0.  1.
</event>
<event>
 5   0  0.5371843E-06  0.2399733E+04  0.7818609E-02  0.8439603E-01
        2   -1    0    0  501    0  0.00000000000E+00  0.00000000000E+00  0.20966447318E+04  0.20966447318E+04  0.25500000920E-02 0.  1.
       -2   -1    0    0    0  501  0.00000000000E+00  0.00000000000E+00 -0.68665905041E+03  0.68665905041E+03  0.25500000920E-02 0. -1.
    10030    2    1    2    0    0  0.00000000000E+00  0.00000000000E+00  0.14099856814E+04  0.27833037822E+04  0.23997333857E+04 0.  0.
        4    1    3    3  502    0 -0.29426764346E+03 -0.70275493465E+03  0.17800955028E+04  0.19362849884E+04  0.12699999809E+01 0.  1.
       -4    1    3    3    0  502  0.29426764346E+03  0.70275493465E+03 -0.37010982148E+03  0.84701879378E+03  0.12699999809E+01 0. -1.
</event>
<event>
 5   0  0.5379778E-06  0.2404139E+04  0.7818609E-02  0.8437956E-01
        2   -1    0    0  501    0  0.00000000000E+00  0.00000000000E+00  0.15751660422E+04  0.15751660422E+04  0.25500000920E-02 0.  1.
       -2   -1    0    0    0  501  0.00000000000E+00  0.00000000000E+00 -0.91734498323E+03  0.91734498324E+03  0.25500000920E-02 0. -1.
    10030    2    1    2    0    0  0.00000000000E+00  0.00000000000E+00  0.65782105894E+03  0.24925110254E+04  0.24041386537E+04 0.  0.
        5    1    3    3  502    0 -0.35735888617E+03 -0.69916366439E+03 -0.61471814085E+03  0.99721396191E+03  0.46999998093E+01 0. -1.
       -5    1    3    3    0  502  0.35735888617E+03  0.69916366439E+03  0.12725391998E+04  0.14952970635E+04  0.46999998093E+01 0.  1.
</event>
<event>
 5   0  0.5349036E-06  0.2402850E+04  0.7818609E-02  0.8438437E-01
       -2   -1    0    0    0  501  0.00000000000E+00  0.00000000000E+00  0.55498582168E+03  0.55498582169E+03  0.25500000920E-02 0. -1.
        2   -1    0    0  501    0  0.00000000000E+00  0.00000000000E+00 -0.26008264887E+04  0.26008264887E+04  0.25500000920E-02 0.  1.
    10030    2    1    2    0    0  0.00000000000E+00  0.00000000000E+00 -0.20458406670E+04  0.31558123103E+04  0.24028498296E+04 0.  0.
        1    1    3    3  502    0 -0.87680538496E+03  0.81890380669E+03 -0.11063027877E+04  0.16319610859E+04  0.50400001928E-02 0.  1.
       -1    1    3    3    0  502  0.87680538496E+03 -0.81890380669E+03 -0.93953787927E+03  0.15238512245E+04  0.50400001928E-02 0. -1.
</event>
<event>
 5   0  0.1796750E-06  0.2433065E+04  0.7818609E-02  0.8427227E-01
        3   -1    0    0  501    0  0.00000000000E+00  0.00000000000E+00  0.14458377437E+04  0.14458377472E+04  0.10100000352E+00 0.  1.
       -3   -1    0    0    0  501  0.00000000000E+00  0.00000000000E+00 -0.10235943902E+04  0.10235943952E+04  0.10100000352E+00 0. -1.
    10030    2    1    2    0    0  0.00000000000E+00  0.00000000000E+00  0.42224335350E+03  0.24694321424E+04  0.24330650744E+04 0.  0.
        2    1    3    3  502    0  0.98779734352E+03 -0.69196125592E+03  0.49373883189E+02  0.12070591336E+04  0.25500000920E-02 0. -1.
       -2    1    3    3    0  502 -0.98779734352E+03  0.69196125592E+03  0.37286947031E+03  0.12623730088E+04  0.25500000920E-02 0.  1.
</event>
<event>
 5   0  0.5379778E-06  0.2374189E+04  0.7818609E-02  0.8449231E-01
       -2   -1    0    0    0  501  0.00000000000E+00  0.00000000000E+00  0.10457974837E+04  0.10457974837E+04  0.25500000920E-02 0.  1.
        2   -1    0    0  501    0  0.00000000000E+00  0.00000000000E+00 -0.13474818014E+04  0.13474818015E+04  0.25500000920E-02 0. -1.
    10030    2    1    2    0    0  0.00000000000E+00  0.00000000000E+00 -0.30168431777E+03  0.23932792851E+04  0.23741887686E+04 0.  0.
        5    1    3    3  502    0 -0.62504959683E+03  0.13422090549E+03 -0.11591192431E+04  0.13237377987E+04  0.46999998093E+01 0. -1.
       -5    1    3    3    0  502  0.62504959683E+03 -0.13422090549E+03  0.85743492535E+03  0.10695414864E+04  0.46999998093E+01 0.  1.
</event>
<event>
 5   0  0.2254269E-06  0.2459191E+04  0.7818609E-02  0.8417670E-01
        1   -1    0    0  501    0  0.00000000000E+00  0.00000000000E+00  0.25522449379E+04  0.25522449379E+04  0.50400001928E-02 0. -1.
       -1   -1    0    0    0  501  0.00000000000E+00  0.00000000000E+00 -0.59238224024E+03  0.59238224026E+03  0.50400001928E-02 0.  1.
    10030    2    1    2    0    0  0.00000000000E+00  0.00000000000E+00  0.19598626977E+04  0.31446271782E+04  0.24591905774E+04 0.  0.
        2    1    3    3  502    0  0.19612312332E+03 -0.11943799195E+04  0.12568479907E+04  0.17448995797E+04  0.25500000920E-02 0. -1.
       -2    1    3    3    0  502 -0.19612312332E+03  0.11943799195E+04  0.70301470695E+03  0.13997275984E+04  0.25500000920E-02 0.  1.
</event>
<event>
 5   0  0.5379778E-06  0.2401205E+04  0.7818609E-02  0.8439053E-01
       -2   -1    0    0    0  501  0.00000000000E+00  0.00000000000E+00  0.13212735521E+04  0.13212735521E+04  0.25500000920E-02 0. -1.
        2   -1    0    0  501    0  0.00000000000E+00  0.00000000000E+00 -0.10909518118E+04  0.10909518118E+04  0.25500000920E-02 0.  1.
    10030    2    1    2    0    0  0.00000000000E+00  0.00000000000E+00  0.23032174028E+03  0.24122253638E+04  0.24012045106E+04 0.  0.
        5    1    3    3  502    0  0.46703099074E+03 -0.17350531703E+03  0.12125120898E+04  0.13108888966E+04  0.46999998093E+01 0. -1.
       -5    1    3    3    0  502 -0.46703099074E+03  0.17350531703E+03 -0.98219034952E+03  0.11013364672E+04  0.46999998093E+01 0.  1.
</event>
<event>
 5   0  0.2215700E-06  0.2400634E+04  0.7818609E-02  0.8439266E-01
        1   -1    0    0  501    0  0.00000000000E+00  0.00000000000E+00  0.98795069092E+03  0.98795069094E+03  0.50400001928E-02 0.  1.
       -1   -1    0    0    0  501  0.00000000000E+00  0.00000000000E+00 -0.14583323317E+04  0.14583323317E+04  0.50400001928E-02 0. -1.
    10030    2    1    2    0    0  0.00000000000E+00  0.00000000000E+00 -0.47038164073E+03  0.24462830226E+04  0.24006336119E+04 0.  0.
        3    1    3    3  502    0 -0.72160667202E+03 -0.35936998740E+03 -0.11414259760E+04  0.13973962379E+04  0.10100000352E+00 0. -1.
       -3    1    3    3    0  502  0.72160667202E+03  0.35936998740E+03  0.67104433526E+03  0.10488867847E+04  0.10100000352E+00 0.  1.
</event>
<event>
 5   0  0.2149029E-06  0.2408383E+04  0.7818609E-02  0.8436372E-01
       -1   -1    0    0    0  501  0.00000000000E+00  0.00000000000E+00  0.14861259597E+04  0.14861259597E+04  0.50400001928E-02 0. -1.
        1   -1    0    0  501    0  0.00000000000E+00  0.00000000000E+00 -0.97574337068E+03  0.97574337070E+03  0.50400001928E-02 0.  1.
    10030    2    1    2    0    0  0.00000000000E+00  0.00000000000E+00  0.51038258904E+03  0.24618693304E+04  0.24083833193E+04 0.  0.
        4    1    3    3  502    0 -0.11962084553E+04 -0.54029884326E+02  0.12491670278E+03  0.12039267804E+04  0.12699999809E+01 0.  1.
       -4    1    3    3    0  502  0.11962084553E+04  0.54029884326E+02  0.38546588626E+03  0.12579425501E+04  0.12699999809E+01 0. -1.
</event>
<event>
 5   0  0.2215700E-06  0.2435813E+04  0.7818609E-02  0.8426216E-01
        1   -1    0    0  501    0  0.00000000000E+00  0.00000000000E+00  0.10825338936E+04  0.10825338937E+04  0.50400001928E-02 0.  1.
       -1   -1    0    0    0  501  0.00000000000E+00  0.00000000000E+00 -0.13702071085E+04  0.13702071085E+04  0.50400001928E-02 0. -1.
    10030    2    1    2    0    0  0.00000000000E+00  0.00000000000E+00 -0.28767321484E+03  0.24527410022E+04  0.24358125020E+04 0.  0.
        3    1    3    3  502    0  0.34975135296E+03  0.44514821329E+03  0.94199559278E+03  0.10990171280E+04  0.10100000352E+00 0.  1.
       -3    1    3    3    0  502 -0.34975135296E+03 -0.44514821329E+03 -0.12296688076E+04  0.13537238741E+04  0.10100000352E+00 0. -1.
</event>
<event>
 5   0  0.2215700E-06  0.2396547E+04  0.7818609E-02  0.8440798E-01
       -1   -1    0    0    0  501  0.00000000000E+00  0.00000000000E+00  0.17117012138E+04  0.17117012138E+04  0.50400001928E-02 0.  1.
        1   -1    0    0  501    0  0.00000000000E+00  0.00000000000E+00 -0.83884897105E+03  0.83884897106E+03  0.50400001928E-02 0. -1.
    10030    2    1    2    0    0  0.00000000000E+00  0.00000000000E+00  0.87285224278E+03  0.25505501849E+04  0.23965465170E+04 0.  0.
        3    1    3    3  502    0 -0.71993924509E+03  0.88792462611E+02 -0.57862538038E+03  0.92790299011E+03  0.10100000352E+00 0. -1.
       -3    1    3    3    0  502  0.71993924509E+03 -0.88792462611E+02  0.14514776232E+04  0.16226471948E+04  0.10100000352E+00 0.  1.
</event>
<event>
 5   0  0.5268358E-06  0.2398567E+04  0.7818609E-02  0.8440040E-01
        2   -1    0    0  501    0  0.00000000000E+00  0.00000000000E+00  0.21572666779E+04  0.21572666779E+04  0.25500000920E-02 0. -1.
       -2   -1    0    0    0  501  0.00000000000E+00  0.00000000000E+00 -0.66671426830E+03  0.66671426830E+03  0.25500000920E-02 0.  1.
    10030    2    1    2    0    0  0.00000000000E+00  0.00000000000E+00  0.14905524096E+04  0.28239809462E+04  0.23985666342E+04 0.  0.
        2    1    3    3  502    0  0.53710498061E+02  0.88846075089E+02 -0.66141360588E+03  0.66951206166E+03  0.25500000920E-02 0.  1.
       -2    1    3    3    0  502 -0.53710498061E+02 -0.88846075089E+02  0.21519660155E+04  0.21544688846E+04  0.25500000920E-02 0. -1.
</event>
<event>
 5   0  0.2149417E-06  0.2401524E+04  0.7818609E-02  0.8438933E-01
        1   -1    0    0  501    0  0.00000000000E+00  0.00000000000E+00  0.11569595360E+04  0.11569595360E+04  0.50400001928E-02 0.  1.
       -1   -1    0    0    0  501  0.00000000000E+00  0.00000000000E+00 -0.12462228547E+04  0.12462228547E+04  0.50400001928E-02 0. -1.
    10030    2    1    2    0    0  0.00000000000E+00  0.00000000000E+00 -0.89263318703E+02  0.24031823907E+04  0.24015240292E+04 0.  0.
        5    1    3    3  502    0 -0.40431500007E+03  0.79322382012E+03  0.76161240942E+03  0.11716442294E+04  0.46999998093E+01 0.  1.
       -5    1    3    3    0  502  0.40431500007E+03 -0.79322382012E+03 -0.85087572813E+03  0.12315381613E+04  0.46999998093E+01 0. -1.
</event>
<event>
 5   0  0.2254269E-06  0.2397500E+04  0.7818609E-02  0.8440440E-01
        1   -1    0    0  501    0  0.00000000000E+00  0.00000000000E+00  0.18474693103E+04  0.18474693103E+04  0.50400001928E-02 0.  1.
       -1   -1    0    0    0  501  0.00000000000E+00  0.00000000000E+00 -0.77782129109E+03  0.77782129110E+03  0.50400001928E-02 0. -1.
    10030    2    1    2    0    0  0.00000000000E+00  0.00000000000E+00  0.10696480192E+04  0.26252906014E+04  0.23974995009E+04 0.  0.
        2    1    3    3  502    0 -0.11436947095E+04  0.41270484118E+02  0.92545350037E+03  0.14718033234E+04  0.25500000920E-02 0.  1.
       -2    1    3    3    0  502  0.11436947095E+04 -0.41270484118E+02  0.14419451887E+03  0.11534872781E+04  0.25500000920E-02 0. -1.
</event>
<event>
 5   0  0.2215700E-06  0.2431709E+04  0.7818609E-02  0.8427727E-01
       -1   -1    0    0    0  501  0.00000000000E+00  0.00000000000E+00  0.12603817509E+04  0.12603817510E+04  0.50400001928E-02 0. -1.
        1   -1    0    0  501    0  0.00000000000E+00  0.00000000000E+00 -0.11729006494E+04  0.11729006494E+04  0.50400001928E-02 0.  1.
    10030    2    1    2    0    0  0.00000000000E+00  0.00000000000E+00  0.87481101544E+02  0.24332824004E+04  0.24317093364E+04 0.  0.
        3    1    3    3  502    0 -0.47770380947E+03  0.11159553031E+04  0.11267194810E+03  0.12191194142E+04  0.10100000352E+00 0.  1.
       -3    1    3    3    0  502  0.47770380947E+03 -0.11159553031E+04 -0.25190846558E+02  0.12141629862E+04  0.10100000352E+00 0. -1.
</event>
<event>
 5   0  0.5349036E-06  0.2399964E+04  0.7818609E-02  0.8439517E-01
       -2   -1    0    0    0  501  0.00000000000E+00  0.00000000000E+00  0.91128943076E+03  0.91128943076E+03  0.25500000920E-02 0. -1.
        2   -1    0    0  501    0  0.00000000000E+00  0.00000000000E+00 -0.15801310072E+04  0.15801310072E+04  0.25500000920E-02 0.  1.
    10030    2    1    2    0    0  0.00000000000E+00  0.00000000000E+00 -0.66884157642E+03  0.24914204379E+04  0.23999639048E+04 0.  0.
        1    1    3    3  502    0  0.37969210972E+03  0.41282191346E+03 -0.14356804208E+04  0.15413521016E+04  0.50400001928E-02 0.  1.
       -1    1    3    3    0  502 -0.37969210972E+03 -0.41282191346E+03  0.76683884439E+03  0.95006833633E+03  0.50400001928E-02 0. -1.
</event>
<event>
 5   0  0.5268358E-06  0.2394696E+04  0.7818609E-02  0.8441492E-01
        2   -1    0    0  501    0  0.00000000000E+00  0.00000000000E+00  0.23871992329E+04  0.23871992329E+04  0.25500000920E-02 0. -1.
       -2   -1    0    0    0  501  0.00000000000E+00  0.00000000000E+00 -0.60055421002E+03  0.60055421002E+03  0.25500000920E-02 0.  1.
    10030    2    1    2    0    0  0.00000000000E+00  0.00000000000E+00  0.17866450229E+04  0.29877534430E+04  0.23946962643E+04 0.  0.
        2    1    3    3  502    0  0.74925619475E+03 -0.13441235267E+03  0.20464353844E+04  0.21834260483E+04  0.25500000920E-02 0. -1.
       -2    1    3    3    0  502 -0.74925619475E+03  0.13441235267E+03 -0.25979036146E+03  0.80432739468E+03  0.25500000920E-02 0.  1.
</event>
<event>
 5   0  0.2215700E-06  0.2401800E+04  0.7818609E-02  0.8438830E-01
       -1   -1    0    0    0  501  0.00000000000E+00  0.00000000000E+00  0.80325244204E+03  0.80325244206E+03  0.50400001928E-02 0. -1.
        1   -1    0    0  501    0  0.00000000000E+00  0.00000000000E+00 -0.17954023301E+04  0.17954023301E+04  0.50400001928E-02 0.  1.
    10030    2    1    2    0    0  0.00000000000E+00  0.00000000000E+00 -0.99214988806E+03  0.25986547722E+04  0.24018004131E+04 0.  0.
        3    1    3    3  502    0 -0.85844081933E+03  0.43274266108E+03  0.28261728296E+03  0.10020276393E+04  0.10100000352E+00 0. -1.
       -3    1    3    3    0  502  0.85844081933E+03 -0.43274266108E+03 -0.12747671710E+04  0.15966271329E+04  0.10100000352E+00 0.  1.
</event>
<event>
 5   0  0.5349036E-06  0.2403817E+04  0.7818609E-02  0.8438076E-01
       -2   -1    0    0    0  501  0.00000000000E+00  0.00000000000E+00  0.99640492303E+03  0.99640492304E+03  0.25500000920E-02 0.  1.
        2   -1    0    0  501    0  0.00000000000E+00  0.00000000000E+00 -0.14497959905E+04  0.14497959905E+04  0.25500000920E-02 0. -1.
    10030    2    1    2    0    0  0.00000000000E+00  0.00000000000E+00 -0.45339106745E+03  0.24462009135E+04  0.24038168502E+04 0.  0.
        1    1    3    3  502    0  0.32909883196E+03  0.10597456252E+04 -0.69659147579E+03  0.13101933123E+04  0.50400001928E-02 0.  1.
       -1    1    3    3    0  502 -0.32909883196E+03 -0.10597456252E+04  0.24320040834E+03  0.11360076012E+04  0.50400001928E-02 0. -1.
</event>
<event>
 5   0  0.2297414E-06  0.2398298E+04  0.7818609E-02  0.8440141E-01
       -1   -1    0    0    0  501  0.00000000000E+00  0.00000000000E+00  0.14054288364E+04  0.14054288364E+04  0.50400001928E-02 0. -1.
        1   -1    0    0  501    0  0.00000000000E+00  0.00000000000E+00 -0.10231455006E+04  0.10231455006E+04  0.50400001928E-02 0.  1.
    10030    2    1    2    0    0  0.00000000000E+00  0.00000000000E+00  0.38228333574E+03  0.24285743370E+04  0.23982978884E+04 0.  0.
        1    1    3    3  502    0  0.57899599415E+02 -0.11405184391E+03  0.13985013769E+04  0.14043383808E+04  0.50400001928E-02 0. -1.
       -1    1    3    3    0  502 -0.57899599415E+02  0.11405184391E+03 -0.10162180411E+04  0.10242359562E+04  0.50400001928E-02 0.  1.
</event>
<event>
 5   0  0.2215700E-06  0.2428509E+04  0.7818609E-02  0.8428907E-01
        1   -1    0    0  501    0  0.00000000000E+00  0.00000000000E+00  0.67046984315E+03  0.67046984317E+03  0.50400001928E-02 0. -1.
       -1   -1    0    0    0  501  0.00000000000E+00  0.00000000000E+00 -0.21990756930E+04  0.21990756930E+04  0.50400001928E-02 0.  1.
    10030    2    1    2    0    0  0.00000000000E+00  0.00000000000E+00 -0.15286058498E+04  0.28695455361E+04  0.24285089540E+04 0.  0.
        3    1    3    3  502    0  0.11948232725E+03 -0.90733934485E+03  0.17867147518E+03  0.93245065258E+03  0.10100000352E+00 0. -1.
       -3    1    3    3    0  502 -0.11948232725E+03  0.90733934485E+03 -0.17072773250E+04  0.19370948836E+04  0.10100000352E+00 0.  1.
</event>
<event>
 5   0  0.5371843E-06  0.2400245E+04  0.7818609E-02  0.8439412E-01
        2   -1    0    0  501    0  0.00000000000E+00  0.00000000000E+00  0.14411073345E+04  0.14411073345E+04  0.25500000920E-02 0. -1.
       -2   -1    0    0    0  501  0.00000000000E+00  0.00000000000E+00 -0.99943590101E+03  0.99943590102E+03  0.25500000920E-02 0.  1.
    10030    2    1    2    0    0  0.00000000000E+00  0.00000000000E+00  0.44167143347E+03  0.24405432355E+04  0.24002453269E+04 0.  0.
        4    1    3    3  502    0  0.86857237796E+03  0.82309335658E+03  0.12768904039E+03  0.12034146224E+04  0.12699999809E+01 0.  1.
       -4    1    3    3    0  502 -0.86857237796E+03 -0.82309335658E+03  0.31398239308E+03  0.12371286131E+04  0.12699999809E+01 0. -1.
</event>
<event>
 5   0  0.2254269E-06  0.2399366E+04  0.7818609E-02  0.8439741E-01
        1   -1    0    0  501    0  0.00000000000E+00  0.00000000000E+00  0.84890028054E+03  0.84890028056E+03  0.50400001928E-02 0. -1.
       -1   -1    0    0    0  501  0.00000000000E+00  0.00000000000E+00 -0.16954157473E+04  0.16954157473E+04  0.50400001928E-02 0.  1.
    10030    2    1    2    0    0  0.00000000000E+00  0.00000000000E+00 -0.84651546679E+03  0.25443160279E+04  0.23993656691E+04 0.  0.
        2    1    3    3  502    0 -0.11899049956E+04 -0.64562998485E+02 -0.57017980580E+03  0.13210402304E+04  0.25500000920E-02 0. -1.
       -2    1    3    3    0  502  0.11899049956E+04  0.64562998485E+02 -0.27633566099E+03  0.12232757975E+04  0.25500000920E-02 0.  1.
</event>
<event>
 5   0  0.5349036E-06  0.2400069E+04  0.7818609E-02  0.8439478E-01
       -2   -1    0    0    0  501  0.00000000000E+00  0.00000000000E+00  0.13223626845E+04  0.13223626845E+04  0.25500000920E-02 0.  1.
        2   -1    0    0  501    0  0.00000000000E+00  0.00000000000E+00 -0.10890225957E+04  0.10890225957E+04  0.25500000920E-02 0. -1.
    10030    2    1    2    0    0  0.00000000000E+00  0.00000000000E+00  0.23334008882E+03  0.24113852803E+04  0.24000690350E+04 0.  0.
        1    1    3    3  502    0 -0.75255564630E+03 -0.20286270456E+03 -0.80009565011E+03  0.11169808982E+04  0.50400001928E-02 0. -1.
       -1    1    3    3    0  502  0.75255564630E+03  0.20286270456E+03  0.10334357389E+04  0.12944043820E+04  0.50400001928E-02 0.  1.
</event>
<event>
 5   0  0.5379778E-06  0.2398772E+04  0.7818609E-02  0.8439963E-01
        2   -1    0    0  501    0  0.00000000000E+00  0.00000000000E+00  0.19309851662E+04  0.19309851662E+04  0.25500000920E-02 0. -1.
       -2   -1    0    0    0  501  0.00000000000E+00  0.00000000000E+00 -0.74497065984E+03  0.74497065984E+03  0.25500000920E-02 0.  1.
    10030    2    1    2    0    0  0.00000000000E+00  0.00000000000E+00  0.11860145064E+04  0.26759558261E+04  0.23987724306E+04 0.  0.
        5    1    3    3  502    0 -0.58970076615E+03 -0.18432436604E+03  0.17397942145E+04  0.18462471298E+04  0.46999998093E+01 0. -1.
       -5    1    3    3    0  502  0.58970076615E+03  0.18432436604E+03 -0.55377970812E+03  0.82970869625E+03  0.46999998093E+01 0.  1.
</event>
<event>
 5   0  0.5371843E-06  0.2397485E+04  0.7818609E-02  0.8440446E-01
        2   -1    0    0  501    0  0.00000000000E+00  0.00000000000E+00  0.12781029769E+04  0.12781029769E+04  0.25500000920E-02 0. -1.
       -2   -1    0    0    0  501  0.00000000000E+00  0.00000000000E+00 -0.11243092899E+04  0.11243092899E+04  0.25500000920E-02 0.  1.
    10030    2    1    2    0    0  0.00000000000E+00  0.00000000000E+00  0.15379368691E+03  0.24024122668E+04  0.23974845571E+04 0.  0.
        4    1    3    3  502    0 -0.56317808310E+03  0.86763389245E+03 -0.53017283813E+03  0.11623437425E+04  0.12699999809E+01 0.  1.
       -4    1    3    3    0  502  0.56317808310E+03 -0.86763389245E+03  0.68396652504E+03  0.12400685243E+04  0.12699999809E+01 0. -1.
</event>
<event>
 5   0  0.2215700E-06  0.2395084E+04  0.7818609E-02  0.8441346E-01
       -1   -1    0    0    0  501  0.00000000000E+00  0.00000000000E+00  0.12130655112E+04  0.12130655112E+04  0.50400001928E-02 0. -1.
        1   -1    0    0  501    0  0.00000000000E+00  0.00000000000E+00 -0.11822168159E+04  0.11822168160E+04  0.50400001928E-02 0.  1.
    10030    2    1    2    0    0  0.00000000000E+00  0.00000000000E+00  0.30848695221E+02  0.23952823271E+04  0.23950836697E+04 0.  0.
        3    1    3    3  502    0 -0.12498073656E+03 -0.18096015442E+03 -0.11618477368E+04  0.11824791481E+04  0.10100000352E+00 0.  1.
       -3    1    3    3    0  502  0.12498073656E+03  0.18096015442E+03  0.11926964320E+04  0.12128031790E+04  0.10100000352E+00 0. -1.
</event>
<event>
 5   0  0.2215700E-06  0.2401576E+04  0.7818609E-02  0.8438914E-01
       -1   -1    0    0    0  501  0.00000000000E+00  0.00000000000E+00  0.12835031749E+04  0.12835031749E+04  0.50400001928E-02 0. -1.
        1   -1    0    0  501    0  0.00000000000E+00  0.00000000000E+00 -0.11234035914E+04  0.11234035914E+04  0.50400001928E-02 0.  1.
    10030    2    1    2    0    0  0.00000000000E+00  0.00000000000E+00  0.16009958350E+03  0.24069067663E+04  0.24015762126E+04 0.  0.
        3    1    3    3  502    0 -0.14183923303E+02 -0.22034624642E+03 -0.11028828839E+04  0.11247685619E+04  0.10100000352E+00 0.  1.
       -3    1    3    3    0  502  0.14183923303E+02  0.22034624642E+03  0.12629824674E+04  0.12821382044E+04  0.10100000352E+00 0. -1.
</event>
<event>
 5   0  0.5440503E-06  0.2403179E+04  0.7818609E-02  0.8438314E-01
        2   -1    0    0  501    0  0.00000000000E+00  0.00000000000E+00  0.11310502535E+04  0.11310502535E+04  0.25500000920E-02 0. -1.
       -2   -1    0    0    0  501  0.00000000000E+00  0.00000000000E+00 -0.12765283870E+04  0.12765283870E+04  0.25500000920E-02 0.  1.
    10030    2    1    2    0    0  0.00000000000E+00  0.00000000000E+00 -0.14547813352E+03  0.24075786405E+04  0.24031793572E+04 0.  0.
        3    1    3    3  502    0  0.35662926574E+03  0.11168202332E+04  0.19107905601E+03  0.11878480889E+04  0.10100000352E+00 0. -1.
       -3    1    3    3    0  502 -0.35662926574E+03 -0.11168202332E+04 -0.33655718953E+03  0.12197305516E+04  0.10100000352E+00 0.  1.
</event>
<event>
 5   0  0.5371843E-06  0.2402621E+04  0.7818609E-02  0.8438523E-01
       -2   -1    0    0    0  501  0.00000000000E+00  0.00000000000E+00  0.10381949967E+04  0.10381949967E+04  0.25500000920E-02 0. -1.
        2   -1    0    0  501    0  0.00000000000E+00  0.00000000000E+00 -0.13900543039E+04  0.13900543039E+04  0.25500000920E-02 0.  1.
    10030    2    1    2    0    0  0.00000000000E+00  0.00000000000E+00 -0.35185930717E+03  0.24282493006E+04  0.24026214212E+04 0.  0.
        4    1    3    3  502    0 -0.71031178369E+03 -0.96796660141E+03 -0.13495539091E+03  0.12081873787E+04  0.12699999809E+01 0. -1.
       -4    1    3    3    0  502  0.71031178369E+03  0.96796660141E+03 -0.21690391626E+03  0.12200619219E+04  0.12699999809E+01 0.  1.
</event>
<event>
 5   0  0.2149029E-06  0.2402551E+04  0.7818609E-02  0.8438549E-01
       -1   -1    0    0    0  501  0.00000000000E+00  0.00000000000E+00  0.91503809887E+03  0.91503809888E+03  0.50400001928E-02 0.  1.
        1   -1    0    0  501    0  0.00000000000E+00  0.00000000000E+00 -0.15770515270E+04  0.15770515270E+04  0.50400001928E-02 0. -1.
    10030    2    1    2    0    0  0.00000000000E+00  0.00000000000E+00 -0.66201342817E+03  0.24920896259E+04  0.24025505041E+04 0.  0.
        4    1    3    3  502    0 -0.89391961283E+03 -0.21873711837E+03  0.46985744539E+03  0.10332985208E+04  0.12699999809E+01 0.  1.
       -4    1    3    3    0  502  0.89391961283E+03  0.21873711837E+03 -0.11318708736E+04  0.14587911051E+04  0.12699999809E+01 0. -1.
</event>
<event>
 5   0  0.2297414E-06  0.2397697E+04  0.7818609E-02  0.8440366E-01
       -1   -1    0    0    0  501  0.00000000000E+00  0.00000000000E+00  0.53151205923E+03  0.53151205925E+03  0.50400001928E-02 0.  1.
        1   -1    0    0  501    0  0.00000000000E+00  0.00000000000E+00 -0.27040551057E+04  0.27040551057E+04  0.50400001928E-02 0. -1.
    10030    2    1    2    0    0  0.00000000000E+00  0.00000000000E+00 -0.21725430464E+04  0.32355671649E+04  0.23976971431E+04 0.  0.
        1    1    3    3  502    0  0.15406842382E+03  0.48885104321E+03 -0.25487426958E+04  0.25997695573E+04  0.50400001928E-02 0. -1.
       -1    1    3    3    0  502 -0.15406842382E+03 -0.48885104321E+03  0.37619964936E+03  0.63579760763E+03  0.50400001928E-02 0.  1.
</event>
<event>
 5   0  0.2254269E-06  0.2403426E+04  0.7818609E-02  0.8438222E-01
        1   -1    0    0  501    0  0.00000000000E+00  0.00000000000E+00  0.14255861874E+04  0.14255861874E+04  0.50400001928E-02 0.  1.
       -1   -1    0    0    0  501  0.00000000000E+00  0.00000000000E+00 -0.10129964596E+04  0.10129964596E+04  0.50400001928E-02 0. -1.
    10030    2    1    2    0    0  0.00000000000E+00  0.00000000000E+00  0.41258972786E+03  0.24385826470E+04  0.24034256890E+04 0.  0.
        2    1    3    3  502    0 -0.69254406889E+02  0.10828485887E+04  0.73033470125E+03  0.13079548979E+04  0.25500000920E-02 0.  1.
       -2    1    3    3    0  502  0.69254406889E+02 -0.10828485887E+04 -0.31774497340E+03  0.11306277491E+04  0.25500000920E-02 0. -1.
</event>
<event>
 5   0  0.5371843E-06  0.2402973E+04  0.7818609E-02  0.8438391E-01
        2   -1    0    0  501    0  0.00000000000E+00  0.00000000000E+00  0.13351710887E+04  0.13351710888E+04  0.25500000920E-02 0.  1.
       -2   -1    0    0    0  501  0.00000000000E+00  0.00000000000E+00 -0.10811872148E+04  0.10811872148E+04  0.25500000920E-02 0. -1.
    10030    2    1    2    0    0  0.00000000000E+00  0.00000000000E+00  0.25398387391E+03  0.24163583036E+04  0.24029730841E+04 0.  0.
        4    1    3    3  502    0 -0.42451144546E+03 -0.85121077570E+03  0.86510966144E+03  0.12857628441E+04  0.12699999809E+01 0.  1.
       -4    1    3    3    0  502  0.42451144546E+03  0.85121077570E+03 -0.61112578752E+03  0.11305954595E+04  0.12699999809E+01 0. -1.
</event>
<event>
 5   0  0.5371843E-06  0.2395927E+04  0.7818609E-02  0.8441030E-01
        2   -1    0    0  501    0  0.00000000000E+00  0.00000000000E+00  0.12765771810E+04  0.12765771810E+04  0.25500000920E-02 0.  1.
       -2   -1    0    0    0  501  0.00000000000E+00  0.00000000000E+00 -0.11241909952E+04  0.11241909952E+04  0.25500000920E-02 0. -1.
    10030    2    1    2    0    0  0.00000000000E+00  0.00000000000E+00  0.15238618581E+03  0.24007681762E+04  0.23959270202E+04 0.  0.
        4    1    3    3  502    0  0.56577148677E+03 -0.31809594766E+03 -0.93273393365E+03  0.11363435269E+04  0.12699999809E+01 0. -1.
       -4    1    3    3    0  502 -0.56577148677E+03  0.31809594766E+03  0.10851201195E+04  0.12644246493E+04  0.12699999809E+01 0.  1.
</event>
<event>
 5   0  0.5379778E-06  0.2408247E+04  0.7818609E-02  0.8436422E-01
       -2   -1    0    0    0  501  0.00000000000E+00  0.00000000000E+00  0.17985991697E+04  0.17985991697E+04  0.25500000920E-02 0. -1.
        2   -1    0    0  501    0  0.00000000000E+00  0.00000000000E+00 -0.80613498416E+03  0.80613498417E+03  0.25500000920E-02 0.  1.
    10030    2    1    2    0    0  0.00000000000E+00  0.00000000000E+00  0.99246418556E+03  0.26047341539E+04  0.24082472574E+04 0.  0.
        5    1    3    3  502    0  0.87915430878E+03  0.76954321825E+03  0.81116322368E+03  0.14223631494E+04  0.46999998093E+01 0. -1.
       -5    1    3    3    0  502 -0.87915430878E+03 -0.76954321825E+03  0.18130096188E+03  0.11823710045E+04  0.46999998093E+01 0.  1.
</event>
<event>
 5   0  0.2215700E-06  0.2399267E+04  0.7818609E-02  0.8439778E-01
       -1   -1    0    0    0  501  0.00000000000E+00  0.00000000000E+00  0.10048840599E+04  0.10048840599E+04  0.50400001928E-02 0.  1.
        1   -1    0    0  501    0  0.00000000000E+00  0.00000000000E+00 -0.14321263687E+04  0.14321263687E+04  0.50400001928E-02 0. -1.
    10030    2    1    2    0    0  0.00000000000E+00  0.00000000000E+00 -0.42724230874E+03  0.24370104286E+04  0.23992673546E+04 0.  0.
        3    1    3    3  502    0  0.78333347577E+02 -0.93206864832E+03 -0.97659198491E+03  0.13522647646E+04  0.10100000352E+00 0. -1.
       -3    1    3    3    0  502 -0.78333347577E+02  0.93206864832E+03  0.54934967617E+03  0.10847456639E+04  0.10100000352E+00 0.  1.
</event>
<event>
 5   0  0.2254269E-06  0.2396972E+04  0.7818609E-02  0.8440638E-01
       -1   -1    0    0    0  501  0.00000000000E+00  0.00000000000E+00  0.72631321569E+03  0.72631321571E+03  0.50400001928E-02 0. -1.
        1   -1    0    0  501    0  0.00000000000E+00  0.00000000000E+00 -0.19776157037E+04  0.19776157037E+04  0.50400001928E-02 0.  1.
    10030    2    1    2    0    0  0.00000000000E+00  0.00000000000E+00 -0.12513024880E+04  0.27039289194E+04  0.23969717739E+04 0.  0.
        2    1    3    3  502    0 -0.49585796429E+03 -0.43662312733E+03 -0.17536290282E+04  0.18739609507E+04  0.25500000920E-02 0.  1.
       -2    1    3    3    0  502  0.49585796429E+03  0.43662312733E+03  0.50232654023E+03  0.82996796872E+03  0.25500000920E-02 0. -1.
</event>
<event>
 5   0  0.5349036E-06  0.2402900E+04  0.7818609E-02  0.8438419E-01
       -2   -1    0    0    0  501  0.00000000000E+00  0.00000000000E+00  0.66865238410E+03  0.66865238410E+03  0.25500000920E-02 0. -1.
        2   -1    0    0  501    0  0.00000000000E+00  0.00000000000E+00 -0.21587924466E+04  0.21587924466E+04  0.25500000920E-02 0.  1.
    10030    2    1    2    0    0  0.00000000000E+00  0.00000000000E+00 -0.14901400625E+04  0.28274448307E+04  0.24028996785E+04 0.  0.
        1    1    3    3  502    0  0.75992953503E+03  0.84867866723E+03 -0.11942681784E+04  0.16504620142E+04  0.50400001928E-02 0. -1.
       -1    1    3    3    0  502 -0.75992953503E+03 -0.84867866723E+03 -0.29587188408E+03  0.11769828165E+04  0.50400001928E-02 0.  1.
</event>
<event>
 5   0  0.2149029E-06  0.2403695E+04  0.7818609E-02  0.8438121E-01
       -1   -1    0    0    0  501  0.00000000000E+00  0.00000000000E+00  0.65980521478E+03  0.65980521480E+03  0.50400001928E-02 0.  1.
        1   -1    0    0  501    0  0.00000000000E+00  0.00000000000E+00 -0.21891878674E+04  0.21891878674E+04  0.50400001928E-02 0. -1.
    10030    2    1    2    0    0  0.00000000000E+00  0.00000000000E+00 -0.15293826526E+04  0.28489930822E+04  0.24036951313E+04 0.  0.
        4    1    3    3  502    0 -0.50505457794E+03 -0.48062722502E+03 -0.19250034570E+04  0.20473696731E+04  0.12699999809E+01 0. -1.
       -4    1    3    3    0  502  0.50505457794E+03  0.48062722502E+03  0.39562080442E+03  0.80162340904E+03  0.12699999809E+01 0.  1.
</event>
<event>
 5   0  0.5349036E-06  0.2400081E+04  0.7818609E-02  0.8439473E-01
        2   -1    0    0  501    0  0.00000000000E+00  0.00000000000E+00  0.78129304758E+03  0.78129304759E+03  0.25500000920E-02 0.  1.
       -2   -1    0    0    0  501  0.00000000000E+00  0.00000000000E+00 -0.18432223384E+04  0.18432223384E+04  0.25500000920E-02 0. -1.
    10030    2    1    2    0    0  0.00000000000E+00  0.00000000000E+00 -0.10619292908E+04  0.26245153860E+04  0.24000806638E+04 0.  0.
        1    1    3    3  502    0  0.94278689498E+03  0.37793338669E+03 -0.12297996837E+04  0.15950197604E+04  0.50400001928E-02 0. -1.
       -1    1    3    3    0  502 -0.94278689498E+03 -0.37793338669E+03  0.16787039293E+03  0.10294956255E+04  0.50400001928E-02 0.  1.
</event>
<event>
 5   0  0.5268358E-06  0.2363421E+04  0.7818609E-02  0.8453327E-01
        2   -1    0    0  501    0  0.00000000000E+00  0.00000000000E+00  0.19751991764E+04  0.19751991764E+04  0.25500000920E-02 0.  1.
       -2   -1    0    0    0  501  0.00000000000E+00  0.00000000000E+00 -0.70698677705E+03  0.70698677705E+03  0.25500000920E-02 0. -1.
    10030    2    1    2    0    0  0.00000000000E+00  0.00000000000E+00  0.12682123994E+04  0.26821859535E+04  0.23634209949E+04 0.  0.
        2    1    3    3  502    0  0.64312043970E+03 -0.71264590912E+03 -0.14802861825E+03  0.97127779938E+03  0.25500000920E-02 0. -1.
       -2    1    3    3    0  502 -0.64312043970E+03  0.71264590912E+03  0.14162410176E+04  0.17109081541E+04  0.25500000920E-02 0.  1.
</event>
<event>
 5   0  0.2297414E-06  0.2398638E+04  0.7818609E-02  0.8440014E-01
       -1   -1    0    0    0  501  0.00000000000E+00  0.00000000000E+00  0.13817070597E+04  0.13817070597E+04  0.50400001928E-02 0. -1.
        1   -1    0    0  501    0  0.00000000000E+00  0.00000000000E+00 -0.10410064309E+04  0.10410064309E+04  0.50400001928E-02 0.  1.
    10030    2    1    2    0    0  0.00000000000E+00  0.00000000000E+00  0.34070062881E+03  0.24227134906E+04  0.23986378924E+04 0.  0.
        1    1    3    3  502    0  0.20005502497E+03 -0.87065458890E+03 -0.63787164746E+03  0.10976983487E+04  0.50400001928E-02 0.  1.
       -1    1    3    3    0  502 -0.20005502497E+03  0.87065458890E+03  0.97857227627E+03  0.13250151418E+04  0.50400001928E-02 0. -1.
</event>
<event>
 5   0  0.5371843E-06  0.2392753E+04  0.7818609E-02  0.8442222E-01
       -2   -1    0    0    0  501  0.00000000000E+00  0.00000000000E+00  0.87271108526E+03  0.87271108526E+03  0.25500000920E-02 0.  1.
        2   -1    0    0  501    0  0.00000000000E+00  0.00000000000E+00 -0.16400809662E+04  0.16400809662E+04  0.25500000920E-02 0. -1.
    10030    2    1    2    0    0  0.00000000000E+00  0.00000000000E+00 -0.76736988095E+03  0.25127920515E+04  0.23927530921E+04 0.  0.
        4    1    3    3  502    0  0.10402774767E+04  0.52672436956E+03 -0.66488573038E+03  0.13422706275E+04  0.12699999809E+01 0.  1.
       -4    1    3    3    0  502 -0.10402774767E+04 -0.52672436956E+03 -0.10248415058E+03  0.11705214240E+04  0.12699999809E+01 0. -1.
</event>
<event>
 5   0  0.2215700E-06  0.2392987E+04  0.7818609E-02  0.8442134E-01
       -1   -1    0    0    0  501  0.00000000000E+00  0.00000000000E+00  0.74815362087E+03  0.74815362089E+03  0.50400001928E-02 0. -1.
        1   -1    0    0  501    0  0.00000000000E+00  0.00000000000E+00 -0.19135070948E+04  0.19135070948E+04  0.50400001928E-02 0.  1.
    10030    2    1    2    0    0  0.00000000000E+00  0.00000000000E+00 -0.11653534739E+04  0.26616607156E+04  0.23929874730E+04 0.  0.
        3    1    3    3  502    0  0.98502181177E+03 -0.14990259460E+03 -0.13195189932E+04  0.16534416050E+04  0.10100000352E+00 0.  1.
       -3    1    3    3    0  502 -0.98502181177E+03  0.14990259460E+03  0.15416551931E+03  0.10082191107E+04  0.10100000352E+00 0. -1.
</event>
<event>
 5   0  0.5379778E-06  0.2401400E+04  0.7818609E-02  0.8438980E-01
       -2   -1    0    0    0  501  0.00000000000E+00  0.00000000000E+00  0.50011588145E+03  0.50011588146E+03  0.25500000920E-02 0.  1.
        2   -1    0    0  501    0  0.00000000000E+00  0.00000000000E+00 -0.28826919880E+04  0.28826919880E+04  0.25500000920E-02 0. -1.
    10030    2    1    2    0    0  0.00000000000E+00  0.00000000000E+00 -0.23825761065E+04  0.33828078695E+04  0.24013996290E+04 0.  0.
        5    1    3    3  502    0  0.63968841421E+03  0.84220251062E+03 -0.39050281147E+03  0.11273956147E+04  0.46999998093E+01 0.  1.
       -5    1    3    3    0  502 -0.63968841421E+03 -0.84220251062E+03 -0.19920732951E+04  0.22554122548E+04  0.46999998093E+01 0. -1.
</event>
<event>
 5   0  0.5379778E-06  0.2370591E+04  0.7818609E-02  0.8450597E-01
       -2   -1    0    0    0  501  0.00000000000E+00  0.00000000000E+00  0.64083953165E+03  0.64083953166E+03  0.25500000920E-02 0. -1.
        2   -1    0    0  501    0  0.00000000000E+00  0.00000000000E+00 -0.21923206067E+04  0.21923206067E+04  0.25500000920E-02 0.  1.
    10030    2    1    2    0    0  0.00000000000E+00  0.00000000000E+00 -0.15514810750E+04  0.28331601383E+04  0.23705912434E+04 0.  0.
        5    1    3    3  502    0 -0.59862193629E+03 -0.10179061274E+04 -0.65372905883E+03  0.13497647496E+04  0.46999998093E+01 0. -1.
       -5    1    3    3    0  502  0.59862193629E+03  0.10179061274E+04 -0.89775201618E+03  0.14833953887E+04  0.46999998093E+01 0.  1.
</event>
<event>
 5   0  0.5349036E-06  0.2398462E+04  0.7818609E-02  0.8440080E-01
       -2   -1    0    0    0  501  0.00000000000E+00  0.00000000000E+00  0.10145672931E+04  0.10145672931E+04  0.25500000920E-02 0.  1.
        2   -1    0    0  501    0  0.00000000000E+00  0.00000000000E+00 -0.14175052173E+04  0.14175052173E+04  0.25500000920E-02 0. -1.
    10030    2    1    2    0    0  0.00000000000E+00  0.00000000000E+00 -0.40293792421E+03  0.24320725104E+04  0.23984615330E+04 0.  0.
        1    1    3    3  502    0  0.34250290981E+03  0.11270914805E+04 -0.42936494508E+03  0.12537933262E+04  0.50400001928E-02 0.  1.
       -1    1    3    3    0  502 -0.34250290981E+03 -0.11270914805E+04  0.26427020865E+02  0.11782791843E+04  0.50400001928E-02 0. -1.
</event>
<event>
 5   0  0.2149029E-06  0.2398718E+04  0.7818609E-02  0.8439984E-01
       -1   -1    0    0    0  501  0.00000000000E+00  0.00000000000E+00  0.21683371771E+04  0.21683371771E+04  0.50400001928E-02 0. -1.
        1   -1    0    0  501    0  0.00000000000E+00  0.00000000000E+00 -0.66339428540E+03  0.66339428542E+03  0.50400001928E-02 0.  1.
    10030    2    1    2    0    0  0.00000000000E+00  0.00000000000E+00  0.15049428917E+04  0.28317314625E+04  0.23987184013E+04 0.  0.
        4    1    3    3  502    0 -0.83896430262E+03 -0.58321540456E+03  0.11034799142E+02  0.10218241967E+04  0.12699999809E+01 0.  1.
       -4    1    3    3    0  502  0.83896430262E+03  0.58321540456E+03  0.14939080926E+04  0.18099072659E+04  0.12699999809E+01 0. -1.
</event>
<event>
 5   0  0.2215700E-06  0.2395330E+04  0.7818609E-02  0.8441254E-01
       -1   -1    0    0    0  501  0.00000000000E+00  0.00000000000E+00  0.78615088787E+03  0.78615088788E+03  0.50400001928E-02 0. -1.
        1   -1    0    0  501    0  0.00000000000E+00  0.00000000000E+00 -0.18245875684E+04  0.18245875684E+04  0.50400001928E-02 0.  1.
    10030    2    1    2    0    0  0.00000000000E+00  0.00000000000E+00 -0.10384366806E+04  0.26107384563E+04  0.23953297367E+04 0.  0.
        3    1    3    3  502    0  0.86172785246E+03 -0.65139125717E+03 -0.10829503162E+04  0.15295969597E+04  0.10100000352E+00 0. -1.
       -3    1    3    3    0  502 -0.86172785246E+03  0.65139125717E+03  0.44513635680E+02  0.10811414966E+04  0.10100000352E+00 0.  1.
</event>
<event>
 5   0  0.2215700E-06  0.2399703E+04  0.7818609E-02  0.8439615E-01
        1   -1    0    0  501    0  0.00000000000E+00  0.00000000000E+00  0.10212853374E+04  0.10212853374E+04  0.50400001928E-02 0.  1.
       -1   -1    0    0    0  501  0.00000000000E+00  0.00000000000E+00 -0.14096388936E+04  0.14096388936E+04  0.50400001928E-02 0. -1.
    10030    2    1    2    0    0  0.00000000000E+00  0.00000000000E+00 -0.38835355624E+03  0.24309242310E+04  0.23997029258E+04 0.  0.
        3    1    3    3  502    0  0.30913862682E+03  0.97842282155E+03 -0.82417289071E+03  0.13161074699E+04  0.10100000352E+00 0. -1.
       -3    1    3    3    0  502 -0.30913862682E+03 -0.97842282155E+03  0.43581933447E+03  0.11148167611E+04  0.10100000352E+00 0.  1.
</event>
<event>
 5   0  0.5371843E-06  0.2397678E+04  0.7818609E-02  0.8440373E-01
        2   -1    0    0  501    0  0.00000000000E+00  0.00000000000E+00  0.15488392273E+04  0.15488392273E+04  0.25500000920E-02 0. -1.
       -2   -1    0    0    0  501  0.00000000000E+00  0.00000000000E+00 -0.92793016885E+03  0.92793016886E+03  0.25500000920E-02 0.  1.
    10030    2    1    2    0    0  0.00000000000E+00  0.00000000000E+00  0.62090905841E+03  0.24767693961E+04  0.23976777479E+04 0.  0.
        4    1    3    3  502    0  0.24591078556E+03  0.77057819132E+01  0.15224793238E+04  0.15422309807E+04  0.12699999809E+01 0. -1.
       -4    1    3    3    0  502 -0.24591078556E+03 -0.77057819132E+01 -0.90157026540E+03  0.93453841541E+03  0.12699999809E+01 0.  1.
</event>
<event>
 5   0  0.2149417E-06  0.2404480E+04  0.7818609E-02  0.8437828E-01
        1   -1    0    0  501    0  0.00000000000E+00  0.00000000000E+00  0.15082623926E+04  0.15082623926E+04  0.50400001928E-02 0.  1.
       -1   -1    0    0    0  501  0.00000000000E+00  0.00000000000E+00 -0.95830881393E+03  0.95830881394E+03  0.50400001928E-02 0. -1.
    10030    2    1    2    0    0  0.00000000000E+00  0.00000000000E+00  0.54995357863E+03  0.24665712065E+04  0.24044801056E+04 0.  0.
        5    1    3    3  502    0 -0.52294860237E+03  0.86955920247E+03  0.93641444462E+03  0.13807615831E+04  0.46999998093E+01 0.  1.
       -5    1    3    3    0  502  0.52294860237E+03 -0.86955920247E+03 -0.38646086599E+03  0.10858096234E+04  0.46999998093E+01 0. -1.
</event>
<event>
 5   0  0.2297414E-06  0.2404783E+04  0.7818609E-02  0.8437715E-01
        1   -1    0    0  501    0  0.00000000000E+00  0.00000000000E+00  0.96781071963E+03  0.96781071965E+03  0.50400001928E-02 0. -1.
       -1   -1    0    0    0  501  0.00000000000E+00  0.00000000000E+00 -0.14938308021E+04  0.14938308021E+04  0.50400001928E-02 0.  1.
    10030    2    1    2    0    0  0.00000000000E+00  0.00000000000E+00 -0.52602008244E+03  0.24616415217E+04  0.24047831200E+04 0.  0.
        1    1    3    3  502    0  0.37214629860E+02  0.60134706290E+03  0.80214158521E+03  0.10032120122E+04  0.50400001928E-02 0. -1.
       -1    1    3    3    0  502 -0.37214629860E+02 -0.60134706290E+03 -0.13281616676E+04  0.14584295095E+04  0.50400001928E-02 0.  1.
</event>
<event>
 5   0  0.2254269E-06  0.2404719E+04  0.7818609E-02  0.8437739E-01
        1   -1    0    0  501    0  0.00000000000E+00  0.00000000000E+00  0.14060081268E+04  0.14060081268E+04  0.50400001928E-02 0.  1.
       -1   -1    0    0    0  501  0.00000000000E+00  0.00000000000E+00 -0.10282080387E+04  0.10282080387E+04  0.50400001928E-02 0. -1.
    10030    2    1    2    0    0  0.00000000000E+00  0.00000000000E+00  0.37780008812E+03  0.24342161655E+04  0.24047194085E+04 0.  0.
        2    1    3    3  502    0  0.14627388233E+03  0.91184124079E+03  0.96829134991E+03  0.13380727317E+04  0.25500000920E-02 0.  1.
       -2    1    3    3    0  502 -0.14627388233E+03 -0.91184124079E+03 -0.59049126179E+03  0.10961434337E+04  0.25500000920E-02 0. -1.
</event>
<event>
 5   0  0.5440503E-06  0.2398302E+04  0.7818609E-02  0.8440139E-01
        2   -1    0    0  501    0  0.00000000000E+00  0.00000000000E+00  0.18962022339E+04  0.18962022339E+04  0.25500000920E-02 0. -1.
       -2   -1    0    0    0  501  0.00000000000E+00  0.00000000000E+00 -0.75833878764E+03  0.75833878765E+03  0.25500000920E-02 0.  1.
    10030    2    1    2    0    0  0.00000000000E+00  0.00000000000E+00  0.11378634463E+04  0.26545410216E+04  0.23983024857E+04 0.  0.
        3    1    3    3  502    0  0.68825367590E+03 -0.98184386485E+03  0.58654392386E+03  0.13348199437E+04  0.10100000352E+00 0.  1.
       -3    1    3    3    0  502 -0.68825367590E+03  0.98184386485E+03  0.55131952244E+03  0.13197210779E+04  0.10100000352E+00 0. -1.
</event>
<event>
 5   0  0.5371843E-06  0.2390780E+04  0.7818609E-02  0.8442963E-01
       -2   -1    0    0    0  501  0.00000000000E+00  0.00000000000E+00  0.63894265190E+03  0.63894265191E+03  0.25500000920E-02 0. -1.
        2   -1    0    0  501    0  0.00000000000E+00  0.00000000000E+00 -0.22364412062E+04  0.22364412062E+04  0.25500000920E-02 0.  1.
    10030    2    1    2    0    0  0.00000000000E+00  0.00000000000E+00 -0.15974985543E+04  0.28753838581E+04  0.23907803539E+04 0.  0.
        4    1    3    3  502    0  0.95542561460E+03  0.69883925383E+03 -0.99906836369E+03  0.15489847049E+04  0.12699999809E+01 0.  1.
       -4    1    3    3    0  502 -0.95542561460E+03 -0.69883925383E+03 -0.59843019058E+03  0.13263991532E+04  0.12699999809E+01 0. -1.
</event>
<event>
 5   0  0.5440503E-06  0.2398864E+04  0.7818609E-02  0.8439929E-01
        2   -1    0    0  501    0  0.00000000000E+00  0.00000000000E+00  0.28311926630E+04  0.28311926630E+04  0.25500000920E-02 0. -1.
       -2   -1    0    0    0  501  0.00000000000E+00  0.00000000000E+00 -0.50813839154E+03  0.50813839155E+03  0.25500000920E-02 0.  1.
    10030    2    1    2    0    0  0.00000000000E+00  0.00000000000E+00  0.23230542715E+04  0.33393310546E+04  0.23988644697E+04 0.  0.
        3    1    3    3  502    0  0.37062591313E+03  0.33180271806E+03  0.26808240466E+04  0.27265865455E+04  0.10100000352E+00 0. -1.
       -3    1    3    3    0  502 -0.37062591313E+03 -0.33180271806E+03 -0.35776977510E+03  0.61274450906E+03  0.10100000352E+00 0.  1.
</event>
<event>
 5   0  0.5440503E-06  0.2398874E+04  0.7818609E-02  0.8439925E-01
        2   -1    0    0  501    0  0.00000000000E+00  0.00000000000E+00  0.13648202092E+04  0.13648202092E+04  0.25500000920E-02 0.  1.
       -2   -1    0    0    0  501  0.00000000000E+00  0.00000000000E+00 -0.10540941852E+04  0.10540941852E+04  0.25500000920E-02 0. -1.
    10030    2    1    2    0    0  0.00000000000E+00  0.00000000000E+00  0.31072602405E+03  0.24189143944E+04  0.23988739412E+04 0.  0.
        3    1    3    3  502    0  0.38349193220E+03  0.10672017212E+04 -0.23862283695E+03  0.11588470323E+04  0.10100000352E+00 0. -1.
       -3    1    3    3    0  502 -0.38349193220E+03 -0.10672017212E+04  0.54934886100E+03  0.12600673621E+04  0.10100000352E+00 0.  1.
</event>
<event>
 5   0  0.2149417E-06  0.2398249E+04  0.7818609E-02  0.8440159E-01
        1   -1    0    0  501    0  0.00000000000E+00  0.00000000000E+00  0.30532338151E+04  0.30532338151E+04  0.50400001928E-02 0.  1.
       -1   -1    0    0    0  501  0.00000000000E+00  0.00000000000E+00 -0.47094331704E+03  0.47094331706E+03  0.50400001928E-02 0. -1.
    10030    2    1    2    0    0  0.00000000000E+00  0.00000000000E+00  0.25822904981E+04  0.35241771322E+04  0.23982494121E+04 0.  0.
        5    1    3    3  502    0  0.87107024465E+03  0.71339657761E+03  0.68494300042E+03  0.13179025199E+04  0.46999998093E+01 0.  1.
       -5    1    3    3    0  502 -0.87107024465E+03 -0.71339657761E+03  0.18973474976E+04  0.22062746123E+04  0.46999998093E+01 0. -1.
</event>
<event>
 5   0  0.2149029E-06  0.2416977E+04  0.7818609E-02  0.8433175E-01
       -1   -1    0    0    0  501  0.00000000000E+00  0.00000000000E+00  0.55498195414E+03  0.55498195417E+03  0.50400001928E-02 0.  1.
        1   -1    0    0  501    0  0.00000000000E+00  0.00000000000E+00 -0.26315175849E+04  0.26315175849E+04  0.50400001928E-02 0. -1.
    10030    2    1    2    0    0  0.00000000000E+00  0.00000000000E+00 -0.20765356308E+04  0.31864995391E+04  0.24169772624E+04 0.  0.
        4    1    3    3  502    0 -0.97661136537E+03  0.12439363183E+03 -0.19622642770E+04  0.21953874920E+04  0.12699999809E+01 0. -1.
       -4    1    3    3    0  502  0.97661136537E+03 -0.12439363183E+03 -0.11427135381E+03  0.99111204706E+03  0.12699999809E+01 0.  1.
</event>
<event>
 5   0  0.2149417E-06  0.2399100E+04  0.7818609E-02  0.8439841E-01
       -1   -1    0    0    0  501  0.00000000000E+00  0.00000000000E+00  0.14990151037E+04  0.14990151037E+04  0.50400001928E-02 0. -1.
        1   -1    0    0  501    0  0.00000000000E+00  0.00000000000E+00 -0.95991013680E+03  0.95991013681E+03  0.50400001928E-02 0.  1.
    10030    2    1    2    0    0  0.00000000000E+00  0.00000000000E+00  0.53910496691E+03  0.24589252405E+04  0.23990996589E+04 0.  0.
        5    1    3    3  502    0 -0.26286164150E+03 -0.97212478626E+03  0.93755244737E+03  0.13759177026E+04  0.46999998093E+01 0.  1.
       -5    1    3    3    0  502  0.26286164150E+03  0.97212478626E+03 -0.39844748046E+03  0.10830075380E+04  0.46999998093E+01 0. -1.
</event>
<event>
 5   0  0.2215700E-06  0.2397648E+04  0.7818609E-02  0.8440384E-01
       -1   -1    0    0    0  501  0.00000000000E+00  0.00000000000E+00  0.20605998257E+04  0.20605998257E+04  0.50400001928E-02 0.  1.
        1   -1    0    0  501    0  0.00000000000E+00  0.00000000000E+00 -0.69745683983E+03  0.69745683985E+03  0.50400001928E-02 0. -1.
    10030    2    1    2    0    0  0.00000000000E+00  0.00000000000E+00  0.13631429859E+04  0.27580566656E+04  0.23976483834E+04 0.  0.
        3    1    3    3  502    0 -0.67462538773E+03 -0.75015582957E+03  0.14264641892E+04  0.17471843851E+04  0.10100000352E+00 0.  1.
       -3    1    3    3    0  502  0.67462538773E+03  0.75015582957E+03 -0.63321203293E+02  0.10108722805E+04  0.10100000352E+00 0. -1.
</event>
<event>
 5   0  0.5371843E-06  0.2398083E+04  0.7818609E-02  0.8440221E-01
       -2   -1    0    0    0  501  0.00000000000E+00  0.00000000000E+00  0.13933304694E+04  0.13933304694E+04  0.25500000920E-02 0.  1.
        2   -1    0    0  501    0  0.00000000000E+00  0.00000000000E+00 -0.10318449950E+04  0.10318449950E+04  0.25500000920E-02 0. -1.
    10030    2    1    2    0    0  0.00000000000E+00  0.00000000000E+00  0.36148547444E+03  0.24251754644E+04  0.23980834607E+04 0.  0.
        4    1    3    3  502    0  0.28621007823E+03  0.42706574354E+03  0.12762154454E+04  0.13758738438E+04  0.12699999809E+01 0.  1.
       -4    1    3    3    0  502 -0.28621007823E+03 -0.42706574354E+03 -0.91472997095E+03  0.10493016205E+04  0.12699999809E+01 0. -1.
</event>
<event>
 5   0  0.5349036E-06  0.2396797E+04  0.7818609E-02  0.8440704E-01
        2   -1    0    0  501    0  0.00000000000E+00  0.00000000000E+00  0.13247522522E+04  0.13247522522E+04  0.25500000920E-02 0. -1.
       -2   -1    0    0    0  501  0.00000000000E+00  0.00000000000E+00 -0.10840960680E+04  0.10840960680E+04  0.25500000920E-02 0.  1.
    10030    2    1    2    0    0  0.00000000000E+00  0.00000000000E+00  0.24065618416E+03  0.24088483202E+04  0.23967967854E+04 0.  0.
        1    1    3    3  502    0  0.43879396794E+03  0.12351688121E+03  0.12342159046E+04  0.13157072111E+04  0.50400001928E-02 0. -1.
       -1    1    3    3    0  502 -0.43879396794E+03 -0.12351688121E+03 -0.99355972042E+03  0.10931411091E+04  0.50400001928E-02 0.  1.
</event>
<event>
 5   0  0.5268358E-06  0.2401896E+04  0.7818609E-02  0.8438794E-01
       -2   -1    0    0    0  501  0.00000000000E+00  0.00000000000E+00  0.85508330041E+03  0.85508330041E+03  0.25500000920E-02 0.  1.
        2   -1    0    0  501    0  0.00000000000E+00  0.00000000000E+00 -0.16867085565E+04  0.16867085565E+04  0.25500000920E-02 0. -1.
    10030    2    1    2    0    0  0.00000000000E+00  0.00000000000E+00 -0.83162525608E+03  0.25417918569E+04  0.24018961837E+04 0.  0.
        2    1    3    3  502    0  0.38543560573E+03 -0.11088569194E+04 -0.14777793762E+03  0.11832001490E+04  0.25500000920E-02 0.  1.
       -2    1    3    3    0  502 -0.38543560573E+03  0.11088569194E+04 -0.68384731845E+03  0.13585917079E+04  0.25500000920E-02 0. -1.
</event>
<event>
 5   0  0.2215700E-06  0.2400099E+04  0.7818609E-02  0.8439467E-01
        1   -1    0    0  501    0  0.00000000000E+00  0.00000000000E+00  0.15783844001E+04  0.15783844001E+04  0.50400001928E-02 0. -1.
       -1   -1    0    0    0  501  0.00000000000E+00  0.00000000000E+00 -0.91240023962E+03  0.91240023963E+03  0.50400001928E-02 0.  1.
    10030    2    1    2    0    0  0.00000000000E+00  0.00000000000E+00  0.66598416051E+03  0.24907846398E+04  0.24000985854E+04 0.  0.
        3    1    3    3  502    0 -0.40873984775E+03 -0.59679427086E+03 -0.66072994955E+03  0.97969165623E+03  0.10100000352E+00 0.  1.
       -3    1    3    3    0  502  0.40873984775E+03  0.59679427086E+03  0.13267141101E+04  0.15110929835E+04  0.10100000352E+00 0. -1.
</event>
<event>
 5   0  0.5440503E-06  0.2400890E+04  0.7818609E-02  0.8439170E-01
       -2   -1    0    0    0  501  0.00000000000E+00  0.00000000000E+00  0.85578661960E+03  0.85578661960E+03  0.25500000920E-02 0. -1.
        2   -1    0    0  501    0  0.00000000000E+00  0.00000000000E+00 -0.16839111421E+04  0.16839111421E+04  0.25500000920E-02 0.  1.
    10030    2    1    2    0    0  0.00000000000E+00  0.00000000000E+00 -0.82812452250E+03  0.25396977617E+04  0.24008903549E+04 0.  0.
        3    1    3    3  502    0  0.16378626007E+03  0.38715016216E+03  0.77538349526E+03  0.88200383330E+03  0.10100000352E+00 0. -1.
       -3    1    3    3    0  502 -0.16378626007E+03 -0.38715016216E+03 -0.16035080178E+04  0.16576939284E+04  0.10100000352E+00 0.  1.
</event>
<event>
 5   0  0.5379778E-06  0.2400491E+04  0.7818609E-02  0.8439320E-01
       -2   -1    0    0    0  501  0.00000000000E+00  0.00000000000E+00  0.82542783446E+03  0.82542783446E+03  0.25500000920E-02 0. -1.
        2   -1    0    0  501    0  0.00000000000E+00  0.00000000000E+00 -0.17452630784E+04  0.17452630785E+04  0.25500000920E-02 0.  1.
    10030    2    1    2    0    0  0.00000000000E+00  0.00000000000E+00 -0.91983524399E+03  0.25706909129E+04  0.24004905527E+04 0.  0.
        5    1    3    3  502    0 -0.10042215012E+04 -0.24523102789E+03  0.19321652509E+03  0.10516433787E+04  0.46999998093E+01 0. -1.
       -5    1    3    3    0  502  0.10042215012E+04  0.24523102789E+03 -0.11130517691E+04  0.15190475342E+04  0.46999998093E+01 0.  1.
</event>
<event>
 5   0  0.5349036E-06  0.2459241E+04  0.7818609E-02  0.8417652E-01
       -2   -1    0    0    0  501  0.00000000000E+00  0.00000000000E+00  0.22297106502E+04  0.22297106502E+04  0.25500000920E-02 0.  1.
        2   -1    0    0  501    0  0.00000000000E+00  0.00000000000E+00 -0.67810015598E+03  0.67810015599E+03  0.25500000920E-02 0. -1.
    10030    2    1    2    0    0  0.00000000000E+00  0.00000000000E+00  0.15516104942E+04  0.29078108062E+04  0.24592414600E+04 0.  0.
        1    1    3    3  502    0  0.68138051898E+03  0.80675082118E+02 -0.43069586985E+03  0.81011530837E+03  0.50400001928E-02 0. -1.
       -1    1    3    3    0  502 -0.68138051898E+03 -0.80675082118E+02  0.19823063641E+04  0.20976954978E+04  0.50400001928E-02 0.  1.
</event>
<event>
 5   0  0.2215700E-06  0.2407057E+04  0.7818609E-02  0.8436866E-01
        1   -1    0    0  501    0  0.00000000000E+00  0.00000000000E+00  0.22695944152E+04  0.22695944152E+04  0.50400001928E-02 0.  1.
       -1   -1    0    0    0  501  0.00000000000E+00  0.00000000000E+00 -0.63821111627E+03  0.63821111629E+03  0.50400001928E-02 0. -1.
    10030    2    1    2    0    0  0.00000000000E+00  0.00000000000E+00  0.16313832989E+04  0.29078055315E+04  0.24070566136E+04 0.  0.
        3    1    3    3  502    0 -0.70327146918E+03 -0.51244839515E+02 -0.36253675600E+03  0.79287432963E+03  0.10100000352E+00 0. -1.
       -3    1    3    3    0  502  0.70327146918E+03  0.51244839515E+02  0.19939200549E+04  0.21149312019E+04  0.10100000352E+00 0.  1.
</event>
<event>
 5   0  0.2149029E-06  0.2399850E+04  0.7818609E-02  0.8439560E-01
        1   -1    0    0  501    0  0.00000000000E+00  0.00000000000E+00  0.13435002870E+04  0.13435002870E+04  0.50400001928E-02 0.  1.
       -1   -1    0    0    0  501  0.00000000000E+00  0.00000000000E+00 -0.10716927879E+04  0.10716927880E+04  0.50400001928E-02 0. -1.
    10030    2    1    2    0    0  0.00000000000E+00  0.00000000000E+00  0.27180749903E+03  0.24151930749E+04  0.23998496354E+04 0.  0.
        4    1    3    3  502    0 -0.27401527197E+03  0.10265100074E+04 -0.42534521411E+03  0.11444331909E+04  0.12699999809E+01 0. -1.
       -4    1    3    3    0  502  0.27401527197E+03 -0.10265100074E+04  0.69715271314E+03  0.12707598840E+04  0.12699999809E+01 0.  1.
</event>
<event>
 5   0  0.2149417E-06  0.2400442E+04  0.7818609E-02  0.8439338E-01
        1   -1    0    0  501    0  0.00000000000E+00  0.00000000000E+00  0.15295428225E+04  0.15295428225E+04  0.50400001928E-02 0.  1.
       -1   -1    0    0    0  501  0.00000000000E+00  0.00000000000E+00 -0.94180450270E+03  0.94180450271E+03  0.50400001928E-02 0. -1.
    10030    2    1    2    0    0  0.00000000000E+00  0.00000000000E+00  0.58773831980E+03  0.24713473252E+04  0.24004418904E+04 0.  0.
        5    1    3    3  502    0 -0.11696093454E+04  0.15753345994E+03  0.51873652450E+03  0.12891518466E+04  0.46999998093E+01 0.  1.
       -5    1    3    3    0  502  0.11696093454E+04 -0.15753345994E+03  0.69001795304E+02  0.11821954786E+04  0.46999998093E+01 0. -1.
</event>
<event>
 5   0  0.5349036E-06  0.2411522E+04  0.7818609E-02  0.8435203E-01
       -2   -1    0    0    0  501  0.00000000000E+00  0.00000000000E+00  0.69068007354E+03  0.69068007354E+03  0.25500000920E-02 0. -1.
        2   -1    0    0  501    0  0.00000000000E+00  0.00000000000E+00 -0.21049678546E+04  0.21049678546E+04  0.25500000920E-02 0.  1.
    10030    2    1    2    0    0  0.00000000000E+00  0.00000000000E+00 -0.14142877811E+04  0.27956479281E+04  0.24115218039E+04 0.  0.
        1    1    3    3  502    0 -0.96895414606E+02  0.37426930583E+03  0.61687912268E+03  0.72801516927E+03  0.50400001928E-02 0. -1.
       -1    1    3    3    0  502  0.96895414606E+02 -0.37426930583E+03 -0.20311669038E+04  0.20676327589E+04  0.50400001928E-02 0.  1.
</event>
<event>
 5   0  0.1796750E-06  0.2403386E+04  0.7818609E-02  0.8438237E-01
       -4   -1    0    0    0  501  0.00000000000E+00  0.00000000000E+00  0.11668187230E+04  0.11668194141E+04  0.12699999809E+01 0.  1.
        4   -1    0    0  501    0  0.00000000000E+00  0.00000000000E+00 -0.12376080111E+04  0.12376086627E+04  0.12699999809E+01 0. -1.
    10030    2    1    2    0    0  0.00000000000E+00  0.00000000000E+00 -0.70789288088E+02  0.24044280768E+04  0.24033857895E+04 0.  0.
        4    1    3    3  502    0  0.30539433519E+03 -0.81002022976E+03  0.79843290180E+03  0.11776651409E+04  0.12699999809E+01 0.  1.
       -4    1    3    3    0  502 -0.30539433519E+03  0.81002022976E+03 -0.86922218989E+03  0.12267629359E+04  0.12699999809E+01 0. -1.
</event>
<event>
 5   0  0.5268358E-06  0.2395530E+04  0.7818609E-02  0.8441179E-01
       -2   -1    0    0    0  501  0.00000000000E+00  0.00000000000E+00  0.18997767395E+04  0.18997767395E+04  0.25500000920E-02 0.  1.
        2   -1    0    0  501    0  0.00000000000E+00  0.00000000000E+00 -0.75516310147E+03  0.75516310148E+03  0.25500000920E-02 0. -1.
    10030    2    1    2    0    0  0.00000000000E+00  0.00000000000E+00  0.11446136380E+04  0.26549398409E+04  0.23955302500E+04 0.  0.
        2    1    3    3  502    0 -0.29225032715E+03 -0.11615577335E+04  0.56806151319E+03  0.13256396587E+04  0.25500000920E-02 0.  1.
       -2    1    3    3    0  502  0.29225032715E+03  0.11615577335E+04  0.57655212481E+03  0.13293001823E+04  0.25500000920E-02 0. -1.
</event>
<event>
 5   0  0.5440503E-06  0.2402630E+04  0.7818609E-02  0.8438520E-01
        2   -1    0    0  501    0  0.00000000000E+00  0.00000000000E+00  0.86586990020E+03  0.86586990020E+03  0.25500000920E-02 0. -1.
       -2   -1    0    0    0  501  0.00000000000E+00  0.00000000000E+00 -0.16667143967E+04  0.16667143967E+04  0.25500000920E-02 0.  1.
    10030    2    1    2    0    0  0.00000000000E+00  0.00000000000E+00 -0.80084449654E+03  0.25325842969E+04  0.24026300825E+04 0.  0.
        3    1    3    3  502    0  0.20118281679E+03  0.11348375527E+04 -0.43232447977E+02  0.11533429029E+04  0.10100000352E+00 0.  1.
       -3    1    3    3    0  502 -0.20118281679E+03 -0.11348375527E+04 -0.75761204857E+03  0.13792413941E+04  0.10100000352E+00 0. -1.
</event>
<event>
 5   0  0.5268358E-06  0.2399112E+04  0.7818609E-02  0.8439836E-01
        2   -1    0    0  501    0  0.00000000000E+00  0.00000000000E+00  0.25968216681E+04  0.25968216681E+04  0.25500000920E-02 0.  1.
       -2   -1    0    0    0  501  0.00000000000E+00  0.00000000000E+00 -0.55411392612E+03  0.55411392613E+03  0.25500000920E-02 0. -1.
    10030    2    1    2    0    0  0.00000000000E+00  0.00000000000E+00  0.20427077420E+04  0.31509355942E+04  0.23991123775E+04 0.  0.
        2    1    3    3  502    0 -0.82791839544E+03 -0.15395493885E+03 -0.10062872597E+03  0.84810207711E+03  0.25500000920E-02 0. -1.
       -2    1    3    3    0  502  0.82791839544E+03  0.15395493885E+03  0.21433364679E+04  0.23028335171E+04  0.25500000920E-02 0.  1.
</event>
<event>
 5   0  0.5440503E-06  0.2398693E+04  0.7818609E-02  0.8439993E-01
       -2   -1    0    0    0  501  0.00000000000E+00  0.00000000000E+00  0.15307292691E+04  0.15307292691E+04  0.25500000920E-02 0. -1.
        2   -1    0    0  501    0  0.00000000000E+00  0.00000000000E+00 -0.93970347049E+03  0.93970347049E+03  0.25500000920E-02 0.  1.
    10030    2    1    2    0    0  0.00000000000E+00  0.00000000000E+00  0.59102579856E+03  0.24704327395E+04  0.23986926494E+04 0.  0.
        3    1    3    3  502    0  0.49523737950E+03 -0.65514725418E+02  0.14184807490E+04  0.15038749572E+04  0.10100000352E+00 0. -1.
       -3    1    3    3    0  502 -0.49523737950E+03  0.65514725418E+02 -0.82745495049E+03  0.96655778234E+03  0.10100000352E+00 0.  1.
</event>
<event>
 5   0  0.5440503E-06  0.2340197E+04  0.7818609E-02  0.8462239E-01
       -2   -1    0    0    0  501  0.00000000000E+00  0.00000000000E+00  0.84560440062E+03  0.84560440062E+03  0.25500000920E-02 0.  1.
        2   -1    0    0  501    0  0.00000000000E+00  0.00000000000E+00 -0.16191143730E+04  0.16191143730E+04  0.25500000920E-02 0. -1.
    10030    2    1    2    0    0  0.00000000000E+00  0.00000000000E+00 -0.77350997241E+03  0.24647187737E+04  0.23401967772E+04 0.  0.
        3    1    3    3  502    0 -0.93254009788E+03  0.67159066295E+03 -0.15489281764E+03  0.11595933977E+04  0.10100000352E+00 0.  1.
       -3    1    3    3    0  502  0.93254009788E+03 -0.67159066295E+03 -0.61861715477E+03  0.13051253760E+04  0.10100000352E+00 0. -1.
</event>
<event>
 5   0  0.5371843E-06  0.2400279E+04  0.7818609E-02  0.8439399E-01
       -2   -1    0    0    0  501  0.00000000000E+00  0.00000000000E+00  0.63201970602E+03  0.63201970603E+03  0.25500000920E-02 0.  1.
        2   -1    0    0  501    0  0.00000000000E+00  0.00000000000E+00 -0.22789403589E+04  0.22789403589E+04  0.25500000920E-02 0. -1.
    10030    2    1    2    0    0  0.00000000000E+00  0.00000000000E+00 -0.16469206528E+04  0.29109600649E+04  0.24002793301E+04 0.  0.
        4    1    3    3  502    0 -0.87086167553E+03 -0.76882705891E+03 -0.11889788875E+04  0.16622778083E+04  0.12699999809E+01 0. -1.
       -4    1    3    3    0  502  0.87086167553E+03  0.76882705891E+03 -0.45794176538E+03  0.12486822565E+04  0.12699999809E+01 0.  1.
</event>
<event>
 5   0  0.2149417E-06  0.2399798E+04  0.7818609E-02  0.8439579E-01
       -1   -1    0    0    0  501  0.00000000000E+00  0.00000000000E+00  0.86805212892E+03  0.86805212893E+03  0.50400001928E-02 0.  1.
        1   -1    0    0  501    0  0.00000000000E+00  0.00000000000E+00 -0.16586071942E+04  0.16586071942E+04  0.50400001928E-02 0. -1.
    10030    2    1    2    0    0  0.00000000000E+00  0.00000000000E+00 -0.79055506523E+03  0.25266593231E+04  0.23997979131E+04 0.  0.
        5    1    3    3  502    0 -0.69108660344E+03  0.78166440596E+03  0.22861440567E+03  0.10681229206E+04  0.46999998093E+01 0.  1.
       -5    1    3    3    0  502  0.69108660344E+03 -0.78166440596E+03 -0.10191694709E+04  0.14585364025E+04  0.46999998093E+01 0. -1.
</event>
<event>
 5   0  0.2149029E-06  0.2403480E+04  0.7818609E-02  0.8438202E-01
       -1   -1    0    0    0  501  0.00000000000E+00  0.00000000000E+00  0.21517912965E+04  0.21517912965E+04  0.50400001928E-02 0. -1.
        1   -1    0    0  501    0  0.00000000000E+00  0.00000000000E+00 -0.67115202070E+03  0.67115202072E+03  0.50400001928E-02 0.  1.
    10030    2    1    2    0    0  0.00000000000E+00  0.00000000000E+00  0.14806392758E+04  0.28229433172E+04  0.24034800409E+04 0.  0.
        4    1    3    3  502    0 -0.39109402622E+03 -0.10983244131E+04  0.10825605126E+04  0.15909776649E+04  0.12699999809E+01 0. -1.
       -4    1    3    3    0  502  0.39109402622E+03  0.10983244131E+04  0.39807876315E+03  0.12319656523E+04  0.12699999809E+01 0.  1.
</event>
<event>
 5   0  0.2254269E-06  0.2408010E+04  0.7818609E-02  0.8436511E-01
       -1   -1    0    0    0  501  0.00000000000E+00  0.00000000000E+00  0.16437423284E+04  0.16437423284E+04  0.50400001928E-02 0. -1.
        1   -1    0    0  501    0  0.00000000000E+00  0.00000000000E+00 -0.88190742025E+03  0.88190742027E+03  0.50400001928E-02 0.  1.
    10030    2    1    2    0    0  0.00000000000E+00  0.00000000000E+00  0.76183490812E+03  0.25256497486E+04  0.24080104289E+04 0.  0.
        2    1    3    3  502    0 -0.12437908968E+03 -0.10366954426E+04  0.10097231377E+04  0.14524973024E+04  0.25500000920E-02 0. -1.
       -2    1    3    3    0  502  0.12437908968E+03  0.10366954426E+04 -0.24788822957E+03  0.10731524463E+04  0.25500000920E-02 0.  1.
</event>
<event>
 5   0  0.2215700E-06  0.2398008E+04  0.7818609E-02  0.8440250E-01
        1   -1    0    0  501    0  0.00000000000E+00  0.00000000000E+00  0.24333892836E+04  0.24333892836E+04  0.50400001928E-02 0. -1.
       -1   -1    0    0    0  501  0.00000000000E+00  0.00000000000E+00 -0.59078513462E+03  0.59078513464E+03  0.50400001928E-02 0.  1.
    10030    2    1    2    0    0  0.00000000000E+00  0.00000000000E+00  0.18426041490E+04  0.30241744182E+04  0.23980076860E+04 0.  0.
        3    1    3    3  502    0  0.25496090035E+02  0.91485920636E+03 -0.55551071237E+02  0.91689876747E+03  0.10100000352E+00 0.  1.
       -3    1    3    3    0  502 -0.25496090035E+02 -0.91485920636E+03  0.18981552202E+04  0.21072756508E+04  0.10100000352E+00 0. -1.
</event>
<event>
 5   0  0.5349036E-06  0.2400343E+04  0.7818609E-02  0.8439375E-01
       -2   -1    0    0    0  501  0.00000000000E+00  0.00000000000E+00  0.11550089715E+04  0.11550089715E+04  0.25500000920E-02 0. -1.
        2   -1    0    0  501    0  0.00000000000E+00  0.00000000000E+00 -0.12470996415E+04  0.12470996415E+04  0.25500000920E-02 0.  1.
    10030    2    1    2    0    0  0.00000000000E+00  0.00000000000E+00 -0.92090670010E+02  0.24021086131E+04  0.24003427042E+04 0.  0.
        1    1    3    3  502    0 -0.10158747240E+04  0.20243461322E+02 -0.68526405024E+03  0.12255603091E+04  0.50400001928E-02 0.  1.
       -1    1    3    3    0  502  0.10158747240E+04 -0.20243461322E+02  0.59317338023E+03  0.11765483040E+04  0.50400001928E-02 0. -1.
</event>
<event>
 5   0  0.2215700E-06  0.2400297E+04  0.7818609E-02  0.8439392E-01
        1   -1    0    0  501    0  0.00000000000E+00  0.00000000000E+00  0.92254626860E+03  0.92254626861E+03  0.50400001928E-02 0.  1.
       -1   -1    0    0    0  501  0.00000000000E+00  0.00000000000E+00 -0.15612839514E+04  0.15612839514E+04  0.50400001928E-02 0. -1.
    10030    2    1    2    0    0  0.00000000000E+00  0.00000000000E+00 -0.63873768282E+03  0.24838302200E+04  0.24002972180E+04 0.  0.
        3    1    3    3  502    0 -0.95878483475E+03  0.62270292883E+03 -0.69721917421E+03  0.13390824784E+04  0.10100000352E+00 0. -1.
       -3    1    3    3    0  502  0.95878483475E+03 -0.62270292883E+03  0.58481491384E+02  0.11447477416E+04  0.10100000352E+00 0.  1.
</event>
<event>
 5   0  0.5440503E-06  0.2408550E+04  0.7818609E-02  0.8436310E-01
        2   -1    0    0  501    0  0.00000000000E+00  0.00000000000E+00  0.16377684504E+04  0.16377684504E+04  0.25500000920E-02 0. -1.
       -2   -1    0    0    0  501  0.00000000000E+00  0.00000000000E+00 -0.88552092271E+03  0.88552092271E+03  0.25500000920E-02 0.  1.
    10030    2    1    2    0    0  0.00000000000E+00  0.00000000000E+00  0.75224752766E+03  0.25232893731E+04  0.24085499616E+04 0.  0.
        3    1    3    3  502    0 -0.81860675812E+03  0.56914400494E+03  0.10837538928E+04  0.14726046425E+04  0.10100000352E+00 0. -1.
       -3    1    3    3    0  502  0.81860675812E+03 -0.56914400494E+03 -0.33150636510E+03  0.10506847306E+04  0.10100000352E+00 0.  1.
</event>
<event>
 5   0  0.2297414E-06  0.2405054E+04  0.7818609E-02  0.8437614E-01
       -1   -1    0    0    0  501  0.00000000000E+00  0.00000000000E+00  0.13500846019E+04  0.13500846019E+04  0.50400001928E-02 0. -1.
        1   -1    0    0  501    0  0.00000000000E+00  0.00000000000E+00 -0.10710968823E+04  0.10710968823E+04  0.50400001928E-02 0.  1.
    10030    2    1    2    0    0  0.00000000000E+00  0.00000000000E+00  0.27898771962E+03  0.24211814843E+04  0.24050541848E+04 0.  0.
        1    1    3    3  502    0  0.26690236507E+03  0.15534052979E+03  0.13094849338E+04  0.13454063864E+04  0.50400001928E-02 0. -1.
       -1    1    3    3    0  502 -0.26690236507E+03 -0.15534052979E+03 -0.10304972142E+04  0.10757750979E+04  0.50400001928E-02 0.  1.
</event>
<event>
 5   0  0.5371843E-06  0.2394028E+04  0.7818609E-02  0.8441743E-01
        2   -1    0    0  501    0  0.00000000000E+00  0.00000000000E+00  0.10477737170E+04  0.10477737170E+04  0.25500000920E-02 0.  1.
       -2   -1    0    0    0  501  0.00000000000E+00  0.00000000000E+00 -0.13675114238E+04  0.13675114238E+04  0.25500000920E-02 0. -1.
    10030    2    1    2    0    0  0.00000000000E+00  0.00000000000E+00 -0.31973770677E+03  0.24152851408E+04  0.23940280095E+04 0.  0.
        4    1    3    3  502    0 -0.10290490747E+04  0.53163263323E+03 -0.46465335644E+03  0.12479902281E+04  0.12699999809E+01 0. -1.
       -4    1    3    3    0  502  0.10290490747E+04 -0.53163263323E+03  0.14491564967E+03  0.11672949127E+04  0.12699999809E+01 0.  1.
</event>
<event>
 5   0  0.5371843E-06  0.2404225E+04  0.7818609E-02  0.8437923E-01
       -2   -1    0    0    0  501  0.00000000000E+00  0.00000000000E+00  0.14615934355E+04  0.14615934355E+04  0.25500000920E-02 0.  1.
        2   -1    0    0  501    0  0.00000000000E+00  0.00000000000E+00 -0.98869824844E+03  0.98869824845E+03  0.25500000920E-02 0. -1.
    10030    2    1    2    0    0  0.00000000000E+00  0.00000000000E+00  0.47289518706E+03  0.24502916839E+04  0.24042253385E+04 0.  0.
        4    1    3    3  502    0  0.10364908231E+04  0.53994117636E+03  0.52330745440E+03  0.12805084947E+04  0.12699999809E+01 0. -1.
       -4    1    3    3    0  502 -0.10364908231E+04 -0.53994117636E+03 -0.50412267349E+02  0.11697831893E+04  0.12699999809E+01 0.  1.
</event>
<event>
 5   0  0.2149417E-06  0.2398092E+04  0.7818609E-02  0.8440218E-01
        1   -1    0    0  501    0  0.00000000000E+00  0.00000000000E+00  0.12575884215E+04  0.12575884215E+04  0.50400001928E-02 0.  1.
       -1   -1    0    0    0  501  0.00000000000E+00  0.00000000000E+00 -0.11432284810E+04  0.11432284810E+04  0.50400001928E-02 0. -1.
    10030    2    1    2    0    0  0.00000000000E+00  0.00000000000E+00  0.11435994046E+03  0.24008169025E+04  0.23980916587E+04 0.  0.
        5    1    3    3  502    0  0.10448659681E+04 -0.43792865934E+03 -0.33590143999E+03  0.11816845050E+04  0.46999998093E+01 0. -1.
       -5    1    3    3    0  502 -0.10448659681E+04  0.43792865934E+03  0.45026138045E+03  0.12191323975E+04  0.46999998093E+01 0.  1.
</event>
<event>
 5   0  0.2215700E-06  0.2400672E+04  0.7818609E-02  0.8439252E-01
        1   -1    0    0  501    0  0.00000000000E+00  0.00000000000E+00  0.12389553945E+04  0.12389553946E+04  0.50400001928E-02 0.  1.
       -1   -1    0    0    0  501  0.00000000000E+00  0.00000000000E+00 -0.11629202565E+04  0.11629202565E+04  0.50400001928E-02 0. -1.
    10030    2    1    2    0    0  0.00000000000E+00  0.00000000000E+00  0.76035138090E+02  0.24018756510E+04  0.24006718436E+04 0.  0.
        3    1    3    3  502    0  0.10730397251E+04  0.32694070064E+03  0.46543413073E+03  0.12144683666E+04  0.10100000352E+00 0.  1.
       -3    1    3    3    0  502 -0.10730397251E+04 -0.32694070064E+03 -0.38939899264E+03  0.11874072844E+04  0.10100000352E+00 0. -1.
</event>
<event>
 5   0  0.2254269E-06  0.2398769E+04  0.7818609E-02  0.8439965E-01
        1   -1    0    0  501    0  0.00000000000E+00  0.00000000000E+00  0.87296277752E+03  0.87296277754E+03  0.50400001928E-02 0.  1.
       -1   -1    0    0    0  501  0.00000000000E+00  0.00000000000E+00 -0.16478629958E+04  0.16478629958E+04  0.50400001928E-02 0. -1.
    10030    2    1    2    0    0  0.00000000000E+00  0.00000000000E+00 -0.77490021829E+03  0.25208257733E+04  0.23987688991E+04 0.  0.
        2    1    3    3  502    0 -0.70919833167E+02 -0.66073367081E+03  0.66181575718E+03  0.93786923552E+03  0.25500000920E-02 0.  1.
       -2    1    3    3    0  502  0.70919833167E+02  0.66073367081E+03 -0.14367159755E+04  0.15829565378E+04  0.25500000920E-02 0. -1.
</event>
<event>
 5   0  0.5371843E-06  0.2400253E+04  0.7818609E-02  0.8439409E-01
        2   -1    0    0  501    0  0.00000000000E+00  0.00000000000E+00  0.80598775015E+03  0.80598775016E+03  0.25500000920E-02 0. -1.
       -2   -1    0    0    0  501  0.00000000000E+00  0.00000000000E+00 -0.17870044891E+04  0.17870044891E+04  0.25500000920E-02 0.  1.
    10030    2    1    2    0    0  0.00000000000E+00  0.00000000000E+00 -0.98101673895E+03  0.25929922393E+04  0.24002530931E+04 0.  0.
        4    1    3    3  502    0  0.50361191009E+03 -0.87288350284E+03  0.21355486221E+03  0.10301251660E+04  0.12699999809E+01 0. -1.
       -4    1    3    3    0  502 -0.50361191009E+03  0.87288350284E+03 -0.11945716012E+04  0.15628670733E+04  0.12699999809E+01 0.  1.
</event>
<event>
 5   0  0.2215700E-06  0.2404290E+04  0.7818609E-02  0.8437899E-01
       -1   -1    0    0    0  501  0.00000000000E+00  0.00000000000E+00  0.11858738087E+04  0.11858738088E+04  0.50400001928E-02 0.  1.
        1   -1    0    0  501    0  0.00000000000E+00  0.00000000000E+00 -0.12186395375E+04  0.12186395375E+04  0.50400001928E-02 0. -1.
    10030    2    1    2    0    0  0.00000000000E+00  0.00000000000E+00 -0.32765728712E+02  0.24045133462E+04  0.24042900905E+04 0.  0.
        3    1    3    3  502    0 -0.60730861205E+03 -0.85960125472E+03 -0.59731082710E+03  0.12101728396E+04  0.10100000352E+00 0.  1.
       -3    1    3    3    0  502  0.60730861205E+03  0.85960125472E+03  0.56454509839E+03  0.11943405066E+04  0.10100000352E+00 0. -1.
</event>
<event>
 5   0  0.5268358E-06  0.2408795E+04  0.7818609E-02  0.8436218E-01
        2   -1    0    0  501    0  0.00000000000E+00  0.00000000000E+00  0.96917217548E+03  0.96917217548E+03  0.25500000920E-02 0.  1.
       -2   -1    0    0    0  501  0.00000000000E+00  0.00000000000E+00 -0.14967134680E+04  0.14967134680E+04  0.25500000920E-02 0. -1.
    10030    2    1    2    0    0  0.00000000000E+00  0.00000000000E+00 -0.52754129248E+03  0.24658856434E+04  0.24087947590E+04 0.  0.
        2    1    3    3  502    0 -0.34128526584E+02  0.62101763176E+03  0.79205444968E+03  0.10070640032E+04  0.25500000920E-02 0.  1.
       -2    1    3    3    0  502  0.34128526584E+02 -0.62101763176E+03 -0.13195957422E+04  0.14588216402E+04  0.25500000920E-02 0. -1.
</event>
<event>
 5   0  0.5371843E-06  0.2404950E+04  0.7818609E-02  0.8437653E-01
        2   -1    0    0  501    0  0.00000000000E+00  0.00000000000E+00  0.94189070817E+03  0.94189070817E+03  0.25500000920E-02 0.  1.
       -2   -1    0    0    0  501  0.00000000000E+00  0.00000000000E+00 -0.15351526735E+04  0.15351526735E+04  0.25500000920E-02 0. -1.
    10030    2    1    2    0    0  0.00000000000E+00  0.00000000000E+00 -0.59326196530E+03  0.24770433816E+04  0.24049499278E+04 0.  0.
        4    1    3    3  502    0  0.64116132397E+03  0.40707019409E+03 -0.12568604981E+04  0.14685005655E+04  0.12699999809E+01 0. -1.
       -4    1    3    3    0  502 -0.64116132397E+03 -0.40707019409E+03  0.66359853283E+03  0.10085428161E+04  0.12699999809E+01 0.  1.
</event>
<event>
 5   0  0.2149417E-06  0.2404434E+04  0.7818609E-02  0.8437846E-01
        1   -1    0    0  501    0  0.00000000000E+00  0.00000000000E+00  0.11563050840E+04  0.11563050840E+04  0.50400001928E-02 0. -1.
       -1   -1    0    0    0  501  0.00000000000E+00  0.00000000000E+00 -0.12499516210E+04  0.12499516210E+04  0.50400001928E-02 0.  1.
    10030    2    1    2    0    0  0.00000000000E+00  0.00000000000E+00 -0.93646536953E+02  0.24062567050E+04  0.24044337497E+04 0.  0.
        5    1    3    3  502    0 -0.12017340201E+04  0.28216015789E+02 -0.28301793957E+02  0.12024075350E+04  0.46999998093E+01 0.  1.
       -5    1    3    3    0  502  0.12017340201E+04 -0.28216015789E+02 -0.65344742996E+02  0.12038491700E+04  0.46999998093E+01 0. -1.
</event>
<event>
 5   0  0.2254269E-06  0.2394249E+04  0.7818609E-02  0.8441660E-01
        1   -1    0    0  501    0  0.00000000000E+00  0.00000000000E+00  0.23029613743E+04  0.23029613743E+04  0.50400001928E-02 0. -1.
       -1   -1    0    0    0  501  0.00000000000E+00  0.00000000000E+00 -0.62228881521E+03  0.62228881523E+03  0.50400001928E-02 0.  1.
    10030    2    1    2    0    0  0.00000000000E+00  0.00000000000E+00  0.16806725591E+04  0.29252501895E+04  0.23942490306E+04 0.  0.
        2    1    3    3  502    0 -0.94374540263E+03 -0.17125469750E+03 -0.34858400250E+02  0.95979094832E+03  0.25500000920E-02 0. -1.
       -2    1    3    3    0  502  0.94374540263E+03  0.17125469750E+03  0.17155309593E+04  0.19654592412E+04  0.25500000920E-02 0.  1.
</event>
<event>
 5   0  0.5268358E-06  0.2399363E+04  0.7818609E-02  0.8439742E-01
        2   -1    0    0  501    0  0.00000000000E+00  0.00000000000E+00  0.23659646172E+04  0.23659646172E+04  0.25500000920E-02 0.  1.
       -2   -1    0    0    0  501  0.00000000000E+00  0.00000000000E+00 -0.60830812535E+03  0.60830812535E+03  0.25500000920E-02 0. -1.
    10030    2    1    2    0    0  0.00000000000E+00  0.00000000000E+00  0.17576564918E+04  0.29742727425E+04  0.23993628329E+04 0.  0.
        2    1    3    3  502    0  0.67619517858E+03 -0.80875819976E+03  0.16899001876E+03  0.10676550808E+04  0.25500000920E-02 0. -1.
       -2    1    3    3    0  502 -0.67619517858E+03  0.80875819976E+03  0.15886664731E+04  0.19066176617E+04  0.25500000920E-02 0.  1.
</event>
<event>
 5   0  0.5440503E-06  0.2401791E+04  0.7818609E-02  0.8438833E-01
        2   -1    0    0  501    0  0.00000000000E+00  0.00000000000E+00  0.15997948812E+04  0.15997948812E+04  0.25500000920E-02 0. -1.
       -2   -1    0    0    0  501  0.00000000000E+00  0.00000000000E+00 -0.90145928437E+03  0.90145928438E+03  0.25500000920E-02 0.  1.
    10030    2    1    2    0    0  0.00000000000E+00  0.00000000000E+00  0.69833559680E+03  0.25012541656E+04  0.24017909557E+04 0.  0.
        3    1    3    3  502    0  0.54090789136E+03 -0.10674640081E+04  0.24456323752E+03  0.12214220985E+04  0.10100000352E+00 0.  1.
       -3    1    3    3    0  502 -0.54090789136E+03  0.10674640081E+04  0.45377235929E+03  0.12798320670E+04  0.10100000352E+00 0. -1.
</event>
<event>
 5   0  0.5379778E-06  0.2408827E+04  0.7818609E-02  0.8436206E-01
       -2   -1    0    0    0  501  0.00000000000E+00  0.00000000000E+00  0.10242021255E+04  0.10242021256E+04  0.25500000920E-02 0.  1.
        2   -1    0    0  501    0  0.00000000000E+00  0.00000000000E+00 -0.14163341480E+04  0.14163341480E+04  0.25500000920E-02 0. -1.
    10030    2    1    2    0    0  0.00000000000E+00  0.00000000000E+00 -0.39213202241E+03  0.24405362735E+04  0.24088274698E+04 0.  0.
        5    1    3    3  502    0  0.90296974630E+01  0.70582814841E+03 -0.11847784218E+04  0.13791290401E+04  0.46999998093E+01 0. -1.
       -5    1    3    3    0  502 -0.90296974630E+01 -0.70582814841E+03  0.79264639943E+03  0.10614072334E+04  0.46999998093E+01 0.  1.
</event>
<event>
 5   0  0.2254269E-06  0.2376460E+04  0.7818609E-02  0.8448369E-01
        1   -1    0    0  501    0  0.00000000000E+00  0.00000000000E+00  0.15352740519E+04  0.15352740519E+04  0.50400001928E-02 0. -1.
       -1   -1    0    0    0  501  0.00000000000E+00  0.00000000000E+00 -0.91963452153E+03  0.91963452154E+03  0.50400001928E-02 0.  1.
    10030    2    1    2    0    0  0.00000000000E+00  0.00000000000E+00  0.61563953038E+03  0.24549085735E+04  0.23764604084E+04 0.  0.
        2    1    3    3  502    0 -0.38276566923E+03  0.87677914395E+03  0.10358099040E+04  0.14100189297E+04  0.25500000920E-02 0.  1.
       -2    1    3    3    0  502  0.38276566923E+03 -0.87677914395E+03 -0.42017037363E+03  0.10448896438E+04  0.25500000920E-02 0. -1.
</event>
<event>
 5   0  0.5268358E-06  0.2429116E+04  0.7818609E-02  0.8428683E-01
        2   -1    0    0  501    0  0.00000000000E+00  0.00000000000E+00  0.10163633049E+04  0.10163633049E+04  0.25500000920E-02 0.  1.
       -2   -1    0    0    0  501  0.00000000000E+00  0.00000000000E+00 -0.14514015514E+04  0.14514015514E+04  0.25500000920E-02 0. -1.
    10030    2    1    2    0    0  0.00000000000E+00  0.00000000000E+00 -0.43503824646E+03  0.24677648563E+04  0.24291161170E+04 0.  0.
        2    1    3    3  502    0  0.84965035659E+03 -0.40591901284E+03 -0.99684593986E+03  0.13712686831E+04  0.25500000920E-02 0. -1.
       -2    1    3    3    0  502 -0.84965035659E+03  0.40591901284E+03  0.56180769339E+03  0.10964961732E+04  0.25500000920E-02 0.  1.
</event>
<event>
 5   0  0.2254269E-06  0.2401471E+04  0.7818609E-02  0.8438953E-01
       -1   -1    0    0    0  501  0.00000000000E+00  0.00000000000E+00  0.98660726400E+03  0.98660726401E+03  0.50400001928E-02 0.  1.
        1   -1    0    0  501    0  0.00000000000E+00  0.00000000000E+00 -0.14613368753E+04  0.14613368753E+04  0.50400001928E-02 0. -1.
    10030    2    1    2    0    0  0.00000000000E+00  0.00000000000E+00 -0.47472961127E+03  0.24479441393E+04  0.24014708629E+04 0.  0.
        2    1    3    3  502    0  0.70974915101E+03  0.26884976564E+01  0.74988931560E+03  0.10325139568E+04  0.25500000920E-02 0.  1.
       -2    1    3    3    0  502 -0.70974915101E+03 -0.26884976564E+01 -0.12246189269E+04  0.14154301825E+04  0.25500000920E-02 0. -1.
</event>
<event>
 5   0  0.5379778E-06  0.2399539E+04  0.7818609E-02  0.8439676E-01
       -2   -1    0    0    0  501  0.00000000000E+00  0.00000000000E+00  0.76531030907E+03  0.76531030907E+03  0.25500000920E-02 0. -1.
        2   -1    0    0  501    0  0.00000000000E+00  0.00000000000E+00 -0.18808667950E+04  0.18808667950E+04  0.25500000920E-02 0.  1.
    10030    2    1    2    0    0  0.00000000000E+00  0.00000000000E+00 -0.11155564859E+04  0.26461771041E+04  0.23995389125E+04 0.  0.
        5    1    3    3  502    0 -0.81396432740E+03 -0.31040707960E+03 -0.14675157086E+04  0.17066091897E+04  0.46999998093E+01 0.  1.
       -5    1    3    3    0  502  0.81396432740E+03  0.31040707960E+03  0.35195922266E+03  0.93956791439E+03  0.46999998093E+01 0. -1.
</event>
<event>
 5   0  0.2297414E-06  0.2400828E+04  0.7818609E-02  0.8439194E-01
       -1   -1    0    0    0  501  0.00000000000E+00  0.00000000000E+00  0.16243463691E+04  0.16243463691E+04  0.50400001928E-02 0. -1.
        1   -1    0    0  501    0  0.00000000000E+00  0.00000000000E+00 -0.88712190466E+03  0.88712190468E+03  0.50400001928E-02 0.  1.
    10030    2    1    2    0    0  0.00000000000E+00  0.00000000000E+00  0.73722446440E+03  0.25114682737E+04  0.24008275613E+04 0.  0.
        1    1    3    3  502    0 -0.90921171791E+03  0.75259356218E+03  0.59763120941E+03  0.13229611031E+04  0.50400001928E-02 0. -1.
       -1    1    3    3    0  502  0.90921171791E+03 -0.75259356218E+03  0.13959325499E+03  0.11885071707E+04  0.50400001928E-02 0.  1.
</event>
<event>
 5   0  0.2149029E-06  0.2398823E+04  0.7818609E-02  0.8439944E-01
        1   -1    0    0  501    0  0.00000000000E+00  0.00000000000E+00  0.12797435949E+04  0.12797435949E+04  0.50400001928E-02 0.  1.
       -1   -1    0    0    0  501  0.00000000000E+00  0.00000000000E+00 -0.11241216136E+04  0.11241216136E+04  0.50400001928E-02 0. -1.
    10030    2    1    2    0    0  0.00000000000E+00  0.00000000000E+00  0.15562198129E+03  0.24038652086E+04  0.23988225737E+04 0.  0.
        4    1    3    3  502    0 -0.18396466852E+03  0.71667845112E+03 -0.86816217771E+03  0.11406919748E+04  0.12699999809E+01 0. -1.
       -4    1    3    3    0  502  0.18396466852E+03 -0.71667845112E+03  0.10237841590E+04  0.12631732338E+04  0.12699999809E+01 0.  1.
</event>
<event>
 5   0  0.2297414E-06  0.2356330E+04  0.7818609E-02  0.8456036E-01
        1   -1    0    0  501    0  0.00000000000E+00  0.00000000000E+00  0.16195456663E+04  0.16195456663E+04  0.50400001928E-02 0.  1.
       -1   -1    0    0    0  501  0.00000000000E+00  0.00000000000E+00 -0.85707558504E+03  0.85707558505E+03  0.50400001928E-02 0. -1.
    10030    2    1    2    0    0  0.00000000000E+00  0.00000000000E+00  0.76247008130E+03  0.24766212514E+04  0.23563302396E+04 0.  0.
        1    1    3    3  502    0 -0.95058367095E+03 -0.69051253898E+03  0.28926864796E+03  0.12099972036E+04  0.50400001928E-02 0.  1.
       -1    1    3    3    0  502  0.95058367095E+03  0.69051253898E+03  0.47320143334E+03  0.12666240478E+04  0.50400001928E-02 0. -1.
</event>
<event>
 5   0  0.5379778E-06  0.2407250E+04  0.7818609E-02  0.8436794E-01
       -2   -1    0    0    0  501  0.00000000000E+00  0.00000000000E+00  0.72607029801E+03  0.72607029802E+03  0.25500000920E-02 0.  1.
        2   -1    0    0  501    0  0.00000000000E+00  0.00000000000E+00 -0.19952797493E+04  0.19952797493E+04  0.25500000920E-02 0. -1.
    10030    2    1    2    0    0  0.00000000000E+00  0.00000000000E+00 -0.12692094513E+04  0.27213500473E+04  0.24072501841E+04 0.  0.
        5    1    3    3  502    0  0.29470743943E+03 -0.38045086270E+03  0.61256507642E+03  0.77900795672E+03  0.46999998093E+01 0.  1.
       -5    1    3    3    0  502 -0.29470743943E+03  0.38045086270E+03 -0.18817745277E+04  0.19423420906E+04  0.46999998093E+01 0. -1.
</event>
<event>
 5   0  0.2149417E-06  0.2398651E+04  0.7818609E-02  0.8440009E-01
        1   -1    0    0  501    0  0.00000000000E+00  0.00000000000E+00  0.84486902494E+03  0.84486902496E+03  0.50400001928E-02 0.  1.
       -1   -1    0    0    0  501  0.00000000000E+00  0.00000000000E+00 -0.17024911988E+04  0.17024911988E+04  0.50400001928E-02 0. -1.
    10030    2    1    2    0    0  0.00000000000E+00  0.00000000000E+00 -0.85762217390E+03  0.25473602238E+04  0.23986513537E+04 0.  0.
        5    1    3    3  502    0 -0.68731708590E+03 -0.74366230000E+03 -0.11112393962E+04  0.15034338957E+04  0.46999998093E+01 0. -1.
       -5    1    3    3    0  502  0.68731708590E+03  0.74366230000E+03  0.25361722235E+03  0.10439263281E+04  0.46999998093E+01 0.  1.
</event>
<event>
 5   0  0.2215700E-06  0.2403328E+04  0.7818609E-02  0.8438259E-01
       -1   -1    0    0    0  501  0.00000000000E+00  0.00000000000E+00  0.76625984441E+03  0.76625984442E+03  0.50400001928E-02 0.  1.
        1   -1    0    0  501    0  0.00000000000E+00  0.00000000000E+00 -0.18844740546E+04  0.18844740546E+04  0.50400001928E-02 0. -1.
    10030    2    1    2    0    0  0.00000000000E+00  0.00000000000E+00 -0.11182142102E+04  0.26507338991E+04  0.24033283554E+04 0.  0.
        3    1    3    3  502    0 -0.98873321852E+03 -0.83779336071E+02 -0.13066586752E+04  0.16407221758E+04  0.10100000352E+00 0. -1.
       -3    1    3    3    0  502  0.98873321852E+03  0.83779336071E+02  0.18844446494E+03  0.10100117233E+04  0.10100000352E+00 0.  1.
</event>
<event>
 5   0  0.5349036E-06  0.2402456E+04  0.7818609E-02  0.8438585E-01
        2   -1    0    0  501    0  0.00000000000E+00  0.00000000000E+00  0.22743949455E+04  0.22743949455E+04  0.25500000920E-02 0.  1.
       -2   -1    0    0    0  501  0.00000000000E+00  0.00000000000E+00 -0.63443207532E+03  0.63443207532E+03  0.25500000920E-02 0. -1.
    10030    2    1    2    0    0  0.00000000000E+00  0.00000000000E+00  0.16399628702E+04  0.29088270209E+04  0.24024563308E+04 0.  0.
        1    1    3    3  502    0 -0.92749354588E+03  0.76323663695E+03  0.80397982148E+03  0.14453919866E+04  0.50400001928E-02 0.  1.
       -1    1    3    3    0  502  0.92749354588E+03 -0.76323663695E+03  0.83598304875E+03  0.14634350342E+04  0.50400001928E-02 0. -1.
</event>
<event>
 5   0  0.2215700E-06  0.2396986E+04  0.7818609E-02  0.8440633E-01
        1   -1    0    0  501    0  0.00000000000E+00  0.00000000000E+00  0.90189583631E+03  0.90189583633E+03  0.50400001928E-02 0. -1.
       -1   -1    0    0    0  501  0.00000000000E+00  0.00000000000E+00 -0.15926284567E+04  0.15926284567E+04  0.50400001928E-02 0.  1.
    10030    2    1    2    0    0  0.00000000000E+00  0.00000000000E+00 -0.69073262034E+03  0.24945242930E+04  0.23969855852E+04 0.  0.
        3    1    3    3  502    0  0.11409327075E+04  0.15130531236E+03 -0.69328176168E+03  0.13435997737E+04  0.10100000352E+00 0.  1.
       -3    1    3    3    0  502 -0.11409327075E+04 -0.15130531236E+03  0.25491413394E+01  0.11509245193E+04  0.10100000352E+00 0. -1.
</event>
<event>
 5   0  0.5440503E-06  0.2400647E+04  0.7818609E-02  0.8439261E-01
       -2   -1    0    0    0  501  0.00000000000E+00  0.00000000000E+00  0.27349641746E+04  0.27349641746E+04  0.25500000920E-02 0. -1.
        2   -1    0    0  501    0  0.00000000000E+00  0.00000000000E+00 -0.52679891551E+03  0.52679891551E+03  0.25500000920E-02 0.  1.
    10030    2    1    2    0    0  0.00000000000E+00  0.00000000000E+00  0.22081652590E+04  0.32617630901E+04  0.24006467138E+04 0.  0.
        3    1    3    3  502    0 -0.77969313460E+03  0.31720242651E+03  0.22667356151E+04  0.24179803809E+04  0.10100000352E+00 0. -1.
       -3    1    3    3    0  502  0.77969313460E+03 -0.31720242651E+03 -0.58570356021E+02  0.84378270919E+03  0.10100000352E+00 0.  1.
</event>
<event>
 5   0  0.2215700E-06  0.2399643E+04  0.7818609E-02  0.8439637E-01
        1   -1    0    0  501    0  0.00000000000E+00  0.00000000000E+00  0.19133977093E+04  0.19133977093E+04  0.50400001928E-02 0. -1.
       -1   -1    0    0    0  501  0.00000000000E+00  0.00000000000E+00 -0.75236405190E+03  0.75236405191E+03  0.50400001928E-02 0.  1.
    10030    2    1    2    0    0  0.00000000000E+00  0.00000000000E+00  0.11610336574E+04  0.26657617613E+04  0.23996430180E+04 0.  0.
        3    1    3    3  502    0  0.92723838926E+03 -0.76019755611E+03  0.53209017464E+03  0.13117893577E+04  0.10100000352E+00 0.  1.
       -3    1    3    3    0  502 -0.92723838926E+03  0.76019755611E+03  0.62894348280E+03  0.13539724036E+04  0.10100000352E+00 0. -1.
</event>
<event>
 5   0  0.2297414E-06  0.2395593E+04  0.7818609E-02  0.8441155E-01
        1   -1    0    0  501    0  0.00000000000E+00  0.00000000000E+00  0.12329934167E+04  0.12329934167E+04  0.50400001928E-02 0. -1.
       -1   -1    0    0    0  501  0.00000000000E+00  0.00000000000E+00 -0.11636040113E+04  0.11636040114E+04  0.50400001928E-02 0.  1.
    10030    2    1    2    0    0  0.00000000000E+00  0.00000000000E+00  0.69389405341E+02  0.23965974281E+04  0.23955926913E+04 0.  0.
        1    1    3    3  502    0 -0.45305881685E+03  0.72524516843E+02  0.11415917546E+04  0.12303470369E+04  0.50400001928E-02 0. -1.
       -1    1    3    3    0  502  0.45305881685E+03 -0.72524516843E+02 -0.10722023492E+04  0.11662503911E+04  0.50400001928E-02 0.  1.
</event>
<event>
 5   0  0.5349036E-06  0.2394311E+04  0.7818609E-02  0.8441636E-01
       -2   -1    0    0    0  501  0.00000000000E+00  0.00000000000E+00  0.12833127963E+04  0.12833127963E+04  0.25500000920E-02 0. -1.
        2   -1    0    0  501    0  0.00000000000E+00  0.00000000000E+00 -0.11167829626E+04  0.11167829627E+04  0.25500000920E-02 0.  1.
    10030    2    1    2    0    0  0.00000000000E+00  0.00000000000E+00  0.16652983367E+03  0.24000957590E+04  0.23943114807E+04 0.  0.
        1    1    3    3  502    0 -0.10947607747E+04  0.32895883569E+03 -0.27321591422E+03  0.11753135774E+04  0.50400001928E-02 0. -1.
       -1    1    3    3    0  502  0.10947607747E+04 -0.32895883569E+03  0.43974574790E+03  0.12247821816E+04  0.50400001928E-02 0.  1.
</event>
<event>
 5   0  0.2215700E-06  0.2405817E+04  0.7818609E-02  0.8437329E-01
        1   -1    0    0  501    0  0.00000000000E+00  0.00000000000E+00  0.19687715905E+04  0.19687715905E+04  0.50400001928E-02 0.  1.
       -1   -1    0    0    0  501  0.00000000000E+00  0.00000000000E+00 -0.73497044453E+03  0.73497044455E+03  0.50400001928E-02 0. -1.
    10030    2    1    2    0    0  0.00000000000E+00  0.00000000000E+00  0.12338011459E+04  0.27037420350E+04  0.24058170596E+04 0.  0.
        3    1    3    3  502    0 -0.11809530640E+04  0.22137754903E+03  0.68176020487E+03  0.13814684743E+04  0.10100000352E+00 0.  1.
       -3    1    3    3    0  502  0.11809530640E+04 -0.22137754903E+03  0.55204094107E+03  0.13222735607E+04  0.10100000352E+00 0. -1.
</event>
<event>
 5   0  0.2215700E-06  0.2400274E+04  0.7818609E-02  0.8439401E-01
       -1   -1    0    0    0  501  0.00000000000E+00  0.00000000000E+00  0.14733710368E+04  0.14733710368E+04  0.50400001928E-02 0. -1.
        1   -1    0    0  501    0  0.00000000000E+00  0.00000000000E+00 -0.97757408792E+03  0.97757408793E+03  0.50400001928E-02 0.  1.
    10030    2    1    2    0    0  0.00000000000E+00  0.00000000000E+00  0.49579694889E+03  0.24509451248E+04  0.24002744406E+04 0.  0.
        3    1    3    3  502    0 -0.64680035573E+03  0.49554635668E+03  0.11476424167E+04  0.14074800243E+04  0.10100000352E+00 0. -1.
       -3    1    3    3    0  502  0.64680035573E+03 -0.49554635668E+03 -0.65184546785E+03  0.10434651005E+04  0.10100000352E+00 0.  1.
</event>
<event>
 5   0  0.5440503E-06  0.2394560E+04  0.7818609E-02  0.8441543E-01
       -2   -1    0    0    0  501  0.00000000000E+00  0.00000000000E+00  0.76858746511E+03  0.76858746511E+03  0.25500000920E-02 0. -1.
        2   -1    0    0  501    0  0.00000000000E+00  0.00000000000E+00 -0.18650829509E+04  0.18650829509E+04  0.25500000920E-02 0.  1.
    10030    2    1    2    0    0  0.00000000000E+00  0.00000000000E+00 -0.10964954858E+04  0.26336704160E+04  0.23945599825E+04 0.  0.
        3    1    3    3  502    0 -0.98943428634E+03  0.51494031210E+03 -0.10268248118E+04  0.15160847392E+04  0.10100000352E+00 0.  1.
       -3    1    3    3    0  502  0.98943428634E+03 -0.51494031210E+03 -0.69670673979E+02  0.11175856768E+04  0.10100000352E+00 0. -1.
</event>
<event>
 5   0  0.5379778E-06  0.2360990E+04  0.7818609E-02  0.8454254E-01
       -2   -1    0    0    0  501  0.00000000000E+00  0.00000000000E+00  0.79643345901E+03  0.79643345901E+03  0.25500000920E-02 0.  1.
        2   -1    0    0  501    0  0.00000000000E+00  0.00000000000E+00 -0.17497612130E+04  0.17497612130E+04  0.25500000920E-02 0. -1.
    10030    2    1    2    0    0  0.00000000000E+00  0.00000000000E+00 -0.95332775403E+03  0.25461946721E+04  0.23609899410E+04 0.  0.
        5    1    3    3  502    0  0.96951171282E+03 -0.17108753582E+03 -0.11791624348E+04  0.15361217543E+04  0.46999998093E+01 0. -1.
       -5    1    3    3    0  502 -0.96951171282E+03  0.17108753582E+03  0.22583468080E+03  0.10100729178E+04  0.46999998093E+01 0.  1.
</event>
<event>
 5   0  0.5268358E-06  0.2405228E+04  0.7818609E-02  0.8437549E-01
       -2   -1    0    0    0  501  0.00000000000E+00  0.00000000000E+00  0.90425761047E+03  0.90425761048E+03  0.25500000920E-02 0.  1.
        2   -1    0    0  501    0  0.00000000000E+00  0.00000000000E+00 -0.15994124516E+04  0.15994124516E+04  0.25500000920E-02 0. -1.
    10030    2    1    2    0    0  0.00000000000E+00  0.00000000000E+00 -0.69515484117E+03  0.25036700621E+04  0.24052283731E+04 0.  0.
        2    1    3    3  502    0  0.56371608780E+03  0.24322950403E+03 -0.14239920469E+04  0.15507062162E+04  0.25500000920E-02 0. -1.
       -2    1    3    3    0  502 -0.56371608780E+03 -0.24322950403E+03  0.72883720570E+03  0.95296384596E+03  0.25500000920E-02 0.  1.
</event>
<event>
 5   0  0.5268358E-06  0.2397742E+04  0.7818609E-02  0.8440349E-01
       -2   -1    0    0    0  501  0.00000000000E+00  0.00000000000E+00  0.83723278551E+03  0.83723278551E+03  0.25500000920E-02 0. -1.
        2   -1    0    0  501    0  0.00000000000E+00  0.00000000000E+00 -0.17167170308E+04  0.17167170308E+04  0.25500000920E-02 0.  1.
    10030    2    1    2    0    0  0.00000000000E+00  0.00000000000E+00 -0.87948424528E+03  0.25539498163E+04  0.23977420892E+04 0.  0.
        2    1    3    3  502    0  0.74042369332E+03  0.34828886973E+03  0.49356045121E+03  0.95558060958E+03  0.25500000920E-02 0. -1.
       -2    1    3    3    0  502 -0.74042369332E+03 -0.34828886973E+03 -0.13730446965E+04  0.15983692067E+04  0.25500000920E-02 0.  1.
</event>
<event>
 5   0  0.5440503E-06  0.2399179E+04  0.7818609E-02  0.8439811E-01
        2   -1    0    0  501    0  0.00000000000E+00  0.00000000000E+00  0.12697015275E+04  0.12697015275E+04  0.25500000920E-02 0.  1.
       -2   -1    0    0    0  501  0.00000000000E+00  0.00000000000E+00 -0.11333492310E+04  0.11333492310E+04  0.25500000920E-02 0. -1.
    10030    2    1    2    0    0  0.00000000000E+00  0.00000000000E+00  0.13635229651E+03  0.24030507584E+04  0.23991792344E+04 0.  0.
        3    1    3    3  502    0 -0.36349284645E+03  0.11280679973E+04 -0.11746257556E+03  0.11909919911E+04  0.10100000352E+00 0. -1.
       -3    1    3    3    0  502  0.36349284645E+03 -0.11280679973E+04  0.25381487207E+03  0.12120587673E+04  0.10100000352E+00 0.  1.
</event>
<event>
 5   0  0.2254269E-06  0.2402279E+04  0.7818609E-02  0.8438651E-01
       -1   -1    0    0    0  501  0.00000000000E+00  0.00000000000E+00  0.89857714853E+03  0.89857714854E+03  0.50400001928E-02 0. -1.
        1   -1    0    0  501    0  0.00000000000E+00  0.00000000000E+00 -0.16055780324E+04  0.16055780324E+04  0.50400001928E-02 0.  1.
    10030    2    1    2    0    0  0.00000000000E+00  0.00000000000E+00 -0.70700088384E+03  0.25041551809E+04  0.24022786933E+04 0.  0.
        2    1    3    3  502    0  0.83555100622E+03  0.38852781130E+03  0.44965222381E+03  0.10253226158E+04  0.25500000920E-02 0. -1.
       -2    1    3    3    0  502 -0.83555100622E+03 -0.38852781130E+03 -0.11566531077E+04  0.14788325651E+04  0.25500000920E-02 0.  1.
</event>
<event>
 5   0  0.5349036E-06  0.2397420E+04  0.7818609E-02  0.8440470E-01
       -2   -1    0    0    0  501  0.00000000000E+00  0.00000000000E+00  0.89319215703E+03  0.89319215703E+03  0.25500000920E-02 0. -1.
        2   -1    0    0  501    0  0.00000000000E+00  0.00000000000E+00 -0.16087302888E+04  0.16087302888E+04  0.25500000920E-02 0.  1.
    10030    2    1    2    0    0  0.00000000000E+00  0.00000000000E+00 -0.71553813176E+03  0.25019224458E+04  0.23974196768E+04 0.  0.
        1    1    3    3  502    0  0.62743586163E+02 -0.17549795160E+03  0.87797904913E+03  0.89754303482E+03  0.50400001928E-02 0. -1.
       -1    1    3    3    0  502 -0.62743586163E+02  0.17549795160E+03 -0.15935171809E+04  0.16043794110E+04  0.50400001928E-02 0.  1.
</event>
<event>
 5   0  0.2215700E-06  0.2394858E+04  0.7818609E-02  0.8441431E-01
       -1   -1    0    0    0  501  0.00000000000E+00  0.00000000000E+00  0.56866458189E+03  0.56866458192E+03  0.50400001928E-02 0. -1.
        1   -1    0    0  501    0  0.00000000000E+00  0.00000000000E+00 -0.25214097208E+04  0.25214097208E+04  0.50400001928E-02 0.  1.
    10030    2    1    2    0    0  0.00000000000E+00  0.00000000000E+00 -0.19527451389E+04  0.30900743027E+04  0.23948581626E+04 0.  0.
        3    1    3    3  502    0  0.37770504539E+03 -0.32911659032E+03 -0.23796881624E+04  0.24318500348E+04  0.10100000352E+00 0.  1.
       -3    1    3    3    0  502 -0.37770504539E+03  0.32911659032E+03  0.42694302350E+03  0.65822426790E+03  0.10100000352E+00 0. -1.
</event>
<event>
 5   0  0.2215700E-06  0.2381036E+04  0.7818609E-02  0.8446638E-01
        1   -1    0    0  501    0  0.00000000000E+00  0.00000000000E+00  0.25126106858E+04  0.25126106858E+04  0.50400001928E-02 0. -1.
       -1   -1    0    0    0  501  0.00000000000E+00  0.00000000000E+00 -0.56408775060E+03  0.56408775062E+03  0.50400001928E-02 0.  1.
    10030    2    1    2    0    0  0.00000000000E+00  0.00000000000E+00  0.19485229352E+04  0.30766984364E+04  0.23810358333E+04 0.  0.
        3    1    3    3  502    0 -0.37916598958E+03  0.39389795340E+03 -0.39226991085E+03  0.67290277047E+03  0.10100000352E+00 0.  1.
       -3    1    3    3    0  502  0.37916598958E+03 -0.39389795340E+03  0.23407928460E+04  0.24037956659E+04  0.10100000352E+00 0. -1.
</event>
<event>
 5   0  0.2149029E-06  0.2400110E+04  0.7818609E-02  0.8439462E-01
        1   -1    0    0  501    0  0.00000000000E+00  0.00000000000E+00  0.18004753819E+04  0.18004753819E+04  0.50400001928E-02 0. -1.
       -1   -1    0    0    0  501  0.00000000000E+00  0.00000000000E+00 -0.79986221948E+03  0.79986221949E+03  0.50400001928E-02 0.  1.
    10030    2    1    2    0    0  0.00000000000E+00  0.00000000000E+00  0.10006131624E+04  0.26003376014E+04  0.24001101934E+04 0.  0.
        4    1    3    3  502    0 -0.22533371131E+03  0.89208539446E+03 -0.33437951861E+03  0.97898054517E+03  0.12699999809E+01 0.  1.
       -4    1    3    3    0  502  0.22533371131E+03 -0.89208539446E+03  0.13349926810E+04  0.16213570562E+04  0.12699999809E+01 0. -1.
</event>
<event>
 5   0  0.5371843E-06  0.2403189E+04  0.7818609E-02  0.8438311E-01
        2   -1    0    0  501    0  0.00000000000E+00  0.00000000000E+00  0.13249724014E+04  0.13249724014E+04  0.25500000920E-02 0.  1.
       -2   -1    0    0    0  501  0.00000000000E+00  0.00000000000E+00 -0.10897053017E+04  0.10897053017E+04  0.25500000920E-02 0. -1.
    10030    2    1    2    0    0  0.00000000000E+00  0.00000000000E+00  0.23526709972E+03  0.24146777031E+04  0.24031890899E+04 0.  0.
        4    1    3    3  502    0  0.16474491025E+03  0.56599367889E+03  0.11697007553E+04  0.13098439601E+04  0.12699999809E+01 0.  1.
       -4    1    3    3    0  502 -0.16474491025E+03 -0.56599367889E+03 -0.93443365560E+03  0.11048337430E+04  0.12699999809E+01 0. -1.
</event>
<event>
 5   0  0.2215700E-06  0.2402970E+04  0.7818609E-02  0.8438392E-01
        1   -1    0    0  501    0  0.00000000000E+00  0.00000000000E+00  0.16774655198E+04  0.16774655198E+04  0.50400001928E-02 0. -1.
       -1   -1    0    0    0  501  0.00000000000E+00  0.00000000000E+00 -0.86056384079E+03  0.86056384081E+03  0.50400001928E-02 0.  1.
    10030    2    1    2    0    0  0.00000000000E+00  0.00000000000E+00  0.81690167896E+03  0.25380293606E+04  0.24029699711E+04 0.  0.
        3    1    3    3  502    0  0.37494322938E+03  0.88037424041E+02  0.16105001211E+04  0.16559117318E+04  0.10100000352E+00 0. -1.
       -3    1    3    3    0  502 -0.37494322938E+03 -0.88037424041E+02 -0.79359844217E+03  0.88211762872E+03  0.10100000352E+00 0.  1.
</event>
<event>
 5   0  0.5379778E-06  0.2398122E+04  0.7818609E-02  0.8440207E-01
        2   -1    0    0  501    0  0.00000000000E+00  0.00000000000E+00  0.80760968325E+03  0.80760968326E+03  0.25500000920E-02 0. -1.
       -2   -1    0    0    0  501  0.00000000000E+00  0.00000000000E+00 -0.17802495628E+04  0.17802495629E+04  0.25500000920E-02 0.  1.
    10030    2    1    2    0    0  0.00000000000E+00  0.00000000000E+00 -0.97263987959E+03  0.25878592461E+04  0.23981215862E+04 0.  0.
        5    1    3    3  502    0  0.22499154126E+03  0.98659593839E+03  0.20779115510E+03  0.10330498504E+04  0.46999998093E+01 0. -1.
       -5    1    3    3    0  502 -0.22499154126E+03 -0.98659593839E+03 -0.11804310347E+04  0.15548093957E+04  0.46999998093E+01 0.  1.
</event>
<event>
 5   0  0.2215700E-06  0.2399797E+04  0.7818609E-02  0.8439580E-01
       -1   -1    0    0    0  501  0.00000000000E+00  0.00000000000E+00  0.12477113560E+04  0.12477113560E+04  0.50400001928E-02 0. -1.
        1   -1    0    0  501    0  0.00000000000E+00  0.00000000000E+00 -0.11539179487E+04  0.11539179487E+04  0.50400001928E-02 0.  1.
    10030    2    1    2    0    0  0.00000000000E+00  0.00000000000E+00  0.93793407322E+02  0.24016293047E+04  0.23997970985E+04 0.  0.
        3    1    3    3  502    0 -0.85488945840E+03 -0.42697068092E+03 -0.67934086298E+03  0.11724521170E+04  0.10100000352E+00 0.  1.
       -3    1    3    3    0  502  0.85488945840E+03  0.42697068092E+03  0.77313427030E+03  0.12291771876E+04  0.10100000352E+00 0. -1.
</event>
<event>
 5   0  0.5349036E-06  0.2399797E+04  0.7818609E-02  0.8439579E-01
       -2   -1    0    0    0  501  0.00000000000E+00  0.00000000000E+00  0.95726667792E+03  0.95726667793E+03  0.25500000920E-02 0.  1.
        2   -1    0    0  501    0  0.00000000000E+00  0.00000000000E+00 -0.15040291519E+04  0.15040291519E+04  0.25500000920E-02 0. -1.
    10030    2    1    2    0    0  0.00000000000E+00  0.00000000000E+00 -0.54676247396E+03  0.24612958298E+04  0.23997974829E+04 0.  0.
        1    1    3    3  502    0 -0.10515207477E+04 -0.45148016028E+03  0.96736041275E+02  0.11484285261E+04  0.50400001928E-02 0.  1.
       -1    1    3    3    0  502  0.10515207477E+04  0.45148016028E+03 -0.64349851523E+03  0.13128673037E+04  0.50400001928E-02 0. -1.
</event>
<event>
 5   0  0.2215700E-06  0.2397449E+04  0.7818609E-02  0.8440459E-01
        1   -1    0    0  501    0  0.00000000000E+00  0.00000000000E+00  0.17512299109E+04  0.17512299109E+04  0.50400001928E-02 0.  1.
       -1   -1    0    0    0  501  0.00000000000E+00  0.00000000000E+00 -0.82053224497E+03  0.82053224498E+03  0.50400001928E-02 0. -1.
    10030    2    1    2    0    0  0.00000000000E+00  0.00000000000E+00  0.93069766590E+03  0.25717621559E+04  0.23974491530E+04 0.  0.
        3    1    3    3  502    0 -0.97951530032E+03 -0.10460885264E+03  0.11980540206E+04  0.15510405159E+04  0.10100000352E+00 0.  1.
       -3    1    3    3    0  502  0.97951530032E+03  0.10460885264E+03 -0.26735635469E+03  0.10207216399E+04  0.10100000352E+00 0. -1.
</event>
<event>
 5   0  0.5379778E-06  0.2395951E+04  0.7818609E-02  0.8441021E-01
       -2   -1    0    0    0  501  0.00000000000E+00  0.00000000000E+00  0.66306825777E+03  0.66306825777E+03  0.25500000920E-02 0. -1.
        2   -1    0    0  501    0  0.00000000000E+00  0.00000000000E+00 -0.21643996557E+04  0.21643996557E+04  0.25500000920E-02 0.  1.
    10030    2    1    2    0    0  0.00000000000E+00  0.00000000000E+00 -0.15013313979E+04  0.28274679135E+04  0.23959505077E+04 0.  0.
        5    1    3    3  502    0  0.25491465255E+02  0.89897267477E+03 -0.16846042581E+04  0.19096374738E+04  0.46999998093E+01 0.  1.
       -5    1    3    3    0  502 -0.25491465255E+02 -0.89897267477E+03  0.18327286016E+03  0.91783043971E+03  0.46999998093E+01 0. -1.
</event>
<event>
 5   0  0.5440503E-06  0.2395397E+04  0.7818609E-02  0.8441229E-01
        2   -1    0    0  501    0  0.00000000000E+00  0.00000000000E+00  0.17401676968E+04  0.17401676968E+04  0.25500000920E-02 0.  1.
       -2   -1    0    0    0  501  0.00000000000E+00  0.00000000000E+00 -0.82433507630E+03  0.82433507631E+03  0.25500000920E-02 0. -1.
    10030    2    1    2    0    0  0.00000000000E+00  0.00000000000E+00  0.91583262046E+03  0.25645027731E+04  0.23953966445E+04 0.  0.
        3    1    3    3  502    0 -0.82243079137E+03  0.48415827467E+03 -0.31682831554E+03  0.10055753742E+04  0.10100000352E+00 0. -1.
       -3    1    3    3    0  502  0.82243079137E+03 -0.48415827467E+03  0.12326609360E+04  0.15589273988E+04  0.10100000352E+00 0.  1.
</event>
<event>
 5   0  0.5440503E-06  0.2400068E+04  0.7818609E-02  0.8439478E-01
       -2   -1    0    0    0  501  0.00000000000E+00  0.00000000000E+00  0.64840716694E+03  0.64840716695E+03  0.25500000920E-02 0. -1.
        2   -1    0    0  501    0  0.00000000000E+00  0.00000000000E+00 -0.22209525010E+04  0.22209525010E+04  0.25500000920E-02 0.  1.
    10030    2    1    2    0    0  0.00000000000E+00  0.00000000000E+00 -0.15725453341E+04  0.28693596680E+04  0.24000679316E+04 0.  0.
        3    1    3    3  502    0  0.21214899533E+03  0.10285006589E+04 -0.14805681322E+04  0.18151867138E+04  0.10100000352E+00 0.  1.
       -3    1    3    3    0  502 -0.21214899533E+03 -0.10285006589E+04 -0.91977201848E+02  0.10541729542E+04  0.10100000352E+00 0. -1.
</event>
<event>
 5   0  0.2297414E-06  0.2398306E+04  0.7818609E-02  0.8440138E-01
       -1   -1    0    0    0  501  0.00000000000E+00  0.00000000000E+00  0.63490507904E+03  0.63490507906E+03  0.50400001928E-02 0. -1.
        1   -1    0    0  501    0  0.00000000000E+00  0.00000000000E+00 -0.22648557091E+04  0.22648557091E+04  0.50400001928E-02 0.  1.
    10030    2    1    2    0    0  0.00000000000E+00  0.00000000000E+00 -0.16299506301E+04  0.28997607882E+04  0.23983063966E+04 0.  0.
        1    1    3    3  502    0  0.38158194171E+03 -0.96022696904E+03 -0.79190781603E+02  0.10362971534E+04  0.50400001928E-02 0. -1.
       -1    1    3    3    0  502 -0.38158194171E+03  0.96022696904E+03 -0.15507598485E+04  0.18634636347E+04  0.50400001928E-02 0.  1.
</event>
<event>
 5   0  0.2149029E-06  0.2392503E+04  0.7818609E-02  0.8442316E-01
        1   -1    0    0  501    0  0.00000000000E+00  0.00000000000E+00  0.20907095691E+04  0.20907095691E+04  0.50400001928E-02 0.  1.
       -1   -1    0    0    0  501  0.00000000000E+00  0.00000000000E+00 -0.68446493870E+03  0.68446493872E+03  0.50400001928E-02 0. -1.
    10030    2    1    2    0    0  0.00000000000E+00  0.00000000000E+00  0.14062446304E+04  0.27751745078E+04  0.23925027875E+04 0.  0.
        4    1    3    3  502    0  0.45268383783E+03  0.50753037226E+03 -0.43841211177E+03  0.80914555455E+03  0.12699999809E+01 0. -1.
       -4    1    3    3    0  502 -0.45268383783E+03 -0.50753037226E+03  0.18446567421E+04  0.19660289532E+04  0.12699999809E+01 0.  1.
</event>
<event>
 5   0  0.2297414E-06  0.2397932E+04  0.7818609E-02  0.8440278E-01
       -1   -1    0    0    0  501  0.00000000000E+00  0.00000000000E+00  0.77531146307E+03  0.77531146309E+03  0.50400001928E-02 0. -1.
        1   -1    0    0  501    0  0.00000000000E+00  0.00000000000E+00 -0.18541181032E+04  0.18541181032E+04  0.50400001928E-02 0.  1.
    10030    2    1    2    0    0  0.00000000000E+00  0.00000000000E+00 -0.10788066401E+04  0.26294295663E+04  0.23979316248E+04 0.  0.
        1    1    3    3  502    0  0.42079491240E+03  0.23814303288E+03  0.66366650033E+03  0.82111734003E+03  0.50400001928E-02 0. -1.
       -1    1    3    3    0  502 -0.42079491240E+03 -0.23814303288E+03 -0.17424731404E+04  0.18083122262E+04  0.50400001928E-02 0.  1.
</event>
<event>
 5   0  0.1796750E-06  0.2385407E+04  0.7818609E-02  0.8444987E-01
        3   -1    0    0  501    0  0.00000000000E+00  0.00000000000E+00  0.10446551535E+04  0.10446551584E+04  0.10100000352E+00 0. -1.
       -3   -1    0    0    0  501  0.00000000000E+00  0.00000000000E+00 -0.13617335845E+04  0.13617335882E+04  0.10100000352E+00 0.  1.
    10030    2    1    2    0    0  0.00000000000E+00  0.00000000000E+00 -0.31707843092E+03  0.24063887466E+04  0.23854073171E+04 0.  0.
        3    1    3    3  502    0  0.74564199848E+03  0.45117745700E+03 -0.97994858258E+03  0.13114275894E+04  0.10100000352E+00 0.  1.
       -3    1    3    3    0  502 -0.74564199848E+03 -0.45117745700E+03  0.66287015166E+03  0.10949611572E+04  0.10100000352E+00 0. -1.
</event>
<event>
 5   0  0.2149417E-06  0.2401400E+04  0.7818609E-02  0.8438980E-01
        1   -1    0    0  501    0  0.00000000000E+00  0.00000000000E+00  0.91734515492E+03  0.91734515493E+03  0.50400001928E-02 0.  1.
       -1   -1    0    0    0  501  0.00000000000E+00  0.00000000000E+00 -0.15715793876E+04  0.15715793876E+04  0.50400001928E-02 0. -1.
    10030    2    1    2    0    0  0.00000000000E+00  0.00000000000E+00 -0.65423423265E+03  0.24889245425E+04  0.24014002055E+04 0.  0.
        5    1    3    3  502    0 -0.43548145580E+03  0.31737792572E+03  0.78496987570E+03  0.95214108295E+03  0.46999998093E+01 0.  1.
       -5    1    3    3    0  502  0.43548145580E+03 -0.31737792572E+03 -0.14392041084E+04  0.15367834596E+04  0.46999998093E+01 0. -1.
</event>
<event>
 5   0  0.2149029E-06  0.2403071E+04  0.7818609E-02  0.8438355E-01
        1   -1    0    0  501    0  0.00000000000E+00  0.00000000000E+00  0.84603058921E+03  0.84603058923E+03  0.50400001928E-02 0. -1.
       -1   -1    0    0    0  501  0.00000000000E+00  0.00000000000E+00 -0.17064248875E+04  0.17064248875E+04  0.50400001928E-02 0.  1.
    10030    2    1    2    0    0  0.00000000000E+00  0.00000000000E+00 -0.86039429825E+03  0.25524554767E+04  0.24030710793E+04 0.  0.
        4    1    3    3  502    0 -0.42040407963E+03 -0.62106848596E+03  0.56689162376E+03  0.94012413032E+03  0.12699999809E+01 0. -1.
       -4    1    3    3    0  502  0.42040407963E+03  0.62106848596E+03 -0.14272859220E+04  0.16123313464E+04  0.12699999809E+01 0.  1.
</event>
<event>
 5   0  0.2254269E-06  0.2408138E+04  0.7818609E-02  0.8436463E-01
        1   -1    0    0  501    0  0.00000000000E+00  0.00000000000E+00  0.14042585522E+04  0.14042585522E+04  0.50400001928E-02 0.  1.
       -1   -1    0    0    0  501  0.00000000000E+00  0.00000000000E+00 -0.10324180480E+04  0.10324180480E+04  0.50400001928E-02 0. -1.
    10030    2    1    2    0    0  0.00000000000E+00  0.00000000000E+00  0.37184050420E+03  0.24366766002E+04  0.24081377646E+04 0.  0.
        2    1    3    3  502    0 -0.11524837633E+04 -0.25534655910E+02  0.53776374603E+03  0.12720301450E+04  0.25500000920E-02 0.  1.
       -2    1    3    3    0  502  0.11524837633E+04  0.25534655910E+02 -0.16592324183E+03  0.11646464551E+04  0.25500000920E-02 0. -1.
</event>
<event>
 5   0  0.5268358E-06  0.2399379E+04  0.7818609E-02  0.8439736E-01
        2   -1    0    0  501    0  0.00000000000E+00  0.00000000000E+00  0.23195209409E+04  0.23195209409E+04  0.25500000920E-02 0.  1.
       -2   -1    0    0    0  501  0.00000000000E+00  0.00000000000E+00 -0.62049684682E+03  0.62049684683E+03  0.25500000920E-02 0. -1.
    10030    2    1    2    0    0  0.00000000000E+00  0.00000000000E+00  0.16990240940E+04  0.29400177877E+04  0.23993794447E+04 0.  0.
        2    1    3    3  502    0 -0.10031657319E+04 -0.65527231854E+02  0.16517206293E+04  0.19336019086E+04  0.25500000920E-02 0. -1.
       -2    1    3    3    0  502  0.10031657319E+04  0.65527231854E+02  0.47303464738E+02  0.10064158791E+04  0.25500000920E-02 0.  1.
</event>
<event>
 5   0  0.2149417E-06  0.2401539E+04  0.7818609E-02  0.8438927E-01
        1   -1    0    0  501    0  0.00000000000E+00  0.00000000000E+00  0.15615562851E+04  0.15615562851E+04  0.50400001928E-02 0. -1.
       -1   -1    0    0    0  501  0.00000000000E+00  0.00000000000E+00 -0.92334025670E+03  0.92334025672E+03  0.50400001928E-02 0.  1.
    10030    2    1    2    0    0  0.00000000000E+00  0.00000000000E+00  0.63821602838E+03  0.24848965418E+04  0.24015393240E+04 0.  0.
        5    1    3    3  502    0  0.57786853436E+03  0.75924719416E+03 -0.43519291849E+03  0.10487150762E+04  0.46999998093E+01 0.  1.
       -5    1    3    3    0  502 -0.57786853436E+03 -0.75924719416E+03  0.10734089469E+04  0.14361814656E+04  0.46999998093E+01 0. -1.
</event>
<event>
 5   0  0.2215700E-06  0.2398784E+04  0.7818609E-02  0.8439959E-01
        1   -1    0    0  501    0  0.00000000000E+00  0.00000000000E+00  0.13267413202E+04  0.13267413202E+04  0.50400001928E-02 0. -1.
       -1   -1    0    0    0  501  0.00000000000E+00  0.00000000000E+00 -0.10842665689E+04  0.10842665689E+04  0.50400001928E-02 0.  1.
    10030    2    1    2    0    0  0.00000000000E+00  0.00000000000E+00  0.24247475126E+03  0.24110078891E+04  0.23987840745E+04 0.  0.
        3    1    3    3  502    0 -0.57922726683E+03 -0.19037526763E+03  0.11593579866E+04  0.13099076000E+04  0.10100000352E+00 0. -1.
       -3    1    3    3    0  502  0.57922726683E+03  0.19037526763E+03 -0.91688323535E+03  0.11011002891E+04  0.10100000352E+00 0.  1.
</event>
<event>
 5   0  0.5268358E-06  0.2400981E+04  0.7818609E-02  0.8439136E-01
        2   -1    0    0  501    0  0.00000000000E+00  0.00000000000E+00  0.17849230386E+04  0.17849230386E+04  0.25500000920E-02 0. -1.
       -2   -1    0    0    0  501  0.00000000000E+00  0.00000000000E+00 -0.80741695429E+03  0.80741695430E+03  0.25500000920E-02 0.  1.
    10030    2    1    2    0    0  0.00000000000E+00  0.00000000000E+00  0.97750608432E+03  0.25923399929E+04  0.24009807359E+04 0.  0.
        2    1    3    3  502    0  0.32376131942E+03  0.52519087897E+03  0.16006507098E+04  0.17154385871E+04  0.25500000920E-02 0. -1.
       -2    1    3    3    0  502 -0.32376131942E+03 -0.52519087897E+03 -0.62314462546E+03  0.87690140583E+03  0.25500000920E-02 0.  1.
</event>
<event>
 5   0  0.2254269E-06  0.2390115E+04  0.7818609E-02  0.8443214E-01
       -1   -1    0    0    0  501  0.00000000000E+00  0.00000000000E+00  0.15426901531E+04  0.15426901531E+04  0.50400001928E-02 0. -1.
        1   -1    0    0  501    0  0.00000000000E+00  0.00000000000E+00 -0.92576072865E+03  0.92576072867E+03  0.50400001928E-02 0.  1.
    10030    2    1    2    0    0  0.00000000000E+00  0.00000000000E+00  0.61692942443E+03  0.24684508818E+04  0.23901146083E+04 0.  0.
        2    1    3    3  502    0 -0.63503281639E+03  0.78470043867E+03  0.96906993272E+03  0.13993276924E+04  0.25500000920E-02 0. -1.
       -2    1    3    3    0  502  0.63503281639E+03 -0.78470043867E+03 -0.35214050829E+03  0.10691231893E+04  0.25500000920E-02 0.  1.
</event>
<event>
 5   0  0.2149417E-06  0.2404927E+04  0.7818609E-02  0.8437661E-01
        1   -1    0    0  501    0  0.00000000000E+00  0.00000000000E+00  0.78784580146E+03  0.78784580148E+03  0.50400001928E-02 0. -1.
       -1   -1    0    0    0  501  0.00000000000E+00  0.00000000000E+00 -0.18352803085E+04  0.18352803085E+04  0.50400001928E-02 0.  1.
    10030    2    1    2    0    0  0.00000000000E+00  0.00000000000E+00 -0.10474345070E+04  0.26231261100E+04  0.24049265150E+04 0.  0.
        5    1    3    3  502    0 -0.41747732567E+03 -0.76316719380E+02 -0.17508659804E+04  0.18015730156E+04  0.46999998093E+01 0.  1.
       -5    1    3    3    0  502  0.41747732567E+03  0.76316719380E+02  0.70343147340E+03  0.82155309438E+03  0.46999998093E+01 0. -1.
</event>
<event>
 5   0  0.5349036E-06  0.2402021E+04  0.7818609E-02  0.8438747E-01
       -2   -1    0    0    0  501  0.00000000000E+00  0.00000000000E+00  0.10041569257E+04  0.10041569257E+04  0.25500000920E-02 0. -1.
        2   -1    0    0  501    0  0.00000000000E+00  0.00000000000E+00 -0.14364555437E+04  0.14364555437E+04  0.25500000920E-02 0.  1.
    10030    2    1    2    0    0  0.00000000000E+00  0.00000000000E+00 -0.43229861800E+03  0.24406124694E+04  0.24020214676E+04 0.  0.
        1    1    3    3  502    0 -0.91765006084E+03 -0.29375102594E+03  0.51234630149E+03  0.10912699171E+04  0.50400001928E-02 0. -1.
       -1    1    3    3    0  502  0.91765006084E+03  0.29375102594E+03 -0.94464491949E+03  0.13493425523E+04  0.50400001928E-02 0.  1.
</event>
<event>
 5   0  0.5268358E-06  0.2400154E+04  0.7818609E-02  0.8439446E-01
       -2   -1    0    0    0  501  0.00000000000E+00  0.00000000000E+00  0.95273966629E+03  0.95273966630E+03  0.25500000920E-02 0.  1.
        2   -1    0    0  501    0  0.00000000000E+00  0.00000000000E+00 -0.15116251600E+04  0.15116251600E+04  0.25500000920E-02 0. -1.
    10030    2    1    2    0    0  0.00000000000E+00  0.00000000000E+00 -0.55888549375E+03  0.24643648263E+04  0.24001543705E+04 0.  0.
        2    1    3    3  502    0 -0.10830983217E+04  0.34676495497E+03  0.11400230138E+03  0.11429542568E+04  0.25500000920E-02 0.  1.
       -2    1    3    3    0  502  0.10830983217E+04 -0.34676495497E+03 -0.67288779513E+03  0.13214105695E+04  0.25500000920E-02 0. -1.
</event>
<event>
 5   0  0.5371843E-06  0.2401352E+04  0.7818609E-02  0.8438998E-01
       -2   -1    0    0    0  501  0.00000000000E+00  0.00000000000E+00  0.96384776799E+03  0.96384776800E+03  0.25500000920E-02 0.  1.
        2   -1    0    0  501    0  0.00000000000E+00  0.00000000000E+00 -0.14956952448E+04  0.14956952449E+04  0.25500000920E-02 0. -1.
    10030    2    1    2    0    0  0.00000000000E+00  0.00000000000E+00 -0.53184747685E+03  0.24595430128E+04  0.24013517221E+04 0.  0.
        4    1    3    3  502    0  0.54120939008E+03 -0.56695903828E+03 -0.11975087293E+04  0.14312158903E+04  0.12699999809E+01 0. -1.
       -4    1    3    3    0  502 -0.54120939008E+03  0.56695903828E+03  0.66566125247E+03  0.10283271225E+04  0.12699999809E+01 0.  1.
</event>
<event>
 5   0  0.5379778E-06  0.2400828E+04  0.7818609E-02  0.8439193E-01
       -2   -1    0    0    0  501  0.00000000000E+00  0.00000000000E+00  0.54249003708E+03  0.54249003709E+03  0.25500000920E-02 0.  1.
        2   -1    0    0  501    0  0.00000000000E+00  0.00000000000E+00 -0.26562595547E+04  0.26562595547E+04  0.25500000920E-02 0. -1.
    10030    2    1    2    0    0  0.00000000000E+00  0.00000000000E+00 -0.21137695177E+04  0.31987495918E+04  0.24008284773E+04 0.  0.
        5    1    3    3  502    0 -0.83356869005E+03  0.18781605863E+03 -0.21802250551E+04  0.23416906316E+04  0.46999998093E+01 0. -1.
       -5    1    3    3    0  502  0.83356869005E+03 -0.18781605863E+03  0.66455537469E+02  0.85705896027E+03  0.46999998093E+01 0.  1.
</event>
<event>
 5   0  0.5371843E-06  0.2399239E+04  0.7818609E-02  0.8439788E-01
       -2   -1    0    0    0  501  0.00000000000E+00  0.00000000000E+00  0.11843161800E+04  0.11843161800E+04  0.25500000920E-02 0.  1.
        2   -1    0    0  501    0  0.00000000000E+00  0.00000000000E+00 -0.12151210376E+04  0.12151210376E+04  0.25500000920E-02 0. -1.
    10030    2    1    2    0    0  0.00000000000E+00  0.00000000000E+00 -0.30804857595E+02  0.23994372176E+04  0.23992394674E+04 0.  0.
        4    1    3    3  502    0 -0.60115981881E+03  0.25677848348E+03  0.99054208478E+03  0.11868039231E+04  0.12699999809E+01 0. -1.
       -4    1    3    3    0  502  0.60115981881E+03 -0.25677848348E+03 -0.10213469424E+04  0.12126332945E+04  0.12699999809E+01 0.  1.
</event>
<event>
 5   0  0.5349036E-06  0.2386480E+04  0.7818609E-02  0.8444583E-01
       -2   -1    0    0    0  501  0.00000000000E+00  0.00000000000E+00  0.69929646468E+03  0.69929646468E+03  0.25500000920E-02 0. -1.
        2   -1    0    0  501    0  0.00000000000E+00  0.00000000000E+00 -0.20360774162E+04  0.20360774162E+04  0.25500000920E-02 0.  1.
    10030    2    1    2    0    0  0.00000000000E+00  0.00000000000E+00 -0.13367809515E+04  0.27353738809E+04  0.23864800346E+04 0.  0.
        1    1    3    3  502    0 -0.53063206352E+03  0.57884627773E+03 -0.16981749264E+04  0.18709440079E+04  0.50400001928E-02 0.  1.
       -1    1    3    3    0  502  0.53063206352E+03 -0.57884627773E+03  0.36139397492E+03  0.86442987293E+03  0.50400001928E-02 0. -1.
</event>
<event>
 5   0  0.2149029E-06  0.2392012E+04  0.7818609E-02  0.8442500E-01
       -1   -1    0    0    0  501  0.00000000000E+00  0.00000000000E+00  0.94299104925E+03  0.94299104926E+03  0.50400001928E-02 0.  1.
        1   -1    0    0  501    0  0.00000000000E+00  0.00000000000E+00 -0.15169072385E+04  0.15169072385E+04  0.50400001928E-02 0. -1.
    10030    2    1    2    0    0  0.00000000000E+00  0.00000000000E+00 -0.57391618927E+03  0.24598982878E+04  0.23920116626E+04 0.  0.
        4    1    3    3  502    0 -0.17219207216E+02  0.11950229978E+04 -0.33354122841E+03  0.12408174041E+04  0.12699999809E+01 0. -1.
       -4    1    3    3    0  502  0.17219207216E+02 -0.11950229978E+04 -0.24037496086E+03  0.12190808837E+04  0.12699999809E+01 0.  1.
</event>
<event>
 5   0  0.5268358E-06  0.2401283E+04  0.7818609E-02  0.8439023E-01
       -2   -1    0    0    0  501  0.00000000000E+00  0.00000000000E+00  0.73594172772E+03  0.73594172772E+03  0.25500000920E-02 0. -1.
        2   -1    0    0  501    0  0.00000000000E+00  0.00000000000E+00 -0.19587693557E+04  0.19587693557E+04  0.25500000920E-02 0.  1.
    10030    2    1    2    0    0  0.00000000000E+00  0.00000000000E+00 -0.12228276280E+04  0.26947110835E+04  0.24012830769E+04 0.  0.
        2    1    3    3  502    0  0.33229756223E+03  0.18371213120E+02  0.68314603533E+03  0.75989978085E+03  0.25500000920E-02 0. -1.
       -2    1    3    3    0  502 -0.33229756223E+03 -0.18371213120E+02 -0.19059736633E+04  0.19348113026E+04  0.25500000920E-02 0.  1.
</event>
<event>
 5   0  0.5440503E-06  0.2403402E+04  0.7818609E-02  0.8438231E-01
       -2   -1    0    0    0  501  0.00000000000E+00  0.00000000000E+00  0.11200431972E+04  0.11200431972E+04  0.25500000920E-02 0. -1.
        2   -1    0    0  501    0  0.00000000000E+00  0.00000000000E+00 -0.12893120714E+04  0.12893120714E+04  0.25500000920E-02 0.  1.
    10030    2    1    2    0    0  0.00000000000E+00  0.00000000000E+00 -0.16926887421E+03  0.24093552687E+04  0.24034019345E+04 0.  0.
        3    1    3    3  502    0  0.18029983107E+03 -0.10250929537E+04 -0.68675657640E+03  0.12469796302E+04  0.10100000352E+00 0.  1.
       -3    1    3    3    0  502 -0.18029983107E+03  0.10250929537E+04  0.51748770219E+03  0.11623756385E+04  0.10100000352E+00 0. -1.
</event>
<event>
 5   0  0.2254269E-06  0.2392003E+04  0.7818609E-02  0.8442504E-01
       -1   -1    0    0    0  501  0.00000000000E+00  0.00000000000E+00  0.11908043143E+04  0.11908043143E+04  0.50400001928E-02 0. -1.
        1   -1    0    0  501    0  0.00000000000E+00  0.00000000000E+00 -0.12012210967E+04  0.12012210967E+04  0.50400001928E-02 0.  1.
    10030    2    1    2    0    0  0.00000000000E+00  0.00000000000E+00 -0.10416782434E+02  0.23920254110E+04  0.23920027294E+04 0.  0.
        2    1    3    3  502    0  0.62967218572E+03  0.81727078699E+03 -0.61019401478E+03  0.11986472944E+04  0.25500000920E-02 0.  1.
       -2    1    3    3    0  502 -0.62967218572E+03 -0.81727078699E+03  0.59977723235E+03  0.11933781166E+04  0.25500000920E-02 0. -1.
</event>
<event>
 5   0  0.5349036E-06  0.2394973E+04  0.7818609E-02  0.8441388E-01
       -2   -1    0    0    0  501  0.00000000000E+00  0.00000000000E+00  0.61651858203E+03  0.61651858203E+03  0.25500000920E-02 0. -1.
        2   -1    0    0  501    0  0.00000000000E+00  0.00000000000E+00 -0.23259215752E+04  0.23259215752E+04  0.25500000920E-02 0.  1.
    10030    2    1    2    0    0  0.00000000000E+00  0.00000000000E+00 -0.17094029931E+04  0.29424401572E+04  0.23949729614E+04 0.  0.
        1    1    3    3  502    0  0.11987934489E+03 -0.86298070514E+03  0.15458893958E+03  0.88487541216E+03  0.50400001928E-02 0. -1.
       -1    1    3    3    0  502 -0.11987934489E+03  0.86298070514E+03 -0.18639919327E+04  0.20575647450E+04  0.50400001928E-02 0.  1.
</event>
<event>
 5   0  0.2297414E-06  0.2398984E+04  0.7818609E-02  0.8439884E-01
       -1   -1    0    0    0  501  0.00000000000E+00  0.00000000000E+00  0.91673479082E+03  0.91673479084E+03  0.50400001928E-02 0.  1.
        1   -1    0    0  501    0  0.00000000000E+00  0.00000000000E+00 -0.15694631979E+04  0.15694631979E+04  0.50400001928E-02 0. -1.
    10030    2    1    2    0    0  0.00000000000E+00  0.00000000000E+00 -0.65272840705E+03  0.24861979887E+04  0.23989843821E+04 0.  0.
        1    1    3    3  502    0  0.52340934848E+03 -0.98874622991E+03 -0.77476573314E+03  0.13608226903E+04  0.50400001928E-02 0.  1.
       -1    1    3    3    0  502 -0.52340934848E+03  0.98874622991E+03  0.12203732609E+03  0.11253752984E+04  0.50400001928E-02 0. -1.
</event>
<event>
 5   0  0.5268358E-06  0.2382779E+04  0.7818609E-02  0.8445979E-01
        2   -1    0    0  501    0  0.00000000000E+00  0.00000000000E+00  0.14856901055E+04  0.14856901055E+04  0.25500000920E-02 0.  1.
       -2   -1    0    0    0  501  0.00000000000E+00  0.00000000000E+00 -0.95538680446E+03  0.95538680447E+03  0.25500000920E-02 0. -1.
    10030    2    1    2    0    0  0.00000000000E+00  0.00000000000E+00  0.53030330104E+03  0.24410769100E+04  0.23827788167E+04 0.  0.
        2    1    3    3  502    0 -0.50743679635E+03 -0.10040738973E+04 -0.13655446386E+03  0.11332712011E+04  0.25500000920E-02 0. -1.
       -2    1    3    3    0  502  0.50743679635E+03  0.10040738973E+04  0.66685776490E+03  0.13078057089E+04  0.25500000920E-02 0.  1.
</event>
<event>
 5   0  0.2149417E-06  0.2401575E+04  0.7818609E-02  0.8438914E-01
       -1   -1    0    0    0  501  0.00000000000E+00  0.00000000000E+00  0.91516574471E+03  0.91516574472E+03  0.50400001928E-02 0.  1.
        1   -1    0    0  501    0  0.00000000000E+00  0.00000000000E+00 -0.15755516388E+04  0.15755516388E+04  0.50400001928E-02 0. -1.
    10030    2    1    2    0    0  0.00000000000E+00  0.00000000000E+00 -0.66038589408E+03  0.24907173835E+04  0.24015752238E+04 0.  0.
        5    1    3    3  502    0  0.10382308617E+04 -0.56266516086E+03 -0.10450736703E+03  0.11855206810E+04  0.46999998093E+01 0.  1.
       -5    1    3    3    0  502 -0.10382308617E+04  0.56266516086E+03 -0.55587852704E+03  0.13051967025E+04  0.46999998093E+01 0. -1.
</event>
<event>
 5   0  0.5379778E-06  0.2398178E+04  0.7818609E-02  0.8440186E-01
       -2   -1    0    0    0  501  0.00000000000E+00  0.00000000000E+00  0.11129972202E+04  0.11129972202E+04  0.25500000920E-02 0. -1.
        2   -1    0    0  501    0  0.00000000000E+00  0.00000000000E+00 -0.12918406280E+04  0.12918406280E+04  0.25500000920E-02 0.  1.
    10030    2    1    2    0    0  0.00000000000E+00  0.00000000000E+00 -0.17884340785E+03  0.24048378482E+04  0.23981784987E+04 0.  0.
        5    1    3    3  502    0 -0.39822709734E+03  0.59238483091E+03  0.87673092203E+03  0.11305679142E+04  0.46999998093E+01 0. -1.
       -5    1    3    3    0  502  0.39822709734E+03 -0.59238483091E+03 -0.10555743299E+04  0.12742699341E+04  0.46999998093E+01 0.  1.
</event>
<event>
 5   0  0.2149029E-06  0.2395699E+04  0.7818609E-02  0.8441116E-01
       -1   -1    0    0    0  501  0.00000000000E+00  0.00000000000E+00  0.10235961932E+04  0.10235961932E+04  0.50400001928E-02 0. -1.
        1   -1    0    0  501    0  0.00000000000E+00  0.00000000000E+00 -0.14017671035E+04  0.14017671036E+04  0.50400001928E-02 0.  1.
    10030    2    1    2    0    0  0.00000000000E+00  0.00000000000E+00 -0.37817091033E+03  0.24253632968E+04  0.23956990387E+04 0.  0.
        4    1    3    3  502    0  0.69817378649E+03 -0.62819789781E+03 -0.94177152243E+03  0.13300430250E+04  0.12699999809E+01 0.  1.
       -4    1    3    3    0  502 -0.69817378649E+03  0.62819789781E+03  0.56360061210E+03  0.10953202718E+04  0.12699999809E+01 0. -1.
</event>
<event>
 5   0  0.5371843E-06  0.2400470E+04  0.7818609E-02  0.8439328E-01
        2   -1    0    0  501    0  0.00000000000E+00  0.00000000000E+00  0.20561107297E+04  0.20561107297E+04  0.25500000920E-02 0.  1.
       -2   -1    0    0    0  501  0.00000000000E+00  0.00000000000E+00 -0.70062589499E+03  0.70062589499E+03  0.25500000920E-02 0. -1.
    10030    2    1    2    0    0  0.00000000000E+00  0.00000000000E+00  0.13554848347E+04  0.27567366247E+04  0.24004703041E+04 0.  0.
        4    1    3    3  502    0 -0.21804326984E+03 -0.73987697054E+03  0.17337862418E+04  0.18976240788E+04  0.12699999809E+01 0.  1.
       -4    1    3    3    0  502  0.21804326984E+03  0.73987697054E+03 -0.37830140712E+03  0.85911254593E+03  0.12699999809E+01 0. -1.
</event>
<event>
 5   0  0.2297414E-06  0.2408717E+04  0.7818609E-02  0.8436247E-01
       -1   -1    0    0    0  501  0.00000000000E+00  0.00000000000E+00  0.85628649802E+03  0.85628649804E+03  0.50400001928E-02 0.  1.
        1   -1    0    0  501    0  0.00000000000E+00  0.00000000000E+00 -0.16939181206E+04  0.16939181206E+04  0.50400001928E-02 0. -1.
    10030    2    1    2    0    0  0.00000000000E+00  0.00000000000E+00 -0.83763162254E+03  0.25502046186E+04  0.24087168496E+04 0.  0.
        1    1    3    3  502    0 -0.64244955365E+03  0.90063268848E+03  0.85169451822E+02  0.11095650067E+04  0.50400001928E-02 0.  1.
       -1    1    3    3    0  502  0.64244955365E+03 -0.90063268848E+03 -0.92280107436E+03  0.14406396119E+04  0.50400001928E-02 0. -1.
</event>
<event>
 5   0  0.5349036E-06  0.2403702E+04  0.7818609E-02  0.8438119E-01
        2   -1    0    0  501    0  0.00000000000E+00  0.00000000000E+00  0.99590683191E+03  0.99590683191E+03  0.25500000920E-02 0.  1.
       -2   -1    0    0    0  501  0.00000000000E+00  0.00000000000E+00 -0.14503828492E+04  0.14503828492E+04  0.25500000920E-02 0. -1.
    10030    2    1    2    0    0  0.00000000000E+00  0.00000000000E+00 -0.45447601730E+03  0.24462896811E+04  0.24037023014E+04 0.  0.
        1    1    3    3  502    0  0.37045952108E+03 -0.56739488904E+03  0.78295557828E+03  0.10354692919E+04  0.50400001928E-02 0.  1.
       -1    1    3    3    0  502 -0.37045952108E+03  0.56739488904E+03 -0.12374315956E+04  0.14108203892E+04  0.50400001928E-02 0. -1.
</event>
<event>
 5   0  0.2149029E-06  0.2405851E+04  0.7818609E-02  0.8437316E-01
       -1   -1    0    0    0  501  0.00000000000E+00  0.00000000000E+00  0.14278869412E+04  0.14278869412E+04  0.50400001928E-02 0. -1.
        1   -1    0    0  501    0  0.00000000000E+00  0.00000000000E+00 -0.10134061149E+04  0.10134061149E+04  0.50400001928E-02 0.  1.
    10030    2    1    2    0    0  0.00000000000E+00  0.00000000000E+00  0.41448082629E+03  0.24412930561E+04  0.24058506666E+04 0.  0.
        4    1    3    3  502    0  0.70972311047E+03  0.15775704766E+03 -0.76522714622E+03  0.10555417461E+04  0.12699999809E+01 0.  1.
       -4    1    3    3    0  502 -0.70972311047E+03 -0.15775704766E+03  0.11797079725E+04  0.13857513099E+04  0.12699999809E+01 0. -1.
</event>
<event>
 5   0  0.5440503E-06  0.2405944E+04  0.7818609E-02  0.8437282E-01
       -2   -1    0    0    0  501  0.00000000000E+00  0.00000000000E+00  0.99235763473E+03  0.99235763473E+03  0.25500000920E-02 0. -1.
        2   -1    0    0  501    0  0.00000000000E+00  0.00000000000E+00 -0.14582864464E+04  0.14582864464E+04  0.25500000920E-02 0.  1.
    10030    2    1    2    0    0  0.00000000000E+00  0.00000000000E+00 -0.46592881165E+03  0.24506440811E+04  0.24059440465E+04 0.  0.
        3    1    3    3  502    0 -0.36919098586E+03 -0.26760099330E+03 -0.13668534857E+04  0.14409027508E+04  0.10100000352E+00 0.  1.
       -3    1    3    3    0  502  0.36919098586E+03  0.26760099330E+03  0.90092467405E+03  0.10097413303E+04  0.10100000352E+00 0. -1.
</event>
<event>
 5   0  0.2215700E-06  0.2395040E+04  0.7818609E-02  0.8441363E-01
       -1   -1    0    0    0  501  0.00000000000E+00  0.00000000000E+00  0.91018594031E+03  0.91018594032E+03  0.50400001928E-02 0. -1.
        1   -1    0    0  501    0  0.00000000000E+00  0.00000000000E+00 -0.15755619142E+04  0.15755619142E+04  0.50400001928E-02 0.  1.
    10030    2    1    2    0    0  0.00000000000E+00  0.00000000000E+00 -0.66537597393E+03  0.24857478546E+04  0.23950401270E+04 0.  0.
        3    1    3    3  502    0 -0.41359019633E+03 -0.63582423944E+03  0.62908223627E+03  0.98543076071E+03  0.10100000352E+00 0. -1.
       -3    1    3    3    0  502  0.41359019633E+03  0.63582423944E+03 -0.12944582102E+04  0.15003170939E+04  0.10100000352E+00 0.  1.
</event>
<event>
 5   0  0.5349036E-06  0.2430926E+04  0.7818609E-02  0.8428015E-01
       -2   -1    0    0    0  501  0.00000000000E+00  0.00000000000E+00  0.11514973076E+04  0.11514973076E+04  0.25500000920E-02 0.  1.
        2   -1    0    0  501    0  0.00000000000E+00  0.00000000000E+00 -0.12829815035E+04  0.12829815035E+04  0.25500000920E-02 0. -1.
    10030    2    1    2    0    0  0.00000000000E+00  0.00000000000E+00 -0.13148419590E+03  0.24344788110E+04  0.24309255413E+04 0.  0.
        1    1    3    3  502    0 -0.50035195107E+03  0.11075688841E+04 -0.82762202836E+02  0.12181586474E+04  0.50400001928E-02 0.  1.
       -1    1    3    3    0  502  0.50035195107E+03 -0.11075688841E+04 -0.48721993066E+02  0.12163201637E+04  0.50400001928E-02 0. -1.
</event>
<event>
 5   0  0.2149029E-06  0.2397105E+04  0.7818609E-02  0.8440588E-01
        1   -1    0    0  501    0  0.00000000000E+00  0.00000000000E+00  0.16290552918E+04  0.16290552918E+04  0.50400001928E-02 0.  1.
       -1   -1    0    0    0  501  0.00000000000E+00  0.00000000000E+00 -0.88181683452E+03  0.88181683453E+03  0.50400001928E-02 0. -1.
    10030    2    1    2    0    0  0.00000000000E+00  0.00000000000E+00  0.74723845731E+03  0.25108721264E+04  0.23971052382E+04 0.  0.
        4    1    3    3  502    0  0.11534936650E+04 -0.17709618317E+02  0.71410902771E+03  0.13567662223E+04  0.12699999809E+01 0.  1.
       -4    1    3    3    0  502 -0.11534936650E+04  0.17709618317E+02  0.33129429598E+02  0.11541059040E+04  0.12699999809E+01 0. -1.
</event>
<event>
 5   0  0.5440503E-06  0.2400255E+04  0.7818609E-02  0.8439408E-01
       -2   -1    0    0    0  501  0.00000000000E+00  0.00000000000E+00  0.11793910592E+04  0.11793910592E+04  0.25500000920E-02 0. -1.
        2   -1    0    0  501    0  0.00000000000E+00  0.00000000000E+00 -0.12212287672E+04  0.12212287672E+04  0.25500000920E-02 0.  1.
    10030    2    1    2    0    0  0.00000000000E+00  0.00000000000E+00 -0.41837708037E+02  0.24006198264E+04  0.24002552275E+04 0.  0.
        3    1    3    3  502    0  0.89681579663E+03 -0.71729362424E+02  0.77348298468E+03  0.11864651753E+04  0.10100000352E+00 0. -1.
       -3    1    3    3    0  502 -0.89681579663E+03  0.71729362424E+02 -0.81532069272E+03  0.12141546511E+04  0.10100000352E+00 0.  1.
</event>
<event>
 5   0  0.2149029E-06  0.2393925E+04  0.7818609E-02  0.8441781E-01
        1   -1    0    0  501    0  0.00000000000E+00  0.00000000000E+00  0.16650352745E+04  0.16650352745E+04  0.50400001928E-02 0.  1.
       -1   -1    0    0    0  501  0.00000000000E+00  0.00000000000E+00 -0.86047400185E+03  0.86047400186E+03  0.50400001928E-02 0. -1.
    10030    2    1    2    0    0  0.00000000000E+00  0.00000000000E+00  0.80456127265E+03  0.25255092764E+04  0.23939252836E+04 0.  0.
        4    1    3    3  502    0  0.75995844839E+03 -0.73067757424E+03  0.10002623751E+04  0.14532559970E+04  0.12699999809E+01 0.  1.
       -4    1    3    3    0  502 -0.75995844839E+03  0.73067757424E+03 -0.19570110245E+03  0.10722532794E+04  0.12699999809E+01 0. -1.
</event>
<event>
 5   0  0.1796750E-06  0.2395963E+04  0.7818609E-02  0.8441017E-01
       -3   -1    0    0    0  501  0.00000000000E+00  0.00000000000E+00  0.18069359230E+04  0.18069359258E+04  0.10100000352E+00 0. -1.
        3   -1    0    0  501    0  0.00000000000E+00  0.00000000000E+00 -0.79425015763E+03  0.79425016406E+03  0.10100000352E+00 0.  1.
    10030    2    1    2    0    0  0.00000000000E+00  0.00000000000E+00  0.10126857654E+04  0.26011860899E+04  0.23959625654E+04 0.  0.
        3    1    3    3  502    0  0.90766744795E+03  0.22350122850E+03  0.13197477524E+04  0.16172653262E+04  0.10100000352E+00 0. -1.
       -3    1    3    3    0  502 -0.90766744795E+03 -0.22350122850E+03 -0.30706198698E+03  0.98392076371E+03  0.10100000352E+00 0.  1.
</event>
<event>
 5   0  0.2149029E-06  0.2395599E+04  0.7818609E-02  0.8441153E-01
        1   -1    0    0  501    0  0.00000000000E+00  0.00000000000E+00  0.13223620056E+04  0.13223620056E+04  0.50400001928E-02 0.  1.
       -1   -1    0    0    0  501  0.00000000000E+00  0.00000000000E+00 -0.10849707825E+04  0.10849707825E+04  0.50400001928E-02 0. -1.
    10030    2    1    2    0    0  0.00000000000E+00  0.00000000000E+00  0.23739122309E+03  0.24073327881E+04  0.23955994156E+04 0.  0.
        4    1    3    3  502    0  0.69818323257E+03  0.15269433336E+03  0.10846252578E+04  0.12989183764E+04  0.12699999809E+01 0.  1.
       -4    1    3    3    0  502 -0.69818323257E+03 -0.15269433336E+03 -0.84723403471E+03  0.11084144117E+04  0.12699999809E+01 0. -1.
</event>
<event>
 5   0  0.2149417E-06  0.2399455E+04  0.7818609E-02  0.8439708E-01
       -1   -1    0    0    0  501  0.00000000000E+00  0.00000000000E+00  0.73625181960E+03  0.73625181962E+03  0.50400001928E-02 0.  1.
        1   -1    0    0  501    0  0.00000000000E+00  0.00000000000E+00 -0.19549647257E+04  0.19549647257E+04  0.50400001928E-02 0. -1.
    10030    2    1    2    0    0  0.00000000000E+00  0.00000000000E+00 -0.12187129061E+04  0.26912165453E+04  0.23994552187E+04 0.  0.
        5    1    3    3  502    0  0.44509975040E+02 -0.11307144521E+04 -0.10563481355E+04  0.15480277076E+04  0.46999998093E+01 0. -1.
       -5    1    3    3    0  502 -0.44509975040E+02  0.11307144521E+04 -0.16236477064E+03  0.11431888378E+04  0.46999998093E+01 0.  1.
</event>
<event>
 5   0  0.5268358E-06  0.2402425E+04  0.7818609E-02  0.8438596E-01
       -2   -1    0    0    0  501  0.00000000000E+00  0.00000000000E+00  0.28313734210E+04  0.28313734210E+04  0.25500000920E-02 0.  1.
        2   -1    0    0  501    0  0.00000000000E+00  0.00000000000E+00 -0.50961530392E+03  0.50961530393E+03  0.25500000920E-02 0. -1.
    10030    2    1    2    0    0  0.00000000000E+00  0.00000000000E+00  0.23217581171E+04  0.33409887249E+04  0.24024247971E+04 0.  0.
        2    1    3    3  502    0 -0.77863605494E+03  0.56953988425E+03  0.21562181048E+04  0.23621867626E+04  0.25500000920E-02 0.  1.
       -2    1    3    3    0  502  0.77863605494E+03 -0.56953988425E+03  0.16554001225E+03  0.97880196234E+03  0.25500000920E-02 0. -1.
</event>
<event>
 5   0  0.5371843E-06  0.2402514E+04  0.7818609E-02  0.8438563E-01
        2   -1    0    0  501    0  0.00000000000E+00  0.00000000000E+00  0.14799665214E+04  0.14799665214E+04  0.25500000920E-02 0.  1.
       -2   -1    0    0    0  501  0.00000000000E+00  0.00000000000E+00 -0.97503409768E+03  0.97503409768E+03  0.25500000920E-02 0. -1.
    10030    2    1    2    0    0  0.00000000000E+00  0.00000000000E+00  0.50493242375E+03  0.24550006191E+04  0.24025135353E+04 0.  0.
        4    1    3    3  502    0 -0.67562641888E+02  0.66484369534E+03  0.12724895538E+04  0.14372936816E+04  0.12699999809E+01 0.  1.
       -4    1    3    3    0  502  0.67562641888E+02 -0.66484369534E+03 -0.76755713005E+03  0.10177069375E+04  0.12699999809E+01 0. -1.
</event>
<event>
 5   0  0.5379778E-06  0.2400776E+04  0.7818609E-02  0.8439213E-01
        2   -1    0    0  501    0  0.00000000000E+00  0.00000000000E+00  0.25258393582E+04  0.25258393582E+04  0.25500000920E-02 0.  1.
       -2   -1    0    0    0  501  0.00000000000E+00  0.00000000000E+00 -0.57047639770E+03  0.57047639771E+03  0.25500000920E-02 0. -1.
    10030    2    1    2    0    0  0.00000000000E+00  0.00000000000E+00  0.19553629605E+04  0.30963157559E+04  0.24007763230E+04 0.  0.
        5    1    3    3  502    0  0.95574487377E+03 -0.23497173020E+03  0.91384284491E+02  0.98844987489E+03  0.46999998093E+01 0. -1.
       -5    1    3    3    0  502 -0.95574487377E+03  0.23497173020E+03  0.18639786760E+04  0.21078658810E+04  0.46999998093E+01 0.  1.
</event>
<event>
 5   0  0.2254269E-06  0.2400656E+04  0.7818609E-02  0.8439258E-01
        1   -1    0    0  501    0  0.00000000000E+00  0.00000000000E+00  0.16256648736E+04  0.16256648736E+04  0.50400001928E-02 0.  1.
       -1   -1    0    0    0  501  0.00000000000E+00  0.00000000000E+00 -0.88627550692E+03  0.88627550693E+03  0.50400001928E-02 0. -1.
    10030    2    1    2    0    0  0.00000000000E+00  0.00000000000E+00  0.73938936664E+03  0.25119403805E+04  0.24006557104E+04 0.  0.
        2    1    3    3  502    0  0.66280147451E+03  0.93129567724E+03  0.75296606409E+03  0.13687860778E+04  0.25500000920E-02 0.  1.
       -2    1    3    3    0  502 -0.66280147451E+03 -0.93129567724E+03 -0.13576697455E+02  0.11431543027E+04  0.25500000920E-02 0. -1.
</event>
<event>
 5   0  0.2149029E-06  0.2399372E+04  0.7818609E-02  0.8439739E-01
        1   -1    0    0  501    0  0.00000000000E+00  0.00000000000E+00  0.16044070278E+04  0.16044070278E+04  0.50400001928E-02 0.  1.
       -1   -1    0    0    0  501  0.00000000000E+00  0.00000000000E+00 -0.89705840629E+03  0.89705840631E+03  0.50400001928E-02 0. -1.
    10030    2    1    2    0    0  0.00000000000E+00  0.00000000000E+00  0.70734862154E+03  0.25014654341E+04  0.23993722608E+04 0.  0.
        4    1    3    3  502    0  0.19571507746E+03 -0.17928942825E+03 -0.86606284416E+03  0.90582313591E+03  0.12699999809E+01 0. -1.
       -4    1    3    3    0  502 -0.19571507746E+03  0.17928942825E+03  0.15734114657E+04  0.15956422982E+04  0.12699999809E+01 0.  1.
</event>
<event>
 5   0  0.2297414E-06  0.2373667E+04  0.7818609E-02  0.8449429E-01
        1   -1    0    0  501    0  0.00000000000E+00  0.00000000000E+00  0.16063620876E+04  0.16063620876E+04  0.50400001928E-02 0.  1.
       -1   -1    0    0    0  501  0.00000000000E+00  0.00000000000E+00 -0.87687185357E+03  0.87687185358E+03  0.50400001928E-02 0. -1.
    10030    2    1    2    0    0  0.00000000000E+00  0.00000000000E+00  0.72949023398E+03  0.24832339411E+04  0.23736669533E+04 0.  0.
        1    1    3    3  502    0 -0.11727762060E+04 -0.17007043527E+03  0.29657822760E+03  0.12215918415E+04  0.50400001928E-02 0. -1.
       -1    1    3    3    0  502  0.11727762060E+04  0.17007043527E+03  0.43291200638E+03  0.12616420996E+04  0.50400001928E-02 0.  1.
</event>
<event>
 5   0  0.5440503E-06  0.2401948E+04  0.7818609E-02  0.8438775E-01
        2   -1    0    0  501    0  0.00000000000E+00  0.00000000000E+00  0.11314093590E+04  0.11314093590E+04  0.25500000920E-02 0.  1.
       -2   -1    0    0    0  501  0.00000000000E+00  0.00000000000E+00 -0.12748158548E+04  0.12748158548E+04  0.25500000920E-02 0. -1.
    10030    2    1    2    0    0  0.00000000000E+00  0.00000000000E+00 -0.14340649582E+03  0.24062252138E+04  0.24019480337E+04 0.  0.
        3    1    3    3  502    0  0.65827415835E+03  0.65183275170E+03 -0.83734673887E+03  0.12487435185E+04  0.10100000352E+00 0.  1.
       -3    1    3    3    0  502 -0.65827415835E+03 -0.65183275170E+03  0.69394024305E+03  0.11574816953E+04  0.10100000352E+00 0. -1.
</event>
<event>
 5   0  0.5349036E-06  0.2398631E+04  0.7818609E-02  0.8440016E-01
        2   -1    0    0  501    0  0.00000000000E+00  0.00000000000E+00  0.14622425149E+04  0.14622425149E+04  0.25500000920E-02 0.  1.
       -2   -1    0    0    0  501  0.00000000000E+00  0.00000000000E+00 -0.98366558174E+03  0.98366558174E+03  0.25500000920E-02 0. -1.
    10030    2    1    2    0    0  0.00000000000E+00  0.00000000000E+00  0.47857693311E+03  0.24459080966E+04  0.23986309712E+04 0.  0.
        1    1    3    3  502    0  0.76359114527E+03 -0.28922009329E+03  0.11350315896E+04  0.13982190132E+04  0.50400001928E-02 0.  1.
       -1    1    3    3    0  502 -0.76359114527E+03  0.28922009329E+03 -0.65645465646E+03  0.10476890834E+04  0.50400001928E-02 0. -1.
</event>
<event>
 5   0  0.5379778E-06  0.2399712E+04  0.7818609E-02  0.8439611E-01
       -2   -1    0    0    0  501  0.00000000000E+00  0.00000000000E+00  0.13243461640E+04  0.13243461640E+04  0.25500000920E-02 0.  1.
        2   -1    0    0  501    0  0.00000000000E+00  0.00000000000E+00 -0.10870685135E+04  0.10870685135E+04  0.25500000920E-02 0. -1.
    10030    2    1    2    0    0  0.00000000000E+00  0.00000000000E+00  0.23727765058E+03  0.24114146775E+04  0.23997124960E+04 0.  0.
        5    1    3    3  502    0  0.11584800573E+04 -0.30824923319E+03  0.16927595634E+03  0.12106899158E+04  0.46999998093E+01 0.  1.
       -5    1    3    3    0  502 -0.11584800573E+04  0.30824923319E+03  0.68001694235E+02  0.12007247617E+04  0.46999998093E+01 0. -1.
</event>
<event>
 5   0  0.2149417E-06  0.2397615E+04  0.7818609E-02  0.8440397E-01
       -1   -1    0    0    0  501  0.00000000000E+00  0.00000000000E+00  0.17675669359E+04  0.17675669359E+04  0.50400001928E-02 0.  1.
        1   -1    0    0  501    0  0.00000000000E+00  0.00000000000E+00 -0.81306107368E+03  0.81306107370E+03  0.50400001928E-02 0. -1.
    10030    2    1    2    0    0  0.00000000000E+00  0.00000000000E+00  0.95450586223E+03  0.25806280096E+04  0.23976153743E+04 0.  0.
        5    1    3    3  502    0  0.76134139071E+03 -0.82029099890E+03  0.93969937047E+03  0.14613606786E+04  0.46999998093E+01 0.  1.
       -5    1    3    3    0  502 -0.76134139071E+03  0.82029099890E+03  0.14806491755E+02  0.11192673310E+04  0.46999998093E+01 0. -1.
</event>
<event>
 5   0  0.5268358E-06  0.2400164E+04  0.7818609E-02  0.8439442E-01
        2   -1    0    0  501    0  0.00000000000E+00  0.00000000000E+00  0.16824368998E+04  0.16824368998E+04  0.25500000920E-02 0.  1.
       -2   -1    0    0    0  501  0.00000000000E+00  0.00000000000E+00 -0.85601816476E+03  0.85601816477E+03  0.25500000920E-02 0. -1.
    10030    2    1    2    0    0  0.00000000000E+00  0.00000000000E+00  0.82641873507E+03  0.25384550646E+04  0.24001637839E+04 0.  0.
        2    1    3    3  502    0 -0.11770779031E+04  0.76609298314E+02  0.17953772222E+03  0.11931534555E+04  0.25500000920E-02 0.  1.
       -2    1    3    3    0  502  0.11770779031E+04 -0.76609298314E+02  0.64688101285E+03  0.13453016091E+04  0.25500000920E-02 0. -1.
</event>
<event>
 5   0  0.2297414E-06  0.2395345E+04  0.7818609E-02  0.8441248E-01
        1   -1    0    0  501    0  0.00000000000E+00  0.00000000000E+00  0.97587653899E+03  0.97587653901E+03  0.50400001928E-02 0.  1.
       -1   -1    0    0    0  501  0.00000000000E+00  0.00000000000E+00 -0.14698775696E+04  0.14698775696E+04  0.50400001928E-02 0. -1.
    10030    2    1    2    0    0  0.00000000000E+00  0.00000000000E+00 -0.49400103060E+03  0.24457541086E+04  0.23953446812E+04 0.  0.
        1    1    3    3  502    0 -0.38501982921E+03 -0.10375514023E+04 -0.71452959654E+03  0.13173100340E+04  0.50400001928E-02 0. -1.
       -1    1    3    3    0  502  0.38501982921E+03  0.10375514023E+04  0.22052856594E+03  0.11284440747E+04  0.50400001928E-02 0.  1.
</event>
<event>
 5   0  0.5440503E-06  0.2391629E+04  0.7818609E-02  0.8442644E-01
       -2   -1    0    0    0  501  0.00000000000E+00  0.00000000000E+00  0.73030062226E+03  0.73030062226E+03  0.25500000920E-02 0.  1.
        2   -1    0    0  501    0  0.00000000000E+00  0.00000000000E+00 -0.19580593017E+04  0.19580593017E+04  0.25500000920E-02 0. -1.
    10030    2    1    2    0    0  0.00000000000E+00  0.00000000000E+00 -0.12277586794E+04  0.26883599239E+04  0.23916286722E+04 0.  0.
        3    1    3    3  502    0 -0.21967752110E+03  0.21933762367E+03  0.68421788552E+03  0.75134634590E+03  0.10100000352E+00 0.  1.
       -3    1    3    3    0  502  0.21967752110E+03 -0.21933762367E+03 -0.19119765649E+04  0.19370135780E+04  0.10100000352E+00 0. -1.
</event>
<event>
 5   0  0.5268358E-06  0.2401297E+04  0.7818609E-02  0.8439018E-01
       -2   -1    0    0    0  501  0.00000000000E+00  0.00000000000E+00  0.86423097746E+03  0.86423097746E+03  0.25500000920E-02 0.  1.
        2   -1    0    0  501    0  0.00000000000E+00  0.00000000000E+00 -0.16680229783E+04  0.16680229783E+04  0.25500000920E-02 0. -1.
    10030    2    1    2    0    0  0.00000000000E+00  0.00000000000E+00 -0.80379200088E+03  0.25322539558E+04  0.24012972569E+04 0.  0.
        2    1    3    3  502    0  0.13707017810E+03 -0.13849817575E+03  0.84744509383E+03  0.86955917882E+03  0.25500000920E-02 0.  1.
       -2    1    3    3    0  502 -0.13707017810E+03  0.13849817575E+03 -0.16512370947E+04  0.16626947770E+04  0.25500000920E-02 0. -1.
</event>
<event>
 5   0  0.2215700E-06  0.2403405E+04  0.7818609E-02  0.8438230E-01
       -1   -1    0    0    0  501  0.00000000000E+00  0.00000000000E+00  0.13418103570E+04  0.13418103570E+04  0.50400001928E-02 0.  1.
        1   -1    0    0  501    0  0.00000000000E+00  0.00000000000E+00 -0.10762242237E+04  0.10762242237E+04  0.50400001928E-02 0. -1.
    10030    2    1    2    0    0  0.00000000000E+00  0.00000000000E+00  0.26558613328E+03  0.24180345808E+04  0.24034049263E+04 0.  0.
        3    1    3    3  502    0  0.33488001321E+03 -0.11448127639E+04 -0.14205554943E+02  0.11928716174E+04  0.10100000352E+00 0. -1.
       -3    1    3    3    0  502 -0.33488001321E+03  0.11448127639E+04  0.27979168822E+03  0.12251629633E+04  0.10100000352E+00 0.  1.
</event>
<event>
 5   0  0.5379778E-06  0.2403690E+04  0.7818609E-02  0.8438124E-01
       -2   -1    0    0    0  501  0.00000000000E+00  0.00000000000E+00  0.75281999766E+03  0.75281999767E+03  0.25500000920E-02 0. -1.
        2   -1    0    0  501    0  0.00000000000E+00  0.00000000000E+00 -0.19186936172E+04  0.19186936172E+04  0.25500000920E-02 0.  1.
    10030    2    1    2    0    0  0.00000000000E+00  0.00000000000E+00 -0.11658736195E+04  0.26715136149E+04  0.24036896010E+04 0.  0.
        5    1    3    3  502    0 -0.41329081884E+03  0.92487535869E+02  0.66712675065E+03  0.79021733508E+03  0.46999998093E+01 0. -1.
       -5    1    3    3    0  502  0.41329081884E+03 -0.92487535869E+02 -0.18330003702E+04  0.18812962798E+04  0.46999998093E+01 0.  1.
</event>
<event>
 5   0  0.5268358E-06  0.2371699E+04  0.7818609E-02  0.8450176E-01
       -2   -1    0    0    0  501  0.00000000000E+00  0.00000000000E+00  0.10071222655E+04  0.10071222655E+04  0.25500000920E-02 0.  1.
        2   -1    0    0  501    0  0.00000000000E+00  0.00000000000E+00 -0.13962945970E+04  0.13962945970E+04  0.25500000920E-02 0. -1.
    10030    2    1    2    0    0  0.00000000000E+00  0.00000000000E+00 -0.38917233152E+03  0.24034168624E+04  0.23716992876E+04 0.  0.
        2    1    3    3  502    0  0.75671412597E+03 -0.84374712081E+03  0.15895466625E+03  0.11444614708E+04  0.25500000920E-02 0.  1.
       -2    1    3    3    0  502 -0.75671412597E+03  0.84374712081E+03 -0.54812699777E+03  0.12589553916E+04  0.25500000920E-02 0. -1.
</event>
<event>
 5   0  0.1796750E-06  0.2401046E+04  0.7818609E-02  0.8439112E-01
       -4   -1    0    0    0  501  0.00000000000E+00  0.00000000000E+00  0.97143608907E+03  0.97143691923E+03  0.12699999809E+01 0. -1.
        4   -1    0    0  501    0  0.00000000000E+00  0.00000000000E+00 -0.14836319748E+04  0.14836325183E+04  0.12699999809E+01 0.  1.
    10030    2    1    2    0    0  0.00000000000E+00  0.00000000000E+00 -0.51219588570E+03  0.24550694376E+04  0.24010458800E+04 0.  0.
        5    1    3    3  502    0 -0.46976131386E+03 -0.11033484240E+04 -0.19843943369E+03  0.12155055473E+04  0.46999998093E+01 0. -1.
       -5    1    3    3    0  502  0.46976131386E+03  0.11033484240E+04 -0.31375645201E+03  0.12395638902E+04  0.46999998093E+01 0.  1.
</event>
<event>
 5   0  0.2297414E-06  0.2396055E+04  0.7818609E-02  0.8440982E-01
        1   -1    0    0  501    0  0.00000000000E+00  0.00000000000E+00  0.11285710304E+04  0.11285710304E+04  0.50400001928E-02 0.  1.
       -1   -1    0    0    0  501  0.00000000000E+00  0.00000000000E+00 -0.12717587264E+04  0.12717587264E+04  0.50400001928E-02 0. -1.
    10030    2    1    2    0    0  0.00000000000E+00  0.00000000000E+00 -0.14318769606E+03  0.24003297568E+04  0.23960551382E+04 0.  0.
        1    1    3    3  502    0  0.44712917429E+02 -0.11900855274E+04 -0.20208462414E+03  0.12079490895E+04  0.50400001928E-02 0. -1.
       -1    1    3    3    0  502 -0.44712917429E+02  0.11900855274E+04  0.58896928073E+02  0.11923806673E+04  0.50400001928E-02 0.  1.
</event>
<event>
 5   0  0.5371843E-06  0.2398872E+04  0.7818609E-02  0.8439926E-01
        2   -1    0    0  501    0  0.00000000000E+00  0.00000000000E+00  0.18061217905E+04  0.18061217905E+04  0.25500000920E-02 0.  1.
       -2   -1    0    0    0  501  0.00000000000E+00  0.00000000000E+00 -0.79653897809E+03  0.79653897810E+03  0.25500000920E-02 0. -1.
    10030    2    1    2    0    0  0.00000000000E+00  0.00000000000E+00  0.10095828124E+04  0.26026607686E+04  0.23988717392E+04 0.  0.
        4    1    3    3  502    0 -0.38834778643E+03  0.14757340022E+03 -0.71598593713E+03  0.82778583386E+03  0.12699999809E+01 0. -1.
       -4    1    3    3    0  502  0.38834778643E+03 -0.14757340022E+03  0.17255687496E+04  0.17748749348E+04  0.12699999809E+01 0.  1.
</event>
<event>
 5   0  0.5440503E-06  0.2397370E+04  0.7818609E-02  0.8440489E-01
        2   -1    0    0  501    0  0.00000000000E+00  0.00000000000E+00  0.11947875408E+04  0.11947875408E+04  0.25500000920E-02 0.  1.
       -2   -1    0    0    0  501  0.00000000000E+00  0.00000000000E+00 -0.12025953702E+04  0.12025953702E+04  0.25500000920E-02 0. -1.
    10030    2    1    2    0    0  0.00000000000E+00  0.00000000000E+00 -0.78078294213E+01  0.23973829110E+04  0.23973701966E+04 0.  0.
        3    1    3    3  502    0  0.28480390647E+03 -0.10828032262E+04 -0.43200648058E+03  0.12000857058E+04  0.10100000352E+00 0. -1.
       -3    1    3    3    0  502 -0.28480390647E+03  0.10828032262E+04  0.42419865116E+03  0.11972972052E+04  0.10100000352E+00 0.  1.
</event>
<event>
 5   0  0.2254269E-06  0.2398529E+04  0.7818609E-02  0.8440054E-01
       -1   -1    0    0    0  501  0.00000000000E+00  0.00000000000E+00  0.97060518000E+03  0.97060518001E+03  0.50400001928E-02 0. -1.
        1   -1    0    0  501    0  0.00000000000E+00  0.00000000000E+00 -0.14817927624E+04  0.14817927624E+04  0.50400001928E-02 0.  1.
    10030    2    1    2    0    0  0.00000000000E+00  0.00000000000E+00 -0.51118758241E+03  0.24523979424E+04  0.23985293251E+04 0.  0.
        2    1    3    3  502    0 -0.80751945569E+03 -0.86294829089E+03 -0.47382603236E+02  0.11827986030E+04  0.25500000920E-02 0. -1.
       -2    1    3    3    0  502  0.80751945569E+03  0.86294829089E+03 -0.46380497917E+03  0.12695993395E+04  0.25500000920E-02 0.  1.
</event>
<event>
 5   0  0.5440503E-06  0.2400907E+04  0.7818609E-02  0.8439164E-01
       -2   -1    0    0    0  501  0.00000000000E+00  0.00000000000E+00  0.15365791855E+04  0.15365791855E+04  0.25500000920E-02 0.  1.
        2   -1    0    0  501    0  0.00000000000E+00  0.00000000000E+00 -0.93785529412E+03  0.93785529412E+03  0.25500000920E-02 0. -1.
    10030    2    1    2    0    0  0.00000000000E+00  0.00000000000E+00  0.59872389135E+03  0.24744344796E+04  0.24009072651E+04 0.  0.
        3    1    3    3  502    0 -0.70517655126E+03 -0.86798146788E+03  0.74910079811E+03  0.13460378200E+04  0.10100000352E+00 0. -1.
       -3    1    3    3    0  502  0.70517655126E+03  0.86798146788E+03 -0.15037690676E+03  0.11283966596E+04  0.10100000352E+00 0.  1.
</event>
<event>
 5   0  0.2215700E-06  0.2396577E+04  0.7818609E-02  0.8440786E-01
        1   -1    0    0  501    0  0.00000000000E+00  0.00000000000E+00  0.18115936235E+04  0.18115936235E+04  0.50400001928E-02 0.  1.
       -1   -1    0    0    0  501  0.00000000000E+00  0.00000000000E+00 -0.79261422782E+03  0.79261422784E+03  0.50400001928E-02 0. -1.
    10030    2    1    2    0    0  0.00000000000E+00  0.00000000000E+00  0.10189793957E+04  0.26042078514E+04  0.23965766260E+04 0.  0.
        3    1    3    3  502    0  0.42103029499E+03 -0.10776150324E+03 -0.70395588797E+03  0.82730463149E+03  0.10100000352E+00 0. -1.
       -3    1    3    3    0  502 -0.42103029499E+03  0.10776150324E+03  0.17229352837E+04  0.17769032199E+04  0.10100000352E+00 0.  1.
</event>
<event>
 5   0  0.2215700E-06  0.2400914E+04  0.7818609E-02  0.8439162E-01
       -1   -1    0    0    0  501  0.00000000000E+00  0.00000000000E+00  0.76546215737E+03  0.76546215739E+03  0.50400001928E-02 0.  1.
        1   -1    0    0  501    0  0.00000000000E+00  0.00000000000E+00 -0.18826492588E+04  0.18826492588E+04  0.50400001928E-02 0. -1.
    10030    2    1    2    0    0  0.00000000000E+00  0.00000000000E+00 -0.11171871014E+04  0.26481114162E+04  0.24009137954E+04 0.  0.
        3    1    3    3  502    0  0.46313941230E+03  0.10809699031E+04 -0.82445653028E+03  0.14362181684E+04  0.10100000352E+00 0. -1.
       -3    1    3    3    0  502 -0.46313941230E+03 -0.10809699031E+04 -0.29273057115E+03  0.12118932478E+04  0.10100000352E+00 0.  1.
</event>
<event>
 5   0  0.5371843E-06  0.2402065E+04  0.7818609E-02  0.8438731E-01
       -2   -1    0    0    0  501  0.00000000000E+00  0.00000000000E+00  0.12131759131E+04  0.12131759131E+04  0.25500000920E-02 0. -1.
        2   -1    0    0  501    0  0.00000000000E+00  0.00000000000E+00 -0.11890102374E+04  0.11890102374E+04  0.25500000920E-02 0.  1.
    10030    2    1    2    0    0  0.00000000000E+00  0.00000000000E+00  0.24165675757E+02  0.24021861505E+04  0.24020645957E+04 0.  0.
        4    1    3    3  502    0 -0.65638391430E+03  0.12997381616E+03 -0.98533613674E+03  0.11910591720E+04  0.12699999809E+01 0.  1.
       -4    1    3    3    0  502  0.65638391430E+03 -0.12997381616E+03  0.10095018125E+04  0.12111269785E+04  0.12699999809E+01 0. -1.
</event>
<event>
 5   0  0.2149417E-06  0.2392035E+04  0.7818609E-02  0.8442491E-01
        1   -1    0    0  501    0  0.00000000000E+00  0.00000000000E+00  0.19353564302E+04  0.19353564303E+04  0.50400001928E-02 0. -1.
       -1   -1    0    0    0  501  0.00000000000E+00  0.00000000000E+00 -0.73911878039E+03  0.73911878041E+03  0.50400001928E-02 0.  1.
    10030    2    1    2    0    0  0.00000000000E+00  0.00000000000E+00  0.11962376499E+04  0.26744752107E+04  0.23920353546E+04 0.  0.
        5    1    3    3  502    0 -0.13929722625E+03  0.30679137365E+03 -0.68494801963E+03  0.76334824542E+03  0.46999998093E+01 0.  1.
       -5    1    3    3    0  502  0.13929722625E+03 -0.30679137365E+03  0.18811856695E+04  0.19111269652E+04  0.46999998093E+01 0. -1.
</event>
<event>
 5   0  0.2149417E-06  0.2386387E+04  0.7818609E-02  0.8444618E-01
        1   -1    0    0  501    0  0.00000000000E+00  0.00000000000E+00  0.14001759013E+04  0.14001759013E+04  0.50400001928E-02 0. -1.
       -1   -1    0    0    0  501  0.00000000000E+00  0.00000000000E+00 -0.10168082660E+04  0.10168082660E+04  0.50400001928E-02 0.  1.
    10030    2    1    2    0    0  0.00000000000E+00  0.00000000000E+00  0.38336763533E+03  0.24169841673E+04  0.23863867501E+04 0.  0.
        5    1    3    3  502    0 -0.20165265270E+03  0.10972785831E+04 -0.23682983031E+03  0.11405238006E+04  0.46999998093E+01 0. -1.
       -5    1    3    3    0  502  0.20165265270E+03 -0.10972785831E+04  0.62019746564E+03  0.12764603667E+04  0.46999998093E+01 0.  1.
</event>
<event>
 5   0  0.1796750E-06  0.2399390E+04  0.7818609E-02  0.8439732E-01
        3   -1    0    0  501    0  0.00000000000E+00  0.00000000000E+00  0.11477859573E+04  0.11477859617E+04  0.10100000352E+00 0.  1.
       -3   -1    0    0    0  501  0.00000000000E+00  0.00000000000E+00 -0.12539511515E+04  0.12539511556E+04  0.10100000352E+00 0. -1.
    10030    2    1    2    0    0  0.00000000000E+00  0.00000000000E+00 -0.10616519422E+03  0.24017371173E+04  0.23993895332E+04 0.  0.
        5    1    3    3  502    0  0.41089810068E+03 -0.69802017261E+03 -0.93892079624E+03  0.12400257103E+04  0.46999998093E+01 0. -1.
       -5    1    3    3    0  502 -0.41089810068E+03  0.69802017261E+03  0.83275560201E+03  0.11617114070E+04  0.46999998093E+01 0.  1.
</event>
<event>
 5   0  0.2215700E-06  0.2394348E+04  0.7818609E-02  0.8441623E-01
        1   -1    0    0  501    0  0.00000000000E+00  0.00000000000E+00  0.26344698633E+04  0.26344698633E+04  0.50400001928E-02 0.  1.
       -1   -1    0    0    0  501  0.00000000000E+00  0.00000000000E+00 -0.54402802944E+03  0.54402802946E+03  0.50400001928E-02 0. -1.
    10030    2    1    2    0    0  0.00000000000E+00  0.00000000000E+00  0.20904418338E+04  0.31784978928E+04  0.23943478848E+04 0.  0.
        3    1    3    3  502    0  0.11149400797E+04  0.31366155982E+03  0.64311648888E+03  0.13247919776E+04  0.10100000352E+00 0. -1.
       -3    1    3    3    0  502 -0.11149400797E+04 -0.31366155982E+03  0.14473253450E+04  0.18537059151E+04  0.10100000352E+00 0.  1.
</event>
<event>
 5   0  0.5349036E-06  0.2401059E+04  0.7818609E-02  0.8439107E-01
        2   -1    0    0  501    0  0.00000000000E+00  0.00000000000E+00  0.99309000527E+03  0.99309000527E+03  0.25500000920E-02 0.  1.
       -2   -1    0    0    0  501  0.00000000000E+00  0.00000000000E+00 -0.14512992709E+04  0.14512992709E+04  0.25500000920E-02 0. -1.
    10030    2    1    2    0    0  0.00000000000E+00  0.00000000000E+00 -0.45820926563E+03  0.24443892762E+04  0.24010587670E+04 0.  0.
        1    1    3    3  502    0 -0.61719389279E+03 -0.45981152397E+03 -0.11670982954E+04  0.13980248103E+04  0.50400001928E-02 0. -1.
       -1    1    3    3    0  502  0.61719389279E+03  0.45981152397E+03  0.70888902982E+03  0.10463644659E+04  0.50400001928E-02 0.  1.
</event>
<event>
 5   0  0.2254269E-06  0.2402065E+04  0.7818609E-02  0.8438731E-01
       -1   -1    0    0    0  501  0.00000000000E+00  0.00000000000E+00  0.98076904303E+03  0.98076904304E+03  0.50400001928E-02 0. -1.
        1   -1    0    0  501    0  0.00000000000E+00  0.00000000000E+00 -0.14707635927E+04  0.14707635927E+04  0.50400001928E-02 0.  1.
    10030    2    1    2    0    0  0.00000000000E+00  0.00000000000E+00 -0.48999454964E+03  0.24515326357E+04  0.24020652792E+04 0.  0.
        2    1    3    3  502    0 -0.11108468020E+04  0.43647694987E+03 -0.38187352181E+03  0.12531241486E+04  0.25500000920E-02 0. -1.
       -2    1    3    3    0  502  0.11108468020E+04 -0.43647694987E+03 -0.10812102784E+03  0.11984084871E+04  0.25500000920E-02 0.  1.
</event>
<event>
 5   0  0.2215700E-06  0.2400360E+04  0.7818609E-02  0.8439369E-01
       -1   -1    0    0    0  501  0.00000000000E+00  0.00000000000E+00  0.83654516919E+03  0.83654516921E+03  0.50400001928E-02 0.  1.
        1   -1    0    0  501    0  0.00000000000E+00  0.00000000000E+00 -0.17218820422E+04  0.17218820422E+04  0.50400001928E-02 0. -1.
    10030    2    1    2    0    0  0.00000000000E+00  0.00000000000E+00 -0.88533687303E+03  0.25584272114E+04  0.24003600600E+04 0.  0.
        3    1    3    3  502    0 -0.50337651990E+03 -0.10891297788E+04 -0.47356890836E+03  0.12899066311E+04  0.10100000352E+00 0. -1.
       -3    1    3    3    0  502  0.50337651990E+03  0.10891297788E+04 -0.41176796466E+03  0.12685205803E+04  0.10100000352E+00 0.  1.
</event>
<event>
 5   0  0.2254269E-06  0.2399178E+04  0.7818609E-02  0.8439811E-01
       -1   -1    0    0    0  501  0.00000000000E+00  0.00000000000E+00  0.76781531180E+03  0.76781531181E+03  0.50400001928E-02 0.  1.
        1   -1    0    0  501    0  0.00000000000E+00  0.00000000000E+00 -0.18741671331E+04  0.18741671331E+04  0.50400001928E-02 0. -1.
    10030    2    1    2    0    0  0.00000000000E+00  0.00000000000E+00 -0.11063518213E+04  0.26419824449E+04  0.23991783774E+04 0.  0.
        2    1    3    3  502    0  0.91446263724E+03  0.77459143414E+03 -0.49510985167E+03  0.12966755839E+04  0.25500000920E-02 0.  1.
       -2    1    3    3    0  502 -0.91446263724E+03 -0.77459143414E+03 -0.61124196962E+03  0.13453068610E+04  0.25500000920E-02 0. -1.
</event>
<event>
 5   0  0.2215700E-06  0.2397586E+04  0.7818609E-02  0.8440408E-01
       -1   -1    0    0    0  501  0.00000000000E+00  0.00000000000E+00  0.86371230962E+03  0.86371230963E+03  0.50400001928E-02 0. -1.
        1   -1    0    0  501    0  0.00000000000E+00  0.00000000000E+00 -0.16638701789E+04  0.16638701789E+04  0.50400001928E-02 0.  1.
    10030    2    1    2    0    0  0.00000000000E+00  0.00000000000E+00 -0.80015786928E+03  0.25275824885E+04  0.23975864157E+04 0.  0.
        3    1    3    3  502    0  0.54591043700E+03  0.87328236864E+03  0.24675572336E+03  0.10590225200E+04  0.10100000352E+00 0. -1.
       -3    1    3    3    0  502 -0.54591043700E+03 -0.87328236864E+03 -0.10469135926E+04  0.14685599686E+04  0.10100000352E+00 0.  1.
</event>
<event>
 5   0  0.5379778E-06  0.2399127E+04  0.7818609E-02  0.8439830E-01
        2   -1    0    0  501    0  0.00000000000E+00  0.00000000000E+00  0.18181193124E+04  0.18181193124E+04  0.25500000920E-02 0. -1.
       -2   -1    0    0    0  501  0.00000000000E+00  0.00000000000E+00 -0.79145138733E+03  0.79145138734E+03  0.25500000920E-02 0.  1.
    10030    2    1    2    0    0  0.00000000000E+00  0.00000000000E+00  0.10266679251E+04  0.26095706997E+04  0.23991273848E+04 0.  0.
        5    1    3    3  502    0  0.13185633028E+03 -0.30384533599E+03  0.17673834179E+04  0.17981585903E+04  0.46999998093E+01 0. -1.
       -5    1    3    3    0  502 -0.13185633028E+03  0.30384533599E+03 -0.74071549282E+03  0.81141210944E+03  0.46999998093E+01 0.  1.
</event>
<event>
 5   0  0.5349036E-06  0.2400687E+04  0.7818609E-02  0.8439246E-01
       -2   -1    0    0    0  501  0.00000000000E+00  0.00000000000E+00  0.66957407706E+03  0.66957407707E+03  0.25500000920E-02 0. -1.
        2   -1    0    0  501    0  0.00000000000E+00  0.00000000000E+00 -0.21518520861E+04  0.21518520861E+04  0.25500000920E-02 0.  1.
    10030    2    1    2    0    0  0.00000000000E+00  0.00000000000E+00 -0.14822780090E+04  0.28214261631E+04  0.24006868805E+04 0.  0.
        1    1    3    3  502    0 -0.11558281346E+04  0.11727886087E+03 -0.38635248355E+03  0.12243207298E+04  0.50400001928E-02 0. -1.
       -1    1    3    3    0  502  0.11558281346E+04 -0.11727886087E+03 -0.10959255254E+04  0.15971054333E+04  0.50400001928E-02 0.  1.
</event>
<event>
 5   0  0.2297414E-06  0.2391286E+04  0.7818609E-02  0.8442773E-01
        1   -1    0    0  501    0  0.00000000000E+00  0.00000000000E+00  0.10806919923E+04  0.10806919923E+04  0.50400001928E-02 0. -1.
       -1   -1    0    0    0  501  0.00000000000E+00  0.00000000000E+00 -0.13228215021E+04  0.13228215021E+04  0.50400001928E-02 0.  1.
    10030    2    1    2    0    0  0.00000000000E+00  0.00000000000E+00 -0.24212950981E+03  0.24035134944E+04  0.23912863522E+04 0.  0.
        1    1    3    3  502    0 -0.96871340044E+03  0.51941527948E+03  0.35183510195E+03  0.11541169021E+04  0.50400001928E-02 0. -1.
       -1    1    3    3    0  502  0.96871340044E+03 -0.51941527948E+03 -0.59396461176E+03  0.12493965923E+04  0.50400001928E-02 0.  1.
</event>
<event>
 5   0  0.5268358E-06  0.2399216E+04  0.7818609E-02  0.8439797E-01
       -2   -1    0    0    0  501  0.00000000000E+00  0.00000000000E+00  0.13813385598E+04  0.13813385598E+04  0.25500000920E-02 0.  1.
        2   -1    0    0  501    0  0.00000000000E+00  0.00000000000E+00 -0.10417859605E+04  0.10417859605E+04  0.25500000920E-02 0. -1.
    10030    2    1    2    0    0  0.00000000000E+00  0.00000000000E+00  0.33955259927E+03  0.24231245203E+04  0.23992158038E+04 0.  0.
        2    1    3    3  502    0  0.99826030691E+02 -0.32977727854E+03  0.13302877915E+04  0.13741848122E+04  0.25500000920E-02 0.  1.
       -2    1    3    3    0  502 -0.99826030691E+02  0.32977727854E+03 -0.99073519228E+03  0.10489397080E+04  0.25500000920E-02 0. -1.
</event>
<event>
 5   0  0.5379778E-06  0.2398668E+04  0.7818609E-02  0.8440002E-01
       -2   -1    0    0    0  501  0.00000000000E+00  0.00000000000E+00  0.59146038346E+03  0.59146038347E+03  0.25500000920E-02 0.  1.
        2   -1    0    0  501    0  0.00000000000E+00  0.00000000000E+00 -0.24319504158E+04  0.24319504158E+04  0.25500000920E-02 0. -1.
    10030    2    1    2    0    0  0.00000000000E+00  0.00000000000E+00 -0.18404900324E+04  0.30234107993E+04  0.23986682351E+04 0.  0.
        5    1    3    3  502    0  0.94858725806E+03  0.66495817100E+03 -0.52890892287E+03  0.12734810144E+04  0.46999998093E+01 0.  1.
       -5    1    3    3    0  502 -0.94858725806E+03 -0.66495817100E+03 -0.13115811095E+04  0.17499297849E+04  0.46999998093E+01 0. -1.
</event>
<event>
 5   0  0.2254269E-06  0.2403655E+04  0.7818609E-02  0.8438136E-01
       -1   -1    0    0    0  501  0.00000000000E+00  0.00000000000E+00  0.81095009445E+03  0.81095009447E+03  0.50400001928E-02 0.  1.
        1   -1    0    0  501    0  0.00000000000E+00  0.00000000000E+00 -0.17811078498E+04  0.17811078498E+04  0.50400001928E-02 0. -1.
    10030    2    1    2    0    0  0.00000000000E+00  0.00000000000E+00 -0.97015775535E+03  0.25920579443E+04  0.24036551991E+04 0.  0.
        2    1    3    3  502    0  0.28620080365E+03  0.10395068090E+04  0.87484236523E+02  0.10817295399E+04  0.25500000920E-02 0.  1.
       -2    1    3    3    0  502 -0.28620080365E+03 -0.10395068090E+04 -0.10576419919E+04  0.15103284043E+04  0.25500000920E-02 0. -1.
</event>
<event>
 5   0  0.5268358E-06  0.2398443E+04  0.7818609E-02  0.8440087E-01
        2   -1    0    0  501    0  0.00000000000E+00  0.00000000000E+00  0.12313364680E+04  0.12313364680E+04  0.25500000920E-02 0. -1.
       -2   -1    0    0    0  501  0.00000000000E+00  0.00000000000E+00 -0.11679443791E+04  0.11679443791E+04  0.25500000920E-02 0.  1.
    10030    2    1    2    0    0  0.00000000000E+00  0.00000000000E+00  0.63392088929E+02  0.23992808471E+04  0.23984432506E+04 0.  0.
        2    1    3    3  502    0 -0.68314349355E+03 -0.85808261310E+03  0.51677950778E+03  0.12124569532E+04  0.25500000920E-02 0. -1.
       -2    1    3    3    0  502  0.68314349355E+03  0.85808261310E+03 -0.45338741885E+03  0.11868238940E+04  0.25500000920E-02 0.  1.
</event>
<event>
 5   0  0.5440503E-06  0.2400536E+04  0.7818609E-02  0.8439303E-01
        2   -1    0    0  501    0  0.00000000000E+00  0.00000000000E+00  0.12843978890E+04  0.12843978890E+04  0.25500000920E-02 0. -1.
       -2   -1    0    0    0  501  0.00000000000E+00  0.00000000000E+00 -0.11216486837E+04  0.11216486837E+04  0.25500000920E-02 0.  1.
    10030    2    1    2    0    0  0.00000000000E+00  0.00000000000E+00  0.16274920528E+03  0.24060465728E+04  0.24005359415E+04 0.  0.
        3    1    3    3  502    0 -0.36720969878E+03  0.15939943772E+03 -0.10527670505E+04  0.11263079581E+04  0.10100000352E+00 0.  1.
       -3    1    3    3    0  502  0.36720969878E+03 -0.15939943772E+03  0.12155162558E+04  0.12797386147E+04  0.10100000352E+00 0. -1.
</event>
<event>
 5   0  0.1796750E-06  0.2399590E+04  0.7818609E-02  0.8439657E-01
        3   -1    0    0  501    0  0.00000000000E+00  0.00000000000E+00  0.20205923079E+04  0.20205923104E+04  0.10100000352E+00 0. -1.
       -3   -1    0    0    0  501  0.00000000000E+00  0.00000000000E+00 -0.71241894912E+03  0.71241895628E+03  0.10100000352E+00 0.  1.
    10030    2    1    2    0    0  0.00000000000E+00  0.00000000000E+00  0.13081733587E+04  0.27330112667E+04  0.23995901832E+04 0.  0.
        3    1    3    3  502    0 -0.59983567665E+03  0.10390586662E+04  0.66309092578E+03  0.13708155736E+04  0.10100000352E+00 0.  1.
       -3    1    3    3    0  502  0.59983567665E+03 -0.10390586662E+04  0.64508243297E+03  0.13621956931E+04  0.10100000352E+00 0. -1.
</event>
<event>
 5   0  0.2149417E-06  0.2394635E+04  0.7818609E-02  0.8441515E-01
        1   -1    0    0  501    0  0.00000000000E+00  0.00000000000E+00  0.14899906968E+04  0.14899906968E+04  0.50400001928E-02 0. -1.
       -1   -1    0    0    0  501  0.00000000000E+00  0.00000000000E+00 -0.96213292283E+03  0.96213292284E+03  0.50400001928E-02 0.  1.
    10030    2    1    2    0    0  0.00000000000E+00  0.00000000000E+00  0.52785777398E+03  0.24521236197E+04  0.23946349234E+04 0.  0.
        5    1    3    3  502    0 -0.22074068518E+03  0.11992316990E+03  0.14626907082E+04  0.14841139494E+04  0.46999998093E+01 0. -1.
       -5    1    3    3    0  502  0.22074068518E+03 -0.11992316990E+03 -0.93483293426E+03  0.96800967028E+03  0.46999998093E+01 0.  1.
</event>
<event>
 5   0  0.5349036E-06  0.2395339E+04  0.7818609E-02  0.8441251E-01
        2   -1    0    0  501    0  0.00000000000E+00  0.00000000000E+00  0.18640836932E+04  0.18640836932E+04  0.25500000920E-02 0.  1.
       -2   -1    0    0    0  501  0.00000000000E+00  0.00000000000E+00 -0.76949985942E+03  0.76949985943E+03  0.25500000920E-02 0. -1.
    10030    2    1    2    0    0  0.00000000000E+00  0.00000000000E+00  0.10945838337E+04  0.26335835526E+04  0.23953389237E+04 0.  0.
        1    1    3    3  502    0 -0.11416975201E+03  0.72241754285E+03  0.15900375314E+04  0.17501831875E+04  0.50400001928E-02 0.  1.
       -1    1    3    3    0  502  0.11416975201E+03 -0.72241754285E+03 -0.49545369767E+03  0.88340036509E+03  0.50400001928E-02 0. -1.
</event>
<event>
 5   0  0.2149029E-06  0.2399445E+04  0.7818609E-02  0.8439711E-01
       -1   -1    0    0    0  501  0.00000000000E+00  0.00000000000E+00  0.73034055774E+03  0.73034055775E+03  0.50400001928E-02 0.  1.
        1   -1    0    0  501    0  0.00000000000E+00  0.00000000000E+00 -0.19707708609E+04  0.19707708609E+04  0.50400001928E-02 0. -1.
    10030    2    1    2    0    0  0.00000000000E+00  0.00000000000E+00 -0.12404303031E+04  0.27011114186E+04  0.23994448439E+04 0.  0.
        4    1    3    3  502    0  0.36653616901E+03  0.24023056646E+03 -0.18774385391E+04  0.19279098965E+04  0.12699999809E+01 0. -1.
       -4    1    3    3    0  502 -0.36653616901E+03 -0.24023056646E+03  0.63700823593E+03  0.77320152211E+03  0.12699999809E+01 0.  1.
</event>
<event>
 5   0  0.2254269E-06  0.2394448E+04  0.7818609E-02  0.8441585E-01
        1   -1    0    0  501    0  0.00000000000E+00  0.00000000000E+00  0.15753520889E+04  0.15753520889E+04  0.50400001928E-02 0. -1.
       -1   -1    0    0    0  501  0.00000000000E+00  0.00000000000E+00 -0.90985727226E+03  0.90985727228E+03  0.50400001928E-02 0.  1.
    10030    2    1    2    0    0  0.00000000000E+00  0.00000000000E+00  0.66549481662E+03  0.24852093612E+04  0.23944482074E+04 0.  0.
        2    1    3    3  502    0 -0.47422631259E+03  0.72381895501E+03 -0.52598388782E+03  0.10126517296E+04  0.25500000920E-02 0.  1.
       -2    1    3    3    0  502  0.47422631259E+03 -0.72381895501E+03  0.11914787044E+04  0.14725576316E+04  0.25500000920E-02 0. -1.
</event>
<event>
 5   0  0.5371843E-06  0.2401078E+04  0.7818609E-02  0.8439100E-01
       -2   -1    0    0    0  501  0.00000000000E+00  0.00000000000E+00  0.10333700892E+04  0.10333700892E+04  0.25500000920E-02 0.  1.
        2   -1    0    0  501    0  0.00000000000E+00  0.00000000000E+00 -0.13947507059E+04  0.13947507059E+04  0.25500000920E-02 0. -1.
    10030    2    1    2    0    0  0.00000000000E+00  0.00000000000E+00 -0.36138061667E+03  0.24281207952E+04  0.24010778092E+04 0.  0.
        4    1    3    3  502    0 -0.28758272887E+03  0.54813336653E+03  0.85955368601E+03  0.10592394278E+04  0.12699999809E+01 0.  1.
       -4    1    3    3    0  502  0.28758272887E+03 -0.54813336653E+03 -0.12209343027E+04  0.13688813673E+04  0.12699999809E+01 0. -1.
</event>
<event>
 5   0  0.5268358E-06  0.2400745E+04  0.7818609E-02  0.8439225E-01
       -2   -1    0    0    0  501  0.00000000000E+00  0.00000000000E+00  0.76327314134E+03  0.76327314134E+03  0.25500000920E-02 0. -1.
        2   -1    0    0  501    0  0.00000000000E+00  0.00000000000E+00 -0.18877831512E+04  0.18877831512E+04  0.25500000920E-02 0.  1.
    10030    2    1    2    0    0  0.00000000000E+00  0.00000000000E+00 -0.11245100098E+04  0.26510562925E+04  0.24007450310E+04 0.  0.
        2    1    3    3  502    0 -0.11880194071E+04  0.16577743886E+03 -0.51260111422E+03  0.13044662408E+04  0.25500000920E-02 0.  1.
       -2    1    3    3    0  502  0.11880194071E+04 -0.16577743886E+03 -0.61190889562E+03  0.13465900518E+04  0.25500000920E-02 0. -1.
</event>
<event>
 5   0  0.5379778E-06  0.2409205E+04  0.7818609E-02  0.8436065E-01
       -2   -1    0    0    0  501  0.00000000000E+00  0.00000000000E+00  0.14313144655E+04  0.14313144655E+04  0.25500000920E-02 0.  1.
        2   -1    0    0  501    0  0.00000000000E+00  0.00000000000E+00 -0.10138004196E+04  0.10138004196E+04  0.25500000920E-02 0. -1.
    10030    2    1    2    0    0  0.00000000000E+00  0.00000000000E+00  0.41751404592E+03  0.24451148851E+04  0.24092050188E+04 0.  0.
        5    1    3    3  502    0 -0.59674827536E+03 -0.72847478286E+03 -0.55361257101E+03  0.10923795047E+04  0.46999998093E+01 0. -1.
       -5    1    3    3    0  502  0.59674827536E+03  0.72847478286E+03  0.97112661693E+03  0.13527353805E+04  0.46999998093E+01 0.  1.
</event>
<event>
 5   0  0.2254269E-06  0.2397353E+04  0.7818609E-02  0.8440495E-01
        1   -1    0    0  501    0  0.00000000000E+00  0.00000000000E+00  0.14890622837E+04  0.14890622837E+04  0.50400001928E-02 0. -1.
       -1   -1    0    0    0  501  0.00000000000E+00  0.00000000000E+00 -0.96491930300E+03  0.96491930301E+03  0.50400001928E-02 0.  1.
    10030    2    1    2    0    0  0.00000000000E+00  0.00000000000E+00  0.52414298068E+03  0.24539815867E+04  0.23973526573E+04 0.  0.
        2    1    3    3  502    0 -0.10315088380E+04 -0.42719318193E+03  0.70863383089E+03  0.13223715075E+04  0.25500000920E-02 0. -1.
       -2    1    3    3    0  502  0.10315088380E+04  0.42719318193E+03 -0.18449085022E+03  0.11316100792E+04  0.25500000920E-02 0.  1.
</event>
<event>
 5   0  0.5371843E-06  0.2390850E+04  0.7818609E-02  0.8442937E-01
       -2   -1    0    0    0  501  0.00000000000E+00  0.00000000000E+00  0.85283006165E+03  0.85283006165E+03  0.25500000920E-02 0. -1.
        2   -1    0    0  501    0  0.00000000000E+00  0.00000000000E+00 -0.16756452723E+04  0.16756452723E+04  0.25500000920E-02 0.  1.
    10030    2    1    2    0    0  0.00000000000E+00  0.00000000000E+00 -0.82281521067E+03  0.25284753340E+04  0.23908497744E+04 0.  0.
        4    1    3    3  502    0  0.91705501574E+03 -0.55480749994E+03  0.14843993922E+03  0.10820523519E+04  0.12699999809E+01 0. -1.
       -4    1    3    3    0  502 -0.91705501574E+03  0.55480749994E+03 -0.97125514989E+03  0.14464229820E+04  0.12699999809E+01 0.  1.
</event>
<event>
 5   0  0.5440503E-06  0.2402035E+04  0.7818609E-02  0.8438742E-01
       -2   -1    0    0    0  501  0.00000000000E+00  0.00000000000E+00  0.88218221285E+03  0.88218221286E+03  0.25500000920E-02 0. -1.
        2   -1    0    0  501    0  0.00000000000E+00  0.00000000000E+00 -0.16350849109E+04  0.16350849109E+04  0.25500000920E-02 0.  1.
    10030    2    1    2    0    0  0.00000000000E+00  0.00000000000E+00 -0.75290269806E+03  0.25172671238E+04  0.24020348248E+04 0.  0.
        3    1    3    3  502    0  0.92575087289E+03 -0.28802142282E+03 -0.11193094250E+04  0.14808189010E+04  0.10100000352E+00 0.  1.
       -3    1    3    3    0  502 -0.92575087289E+03  0.28802142282E+03  0.36640672692E+03  0.10364482227E+04  0.10100000352E+00 0. -1.
</event>
<event>
 5   0  0.2149417E-06  0.2387332E+04  0.7818609E-02  0.8444262E-01
       -1   -1    0    0    0  501  0.00000000000E+00  0.00000000000E+00  0.48752526120E+03  0.48752526123E+03  0.50400001928E-02 0.  1.
        1   -1    0    0  501    0  0.00000000000E+00  0.00000000000E+00 -0.29225934946E+04  0.29225934946E+04  0.50400001928E-02 0. -1.
    10030    2    1    2    0    0  0.00000000000E+00  0.00000000000E+00 -0.24350682334E+04  0.34101187558E+04  0.23873316962E+04 0.  0.
        5    1    3    3  502    0 -0.54336231253E+03  0.17216494694E+03  0.28056240272E+03  0.63531151686E+03  0.46999998093E+01 0.  1.
       -5    1    3    3    0  502  0.54336231253E+03 -0.17216494694E+03 -0.27156306361E+04  0.27748072390E+04  0.46999998093E+01 0. -1.
</event>
<event>
 5   0  0.5440503E-06  0.2396994E+04  0.7818609E-02  0.8440630E-01
       -2   -1    0    0    0  501  0.00000000000E+00  0.00000000000E+00  0.83692148494E+03  0.83692148494E+03  0.25500000920E-02 0. -1.
        2   -1    0    0  501    0  0.00000000000E+00  0.00000000000E+00 -0.17162838297E+04  0.17162838297E+04  0.25500000920E-02 0.  1.
    10030    2    1    2    0    0  0.00000000000E+00  0.00000000000E+00 -0.87936234480E+03  0.25532053147E+04  0.23969937934E+04 0.  0.
        3    1    3    3  502    0  0.82170322171E+03  0.18239327540E+02 -0.13688035136E+04  0.15966063781E+04  0.10100000352E+00 0.  1.
       -3    1    3    3    0  502 -0.82170322171E+03 -0.18239327540E+02  0.48944116875E+03  0.95659893660E+03  0.10100000352E+00 0. -1.
</event>
<event>
 5   0  0.2254269E-06  0.2401247E+04  0.7818609E-02  0.8439037E-01
        1   -1    0    0  501    0  0.00000000000E+00  0.00000000000E+00  0.97659468616E+03  0.97659468618E+03  0.50400001928E-02 0. -1.
       -1   -1    0    0    0  501  0.00000000000E+00  0.00000000000E+00 -0.14760437104E+04  0.14760437104E+04  0.50400001928E-02 0.  1.
    10030    2    1    2    0    0  0.00000000000E+00  0.00000000000E+00 -0.49944902427E+03  0.24526383966E+04  0.24012467130E+04 0.  0.
        2    1    3    3  502    0 -0.69377258649E+03  0.91816674596E+03 -0.59931550034E+03  0.12975090150E+04  0.25500000920E-02 0. -1.
       -2    1    3    3    0  502  0.69377258649E+03 -0.91816674596E+03  0.99866476062E+02  0.11551293816E+04  0.25500000920E-02 0.  1.
</event>
<event>
 5   0  0.2297414E-06  0.2401709E+04  0.7818609E-02  0.8438864E-01
        1   -1    0    0  501    0  0.00000000000E+00  0.00000000000E+00  0.21798308793E+04  0.21798308793E+04  0.50400001928E-02 0.  1.
       -1   -1    0    0    0  501  0.00000000000E+00  0.00000000000E+00 -0.66154278513E+03  0.66154278515E+03  0.50400001928E-02 0. -1.
    10030    2    1    2    0    0  0.00000000000E+00  0.00000000000E+00  0.15182880941E+04  0.28413736644E+04  0.24017088841E+04 0.  0.
        1    1    3    3  502    0 -0.60782417924E+03  0.89278376526E+03  0.13801545979E+04  0.17525238368E+04  0.50400001928E-02 0.  1.
       -1    1    3    3    0  502  0.60782417924E+03 -0.89278376526E+03  0.13813349627E+03  0.10888498277E+04  0.50400001928E-02 0. -1.
</event>
<event>
 5   0  0.5371843E-06  0.2445605E+04  0.7818609E-02  0.8422624E-01
        2   -1    0    0  501    0  0.00000000000E+00  0.00000000000E+00  0.17708457528E+04  0.17708457528E+04  0.25500000920E-02 0.  1.
       -2   -1    0    0    0  501  0.00000000000E+00  0.00000000000E+00 -0.84436845641E+03  0.84436845642E+03  0.25500000920E-02 0. -1.
    10030    2    1    2    0    0  0.00000000000E+00  0.00000000000E+00  0.92647729641E+03  0.26152142092E+04  0.24456052788E+04 0.  0.
        4    1    3    3  502    0 -0.89229510244E+02  0.45438435905E+03  0.16734592804E+04  0.17363451925E+04  0.12699999809E+01 0.  1.
       -4    1    3    3    0  502  0.89229510244E+02 -0.45438435905E+03 -0.74698198403E+03  0.87886901676E+03  0.12699999809E+01 0. -1.
</event>
<event>
 5   0  0.5371843E-06  0.2388915E+04  0.7818609E-02  0.8443665E-01
       -2   -1    0    0    0  501  0.00000000000E+00  0.00000000000E+00  0.63892087599E+03  0.63892087600E+03  0.25500000920E-02 0. -1.
        2   -1    0    0  501    0  0.00000000000E+00  0.00000000000E+00 -0.22330280557E+04  0.22330280557E+04  0.25500000920E-02 0.  1.
    10030    2    1    2    0    0  0.00000000000E+00  0.00000000000E+00 -0.15941071797E+04  0.28719489317E+04  0.23889146000E+04 0.  0.
        4    1    3    3  502    0  0.11534619227E+04 -0.26891187673E+03 -0.61104813507E+03  0.13327300705E+04  0.12699999809E+01 0.  1.
       -4    1    3    3    0  502 -0.11534619227E+04  0.26891187673E+03 -0.98305904465E+03  0.15392188612E+04  0.12699999809E+01 0. -1.
</event>
<event>
 5   0  0.5371843E-06  0.2400887E+04  0.7818609E-02  0.8439171E-01
        2   -1    0    0  501    0  0.00000000000E+00  0.00000000000E+00  0.14468526789E+04  0.14468526789E+04  0.25500000920E-02 0.  1.
       -2   -1    0    0    0  501  0.00000000000E+00  0.00000000000E+00 -0.99599984930E+03  0.99599984930E+03  0.25500000920E-02 0. -1.
    10030    2    1    2    0    0  0.00000000000E+00  0.00000000000E+00  0.45085282959E+03  0.24428525282E+04  0.24008873777E+04 0.  0.
        4    1    3    3  502    0  0.40810060864E+03 -0.24380236771E+02  0.13738366110E+04  0.14333768344E+04  0.12699999809E+01 0.  1.
       -4    1    3    3    0  502 -0.40810060864E+03  0.24380236771E+02 -0.92298378142E+03  0.10094756938E+04  0.12699999809E+01 0. -1.
</event>
<event>
 5   0  0.2215700E-06  0.2399679E+04  0.7818609E-02  0.8439624E-01
        1   -1    0    0  501    0  0.00000000000E+00  0.00000000000E+00  0.68954410011E+03  0.68954410013E+03  0.50400001928E-02 0. -1.
       -1   -1    0    0    0  501  0.00000000000E+00  0.00000000000E+00 -0.20877770686E+04  0.20877770686E+04  0.50400001928E-02 0.  1.
    10030    2    1    2    0    0  0.00000000000E+00  0.00000000000E+00 -0.13982329685E+04  0.27773211688E+04  0.23996786119E+04 0.  0.
        3    1    3    3  502    0  0.81038802667E+03  0.38133844690E+03  0.22494684512E+03  0.92344402006E+03  0.10100000352E+00 0. -1.
       -3    1    3    3    0  502 -0.81038802667E+03 -0.38133844690E+03 -0.16231798136E+04  0.18538771487E+04  0.10100000352E+00 0.  1.
</event>
<event>
 5   0  0.5379778E-06  0.2399846E+04  0.7818609E-02  0.8439561E-01
       -2   -1    0    0    0  501  0.00000000000E+00  0.00000000000E+00  0.15498605611E+04  0.15498605611E+04  0.25500000920E-02 0.  1.
        2   -1    0    0  501    0  0.00000000000E+00  0.00000000000E+00 -0.92899648935E+03  0.92899648936E+03  0.25500000920E-02 0. -1.
    10030    2    1    2    0    0  0.00000000000E+00  0.00000000000E+00  0.62086407178E+03  0.24788570505E+04  0.23998458453E+04 0.  0.
        5    1    3    3  502    0 -0.52130952003E+03  0.42706516324E+03  0.13359147027E+04  0.14962748585E+04  0.46999998093E+01 0.  1.
       -5    1    3    3    0  502  0.52130952003E+03 -0.42706516324E+03 -0.71505063089E+03  0.98258219201E+03  0.46999998093E+01 0. -1.
</event>
<event>
 5   0  0.5440503E-06  0.2396257E+04  0.7818609E-02  0.8440906E-01
       -2   -1    0    0    0  501  0.00000000000E+00  0.00000000000E+00  0.94315722127E+03  0.94315722128E+03  0.25500000920E-02 0. -1.
        2   -1    0    0  501    0  0.00000000000E+00  0.00000000000E+00 -0.15220279039E+04  0.15220279039E+04  0.25500000920E-02 0.  1.
    10030    2    1    2    0    0  0.00000000000E+00  0.00000000000E+00 -0.57887068260E+03  0.24651851252E+04  0.23962567546E+04 0.  0.
        3    1    3    3  502    0  0.92339011871E+03  0.76266465367E+03 -0.25372499677E+03  0.12242071187E+04  0.10100000352E+00 0. -1.
       -3    1    3    3    0  502 -0.92339011871E+03 -0.76266465367E+03 -0.32514568583E+03  0.12409780065E+04  0.10100000352E+00 0.  1.
</event>
<event>
 5   0  0.2254269E-06  0.2402422E+04  0.7818609E-02  0.8438598E-01
       -1   -1    0    0    0  501  0.00000000000E+00  0.00000000000E+00  0.97305746648E+03  0.97305746649E+03  0.50400001928E-02 0. -1.
        1   -1    0    0  501    0  0.00000000000E+00  0.00000000000E+00 -0.14828593161E+04  0.14828593161E+04  0.50400001928E-02 0.  1.
    10030    2    1    2    0    0  0.00000000000E+00  0.00000000000E+00 -0.50980184965E+03  0.24559167826E+04  0.24024215528E+04 0.  0.
        2    1    3    3  502    0  0.76181928897E+03 -0.90369964588E+03 -0.35969446689E+02  0.11825123594E+04  0.25500000920E-02 0. -1.
       -2    1    3    3    0  502 -0.76181928897E+03  0.90369964588E+03 -0.47383240296E+03  0.12734044232E+04  0.25500000920E-02 0.  1.
</event>
<event>
 5   0  0.2297414E-06  0.2399253E+04  0.7818609E-02  0.8439783E-01
       -1   -1    0    0    0  501  0.00000000000E+00  0.00000000000E+00  0.12682801684E+04  0.12682801684E+04  0.50400001928E-02 0. -1.
        1   -1    0    0  501    0  0.00000000000E+00  0.00000000000E+00 -0.11346890619E+04  0.11346890619E+04  0.50400001928E-02 0.  1.
    10030    2    1    2    0    0  0.00000000000E+00  0.00000000000E+00  0.13359110651E+03  0.24029692303E+04  0.23992529124E+04 0.  0.
        1    1    3    3  502    0 -0.57321078468E+03  0.70183941120E+03 -0.72052287842E+03  0.11577142917E+04  0.50400001928E-02 0.  1.
       -1    1    3    3    0  502  0.57321078468E+03 -0.70183941120E+03  0.85411398493E+03  0.12452549386E+04  0.50400001928E-02 0. -1.
</event>
<event>
 5   0  0.2254269E-06  0.2402935E+04  0.7818609E-02  0.8438406E-01
        1   -1    0    0  501    0  0.00000000000E+00  0.00000000000E+00  0.14387036696E+04  0.14387036696E+04  0.50400001928E-02 0. -1.
       -1   -1    0    0    0  501  0.00000000000E+00  0.00000000000E+00 -0.10033505958E+04  0.10033505958E+04  0.50400001928E-02 0.  1.
    10030    2    1    2    0    0  0.00000000000E+00  0.00000000000E+00  0.43535307377E+03  0.24420542655E+04  0.24029350255E+04 0.  0.
        2    1    3    3  502    0  0.18298089826E+03  0.11499941110E+04 -0.83038775815E+02  0.11674176214E+04  0.25500000920E-02 0.  1.
       -2    1    3    3    0  502 -0.18298089826E+03 -0.11499941110E+04  0.51839184959E+03  0.12746366440E+04  0.25500000920E-02 0. -1.
</event>
<event>
 5   0  0.5440503E-06  0.2420335E+04  0.7818609E-02  0.8431929E-01
       -2   -1    0    0    0  501  0.00000000000E+00  0.00000000000E+00  0.14491549635E+04  0.14491549635E+04  0.25500000920E-02 0. -1.
        2   -1    0    0  501    0  0.00000000000E+00  0.00000000000E+00 -0.10105926880E+04  0.10105926880E+04  0.25500000920E-02 0.  1.
    10030    2    1    2    0    0  0.00000000000E+00  0.00000000000E+00  0.43856227551E+03  0.24597476516E+04  0.24203350264E+04 0.  0.
        3    1    3    3  502    0  0.76551835259E+03 -0.49111093669E+03 -0.59202738775E+03  0.10852210551E+04  0.10100000352E+00 0.  1.
       -3    1    3    3    0  502 -0.76551835259E+03  0.49111093669E+03  0.10305896633E+04  0.13745265965E+04  0.10100000352E+00 0. -1.
</event>
<event>
 5   0  0.2254269E-06  0.2398758E+04  0.7818609E-02  0.8439969E-01
        1   -1    0    0  501    0  0.00000000000E+00  0.00000000000E+00  0.18548596231E+04  0.18548596231E+04  0.50400001928E-02 0.  1.
       -1   -1    0    0    0  501  0.00000000000E+00  0.00000000000E+00 -0.77553569282E+03  0.77553569284E+03  0.50400001928E-02 0. -1.
    10030    2    1    2    0    0  0.00000000000E+00  0.00000000000E+00  0.10793239303E+04  0.26303953160E+04  0.23987578810E+04 0.  0.
        2    1    3    3  502    0  0.78743826551E+03 -0.23511985732E+03 -0.41829302293E+03  0.92212223829E+03  0.25500000920E-02 0. -1.
       -2    1    3    3    0  502 -0.78743826551E+03  0.23511985732E+03  0.14976169532E+04  0.17082730777E+04  0.25500000920E-02 0.  1.
</event>
<event>
 5   0  0.5371843E-06  0.2383955E+04  0.7818609E-02  0.8445535E-01
        2   -1    0    0  501    0  0.00000000000E+00  0.00000000000E+00  0.16049764371E+04  0.16049764371E+04  0.25500000920E-02 0.  1.
       -2   -1    0    0    0  501  0.00000000000E+00  0.00000000000E+00 -0.88525343887E+03  0.88525343888E+03  0.25500000920E-02 0. -1.
    10030    2    1    2    0    0  0.00000000000E+00  0.00000000000E+00  0.71972299818E+03  0.24902298759E+04  0.23839554612E+04 0.  0.
        4    1    3    3  502    0 -0.44042193753E+03  0.99286316480E+03 -0.15300504973E+03  0.10968869154E+04  0.12699999809E+01 0.  1.
       -4    1    3    3    0  502  0.44042193753E+03 -0.99286316480E+03  0.87272804791E+03  0.13933429605E+04  0.12699999809E+01 0. -1.
</event>
<event>
 5   0  0.2215700E-06  0.2399712E+04  0.7818609E-02  0.8439611E-01
       -1   -1    0    0    0  501  0.00000000000E+00  0.00000000000E+00  0.10579700808E+04  0.10579700808E+04  0.50400001928E-02 0.  1.
        1   -1    0    0  501    0  0.00000000000E+00  0.00000000000E+00 -0.13607704233E+04  0.13607704233E+04  0.50400001928E-02 0. -1.
    10030    2    1    2    0    0  0.00000000000E+00  0.00000000000E+00 -0.30280034247E+03  0.24187405041E+04  0.23997119783E+04 0.  0.
        3    1    3    3  502    0 -0.89210552565E+03  0.71430253209E+03  0.21697566715E+03  0.11632535521E+04  0.10100000352E+00 0.  1.
       -3    1    3    3    0  502  0.89210552565E+03 -0.71430253209E+03 -0.51977600962E+03  0.12554869520E+04  0.10100000352E+00 0. -1.
</event>
<event>
 5   0  0.2297414E-06  0.2407336E+04  0.7818609E-02  0.8436762E-01
       -1   -1    0    0    0  501  0.00000000000E+00  0.00000000000E+00  0.21556608484E+04  0.21556608485E+04  0.50400001928E-02 0. -1.
        1   -1    0    0  501    0  0.00000000000E+00  0.00000000000E+00 -0.67209839471E+03  0.67209839473E+03  0.50400001928E-02 0.  1.
    10030    2    1    2    0    0  0.00000000000E+00  0.00000000000E+00  0.14835624537E+04  0.28277592432E+04  0.24073356192E+04 0.  0.
        1    1    3    3  502    0  0.90155077108E+02 -0.72728211003E+03 -0.37983280644E+03  0.82543332037E+03  0.50400001928E-02 0.  1.
       -1    1    3    3    0  502 -0.90155077108E+02  0.72728211003E+03  0.18633952602E+04  0.20023259228E+04  0.50400001928E-02 0. -1.
</event>
<event>
 5   0  0.5371843E-06  0.2401709E+04  0.7818609E-02  0.8438864E-01
        2   -1    0    0  501    0  0.00000000000E+00  0.00000000000E+00  0.12421334474E+04  0.12421334474E+04  0.25500000920E-02 0. -1.
       -2   -1    0    0    0  501  0.00000000000E+00  0.00000000000E+00 -0.11609476836E+04  0.11609476836E+04  0.25500000920E-02 0.  1.
    10030    2    1    2    0    0  0.00000000000E+00  0.00000000000E+00  0.81185763792E+02  0.24030811309E+04  0.24017093483E+04 0.  0.
        4    1    3    3  502    0  0.14247612028E+03  0.10525439464E+04  0.60118258615E+03  0.12204795446E+04  0.12699999809E+01 0. -1.
       -4    1    3    3    0  502 -0.14247612028E+03 -0.10525439464E+04 -0.51999682236E+03  0.11826015864E+04  0.12699999809E+01 0.  1.
</event>
<event>
 5   0  0.5379778E-06  0.2420571E+04  0.7818609E-02  0.8431842E-01
       -2   -1    0    0    0  501  0.00000000000E+00  0.00000000000E+00  0.69540171442E+03  0.69540171443E+03  0.25500000920E-02 0.  1.
        2   -1    0    0  501    0  0.00000000000E+00  0.00000000000E+00 -0.21063953606E+04  0.21063953606E+04  0.25500000920E-02 0. -1.
    10030    2    1    2    0    0  0.00000000000E+00  0.00000000000E+00 -0.14109936462E+04  0.28017970750E+04  0.24205709616E+04 0.  0.
        5    1    3    3  502    0  0.20524686363E+03 -0.10948200290E+04 -0.12533373978E+04  0.16767927402E+04  0.46999998093E+01 0. -1.
       -5    1    3    3    0  502 -0.20524686363E+03  0.10948200290E+04 -0.15765624842E+03  0.11250043349E+04  0.46999998093E+01 0.  1.
</event>
<event>
 5   0  0.2254269E-06  0.2404453E+04  0.7818609E-02  0.8437838E-01
        1   -1    0    0  501    0  0.00000000000E+00  0.00000000000E+00  0.16076024166E+04  0.16076024166E+04  0.50400001928E-02 0. -1.
       -1   -1    0    0    0  501  0.00000000000E+00  0.00000000000E+00 -0.89907091455E+03  0.89907091456E+03  0.50400001928E-02 0.  1.
    10030    2    1    2    0    0  0.00000000000E+00  0.00000000000E+00  0.70853150205E+03  0.25066733312E+04  0.24044530147E+04 0.  0.
        2    1    3    3  502    0  0.67016986932E+03 -0.28342255397E+03  0.13519743498E+04  0.15353470749E+04  0.25500000920E-02 0. -1.
       -2    1    3    3    0  502 -0.67016986932E+03  0.28342255397E+03 -0.64344284774E+03  0.97132625629E+03  0.25500000920E-02 0.  1.
</event>
<event>
 5   0  0.2149029E-06  0.2400682E+04  0.7818609E-02  0.8439248E-01
       -1   -1    0    0    0  501  0.00000000000E+00  0.00000000000E+00  0.87682969284E+03  0.87682969286E+03  0.50400001928E-02 0. -1.
        1   -1    0    0  501    0  0.00000000000E+00  0.00000000000E+00 -0.16432134351E+04  0.16432134351E+04  0.50400001928E-02 0.  1.
    10030    2    1    2    0    0  0.00000000000E+00  0.00000000000E+00 -0.76638374222E+03  0.25200431279E+04  0.24006818461E+04 0.  0.
        4    1    3    3  502    0  0.19797688929E+03  0.88314916941E+03 -0.12108540606E+04  0.15117263221E+04  0.12699999809E+01 0.  1.
       -4    1    3    3    0  502 -0.19797688929E+03 -0.88314916941E+03  0.44447031833E+03  0.10083168058E+04  0.12699999809E+01 0. -1.
</event>
<event>
 5   0  0.2297414E-06  0.2398181E+04  0.7818609E-02  0.8440185E-01
        1   -1    0    0  501    0  0.00000000000E+00  0.00000000000E+00  0.20728964579E+04  0.20728964579E+04  0.50400001928E-02 0. -1.
       -1   -1    0    0    0  501  0.00000000000E+00  0.00000000000E+00 -0.69362746944E+03  0.69362746945E+03  0.50400001928E-02 0.  1.
    10030    2    1    2    0    0  0.00000000000E+00  0.00000000000E+00  0.13792689885E+04  0.27665239274E+04  0.23981809144E+04 0.  0.
        1    1    3    3  502    0 -0.11302806708E+04 -0.51344884341E+02  0.11476663289E+04  0.16116167952E+04  0.50400001928E-02 0. -1.
       -1    1    3    3    0  502  0.11302806708E+04  0.51344884341E+02  0.23160265955E+03  0.11549071322E+04  0.50400001928E-02 0.  1.
</event>
<event>
 5   0  0.2149417E-06  0.2432546E+04  0.7818609E-02  0.8427418E-01
        1   -1    0    0  501    0  0.00000000000E+00  0.00000000000E+00  0.19558100448E+04  0.19558100448E+04  0.50400001928E-02 0.  1.
       -1   -1    0    0    0  501  0.00000000000E+00  0.00000000000E+00 -0.75637206255E+03  0.75637206257E+03  0.50400001928E-02 0. -1.
    10030    2    1    2    0    0  0.00000000000E+00  0.00000000000E+00  0.11994379822E+04  0.27121821074E+04  0.24325460551E+04 0.  0.
        5    1    3    3  502    0  0.10949499602E+04  0.15537411869E+02  0.95909694286E+01  0.10951122788E+04  0.46999998093E+01 0. -1.
       -5    1    3    3    0  502 -0.10949499602E+04 -0.15537411869E+02  0.11898470128E+04  0.16170698285E+04  0.46999998093E+01 0.  1.
</event>
<event>
 5   0  0.2215700E-06  0.2397804E+04  0.7818609E-02  0.8440326E-01
       -1   -1    0    0    0  501  0.00000000000E+00  0.00000000000E+00  0.10609757866E+04  0.10609757866E+04  0.50400001928E-02 0.  1.
        1   -1    0    0  501    0  0.00000000000E+00  0.00000000000E+00 -0.13547584364E+04  0.13547584364E+04  0.50400001928E-02 0. -1.
    10030    2    1    2    0    0  0.00000000000E+00  0.00000000000E+00 -0.29378264985E+03  0.24157342230E+04  0.23978039100E+04 0.  0.
        3    1    3    3  502    0 -0.47071538961E+03  0.30345820985E+03  0.92108553396E+03  0.10779881420E+04  0.10100000352E+00 0.  1.
       -3    1    3    3    0  502  0.47071538961E+03 -0.30345820985E+03 -0.12148681838E+04  0.13377460811E+04  0.10100000352E+00 0. -1.
</event>
<event>
 5   0  0.5349036E-06  0.2403599E+04  0.7818609E-02  0.8438157E-01
       -2   -1    0    0    0  501  0.00000000000E+00  0.00000000000E+00  0.14161950747E+04  0.14161950747E+04  0.25500000920E-02 0. -1.
        2   -1    0    0  501    0  0.00000000000E+00  0.00000000000E+00 -0.10198613164E+04  0.10198613164E+04  0.25500000920E-02 0.  1.
    10030    2    1    2    0    0  0.00000000000E+00  0.00000000000E+00  0.39633375828E+03  0.24360563910E+04  0.24035994451E+04 0.  0.
        1    1    3    3  502    0  0.88634037101E+03 -0.22627649638E+03  0.98812913701E+03  0.13465509636E+04  0.50400001928E-02 0. -1.
       -1    1    3    3    0  502 -0.88634037101E+03  0.22627649638E+03 -0.59179537873E+03  0.10895054274E+04  0.50400001928E-02 0.  1.
</event>
<event>
 5   0  0.2149417E-06  0.2399161E+04  0.7818609E-02  0.8439818E-01
       -1   -1    0    0    0  501  0.00000000000E+00  0.00000000000E+00  0.10805395241E+04  0.10805395242E+04  0.50400001928E-02 0.  1.
        1   -1    0    0  501    0  0.00000000000E+00  0.00000000000E+00 -0.13317355689E+04  0.13317355689E+04  0.50400001928E-02 0. -1.
    10030    2    1    2    0    0  0.00000000000E+00  0.00000000000E+00 -0.25119604475E+03  0.24122750931E+04  0.23991606182E+04 0.  0.
        5    1    3    3  502    0 -0.17845140589E+03 -0.11571543698E+04  0.13682614868E+03  0.11788106824E+04  0.46999998093E+01 0.  1.
       -5    1    3    3    0  502  0.17845140589E+03  0.11571543698E+04 -0.38802219344E+03  0.12334644107E+04  0.46999998093E+01 0. -1.
</event>
<event>
 5   0  0.2297414E-06  0.2390136E+04  0.7818609E-02  0.8443206E-01
        1   -1    0    0  501    0  0.00000000000E+00  0.00000000000E+00  0.19193114278E+04  0.19193114278E+04  0.50400001928E-02 0. -1.
       -1   -1    0    0    0  501  0.00000000000E+00  0.00000000000E+00 -0.74411455768E+03  0.74411455770E+03  0.50400001928E-02 0.  1.
    10030    2    1    2    0    0  0.00000000000E+00  0.00000000000E+00  0.11751968701E+04  0.26634259855E+04  0.23901360414E+04 0.  0.
        1    1    3    3  502    0 -0.11781593822E+04 -0.13591505616E+03  0.75158132156E+03  0.14040679882E+04  0.50400001928E-02 0. -1.
       -1    1    3    3    0  502  0.11781593822E+04  0.13591505616E+03  0.42361554851E+03  0.12593579973E+04  0.50400001928E-02 0.  1.
</event>
<event>
 5   0  0.2215700E-06  0.2399819E+04  0.7818609E-02  0.8439571E-01
       -1   -1    0    0    0  501  0.00000000000E+00  0.00000000000E+00  0.10826667092E+04  0.10826667092E+04  0.50400001928E-02 0.  1.
        1   -1    0    0  501    0  0.00000000000E+00  0.00000000000E+00 -0.13298483444E+04  0.13298483444E+04  0.50400001928E-02 0. -1.
    10030    2    1    2    0    0  0.00000000000E+00  0.00000000000E+00 -0.24718163517E+03  0.24125150536E+04  0.23998187688E+04 0.  0.
        3    1    3    3  502    0  0.58193645151E+03  0.40713521670E+03 -0.10958545693E+04  0.13058737939E+04  0.10100000352E+00 0. -1.
       -3    1    3    3    0  502 -0.58193645151E+03 -0.40713521670E+03  0.84867293416E+03  0.11066412597E+04  0.10100000352E+00 0.  1.
</event>
<event>
 5   0  0.2149029E-06  0.2399609E+04  0.7818609E-02  0.8439650E-01
        1   -1    0    0  501    0  0.00000000000E+00  0.00000000000E+00  0.21151689653E+04  0.21151689653E+04  0.50400001928E-02 0.  1.
       -1   -1    0    0    0  501  0.00000000000E+00  0.00000000000E+00 -0.68057508156E+03  0.68057508158E+03  0.50400001928E-02 0. -1.
    10030    2    1    2    0    0  0.00000000000E+00  0.00000000000E+00  0.14345938837E+04  0.27957440468E+04  0.23996093774E+04 0.  0.
        4    1    3    3  502    0 -0.43773644410E+03  0.10420025454E+04  0.11864467652E+04  0.16386091781E+04  0.12699999809E+01 0.  1.
       -4    1    3    3    0  502  0.43773644410E+03 -0.10420025454E+04  0.24814711845E+03  0.11571348687E+04  0.12699999809E+01 0. -1.
</event>
<event>
 5   0  0.2215700E-06  0.2400152E+04  0.7818609E-02  0.8439447E-01
        1   -1    0    0  501    0  0.00000000000E+00  0.00000000000E+00  0.15078275482E+04  0.15078275482E+04  0.50400001928E-02 0.  1.
       -1   -1    0    0    0  501  0.00000000000E+00  0.00000000000E+00 -0.95513752923E+03  0.95513752924E+03  0.50400001928E-02 0. -1.
    10030    2    1    2    0    0  0.00000000000E+00  0.00000000000E+00  0.55269001898E+03  0.24629650775E+04  0.24001522276E+04 0.  0.
        3    1    3    3  502    0 -0.75535257171E+03  0.54242993353E+03  0.10547443897E+04  0.14061555668E+04  0.10100000352E+00 0.  1.
       -3    1    3    3    0  502  0.75535257171E+03 -0.54242993353E+03 -0.50205437070E+03  0.10568095106E+04  0.10100000352E+00 0. -1.
</event>
<event>
 5   0  0.5349036E-06  0.2401717E+04  0.7818609E-02  0.8438861E-01
       -2   -1    0    0    0  501  0.00000000000E+00  0.00000000000E+00  0.97913523222E+03  0.97913523222E+03  0.25500000920E-02 0. -1.
        2   -1    0    0  501    0  0.00000000000E+00  0.00000000000E+00 -0.14727910069E+04  0.14727910069E+04  0.25500000920E-02 0.  1.
    10030    2    1    2    0    0  0.00000000000E+00  0.00000000000E+00 -0.49365577468E+03  0.24519262391E+04  0.24017173560E+04 0.  0.
        1    1    3    3  502    0 -0.94364346368E+03 -0.71565853891E+03 -0.44955264437E+03  0.12667784775E+04  0.50400001928E-02 0. -1.
       -1    1    3    3    0  502  0.94364346368E+03  0.71565853891E+03 -0.44103130306E+02  0.11851477617E+04  0.50400001928E-02 0.  1.
</event>
<event>
 5   0  0.5379778E-06  0.2400385E+04  0.7818609E-02  0.8439359E-01
        2   -1    0    0  501    0  0.00000000000E+00  0.00000000000E+00  0.13040966556E+04  0.13040966556E+04  0.25500000920E-02 0. -1.
       -2   -1    0    0    0  501  0.00000000000E+00  0.00000000000E+00 -0.11045671093E+04  0.11045671093E+04  0.25500000920E-02 0.  1.
    10030    2    1    2    0    0  0.00000000000E+00  0.00000000000E+00  0.19952954628E+03  0.24086637649E+04  0.24003851967E+04 0.  0.
        5    1    3    3  502    0 -0.58283823370E+03 -0.19813276781E+03 -0.93407157805E+03  0.11186906647E+04  0.46999998093E+01 0.  1.
       -5    1    3    3    0  502  0.58283823370E+03  0.19813276781E+03  0.11336011243E+04  0.12899731003E+04  0.46999998093E+01 0. -1.
</event>
<event>
 5   0  0.2215700E-06  0.2433859E+04  0.7818609E-02  0.8426935E-01
        1   -1    0    0  501    0  0.00000000000E+00  0.00000000000E+00  0.20498891249E+04  0.20498891249E+04  0.50400001928E-02 0. -1.
       -1   -1    0    0    0  501  0.00000000000E+00  0.00000000000E+00 -0.72243753911E+03  0.72243753913E+03  0.50400001928E-02 0.  1.
    10030    2    1    2    0    0  0.00000000000E+00  0.00000000000E+00  0.13274515858E+04  0.27723266640E+04  0.24338585455E+04 0.  0.
        3    1    3    3  502    0  0.15899849993E+03 -0.89078687340E+02 -0.70680422443E+03  0.72992311745E+03  0.10100000352E+00 0.  1.
       -3    1    3    3    0  502 -0.15899849993E+03  0.89078687340E+02  0.20342558102E+04  0.20424035466E+04  0.10100000352E+00 0. -1.
</event>
<event>
 5   0  0.2254269E-06  0.2396828E+04  0.7818609E-02  0.8440692E-01
       -1   -1    0    0    0  501  0.00000000000E+00  0.00000000000E+00  0.12258763183E+04  0.12258763183E+04  0.50400001928E-02 0. -1.
        1   -1    0    0  501    0  0.00000000000E+00  0.00000000000E+00 -0.11715665530E+04  0.11715665530E+04  0.50400001928E-02 0.  1.
    10030    2    1    2    0    0  0.00000000000E+00  0.00000000000E+00  0.54309765276E+02  0.23974428714E+04  0.23968276473E+04 0.  0.
        2    1    3    3  502    0 -0.84420252863E+03  0.58855336511E+03 -0.58710593033E+03  0.11848064595E+04  0.25500000920E-02 0.  1.
       -2    1    3    3    0  502  0.84420252863E+03 -0.58855336511E+03  0.64141569561E+03  0.12126364119E+04  0.25500000920E-02 0. -1.
</event>
<event>
 5   0  0.2149029E-06  0.2401070E+04  0.7818609E-02  0.8439103E-01
       -1   -1    0    0    0  501  0.00000000000E+00  0.00000000000E+00  0.11679881773E+04  0.11679881773E+04  0.50400001928E-02 0.  1.
        1   -1    0    0  501    0  0.00000000000E+00  0.00000000000E+00 -0.12339887741E+04  0.12339887741E+04  0.50400001928E-02 0. -1.
    10030    2    1    2    0    0  0.00000000000E+00  0.00000000000E+00 -0.66000596829E+02  0.24019769515E+04  0.24010700108E+04 0.  0.
        4    1    3    3  502    0 -0.68036094591E+03 -0.62760163558E+03  0.73181961811E+03  0.11799730489E+04  0.12699999809E+01 0.  1.
       -4    1    3    3    0  502  0.68036094591E+03  0.62760163558E+03 -0.79782021494E+03  0.12220039026E+04  0.12699999809E+01 0. -1.
</event>
<event>
 5   0  0.2254269E-06  0.2397577E+04  0.7818609E-02  0.8440411E-01
        1   -1    0    0  501    0  0.00000000000E+00  0.00000000000E+00  0.73965853851E+03  0.73965853853E+03  0.50400001928E-02 0. -1.
       -1   -1    0    0    0  501  0.00000000000E+00  0.00000000000E+00 -0.19429146890E+04  0.19429146890E+04  0.50400001928E-02 0.  1.
    10030    2    1    2    0    0  0.00000000000E+00  0.00000000000E+00 -0.12032561505E+04  0.26825732276E+04  0.23975766427E+04 0.  0.
        2    1    3    3  502    0  0.22892428409E+03  0.44879504450E+03 -0.18187134277E+04  0.18872047721E+04  0.25500000920E-02 0.  1.
       -2    1    3    3    0  502 -0.22892428409E+03 -0.44879504450E+03  0.61545727720E+03  0.79536845542E+03  0.25500000920E-02 0. -1.
</event>
<event>
 5   0  0.2297414E-06  0.2397580E+04  0.7818609E-02  0.8440410E-01
        1   -1    0    0  501    0  0.00000000000E+00  0.00000000000E+00  0.22348172649E+04  0.22348172649E+04  0.50400001928E-02 0.  1.
       -1   -1    0    0    0  501  0.00000000000E+00  0.00000000000E+00 -0.64304927433E+03  0.64304927435E+03  0.50400001928E-02 0. -1.
    10030    2    1    2    0    0  0.00000000000E+00  0.00000000000E+00  0.15917679906E+04  0.28778665392E+04  0.23975801304E+04 0.  0.
        1    1    3    3  502    0  0.61555609515E+03  0.10198172266E+04  0.95764321941E+03  0.15284034211E+04  0.50400001928E-02 0. -1.
       -1    1    3    3    0  502 -0.61555609515E+03 -0.10198172266E+04  0.63412477114E+03  0.13494631182E+04  0.50400001928E-02 0.  1.
</event>
<event>
 5   0  0.2149417E-06  0.2402597E+04  0.7818609E-02  0.8438532E-01
       -1   -1    0    0    0  501  0.00000000000E+00  0.00000000000E+00  0.12349314768E+04  0.12349314768E+04  0.50400001928E-02 0.  1.
        1   -1    0    0  501    0  0.00000000000E+00  0.00000000000E+00 -0.11685814834E+04  0.11685814834E+04  0.50400001928E-02 0. -1.
    10030    2    1    2    0    0  0.00000000000E+00  0.00000000000E+00  0.66349993397E+02  0.24035129603E+04  0.24025969759E+04 0.  0.
        5    1    3    3  502    0 -0.11706823083E+03  0.98814944014E+03  0.70644843278E+03  0.12203424785E+04  0.46999998093E+01 0.  1.
       -5    1    3    3    0  502  0.11706823083E+03 -0.98814944014E+03 -0.64009843939E+03  0.11831704817E+04  0.46999998093E+01 0. -1.
</event>
<event>
 5   0  0.5379778E-06  0.2430048E+04  0.7818609E-02  0.8428339E-01
        2   -1    0    0  501    0  0.00000000000E+00  0.00000000000E+00  0.66929268499E+03  0.66929268500E+03  0.25500000920E-02 0.  1.
       -2   -1    0    0    0  501  0.00000000000E+00  0.00000000000E+00 -0.22057373863E+04  0.22057373863E+04  0.25500000920E-02 0. -1.
    10030    2    1    2    0    0  0.00000000000E+00  0.00000000000E+00 -0.15364447013E+04  0.28750300713E+04  0.24300484749E+04 0.  0.
        5    1    3    3  502    0 -0.91712186319E+03  0.79691735676E+03 -0.77826297364E+03  0.14428808446E+04  0.46999998093E+01 0. -1.
       -5    1    3    3    0  502  0.91712186319E+03 -0.79691735676E+03 -0.75818172762E+03  0.14321492267E+04  0.46999998093E+01 0.  1.
</event>
<event>
 5   0  0.5371843E-06  0.2399931E+04  0.7818609E-02  0.8439529E-01
       -2   -1    0    0    0  501  0.00000000000E+00  0.00000000000E+00  0.68841025626E+03  0.68841025626E+03  0.25500000920E-02 0. -1.
        2   -1    0    0  501    0  0.00000000000E+00  0.00000000000E+00 -0.20916552137E+04  0.20916552137E+04  0.25500000920E-02 0.  1.
    10030    2    1    2    0    0  0.00000000000E+00  0.00000000000E+00 -0.14032449575E+04  0.27800654700E+04  0.23999307504E+04 0.  0.
        4    1    3    3  502    0  0.30202584839E+03  0.50962380985E+03 -0.19104549437E+04  0.20001939269E+04  0.12699999809E+01 0.  1.
       -4    1    3    3    0  502 -0.30202584839E+03 -0.50962380985E+03  0.50720998620E+03  0.77987154305E+03  0.12699999809E+01 0. -1.
</event>
<event>
 5   0  0.2149417E-06  0.2401024E+04  0.7818609E-02  0.8439120E-01
       -1   -1    0    0    0  501  0.00000000000E+00  0.00000000000E+00  0.14768994231E+04  0.14768994231E+04  0.50400001928E-02 0. -1.
        1   -1    0    0  501    0  0.00000000000E+00  0.00000000000E+00 -0.97584777441E+03  0.97584777442E+03  0.50400001928E-02 0.  1.
    10030    2    1    2    0    0  0.00000000000E+00  0.00000000000E+00  0.50105164872E+03  0.24527471976E+04  0.24010239608E+04 0.  0.
        5    1    3    3  502    0  0.58319161855E+03 -0.55170381391E+03 -0.66129275040E+03  0.10401056456E+04  0.46999998093E+01 0.  1.
       -5    1    3    3    0  502 -0.58319161855E+03  0.55170381391E+03  0.11623443991E+04  0.14126415520E+04  0.46999998093E+01 0. -1.
</event>
<event>
 5   0  0.1796750E-06  0.2396227E+04  0.7818609E-02  0.8440917E-01
        3   -1    0    0  501    0  0.00000000000E+00  0.00000000000E+00  0.20691463483E+04  0.20691463508E+04  0.10100000352E+00 0.  1.
       -3   -1    0    0    0  501  0.00000000000E+00  0.00000000000E+00 -0.69375269697E+03  0.69375270432E+03  0.10100000352E+00 0. -1.
    10030    2    1    2    0    0  0.00000000000E+00  0.00000000000E+00  0.13753936514E+04  0.27628990551E+04  0.23962269284E+04 0.  0.
        5    1    3    3  502    0 -0.15489841428E+03  0.16774914726E+03 -0.66842428947E+03  0.70636139185E+03  0.46999998093E+01 0. -1.
       -5    1    3    3    0  502  0.15489841428E+03 -0.16774914726E+03  0.20438179408E+04  0.20565376633E+04  0.46999998093E+01 0.  1.
</event>
<event>
 5   0  0.5440503E-06  0.2407341E+04  0.7818609E-02  0.8436760E-01
        2   -1    0    0  501    0  0.00000000000E+00  0.00000000000E+00  0.14404657443E+04  0.14404657443E+04  0.25500000920E-02 0. -1.
       -2   -1    0    0    0  501  0.00000000000E+00  0.00000000000E+00 -0.10058014630E+04  0.10058014630E+04  0.25500000920E-02 0.  1.
    10030    2    1    2    0    0  0.00000000000E+00  0.00000000000E+00  0.43466428129E+03  0.24462672073E+04  0.24073409007E+04 0.  0.
        3    1    3    3  502    0  0.92224841582E+03 -0.66761649970E+03  0.61424840583E+03  0.12936595555E+04  0.10100000352E+00 0. -1.
       -3    1    3    3    0  502 -0.92224841582E+03  0.66761649970E+03 -0.17958412453E+03  0.11526076519E+04  0.10100000352E+00 0.  1.
</event>
<event>
 5   0  0.5371843E-06  0.2412562E+04  0.7818609E-02  0.8434815E-01
       -2   -1    0    0    0  501  0.00000000000E+00  0.00000000000E+00  0.11368734973E+04  0.11368734973E+04  0.25500000920E-02 0. -1.
        2   -1    0    0  501    0  0.00000000000E+00  0.00000000000E+00 -0.12799262648E+04  0.12799262648E+04  0.25500000920E-02 0.  1.
    10030    2    1    2    0    0  0.00000000000E+00  0.00000000000E+00 -0.14305276751E+03  0.24167997621E+04  0.24125623299E+04 0.  0.
        4    1    3    3  502    0 -0.22981998290E+03 -0.41586376930E+03  0.10391828525E+04  0.11426559032E+04  0.12699999809E+01 0. -1.
       -4    1    3    3    0  502  0.22981998290E+03  0.41586376930E+03 -0.11822356200E+04  0.12741438590E+04  0.12699999809E+01 0.  1.
</event>
<event>
 5   0  0.5371843E-06  0.2402159E+04  0.7818609E-02  0.8438696E-01
        2   -1    0    0  501    0  0.00000000000E+00  0.00000000000E+00  0.22501767634E+04  0.22501767634E+04  0.25500000920E-02 0.  1.
       -2   -1    0    0    0  501  0.00000000000E+00  0.00000000000E+00 -0.64110173804E+03  0.64110173804E+03  0.25500000920E-02 0. -1.
    10030    2    1    2    0    0  0.00000000000E+00  0.00000000000E+00  0.16090750254E+04  0.28912785015E+04  0.24021592236E+04 0.  0.
        4    1    3    3  502    0  0.29159089424E+03  0.83313632540E+03  0.17849119643E+04  0.19912442642E+04  0.12699999809E+01 0.  1.
       -4    1    3    3    0  502 -0.29159089424E+03 -0.83313632540E+03 -0.17583693894E+03  0.90003423729E+03  0.12699999809E+01 0. -1.
</event>
<event>
 5   0  0.2297414E-06  0.2399000E+04  0.7818609E-02  0.8439878E-01
        1   -1    0    0  501    0  0.00000000000E+00  0.00000000000E+00  0.10575912321E+04  0.10575912321E+04  0.50400001928E-02 0. -1.
       -1   -1    0    0    0  501  0.00000000000E+00  0.00000000000E+00 -0.13604506019E+04  0.13604506019E+04  0.50400001928E-02 0.  1.
    10030    2    1    2    0    0  0.00000000000E+00  0.00000000000E+00 -0.30285936984E+03  0.24180418340E+04  0.23990003153E+04 0.  0.
        1    1    3    3  502    0  0.74389717157E+03 -0.81899435207E+03  0.31556830723E+03  0.11505294899E+04  0.50400001928E-02 0. -1.
       -1    1    3    3    0  502 -0.74389717157E+03  0.81899435207E+03 -0.61842767707E+03  0.12675123441E+04  0.50400001928E-02 0.  1.
</event>
<event>
 5   0  0.2149417E-06  0.2394887E+04  0.7818609E-02  0.8441420E-01
        1   -1    0    0  501    0  0.00000000000E+00  0.00000000000E+00  0.10977012973E+04  0.10977012973E+04  0.50400001928E-02 0.  1.
       -1   -1    0    0    0  501  0.00000000000E+00  0.00000000000E+00 -0.13062486212E+04  0.13062486212E+04  0.50400001928E-02 0. -1.
    10030    2    1    2    0    0  0.00000000000E+00  0.00000000000E+00 -0.20854732388E+03  0.24039499185E+04  0.23948868917E+04 0.  0.
        5    1    3    3  502    0 -0.94694427028E+03 -0.69395603579E+03  0.13235193500E+03  0.11814472292E+04  0.46999998093E+01 0.  1.
       -5    1    3    3    0  502  0.94694427028E+03  0.69395603579E+03 -0.34089925888E+03  0.12225026893E+04  0.46999998093E+01 0. -1.
</event>
<event>
 5   0  0.2215700E-06  0.2394503E+04  0.7818609E-02  0.8441564E-01
       -1   -1    0    0    0  501  0.00000000000E+00  0.00000000000E+00  0.91056484157E+03  0.91056484158E+03  0.50400001928E-02 0. -1.
        1   -1    0    0  501    0  0.00000000000E+00  0.00000000000E+00 -0.15742000229E+04  0.15742000230E+04  0.50400001928E-02 0.  1.
    10030    2    1    2    0    0  0.00000000000E+00  0.00000000000E+00 -0.66363518138E+03  0.24847648645E+04  0.23945030336E+04 0.  0.
        3    1    3    3  502    0  0.42605749038E+03 -0.86606325550E+03  0.40327858661E+03  0.10460517082E+04  0.10100000352E+00 0. -1.
       -3    1    3    3    0  502 -0.42605749038E+03  0.86606325550E+03 -0.10669137680E+04  0.14387131563E+04  0.10100000352E+00 0.  1.
</event>
<event>
 5   0  0.5349036E-06  0.2401368E+04  0.7818609E-02  0.8438992E-01
       -2   -1    0    0    0  501  0.00000000000E+00  0.00000000000E+00  0.12615251292E+04  0.12615251292E+04  0.25500000920E-02 0. -1.
        2   -1    0    0  501    0  0.00000000000E+00  0.00000000000E+00 -0.11427771214E+04  0.11427771214E+04  0.25500000920E-02 0.  1.
    10030    2    1    2    0    0  0.00000000000E+00  0.00000000000E+00  0.11874800778E+03  0.24043022506E+04  0.24013679899E+04 0.  0.
        1    1    3    3  502    0  0.71625778173E+02 -0.16838749362E+03 -0.11287340920E+04  0.11434707038E+04  0.50400001928E-02 0.  1.
       -1    1    3    3    0  502 -0.71625778173E+02  0.16838749362E+03  0.12474820997E+04  0.12608315468E+04  0.50400001928E-02 0. -1.
</event>
<event>
 5   0  0.2149029E-06  0.2325137E+04  0.7818609E-02  0.8468076E-01
       -1   -1    0    0    0  501  0.00000000000E+00  0.00000000000E+00  0.92475843532E+03  0.92475843534E+03  0.50400001928E-02 0. -1.
        1   -1    0    0  501    0  0.00000000000E+00  0.00000000000E+00 -0.14615332682E+04  0.14615332682E+04  0.50400001928E-02 0.  1.
    10030    2    1    2    0    0  0.00000000000E+00  0.00000000000E+00 -0.53677483288E+03  0.23862917035E+04  0.23251367429E+04 0.  0.
        4    1    3    3  502    0  0.84599040697E+03 -0.52224549807E+03 -0.88683400180E+03  0.13322598427E+04  0.12699999809E+01 0.  1.
       -4    1    3    3    0  502 -0.84599040697E+03  0.52224549807E+03  0.35005916892E+03  0.10540318608E+04  0.12699999809E+01 0. -1.
</event>
<event>
 5   0  0.5440503E-06  0.2397518E+04  0.7818609E-02  0.8440433E-01
       -2   -1    0    0    0  501  0.00000000000E+00  0.00000000000E+00  0.80129095049E+03  0.80129095049E+03  0.25500000920E-02 0. -1.
        2   -1    0    0  501    0  0.00000000000E+00  0.00000000000E+00 -0.17933852328E+04  0.17933852328E+04  0.25500000920E-02 0.  1.
    10030    2    1    2    0    0  0.00000000000E+00  0.00000000000E+00 -0.99209428234E+03  0.25946761833E+04  0.23975181816E+04 0.  0.
        3    1    3    3  502    0  0.70268993118E+03  0.82652998169E+03  0.55890603211E+02  0.10863004740E+04  0.10100000352E+00 0. -1.
       -3    1    3    3    0  502 -0.70268993118E+03 -0.82652998169E+03 -0.10479848856E+04  0.15083757094E+04  0.10100000352E+00 0.  1.
</event>
<event>
 5   0  0.2149417E-06  0.2396522E+04  0.7818609E-02  0.8440807E-01
       -1   -1    0    0    0  501  0.00000000000E+00  0.00000000000E+00  0.86977631439E+03  0.86977631441E+03  0.50400001928E-02 0. -1.
        1   -1    0    0  501    0  0.00000000000E+00  0.00000000000E+00 -0.16508037557E+04  0.16508037557E+04  0.50400001928E-02 0.  1.
    10030    2    1    2    0    0  0.00000000000E+00  0.00000000000E+00 -0.78102744127E+03  0.25205800701E+04  0.23965224859E+04 0.  0.
        5    1    3    3  502    0  0.36157496653E+03  0.89503437338E+02  0.80732713703E+03  0.88912682891E+03  0.46999998093E+01 0. -1.
       -5    1    3    3    0  502 -0.36157496653E+03 -0.89503437338E+02 -0.15883545783E+04  0.16314532412E+04  0.46999998093E+01 0.  1.
</event>
<event>
 5   0  0.5440503E-06  0.2393956E+04  0.7818609E-02  0.8441770E-01
        2   -1    0    0  501    0  0.00000000000E+00  0.00000000000E+00  0.11213174744E+04  0.11213174744E+04  0.25500000920E-02 0.  1.
       -2   -1    0    0    0  501  0.00000000000E+00  0.00000000000E+00 -0.12777438432E+04  0.12777438432E+04  0.25500000920E-02 0. -1.
    10030    2    1    2    0    0  0.00000000000E+00  0.00000000000E+00 -0.15642636881E+03  0.23990613176E+04  0.23939561393E+04 0.  0.
        3    1    3    3  502    0  0.38895541430E+03 -0.45417070720E+03 -0.11173425399E+04  0.12672851720E+04  0.10100000352E+00 0. -1.
       -3    1    3    3    0  502 -0.38895541430E+03  0.45417070720E+03  0.96091617110E+03  0.11317761456E+04  0.10100000352E+00 0.  1.
</event>
<event>
 5   0  0.5349036E-06  0.2390513E+04  0.7818609E-02  0.8443064E-01
       -2   -1    0    0    0  501  0.00000000000E+00  0.00000000000E+00  0.67455003819E+03  0.67455003819E+03  0.25500000920E-02 0.  1.
        2   -1    0    0  501    0  0.00000000000E+00  0.00000000000E+00 -0.21179131956E+04  0.21179131956E+04  0.25500000920E-02 0. -1.
    10030    2    1    2    0    0  0.00000000000E+00  0.00000000000E+00 -0.14433631574E+04  0.27924632338E+04  0.23905132729E+04 0.  0.
        1    1    3    3  502    0  0.75650542176E+02 -0.41021995505E+03  0.58676201644E+03  0.71992574618E+03  0.50400001928E-02 0.  1.
       -1    1    3    3    0  502 -0.75650542176E+02  0.41021995505E+03 -0.20301251738E+04  0.20725374876E+04  0.50400001928E-02 0. -1.
</event>
<event>
 5   0  0.2149417E-06  0.2395431E+04  0.7818609E-02  0.8441216E-01
       -1   -1    0    0    0  501  0.00000000000E+00  0.00000000000E+00  0.12018420584E+04  0.12018420584E+04  0.50400001928E-02 0. -1.
        1   -1    0    0  501    0  0.00000000000E+00  0.00000000000E+00 -0.11936032008E+04  0.11936032008E+04  0.50400001928E-02 0.  1.
    10030    2    1    2    0    0  0.00000000000E+00  0.00000000000E+00  0.82388575860E+01  0.23954452592E+04  0.23954310908E+04 0.  0.
        5    1    3    3  502    0  0.41481058432E+03  0.98942400930E+03 -0.52830530768E+03  0.11958914161E+04  0.46999998093E+01 0.  1.
       -5    1    3    3    0  502 -0.41481058432E+03 -0.98942400930E+03  0.53654416526E+03  0.11995538430E+04  0.46999998093E+01 0. -1.
</event>
<event>
 5   0  0.2254269E-06  0.2406287E+04  0.7818609E-02  0.8437154E-01
        1   -1    0    0  501    0  0.00000000000E+00  0.00000000000E+00  0.17706031724E+04  0.17706031725E+04  0.50400001928E-02 0. -1.
       -1   -1    0    0    0  501  0.00000000000E+00  0.00000000000E+00 -0.81754838960E+03  0.81754838962E+03  0.50400001928E-02 0.  1.
    10030    2    1    2    0    0  0.00000000000E+00  0.00000000000E+00  0.95305478284E+03  0.25881515621E+04  0.24062865767E+04 0.  0.
        2    1    3    3  502    0 -0.11747806996E+04  0.18091016841E+03  0.27612419733E+03  0.12202797849E+04  0.25500000920E-02 0.  1.
       -2    1    3    3    0  502  0.11747806996E+04 -0.18091016841E+03  0.67693058551E+03  0.13678717772E+04  0.25500000920E-02 0. -1.
</event>
<event>
 5   0  0.5268358E-06  0.2400335E+04  0.7818609E-02  0.8439378E-01
        2   -1    0    0  501    0  0.00000000000E+00  0.00000000000E+00  0.12186649120E+04  0.12186649120E+04  0.25500000920E-02 0. -1.
       -2   -1    0    0    0  501  0.00000000000E+00  0.00000000000E+00 -0.11819510156E+04  0.11819510156E+04  0.25500000920E-02 0.  1.
    10030    2    1    2    0    0  0.00000000000E+00  0.00000000000E+00  0.36713896333E+02  0.24006159276E+04  0.24003351686E+04 0.  0.
        2    1    3    3  502    0 -0.84582947721E+03  0.80240365278E+03 -0.26649754525E+03  0.11959515325E+04  0.25500000920E-02 0.  1.
       -2    1    3    3    0  502  0.84582947721E+03 -0.80240365278E+03  0.30321144158E+03  0.12046643951E+04  0.25500000920E-02 0. -1.
</event>
<event>
 5   0  0.5268358E-06  0.2398778E+04  0.7818609E-02  0.8439961E-01
       -2   -1    0    0    0  501  0.00000000000E+00  0.00000000000E+00  0.85020300515E+03  0.85020300515E+03  0.25500000920E-02 0.  1.
        2   -1    0    0  501    0  0.00000000000E+00  0.00000000000E+00 -0.16919889026E+04  0.16919889026E+04  0.25500000920E-02 0. -1.
    10030    2    1    2    0    0  0.00000000000E+00  0.00000000000E+00 -0.84178589748E+03  0.25421919078E+04  0.23987780637E+04 0.  0.
        2    1    3    3  502    0 -0.53092524660E+02  0.65018779056E+03 -0.14875302924E+04  0.16242873361E+04  0.25500000920E-02 0. -1.
       -2    1    3    3    0  502  0.53092524660E+02 -0.65018779056E+03  0.64574439496E+03  0.91790457172E+03  0.25500000920E-02 0.  1.
</event>
<event>
 5   0  0.2215700E-06  0.2401269E+04  0.7818609E-02  0.8439029E-01
        1   -1    0    0  501    0  0.00000000000E+00  0.00000000000E+00  0.13594096540E+04  0.13594096540E+04  0.50400001928E-02 0.  1.
       -1   -1    0    0    0  501  0.00000000000E+00  0.00000000000E+00 -0.10604033997E+04  0.10604033997E+04  0.50400001928E-02 0. -1.
    10030    2    1    2    0    0  0.00000000000E+00  0.00000000000E+00  0.29900625433E+03  0.24198130537E+04  0.24012685136E+04 0.  0.
        3    1    3    3  502    0  0.49542976963E+03 -0.10727809287E+04  0.36377881554E+03  0.12363836842E+04  0.10100000352E+00 0. -1.
       -3    1    3    3    0  502 -0.49542976963E+03  0.10727809287E+04 -0.64772561204E+02  0.11834293695E+04  0.10100000352E+00 0.  1.
</event>
<event>
 5   0  0.2254269E-06  0.2408494E+04  0.7818609E-02  0.8436330E-01
       -1   -1    0    0    0  501  0.00000000000E+00  0.00000000000E+00  0.10606085661E+04  0.10606085662E+04  0.50400001928E-02 0. -1.
        1   -1    0    0  501    0  0.00000000000E+00  0.00000000000E+00 -0.13673387310E+04  0.13673387310E+04  0.50400001928E-02 0.  1.
    10030    2    1    2    0    0  0.00000000000E+00  0.00000000000E+00 -0.30673016487E+03  0.24279472972E+04  0.24084942773E+04 0.  0.
        2    1    3    3  502    0 -0.18413924492E+03  0.32131522643E+03  0.10017785655E+04  0.10680407439E+04  0.25500000920E-02 0. -1.
       -2    1    3    3    0  502  0.18413924492E+03 -0.32131522643E+03 -0.13085087304E+04  0.13599065533E+04  0.25500000920E-02 0.  1.
</event>
<event>
 5   0  0.5349036E-06  0.2406434E+04  0.7818609E-02  0.8437099E-01
       -2   -1    0    0    0  501  0.00000000000E+00  0.00000000000E+00  0.15820915191E+04  0.15820915191E+04  0.25500000920E-02 0. -1.
        2   -1    0    0  501    0  0.00000000000E+00  0.00000000000E+00 -0.91507459085E+03  0.91507459085E+03  0.25500000920E-02 0.  1.
    10030    2    1    2    0    0  0.00000000000E+00  0.00000000000E+00  0.66701692826E+03  0.24971661100E+04  0.24064344990E+04 0.  0.
        1    1    3    3  502    0 -0.41175439910E+02  0.11010840693E+04  0.83510724287E+03  0.13825648815E+04  0.50400001928E-02 0.  1.
       -1    1    3    3    0  502  0.41175439910E+02 -0.11010840693E+04 -0.16809031461E+03  0.11146012284E+04  0.50400001928E-02 0. -1.
</event>
<event>
 5   0  0.2149029E-06  0.2394456E+04  0.7818609E-02  0.8441582E-01
        1   -1    0    0  501    0  0.00000000000E+00  0.00000000000E+00  0.10984879488E+04  0.10984879489E+04  0.50400001928E-02 0.  1.
       -1   -1    0    0    0  501  0.00000000000E+00  0.00000000000E+00 -0.13048430082E+04  0.13048430082E+04  0.50400001928E-02 0. -1.
    10030    2    1    2    0    0  0.00000000000E+00  0.00000000000E+00 -0.20635505937E+03  0.24033309571E+04  0.23944555287E+04 0.  0.
        4    1    3    3  502    0  0.11871232560E+04 -0.15490631540E+03 -0.93388673582E+02  0.12008249867E+04  0.12699999809E+01 0.  1.
       -4    1    3    3    0  502 -0.11871232560E+04  0.15490631540E+03 -0.11296638579E+03  0.12025059703E+04  0.12699999809E+01 0. -1.
</event>
<event>
 5   0  0.5349036E-06  0.2399315E+04  0.7818609E-02  0.8439760E-01
        2   -1    0    0  501    0  0.00000000000E+00  0.00000000000E+00  0.17283541982E+04  0.17283541982E+04  0.25500000920E-02 0. -1.
       -2   -1    0    0    0  501  0.00000000000E+00  0.00000000000E+00 -0.83268693227E+03  0.83268693227E+03  0.25500000920E-02 0.  1.
    10030    2    1    2    0    0  0.00000000000E+00  0.00000000000E+00  0.89566726591E+03  0.25610411305E+04  0.23993148648E+04 0.  0.
        1    1    3    3  502    0 -0.93491516183E+03 -0.22865481037E+03  0.12122243706E+04  0.15478492520E+04  0.50400001928E-02 0. -1.
       -1    1    3    3    0  502  0.93491516183E+03  0.22865481037E+03 -0.31655710467E+03  0.10131918785E+04  0.50400001928E-02 0.  1.
</event>
<event>
 5   0  0.2297414E-06  0.2409119E+04  0.7818609E-02  0.8436097E-01
        1   -1    0    0  501    0  0.00000000000E+00  0.00000000000E+00  0.14147198746E+04  0.14147198746E+04  0.50400001928E-02 0.  1.
       -1   -1    0    0    0  501  0.00000000000E+00  0.00000000000E+00 -0.10256192146E+04  0.10256192147E+04  0.50400001928E-02 0. -1.
    10030    2    1    2    0    0  0.00000000000E+00  0.00000000000E+00  0.38910065998E+03  0.24403390893E+04  0.24091192472E+04 0.  0.
        1    1    3    3  502    0 -0.18372892099E+03 -0.23101712060E+03 -0.98841870737E+03  0.10315506616E+04  0.50400001928E-02 0. -1.
       -1    1    3    3    0  502  0.18372892099E+03  0.23101712060E+03  0.13775193674E+04  0.14087884276E+04  0.50400001928E-02 0.  1.
</event>
<event>
 5   0  0.5371843E-06  0.2399235E+04  0.7818609E-02  0.8439790E-01
       -2   -1    0    0    0  501  0.00000000000E+00  0.00000000000E+00  0.12206522982E+04  0.12206522982E+04  0.25500000920E-02 0.  1.
        2   -1    0    0  501    0  0.00000000000E+00  0.00000000000E+00 -0.11789456254E+04  0.11789456254E+04  0.25500000920E-02 0. -1.
    10030    2    1    2    0    0  0.00000000000E+00  0.00000000000E+00  0.41706672830E+02  0.23995979236E+04  0.23992354508E+04 0.  0.
        4    1    3    3  502    0  0.67192878703E+03 -0.40848442140E+03  0.92693350161E+03  0.12155472622E+04  0.12699999809E+01 0.  1.
       -4    1    3    3    0  502 -0.67192878703E+03  0.40848442140E+03 -0.88522682878E+03  0.11840506614E+04  0.12699999809E+01 0. -1.
</event>
<event>
 5   0  0.1796750E-06  0.2388799E+04  0.7818609E-02  0.8443709E-01
        3   -1    0    0  501    0  0.00000000000E+00  0.00000000000E+00  0.10143841591E+04  0.10143841641E+04  0.10100000352E+00 0. -1.
       -3   -1    0    0    0  501  0.00000000000E+00  0.00000000000E+00 -0.14063607158E+04  0.14063607194E+04  0.10100000352E+00 0.  1.
    10030    2    1    2    0    0  0.00000000000E+00  0.00000000000E+00 -0.39197655668E+03  0.24207448836E+04  0.23887988970E+04 0.  0.
        5    1    3    3  502    0  0.83804927857E+03 -0.28605794944E+03 -0.10082132278E+04  0.13418911082E+04  0.46999998093E+01 0.  1.
       -5    1    3    3    0  502 -0.83804927857E+03  0.28605794944E+03  0.61623667109E+03  0.10788537753E+04  0.46999998093E+01 0. -1.
</event>
<event>
 5   0  0.5440503E-06  0.2398807E+04  0.7818609E-02  0.8439950E-01
        2   -1    0    0  501    0  0.00000000000E+00  0.00000000000E+00  0.14699019779E+04  0.14699019779E+04  0.25500000920E-02 0. -1.
       -2   -1    0    0    0  501  0.00000000000E+00  0.00000000000E+00 -0.97868327267E+03  0.97868327267E+03  0.25500000920E-02 0.  1.
    10030    2    1    2    0    0  0.00000000000E+00  0.00000000000E+00  0.49121870519E+03  0.24485852505E+04  0.23988067685E+04 0.  0.
        3    1    3    3  502    0 -0.70302565015E+03  0.29882017498E+03 -0.69825724283E+03  0.10349404568E+04  0.10100000352E+00 0.  1.
       -3    1    3    3    0  502  0.70302565015E+03 -0.29882017498E+03  0.11894759480E+04  0.14136447937E+04  0.10100000352E+00 0. -1.
</event>
<event>
 5   0  0.5268358E-06  0.2399628E+04  0.7818609E-02  0.8439643E-01
        2   -1    0    0  501    0  0.00000000000E+00  0.00000000000E+00  0.13774771957E+04  0.13774771957E+04  0.25500000920E-02 0. -1.
       -2   -1    0    0    0  501  0.00000000000E+00  0.00000000000E+00 -0.10450657002E+04  0.10450657002E+04  0.25500000920E-02 0.  1.
    10030    2    1    2    0    0  0.00000000000E+00  0.00000000000E+00  0.33241149551E+03  0.24225428958E+04  0.23996284462E+04 0.  0.
        2    1    3    3  502    0 -0.83972244556E+03  0.80189999080E+03 -0.13896677009E+03  0.11693969147E+04  0.25500000920E-02 0.  1.
       -2    1    3    3    0  502  0.83972244556E+03 -0.80189999080E+03  0.47137826560E+03  0.12531459812E+04  0.25500000920E-02 0. -1.
</event>
<event>
 5   0  0.5349036E-06  0.2393752E+04  0.7818609E-02  0.8441846E-01
       -2   -1    0    0    0  501  0.00000000000E+00  0.00000000000E+00  0.93442381588E+03  0.93442381589E+03  0.25500000920E-02 0.  1.
        2   -1    0    0  501    0  0.00000000000E+00  0.00000000000E+00 -0.15330439175E+04  0.15330439175E+04  0.25500000920E-02 0. -1.
    10030    2    1    2    0    0  0.00000000000E+00  0.00000000000E+00 -0.59862010161E+03  0.24674677334E+04  0.23937524912E+04 0.  0.
        1    1    3    3  502    0  0.84049135955E+03  0.42357654287E+03  0.46283008576E+03  0.10488348304E+04  0.50400001928E-02 0.  1.
       -1    1    3    3    0  502 -0.84049135955E+03 -0.42357654287E+03 -0.10614501874E+04  0.14186329030E+04  0.50400001928E-02 0. -1.
</event>
<event>
 5   0  0.2149029E-06  0.2401152E+04  0.7818609E-02  0.8439072E-01
       -1   -1    0    0    0  501  0.00000000000E+00  0.00000000000E+00  0.11768095596E+04  0.11768095596E+04  0.50400001928E-02 0. -1.
        1   -1    0    0  501    0  0.00000000000E+00  0.00000000000E+00 -0.12248225313E+04  0.12248225313E+04  0.50400001928E-02 0.  1.
    10030    2    1    2    0    0  0.00000000000E+00  0.00000000000E+00 -0.48012971685E+02  0.24016320909E+04  0.24011521098E+04 0.  0.
        4    1    3    3  502    0  0.33526910134E+03 -0.71584049519E+03  0.87980474896E+03  0.11827472232E+04  0.12699999809E+01 0. -1.
       -4    1    3    3    0  502 -0.33526910134E+03  0.71584049519E+03 -0.92781772065E+03  0.12188848676E+04  0.12699999809E+01 0.  1.
</event>
<event>
 5   0  0.5268358E-06  0.2398582E+04  0.7818609E-02  0.8440035E-01
       -2   -1    0    0    0  501  0.00000000000E+00  0.00000000000E+00  0.80708152426E+03  0.80708152426E+03  0.25500000920E-02 0.  1.
        2   -1    0    0  501    0  0.00000000000E+00  0.00000000000E+00 -0.17820986323E+04  0.17820986323E+04  0.25500000920E-02 0. -1.
    10030    2    1    2    0    0  0.00000000000E+00  0.00000000000E+00 -0.97501710808E+03  0.25891801566E+04  0.23985819816E+04 0.  0.
        2    1    3    3  502    0  0.18061955294E+02 -0.66040454301E+03  0.59294613511E+03  0.88771927646E+03  0.25500000920E-02 0.  1.
       -2    1    3    3    0  502 -0.18061955294E+02  0.66040454301E+03 -0.15679632432E+04  0.17014608801E+04  0.25500000920E-02 0. -1.
</event>
<event>
 5   0  0.2149417E-06  0.2400973E+04  0.7818609E-02  0.8439139E-01
        1   -1    0    0  501    0  0.00000000000E+00  0.00000000000E+00  0.90816929061E+03  0.90816929062E+03  0.50400001928E-02 0. -1.
       -1   -1    0    0    0  501  0.00000000000E+00  0.00000000000E+00 -0.15868933460E+04  0.15868933460E+04  0.50400001928E-02 0.  1.
    10030    2    1    2    0    0  0.00000000000E+00  0.00000000000E+00 -0.67872405539E+03  0.24950626366E+04  0.24009729731E+04 0.  0.
        5    1    3    3  502    0 -0.44517450065E+03 -0.83342251168E+03  0.43017927477E+03  0.10381954139E+04  0.46999998093E+01 0. -1.
       -5    1    3    3    0  502  0.44517450065E+03  0.83342251168E+03 -0.11089033302E+04  0.14568672227E+04  0.46999998093E+01 0.  1.
</event>
<event>
 5   0  0.2149029E-06  0.2393831E+04  0.7818609E-02  0.8441817E-01
       -1   -1    0    0    0  501  0.00000000000E+00  0.00000000000E+00  0.73994680582E+03  0.73994680584E+03  0.50400001928E-02 0.  1.
        1   -1    0    0  501    0  0.00000000000E+00  0.00000000000E+00 -0.19360939949E+04  0.19360939949E+04  0.50400001928E-02 0. -1.
    10030    2    1    2    0    0  0.00000000000E+00  0.00000000000E+00 -0.11961471890E+04  0.26760408007E+04  0.23938308773E+04 0.  0.
        4    1    3    3  502    0  0.73343287875E+03  0.17066720858E+03  0.44195748493E+03  0.87314323859E+03  0.12699999809E+01 0.  1.
       -4    1    3    3    0  502 -0.73343287875E+03 -0.17066720858E+03 -0.16381046740E+04  0.18028975621E+04  0.12699999809E+01 0. -1.
</event>
<event>
 5   0  0.2149029E-06  0.2350842E+04  0.7818609E-02  0.8458140E-01
       -1   -1    0    0    0  501  0.00000000000E+00  0.00000000000E+00  0.10378460716E+04  0.10378460716E+04  0.50400001928E-02 0. -1.
        1   -1    0    0  501    0  0.00000000000E+00  0.00000000000E+00 -0.13312328972E+04  0.13312328972E+04  0.50400001928E-02 0.  1.
    10030    2    1    2    0    0  0.00000000000E+00  0.00000000000E+00 -0.29338682566E+03  0.23690789688E+04  0.23508422599E+04 0.  0.
        4    1    3    3  502    0  0.20987255111E+03  0.41256857649E+03 -0.12355164920E+04  0.13193793741E+04  0.12699999809E+01 0.  1.
       -4    1    3    3    0  502 -0.20987255111E+03 -0.41256857649E+03  0.94212966634E+03  0.10496995947E+04  0.12699999809E+01 0. -1.
</event>
<event>
 5   0  0.2149417E-06  0.2400881E+04  0.7818609E-02  0.8439174E-01
       -1   -1    0    0    0  501  0.00000000000E+00  0.00000000000E+00  0.11748573671E+04  0.11748573671E+04  0.50400001928E-02 0. -1.
        1   -1    0    0  501    0  0.00000000000E+00  0.00000000000E+00 -0.12265807442E+04  0.12265807442E+04  0.50400001928E-02 0.  1.
    10030    2    1    2    0    0  0.00000000000E+00  0.00000000000E+00 -0.51723377059E+02  0.24014381113E+04  0.24008810247E+04 0.  0.
        5    1    3    3  502    0 -0.96401967895E+03  0.53027421245E+03 -0.50608834023E+03  0.12110624178E+04  0.46999998093E+01 0.  1.
       -5    1    3    3    0  502  0.96401967895E+03 -0.53027421245E+03  0.45436496317E+03  0.11903756935E+04  0.46999998093E+01 0. -1.
</event>
<event>
 5   0  0.5440503E-06  0.2397209E+04  0.7818609E-02  0.8440549E-01
        2   -1    0    0  501    0  0.00000000000E+00  0.00000000000E+00  0.15413732181E+04  0.15413732181E+04  0.25500000920E-02 0.  1.
       -2   -1    0    0    0  501  0.00000000000E+00  0.00000000000E+00 -0.93206050502E+03  0.93206050502E+03  0.25500000920E-02 0. -1.
    10030    2    1    2    0    0  0.00000000000E+00  0.00000000000E+00  0.60931271311E+03  0.24734337231E+04  0.23972092942E+04 0.  0.
        3    1    3    3  502    0 -0.77731627272E+03  0.30891531239E+03 -0.58113043055E+03  0.10185096198E+04  0.10100000352E+00 0. -1.
       -3    1    3    3    0  502  0.77731627272E+03 -0.30891531239E+03  0.11904431437E+04  0.14549241034E+04  0.10100000352E+00 0.  1.
</event>
<event>
 5   0  0.5371843E-06  0.2399464E+04  0.7818609E-02  0.8439704E-01
       -2   -1    0    0    0  501  0.00000000000E+00  0.00000000000E+00  0.21819734557E+04  0.21819734557E+04  0.25500000920E-02 0. -1.
        2   -1    0    0  501    0  0.00000000000E+00  0.00000000000E+00 -0.65965841862E+03  0.65965841863E+03  0.25500000920E-02 0.  1.
    10030    2    1    2    0    0  0.00000000000E+00  0.00000000000E+00  0.15223150371E+04  0.28416318743E+04  0.23994642396E+04 0.  0.
        4    1    3    3  502    0 -0.75650993902E+03  0.16572423550E+03  0.18462969433E+04  0.20021453059E+04  0.12699999809E+01 0.  1.
       -4    1    3    3    0  502  0.75650993902E+03 -0.16572423550E+03 -0.32398190627E+03  0.83948656842E+03  0.12699999809E+01 0. -1.
</event>
<event>
 5   0  0.5379778E-06  0.2406853E+04  0.7818609E-02  0.8436942E-01
        2   -1    0    0  501    0  0.00000000000E+00  0.00000000000E+00  0.15937480084E+04  0.15937480084E+04  0.25500000920E-02 0.  1.
       -2   -1    0    0    0  501  0.00000000000E+00  0.00000000000E+00 -0.90869798332E+03  0.90869798332E+03  0.25500000920E-02 0. -1.
    10030    2    1    2    0    0  0.00000000000E+00  0.00000000000E+00  0.68505002505E+03  0.25024459917E+04  0.24068532162E+04 0.  0.
        5    1    3    3  502    0  0.10822404647E+04  0.21967508705E+01  0.88970092991E+03  0.14010135916E+04  0.46999998093E+01 0.  1.
       -5    1    3    3    0  502 -0.10822404647E+04 -0.21967508705E+01 -0.20465090486E+03  0.11014324001E+04  0.46999998093E+01 0. -1.
</event>
<event>
 5   0  0.2254269E-06  0.2397591E+04  0.7818609E-02  0.8440406E-01
        1   -1    0    0  501    0  0.00000000000E+00  0.00000000000E+00  0.11913112591E+04  0.11913112591E+04  0.50400001928E-02 0.  1.
       -1   -1    0    0    0  501  0.00000000000E+00  0.00000000000E+00 -0.12063269785E+04  0.12063269786E+04  0.50400001928E-02 0. -1.
    10030    2    1    2    0    0  0.00000000000E+00  0.00000000000E+00 -0.15015719425E+02  0.23976382377E+04  0.23975912176E+04 0.  0.
        2    1    3    3  502    0 -0.10715758933E+04 -0.43598375188E+03  0.30675008864E+03  0.11968510116E+04  0.25500000920E-02 0. -1.
       -2    1    3    3    0  502  0.10715758933E+04  0.43598375188E+03 -0.32176580806E+03  0.12007872261E+04  0.25500000920E-02 0.  1.
</event>
<event>
 5   0  0.2254269E-06  0.2389846E+04  0.7818609E-02  0.8443315E-01
        1   -1    0    0  501    0  0.00000000000E+00  0.00000000000E+00  0.12456310483E+04  0.12456310483E+04  0.50400001928E-02 0. -1.
       -1   -1    0    0    0  501  0.00000000000E+00  0.00000000000E+00 -0.11462792463E+04  0.11462792463E+04  0.50400001928E-02 0.  1.
    10030    2    1    2    0    0  0.00000000000E+00  0.00000000000E+00  0.99351802031E+02  0.23919102946E+04  0.23898460362E+04 0.  0.
        2    1    3    3  502    0 -0.93535748777E+03  0.35746683957E+03 -0.60293397299E+03  0.11688479572E+04  0.25500000920E-02 0.  1.
       -2    1    3    3    0  502  0.93535748777E+03 -0.35746683957E+03  0.70228577502E+03  0.12230623374E+04  0.25500000920E-02 0. -1.
</event>
<event>
 5   0  0.1796750E-06  0.2398082E+04  0.7818609E-02  0.8440222E-01
       -3   -1    0    0    0  501  0.00000000000E+00  0.00000000000E+00  0.62984855308E+03  0.62984856118E+03  0.10100000352E+00 0. -1.
        3   -1    0    0  501    0  0.00000000000E+00  0.00000000000E+00 -0.22826106771E+04  0.22826106793E+04  0.10100000352E+00 0.  1.
    10030    2    1    2    0    0  0.00000000000E+00  0.00000000000E+00 -0.16527621240E+04  0.29124592405E+04  0.23980817728E+04 0.  0.
        5    1    3    3  502    0 -0.34691238783E+03 -0.10811640410E+03  0.56135707726E+03  0.66871609810E+03  0.46999998093E+01 0. -1.
       -5    1    3    3    0  502  0.34691238783E+03  0.10811640410E+03 -0.22141192013E+04  0.22437431424E+04  0.46999998093E+01 0.  1.
</event>
<event>
 5   0  0.2149029E-06  0.2388159E+04  0.7818609E-02  0.8443950E-01
        1   -1    0    0  501    0  0.00000000000E+00  0.00000000000E+00  0.30207467241E+04  0.30207467241E+04  0.50400001928E-02 0. -1.
       -1   -1    0    0    0  501  0.00000000000E+00  0.00000000000E+00 -0.47201104306E+03  0.47201104309E+03  0.50400001928E-02 0.  1.
    10030    2    1    2    0    0  0.00000000000E+00  0.00000000000E+00  0.25487356811E+04  0.34927577672E+04  0.23881589663E+04 0.  0.
        4    1    3    3  502    0  0.85835361577E+02 -0.46115639463E+03  0.28803521678E+04  0.29182979891E+04  0.12699999809E+01 0. -1.
       -4    1    3    3    0  502 -0.85835361577E+02  0.46115639463E+03 -0.33161648669E+03  0.57445977818E+03  0.12699999809E+01 0.  1.
</event>
<event>
 5   0  0.2215700E-06  0.2393729E+04  0.7818609E-02  0.8441855E-01
       -1   -1    0    0    0  501  0.00000000000E+00  0.00000000000E+00  0.17930543447E+04  0.17930543447E+04  0.50400001928E-02 0. -1.
        1   -1    0    0  501    0  0.00000000000E+00  0.00000000000E+00 -0.79890742328E+03  0.79890742330E+03  0.50400001928E-02 0.  1.
    10030    2    1    2    0    0  0.00000000000E+00  0.00000000000E+00  0.99414692143E+03  0.25919617680E+04  0.23937288287E+04 0.  0.
        3    1    3    3  502    0 -0.12573531259E+03 -0.39560086093E+03 -0.71846602745E+03  0.82976072021E+03  0.10100000352E+00 0.  1.
       -3    1    3    3    0  502  0.12573531259E+03  0.39560086093E+03  0.17126129489E+04  0.17622010478E+04  0.10100000352E+00 0. -1.
</event>
<event>
 5   0  0.5371843E-06  0.2397354E+04  0.7818609E-02  0.8440495E-01
        2   -1    0    0  501    0  0.00000000000E+00  0.00000000000E+00  0.85157359241E+03  0.85157359241E+03  0.25500000920E-02 0. -1.
       -2   -1    0    0    0  501  0.00000000000E+00  0.00000000000E+00 -0.16872600497E+04  0.16872600497E+04  0.25500000920E-02 0.  1.
    10030    2    1    2    0    0  0.00000000000E+00  0.00000000000E+00 -0.83568645727E+03  0.25388336421E+04  0.23973536258E+04 0.  0.
        4    1    3    3  502    0  0.35318340358E+03  0.76212321995E+03 -0.13234430376E+04  0.15675054723E+04  0.12699999809E+01 0.  1.
       -4    1    3    3    0  502 -0.35318340358E+03 -0.76212321995E+03  0.48775658032E+03  0.97132816983E+03  0.12699999809E+01 0. -1.
</event>
<event>
 5   0  0.5379778E-06  0.2398903E+04  0.7818609E-02  0.8439914E-01
        2   -1    0    0  501    0  0.00000000000E+00  0.00000000000E+00  0.17957222181E+04  0.17957222181E+04  0.25500000920E-02 0. -1.
       -2   -1    0    0    0  501  0.00000000000E+00  0.00000000000E+00 -0.80117263586E+03  0.80117263586E+03  0.25500000920E-02 0.  1.
    10030    2    1    2    0    0  0.00000000000E+00  0.00000000000E+00  0.99454958221E+03  0.25968948539E+04  0.23989026681E+04 0.  0.
        5    1    3    3  502    0  0.82446200448E+03 -0.85665468144E+03  0.32588331587E+03  0.12328085276E+04  0.46999998093E+01 0.  1.
       -5    1    3    3    0  502 -0.82446200448E+03  0.85665468144E+03  0.66866626634E+03  0.13640863264E+04  0.46999998093E+01 0. -1.
</event>
<event>
 5   0  0.2149417E-06  0.2400708E+04  0.7818609E-02  0.8439239E-01
       -1   -1    0    0    0  501  0.00000000000E+00  0.00000000000E+00  0.11800026762E+04  0.11800026762E+04  0.50400001928E-02 0. -1.
        1   -1    0    0  501    0  0.00000000000E+00  0.00000000000E+00 -0.12210563290E+04  0.12210563290E+04  0.50400001928E-02 0.  1.
    10030    2    1    2    0    0  0.00000000000E+00  0.00000000000E+00 -0.41053652814E+02  0.24010590052E+04  0.24007080089E+04 0.  0.
        5    1    3    3  502    0 -0.81919410143E+03 -0.77872089378E+03 -0.42474237082E+03  0.12074408382E+04  0.46999998093E+01 0.  1.
       -5    1    3    3    0  502  0.81919410143E+03  0.77872089378E+03  0.38368871801E+03  0.11936181670E+04  0.46999998093E+01 0. -1.
</event>
<event>
 5   0  0.5349036E-06  0.2398752E+04  0.7818609E-02  0.8439971E-01
        2   -1    0    0  501    0  0.00000000000E+00  0.00000000000E+00  0.13942165475E+04  0.13942165475E+04  0.25500000920E-02 0.  1.
       -2   -1    0    0    0  501  0.00000000000E+00  0.00000000000E+00 -0.10317638362E+04  0.10317638362E+04  0.25500000920E-02 0. -1.
    10030    2    1    2    0    0  0.00000000000E+00  0.00000000000E+00  0.36245271129E+03  0.24259803836E+04  0.23987515198E+04 0.  0.
        1    1    3    3  502    0 -0.11236450861E+04  0.21573439956E+03  0.54500731488E+03  0.12673407529E+04  0.50400001928E-02 0.  1.
       -1    1    3    3    0  502  0.11236450861E+04 -0.21573439956E+03 -0.18255460359E+03  0.11586396308E+04  0.50400001928E-02 0. -1.
</event>
<event>
 5   0  0.5268358E-06  0.2399240E+04  0.7818609E-02  0.8439788E-01
        2   -1    0    0  501    0  0.00000000000E+00  0.00000000000E+00  0.14322117408E+04  0.14322117408E+04  0.25500000920E-02 0. -1.
       -2   -1    0    0    0  501  0.00000000000E+00  0.00000000000E+00 -0.10048013477E+04  0.10048013477E+04  0.25500000920E-02 0.  1.
    10030    2    1    2    0    0  0.00000000000E+00  0.00000000000E+00  0.42741039312E+03  0.24370130886E+04  0.23992401192E+04 0.  0.
        2    1    3    3  502    0 -0.28363879836E+03  0.11262966016E+03 -0.96471157077E+03  0.10118324086E+04  0.25500000920E-02 0.  1.
       -2    1    3    3    0  502  0.28363879836E+03 -0.11262966016E+03  0.13921219639E+04  0.14251806800E+04  0.25500000920E-02 0. -1.
</event>
<event>
 5   0  0.5268358E-06  0.2397378E+04  0.7818609E-02  0.8440486E-01
       -2   -1    0    0    0  501  0.00000000000E+00  0.00000000000E+00  0.91369994412E+03  0.91369994412E+03  0.25500000920E-02 0. -1.
        2   -1    0    0  501    0  0.00000000000E+00  0.00000000000E+00 -0.15725675422E+04  0.15725675422E+04  0.25500000920E-02 0.  1.
    10030    2    1    2    0    0  0.00000000000E+00  0.00000000000E+00 -0.65886759806E+03  0.24862674863E+04  0.23973776302E+04 0.  0.
        2    1    3    3  502    0 -0.99867966963E+03 -0.23221128149E+03 -0.97340135096E+03  0.14137868835E+04  0.25500000920E-02 0.  1.
       -2    1    3    3    0  502  0.99867966963E+03  0.23221128149E+03  0.31453375290E+03  0.10724806029E+04  0.25500000920E-02 0. -1.
</event>
<event>
 5   0  0.2149029E-06  0.2399907E+04  0.7818609E-02  0.8439538E-01
        1   -1    0    0  501    0  0.00000000000E+00  0.00000000000E+00  0.15943897300E+04  0.15943897300E+04  0.50400001928E-02 0.  1.
       -1   -1    0    0    0  501  0.00000000000E+00  0.00000000000E+00 -0.90309672033E+03  0.90309672034E+03  0.50400001928E-02 0. -1.
    10030    2    1    2    0    0  0.00000000000E+00  0.00000000000E+00  0.69129300965E+03  0.24974864503E+04  0.23999067783E+04 0.  0.
        4    1    3    3  502    0  0.17530352391E+03 -0.73083738283E+03  0.13191123435E+04  0.15181941883E+04  0.12699999809E+01 0.  1.
       -4    1    3    3    0  502 -0.17530352391E+03  0.73083738283E+03 -0.62781933386E+03  0.97929226205E+03  0.12699999809E+01 0. -1.
</event>
<event>
 5   0  0.2297414E-06  0.2406766E+04  0.7818609E-02  0.8436975E-01
        1   -1    0    0  501    0  0.00000000000E+00  0.00000000000E+00  0.12546688136E+04  0.12546688136E+04  0.50400001928E-02 0.  1.
       -1   -1    0    0    0  501  0.00000000000E+00  0.00000000000E+00 -0.11541940186E+04  0.11541940186E+04  0.50400001928E-02 0. -1.
    10030    2    1    2    0    0  0.00000000000E+00  0.00000000000E+00  0.10047479502E+03  0.24088628322E+04  0.24067664947E+04 0.  0.
        1    1    3    3  502    0 -0.62029832745E+03  0.94362191806E+03 -0.36598405522E+03  0.11870706247E+04  0.50400001928E-02 0. -1.
       -1    1    3    3    0  502  0.62029832745E+03 -0.94362191806E+03  0.46645885024E+03  0.12217922075E+04  0.50400001928E-02 0.  1.
</event>
<event>
 5   0  0.5379778E-06  0.2399088E+04  0.7818609E-02  0.8439845E-01
        2   -1    0    0  501    0  0.00000000000E+00  0.00000000000E+00  0.15349096474E+04  0.15349096474E+04  0.25500000920E-02 0. -1.
       -2   -1    0    0    0  501  0.00000000000E+00  0.00000000000E+00 -0.93745344353E+03  0.93745344353E+03  0.25500000920E-02 0.  1.
    10030    2    1    2    0    0  0.00000000000E+00  0.00000000000E+00  0.59745620389E+03  0.24723630910E+04  0.23990884390E+04 0.  0.
        5    1    3    3  502    0  0.14699898776E+03  0.55175518331E+03  0.13858611566E+04  0.14988914971E+04  0.46999998093E+01 0. -1.
       -5    1    3    3    0  502 -0.14699898776E+03 -0.55175518331E+03 -0.78840495267E+03  0.97347159389E+03  0.46999998093E+01 0.  1.
</event>
<event>
 5   0  0.2149417E-06  0.2401924E+04  0.7818609E-02  0.8438784E-01
       -1   -1    0    0    0  501  0.00000000000E+00  0.00000000000E+00  0.93937761556E+03  0.93937761557E+03  0.50400001928E-02 0.  1.
        1   -1    0    0  501    0  0.00000000000E+00  0.00000000000E+00 -0.15353883530E+04  0.15353883530E+04  0.50400001928E-02 0. -1.
    10030    2    1    2    0    0  0.00000000000E+00  0.00000000000E+00 -0.59601073747E+03  0.24747659686E+04  0.24019237707E+04 0.  0.
        5    1    3    3  502    0 -0.11977856357E+04 -0.56687729642E+02 -0.22979002615E+03  0.12209543292E+04  0.46999998093E+01 0. -1.
       -5    1    3    3    0  502  0.11977856357E+04  0.56687729642E+02 -0.36622071132E+03  0.12538116394E+04  0.46999998093E+01 0.  1.
</event>
<event>
 5   0  0.5268358E-06  0.2401339E+04  0.7818609E-02  0.8439002E-01
       -2   -1    0    0    0  501  0.00000000000E+00  0.00000000000E+00  0.64411231853E+03  0.64411231853E+03  0.25500000920E-02 0. -1.
        2   -1    0    0  501    0  0.00000000000E+00  0.00000000000E+00 -0.22381303494E+04  0.22381303494E+04  0.25500000920E-02 0.  1.
    10030    2    1    2    0    0  0.00000000000E+00  0.00000000000E+00 -0.15940180309E+04  0.28822426679E+04  0.24013390669E+04 0.  0.
        2    1    3    3  502    0  0.97668463435E+03  0.23855051879E+03 -0.15847961925E+04  0.18768053167E+04  0.25500000920E-02 0.  1.
       -2    1    3    3    0  502 -0.97668463435E+03 -0.23855051879E+03 -0.92218383898E+01  0.10054373513E+04  0.25500000920E-02 0. -1.
</event>
<event>
 5   0  0.5371843E-06  0.2402498E+04  0.7818609E-02  0.8438569E-01
        2   -1    0    0  501    0  0.00000000000E+00  0.00000000000E+00  0.10488649862E+04  0.10488649862E+04  0.25500000920E-02 0.  1.
       -2   -1    0    0    0  501  0.00000000000E+00  0.00000000000E+00 -0.13757718653E+04  0.13757718653E+04  0.25500000920E-02 0. -1.
    10030    2    1    2    0    0  0.00000000000E+00  0.00000000000E+00 -0.32690687905E+03  0.24246368515E+04  0.24024978156E+04 0.  0.
        4    1    3    3  502    0  0.45124722444E+03 -0.32583206809E+03  0.91087796968E+03  0.10674693826E+04  0.12699999809E+01 0.  1.
       -4    1    3    3    0  502 -0.45124722444E+03  0.32583206809E+03 -0.12377848487E+04  0.13571674690E+04  0.12699999809E+01 0. -1.
</event>
<event>
 5   0  0.2149029E-06  0.2397686E+04  0.7818609E-02  0.8440370E-01
        1   -1    0    0  501    0  0.00000000000E+00  0.00000000000E+00  0.15907103717E+04  0.15907103717E+04  0.50400001928E-02 0.  1.
       -1   -1    0    0    0  501  0.00000000000E+00  0.00000000000E+00 -0.90351115459E+03  0.90351115460E+03  0.50400001928E-02 0. -1.
    10030    2    1    2    0    0  0.00000000000E+00  0.00000000000E+00  0.68719921711E+03  0.24942215263E+04  0.23976860216E+04 0.  0.
        4    1    3    3  502    0 -0.73926369911E+03 -0.39366191871E+03 -0.54868954219E+03  0.10012703679E+04  0.12699999809E+01 0. -1.
       -4    1    3    3    0  502  0.73926369911E+03  0.39366191871E+03  0.12358887593E+04  0.14929511584E+04  0.12699999809E+01 0.  1.
</event>
<event>
 5   0  0.1796750E-06  0.2396604E+04  0.7818609E-02  0.8440776E-01
       -4   -1    0    0    0  501  0.00000000000E+00  0.00000000000E+00  0.12503441996E+04  0.12503448446E+04  0.12699999809E+01 0.  1.
        4   -1    0    0  501    0  0.00000000000E+00  0.00000000000E+00 -0.11484250049E+04  0.11484257071E+04  0.12699999809E+01 0. -1.
    10030    2    1    2    0    0  0.00000000000E+00  0.00000000000E+00  0.10191919467E+03  0.23987705517E+04  0.23966043974E+04 0.  0.
        2    1    3    3  502    0  0.68013321202E+03 -0.45056748465E+03 -0.82752151799E+03  0.11620602855E+04  0.25500000920E-02 0. -1.
       -2    1    3    3    0  502 -0.68013321202E+03  0.45056748465E+03  0.92944071266E+03  0.12367102663E+04  0.25500000920E-02 0.  1.
</event>
<event>
 5   0  0.5440503E-06  0.2380475E+04  0.7818609E-02  0.8446850E-01
       -2   -1    0    0    0  501  0.00000000000E+00  0.00000000000E+00  0.95096090000E+03  0.95096090001E+03  0.25500000920E-02 0.  1.
        2   -1    0    0  501    0  0.00000000000E+00  0.00000000000E+00 -0.14897197824E+04  0.14897197824E+04  0.25500000920E-02 0. -1.
    10030    2    1    2    0    0  0.00000000000E+00  0.00000000000E+00 -0.53875888238E+03  0.24406806824E+04  0.23804749652E+04 0.  0.
        3    1    3    3  502    0 -0.49907676499E+03  0.52136211252E+03  0.70100853019E+03  0.10061356963E+04  0.10100000352E+00 0.  1.
       -3    1    3    3    0  502  0.49907676499E+03 -0.52136211252E+03 -0.12397674126E+04  0.14345449861E+04  0.10100000352E+00 0. -1.
</event>
<event>
 5   0  0.5371843E-06  0.2402767E+04  0.7818609E-02  0.8438468E-01
       -2   -1    0    0    0  501  0.00000000000E+00  0.00000000000E+00  0.87351607324E+03  0.87351607324E+03  0.25500000920E-02 0.  1.
        2   -1    0    0  501    0  0.00000000000E+00  0.00000000000E+00 -0.16523134192E+04  0.16523134192E+04  0.25500000920E-02 0. -1.
    10030    2    1    2    0    0  0.00000000000E+00  0.00000000000E+00 -0.77879734598E+03  0.25258294925E+04  0.24027670130E+04 0.  0.
        4    1    3    3  502    0  0.70623856209E+03  0.89473054525E+03 -0.78831448191E+03  0.13859137745E+04  0.12699999809E+01 0. -1.
       -4    1    3    3    0  502 -0.70623856209E+03 -0.89473054525E+03  0.95171359286E+01  0.11399157179E+04  0.12699999809E+01 0.  1.
</event>
<event>
 5   0  0.2254269E-06  0.2399930E+04  0.7818609E-02  0.8439530E-01
       -1   -1    0    0    0  501  0.00000000000E+00  0.00000000000E+00  0.13854289675E+04  0.13854289675E+04  0.50400001928E-02 0.  1.
        1   -1    0    0  501    0  0.00000000000E+00  0.00000000000E+00 -0.10393283298E+04  0.10393283298E+04  0.50400001928E-02 0. -1.
    10030    2    1    2    0    0  0.00000000000E+00  0.00000000000E+00  0.34610063769E+03  0.24247572973E+04  0.23999296447E+04 0.  0.
        2    1    3    3  502    0  0.15432097875E+03  0.99089446486E+03 -0.49272710116E+03  0.11173481110E+04  0.25500000920E-02 0. -1.
       -2    1    3    3    0  502 -0.15432097875E+03 -0.99089446486E+03  0.83882773885E+03  0.13074091863E+04  0.25500000920E-02 0.  1.
</event>
<event>
 5   0  0.5379778E-06  0.2382277E+04  0.7818609E-02  0.8446169E-01
       -2   -1    0    0    0  501  0.00000000000E+00  0.00000000000E+00  0.12235374054E+04  0.12235374055E+04  0.25500000920E-02 0.  1.
        2   -1    0    0  501    0  0.00000000000E+00  0.00000000000E+00 -0.11595973424E+04  0.11595973424E+04  0.25500000920E-02 0. -1.
    10030    2    1    2    0    0  0.00000000000E+00  0.00000000000E+00  0.63940063038E+02  0.23831347479E+04  0.23822768300E+04 0.  0.
        5    1    3    3  502    0 -0.17941573801E+02 -0.10528765747E+04  0.58887299494E+03  0.12065092108E+04  0.46999998093E+01 0.  1.
       -5    1    3    3    0  502  0.17941573801E+02  0.10528765747E+04 -0.52493293190E+03  0.11766255371E+04  0.46999998093E+01 0. -1.
</event>
<event>
 5   0  0.2149417E-06  0.2397886E+04  0.7818609E-02  0.8440295E-01
        1   -1    0    0  501    0  0.00000000000E+00  0.00000000000E+00  0.78448919259E+03  0.78448919261E+03  0.50400001928E-02 0. -1.
       -1   -1    0    0    0  501  0.00000000000E+00  0.00000000000E+00 -0.18323577676E+04  0.18323577676E+04  0.50400001928E-02 0.  1.
    10030    2    1    2    0    0  0.00000000000E+00  0.00000000000E+00 -0.10478685750E+04  0.26168469602E+04  0.23978864574E+04 0.  0.
        5    1    3    3  502    0  0.31575502221E+03  0.46297589594E+03  0.63275290360E+03  0.84524921845E+03  0.46999998093E+01 0. -1.
       -5    1    3    3    0  502 -0.31575502221E+03 -0.46297589594E+03 -0.16806214786E+04  0.17715977417E+04  0.46999998093E+01 0.  1.
</event>
<event>
 5   0  0.5371843E-06  0.2386234E+04  0.7818609E-02  0.8444675E-01
        2   -1    0    0  501    0  0.00000000000E+00  0.00000000000E+00  0.20257464893E+04  0.20257464893E+04  0.25500000920E-02 0. -1.
       -2   -1    0    0    0  501  0.00000000000E+00  0.00000000000E+00 -0.70271795857E+03  0.70271795857E+03  0.25500000920E-02 0.  1.
    10030    2    1    2    0    0  0.00000000000E+00  0.00000000000E+00  0.13230285308E+04  0.27284644479E+04  0.23862342195E+04 0.  0.
        4    1    3    3  502    0 -0.11629271339E+02  0.94455843616E+03 -0.17184956930E+03  0.96013528560E+03  0.12699999809E+01 0.  1.
       -4    1    3    3    0  502  0.11629271339E+02 -0.94455843616E+03  0.14948781001E+04  0.17683291623E+04  0.12699999809E+01 0. -1.
</event>
<event>
 5   0  0.2297414E-06  0.2403885E+04  0.7818609E-02  0.8438050E-01
        1   -1    0    0  501    0  0.00000000000E+00  0.00000000000E+00  0.17397508373E+04  0.17397508373E+04  0.50400001928E-02 0.  1.
       -1   -1    0    0    0  501  0.00000000000E+00  0.00000000000E+00 -0.83038663789E+03  0.83038663791E+03  0.50400001928E-02 0. -1.
    10030    2    1    2    0    0  0.00000000000E+00  0.00000000000E+00  0.90936419939E+03  0.25701374752E+04  0.24038850626E+04 0.  0.
        1    1    3    3  502    0 -0.23807754995E+02  0.62568024210E+03 -0.64224846917E+03  0.89695354992E+03  0.50400001928E-02 0.  1.
       -1    1    3    3    0  502  0.23807754995E+02 -0.62568024210E+03  0.15516126686E+04  0.16731839253E+04  0.50400001928E-02 0. -1.
</event>
<event>
 5   0  0.5379778E-06  0.2400739E+04  0.7818609E-02  0.8439227E-01
        2   -1    0    0  501    0  0.00000000000E+00  0.00000000000E+00  0.22866634922E+04  0.22866634922E+04  0.25500000920E-02 0. -1.
       -2   -1    0    0    0  501  0.00000000000E+00  0.00000000000E+00 -0.63012646169E+03  0.63012646170E+03  0.25500000920E-02 0.  1.
    10030    2    1    2    0    0  0.00000000000E+00  0.00000000000E+00  0.16565370305E+04  0.29167899539E+04  0.24007391990E+04 0.  0.
        5    1    3    3  502    0  0.60392619074E+03 -0.32038492751E+03 -0.37047510063E+03  0.77759066084E+03  0.46999998093E+01 0.  1.
       -5    1    3    3    0  502 -0.60392619074E+03  0.32038492751E+03  0.20270121311E+04  0.21391992930E+04  0.46999998093E+01 0. -1.
</event>
<event>
 5   0  0.2149417E-06  0.2396030E+04  0.7818609E-02  0.8440991E-01
        1   -1    0    0  501    0  0.00000000000E+00  0.00000000000E+00  0.95225733997E+03  0.95225733998E+03  0.50400001928E-02 0.  1.
       -1   -1    0    0    0  501  0.00000000000E+00  0.00000000000E+00 -0.15071979041E+04  0.15071979041E+04  0.50400001928E-02 0. -1.
    10030    2    1    2    0    0  0.00000000000E+00  0.00000000000E+00 -0.55494056417E+03  0.24594552441E+04  0.23960302728E+04 0.  0.
        5    1    3    3  502    0  0.89596987879E+03 -0.74163491621E+03  0.17242718849E+02  0.11632298887E+04  0.46999998093E+01 0.  1.
       -5    1    3    3    0  502 -0.89596987879E+03  0.74163491621E+03 -0.57218328302E+03  0.12962253554E+04  0.46999998093E+01 0. -1.
</event>
<event>
 5   0  0.2149417E-06  0.2348355E+04  0.7818609E-02  0.8459096E-01
       -1   -1    0    0    0  501  0.00000000000E+00  0.00000000000E+00  0.11986899923E+04  0.11986899923E+04  0.50400001928E-02 0.  1.
        1   -1    0    0  501    0  0.00000000000E+00  0.00000000000E+00 -0.11501663476E+04  0.11501663476E+04  0.50400001928E-02 0. -1.
    10030    2    1    2    0    0  0.00000000000E+00  0.00000000000E+00  0.48523644712E+02  0.23488563399E+04  0.23483550757E+04 0.  0.
        5    1    3    3  502    0 -0.47676281705E+03  0.81849840684E+03 -0.66973668023E+03  0.11600912622E+04  0.46999998093E+01 0. -1.
       -5    1    3    3    0  502  0.47676281705E+03 -0.81849840684E+03  0.71826032494E+03  0.11887650778E+04  0.46999998093E+01 0.  1.
</event>
<event>
 5   0  0.5379778E-06  0.2397067E+04  0.7818609E-02  0.8440603E-01
        2   -1    0    0  501    0  0.00000000000E+00  0.00000000000E+00  0.89666838844E+03  0.89666838845E+03  0.25500000920E-02 0.  1.
       -2   -1    0    0    0  501  0.00000000000E+00  0.00000000000E+00 -0.16020215012E+04  0.16020215012E+04  0.25500000920E-02 0. -1.
    10030    2    1    2    0    0  0.00000000000E+00  0.00000000000E+00 -0.70535311274E+03  0.24986898896E+04  0.23970665721E+04 0.  0.
        5    1    3    3  502    0 -0.78613881646E+03 -0.56474869804E+03 -0.10893958057E+04  0.14573128154E+04  0.46999998093E+01 0. -1.
       -5    1    3    3    0  502  0.78613881646E+03  0.56474869804E+03  0.38404269291E+03  0.10413770742E+04  0.46999998093E+01 0.  1.
</event>
<event>
 5   0  0.2297414E-06  0.2439047E+04  0.7818609E-02  0.8425028E-01
        1   -1    0    0  501    0  0.00000000000E+00  0.00000000000E+00  0.11057278946E+04  0.11057278946E+04  0.50400001928E-02 0.  1.
       -1   -1    0    0    0  501  0.00000000000E+00  0.00000000000E+00 -0.13450300164E+04  0.13450300164E+04  0.50400001928E-02 0. -1.
    10030    2    1    2    0    0  0.00000000000E+00  0.00000000000E+00 -0.23930212184E+03  0.24507579110E+04  0.24390467057E+04 0.  0.
        1    1    3    3  502    0  0.11709247243E+04  0.33105671517E+03 -0.38181856446E+02  0.12174239660E+04  0.50400001928E-02 0. -1.
       -1    1    3    3    0  502 -0.11709247243E+04 -0.33105671517E+03 -0.20112026539E+03  0.12333339450E+04  0.50400001928E-02 0.  1.
</event>
<event>
 5   0  0.2149029E-06  0.2400337E+04  0.7818609E-02  0.8439378E-01
       -1   -1    0    0    0  501  0.00000000000E+00  0.00000000000E+00  0.10606371419E+04  0.10606371419E+04  0.50400001928E-02 0.  1.
        1   -1    0    0  501    0  0.00000000000E+00  0.00000000000E+00 -0.13580553634E+04  0.13580553634E+04  0.50400001928E-02 0. -1.
    10030    2    1    2    0    0  0.00000000000E+00  0.00000000000E+00 -0.29741822149E+03  0.24186925053E+04  0.24003366090E+04 0.  0.
        4    1    3    3  502    0  0.10607517312E+03 -0.92681882280E+03  0.61215280166E+03  0.11157857044E+04  0.12699999809E+01 0.  1.
       -4    1    3    3    0  502 -0.10607517312E+03  0.92681882280E+03 -0.90957102315E+03  0.13029068009E+04  0.12699999809E+01 0. -1.
</event>
<event>
 5   0  0.2149417E-06  0.2410327E+04  0.7818609E-02  0.8435647E-01
        1   -1    0    0  501    0  0.00000000000E+00  0.00000000000E+00  0.11515157042E+04  0.11515157042E+04  0.50400001928E-02 0.  1.
       -1   -1    0    0    0  501  0.00000000000E+00  0.00000000000E+00 -0.12613108278E+04  0.12613108278E+04  0.50400001928E-02 0. -1.
    10030    2    1    2    0    0  0.00000000000E+00  0.00000000000E+00 -0.10979512362E+03  0.24128265320E+04  0.24103271363E+04 0.  0.
        5    1    3    3  502    0 -0.36451089297E+03  0.63750460677E+03  0.90166478397E+03  0.11628851136E+04  0.46999998093E+01 0.  1.
       -5    1    3    3    0  502  0.36451089297E+03 -0.63750460677E+03 -0.10114599076E+04  0.12499414184E+04  0.46999998093E+01 0. -1.
</event>
<event>
 5   0  0.2149029E-06  0.2399844E+04  0.7818609E-02  0.8439562E-01
        1   -1    0    0  501    0  0.00000000000E+00  0.00000000000E+00  0.15635755605E+04  0.15635755605E+04  0.50400001928E-02 0. -1.
       -1   -1    0    0    0  501  0.00000000000E+00  0.00000000000E+00 -0.92084626241E+03  0.92084626243E+03  0.50400001928E-02 0.  1.
    10030    2    1    2    0    0  0.00000000000E+00  0.00000000000E+00  0.64272929808E+03  0.24844218229E+04  0.23998439207E+04 0.  0.
        4    1    3    3  502    0 -0.40428846074E+03  0.43486133766E+03  0.14008296234E+04  0.15214725726E+04  0.12699999809E+01 0. -1.
       -4    1    3    3    0  502  0.40428846074E+03 -0.43486133766E+03 -0.75810032535E+03  0.96294925031E+03  0.12699999809E+01 0.  1.
</event>
<event>
 5   0  0.2149029E-06  0.2404649E+04  0.7818609E-02  0.8437765E-01
       -1   -1    0    0    0  501  0.00000000000E+00  0.00000000000E+00  0.11449138103E+04  0.11449138103E+04  0.50400001928E-02 0.  1.
        1   -1    0    0  501    0  0.00000000000E+00  0.00000000000E+00 -0.12626140354E+04  0.12626140354E+04  0.50400001928E-02 0. -1.
    10030    2    1    2    0    0  0.00000000000E+00  0.00000000000E+00 -0.11770022511E+03  0.24075278458E+04  0.24046490358E+04 0.  0.
        4    1    3    3  502    0 -0.73429455562E+03 -0.94683984655E+03 -0.15840981689E+03  0.12086312392E+04  0.12699999809E+01 0. -1.
       -4    1    3    3    0  502  0.73429455562E+03  0.94683984655E+03  0.40709591783E+02  0.11988966066E+04  0.12699999809E+01 0.  1.
</event>
<event>
 5   0  0.2149029E-06  0.2400958E+04  0.7818609E-02  0.8439145E-01
       -1   -1    0    0    0  501  0.00000000000E+00  0.00000000000E+00  0.85943387585E+03  0.85943387587E+03  0.50400001928E-02 0. -1.
        1   -1    0    0  501    0  0.00000000000E+00  0.00000000000E+00 -0.16768589415E+04  0.16768589415E+04  0.50400001928E-02 0.  1.
    10030    2    1    2    0    0  0.00000000000E+00  0.00000000000E+00 -0.81742506561E+03  0.25362928173E+04  0.24009576251E+04 0.  0.
        4    1    3    3  502    0 -0.11240350860E+03  0.11866246950E+04 -0.55972150709E+03  0.13168152847E+04  0.12699999809E+01 0. -1.
       -4    1    3    3    0  502  0.11240350860E+03 -0.11866246950E+04 -0.25770355853E+03  0.12194775326E+04  0.12699999809E+01 0.  1.
</event>
<event>
 5   0  0.2215700E-06  0.2396768E+04  0.7818609E-02  0.8440715E-01
       -1   -1    0    0    0  501  0.00000000000E+00  0.00000000000E+00  0.96503237963E+03  0.96503237965E+03  0.50400001928E-02 0.  1.
        1   -1    0    0  501    0  0.00000000000E+00  0.00000000000E+00 -0.14881615894E+04  0.14881615894E+04  0.50400001928E-02 0. -1.
    10030    2    1    2    0    0  0.00000000000E+00  0.00000000000E+00 -0.52312920977E+03  0.24531939691E+04  0.23967679236E+04 0.  0.
        3    1    3    3  502    0 -0.39197357627E+03 -0.11255186702E+04 -0.38976733806E+03  0.12539354646E+04  0.10100000352E+00 0.  1.
       -3    1    3    3    0  502  0.39197357627E+03  0.11255186702E+04 -0.13336187171E+03  0.11992585044E+04  0.10100000352E+00 0. -1.
</event>
<event>
 5   0  0.5268358E-06  0.2386747E+04  0.7818609E-02  0.8444482E-01
       -2   -1    0    0    0  501  0.00000000000E+00  0.00000000000E+00  0.23348662222E+04  0.23348662222E+04  0.25500000920E-02 0. -1.
        2   -1    0    0  501    0  0.00000000000E+00  0.00000000000E+00 -0.60994516165E+03  0.60994516166E+03  0.25500000920E-02 0.  1.
    10030    2    1    2    0    0  0.00000000000E+00  0.00000000000E+00  0.17249210605E+04  0.29448113838E+04  0.23867470376E+04 0.  0.
        2    1    3    3  502    0  0.46178501826E+03 -0.45680265378E+03  0.20976511532E+04  0.21959176733E+04  0.25500000920E-02 0. -1.
       -2    1    3    3    0  502 -0.46178501826E+03  0.45680265378E+03 -0.37273009268E+03  0.74889371048E+03  0.25500000920E-02 0.  1.
</event>
<event>
 5   0  0.2215700E-06  0.2397695E+04  0.7818609E-02  0.8440367E-01
        1   -1    0    0  501    0  0.00000000000E+00  0.00000000000E+00  0.15575131602E+04  0.15575131602E+04  0.50400001928E-02 0. -1.
       -1   -1    0    0    0  501  0.00000000000E+00  0.00000000000E+00 -0.92277563975E+03  0.92277563977E+03  0.50400001928E-02 0.  1.
    10030    2    1    2    0    0  0.00000000000E+00  0.00000000000E+00  0.63473752048E+03  0.24802888000E+04  0.23976948954E+04 0.  0.
        3    1    3    3  502    0  0.89839841670E+03 -0.40478513451E+03 -0.38898863446E+03  0.10593785387E+04  0.10100000352E+00 0.  1.
       -3    1    3    3    0  502 -0.89839841670E+03  0.40478513451E+03  0.10237261549E+04  0.14209102613E+04  0.10100000352E+00 0. -1.
</event>
<event>
 5   0  0.2297414E-06  0.2389316E+04  0.7818609E-02  0.8443514E-01
       -1   -1    0    0    0  501  0.00000000000E+00  0.00000000000E+00  0.10523126324E+04  0.10523126324E+04  0.50400001928E-02 0. -1.
        1   -1    0    0  501    0  0.00000000000E+00  0.00000000000E+00 -0.13562583954E+04  0.13562583954E+04  0.50400001928E-02 0.  1.
    10030    2    1    2    0    0  0.00000000000E+00  0.00000000000E+00 -0.30394576302E+03  0.24085710279E+04  0.23893160882E+04 0.  0.
        1    1    3    3  502    0  0.93885614513E+03  0.59420983463E+03  0.29050825699E+03  0.11484473154E+04  0.50400001928E-02 0. -1.
       -1    1    3    3    0  502 -0.93885614513E+03 -0.59420983463E+03 -0.59445402001E+03  0.12601237125E+04  0.50400001928E-02 0.  1.
</event>
<event>
 5   0  0.1796750E-06  0.2397461E+04  0.7818609E-02  0.8440455E-01
       -4   -1    0    0    0  501  0.00000000000E+00  0.00000000000E+00  0.82889562435E+03  0.82889659727E+03  0.12699999809E+01 0.  1.
        4   -1    0    0  501    0  0.00000000000E+00  0.00000000000E+00 -0.17335747173E+04  0.17335751825E+04  0.12699999809E+01 0. -1.
    10030    2    1    2    0    0  0.00000000000E+00  0.00000000000E+00 -0.90467909294E+03  0.25624717798E+04  0.23974606067E+04 0.  0.
        1    1    3    3  502    0 -0.30760919520E+03  0.51726527705E+02 -0.16894376552E+04  0.17179926197E+04  0.50400001928E-02 0. -1.
       -1    1    3    3    0  502  0.30760919520E+03 -0.51726527705E+02  0.78475856226E+03  0.84447916002E+03  0.50400001928E-02 0.  1.
</event>
<event>
 5   0  0.2254269E-06  0.2393101E+04  0.7818609E-02  0.8442091E-01
       -1   -1    0    0    0  501  0.00000000000E+00  0.00000000000E+00  0.63054036246E+03  0.63054036248E+03  0.50400001928E-02 0. -1.
        1   -1    0    0  501    0  0.00000000000E+00  0.00000000000E+00 -0.22706449432E+04  0.22706449432E+04  0.50400001928E-02 0.  1.
    10030    2    1    2    0    0  0.00000000000E+00  0.00000000000E+00 -0.16401045807E+04  0.29011853057E+04  0.23931011559E+04 0.  0.
        2    1    3    3  502    0 -0.11032461656E+04  0.45617999016E+03 -0.72245552405E+03  0.13954190301E+04  0.25500000920E-02 0. -1.
       -2    1    3    3    0  502  0.11032461656E+04 -0.45617999016E+03 -0.91764905670E+03  0.15057662756E+04  0.25500000920E-02 0.  1.
</event>
<event>
 5   0  0.2149417E-06  0.2402401E+04  0.7818609E-02  0.8438605E-01
        1   -1    0    0  501    0  0.00000000000E+00  0.00000000000E+00  0.16269435198E+04  0.16269435198E+04  0.50400001928E-02 0. -1.
       -1   -1    0    0    0  501  0.00000000000E+00  0.00000000000E+00 -0.88686689234E+03  0.88686689235E+03  0.50400001928E-02 0.  1.
    10030    2    1    2    0    0  0.00000000000E+00  0.00000000000E+00  0.74007662750E+03  0.25138104122E+04  0.24024007521E+04 0.  0.
        5    1    3    3  502    0  0.39769283960E+03  0.99078601930E+03 -0.20598453654E+03  0.10873215946E+04  0.46999998093E+01 0. -1.
       -5    1    3    3    0  502 -0.39769283960E+03 -0.99078601930E+03  0.94606116403E+03  0.14264888176E+04  0.46999998093E+01 0.  1.
</event>
<event>
 5   0  0.2149029E-06  0.2399806E+04  0.7818609E-02  0.8439576E-01
       -1   -1    0    0    0  501  0.00000000000E+00  0.00000000000E+00  0.97618776849E+03  0.97618776850E+03  0.50400001928E-02 0. -1.
        1   -1    0    0  501    0  0.00000000000E+00  0.00000000000E+00 -0.14748880382E+04  0.14748880383E+04  0.50400001928E-02 0.  1.
    10030    2    1    2    0    0  0.00000000000E+00  0.00000000000E+00 -0.49870026976E+03  0.24510758068E+04  0.23998063779E+04 0.  0.
        4    1    3    3  502    0  0.11726069215E+04 -0.13225265083E+03 -0.47140766446E+03  0.12707181257E+04  0.12699999809E+01 0. -1.
       -4    1    3    3    0  502 -0.11726069215E+04  0.13225265083E+03 -0.27292605293E+02  0.11803576810E+04  0.12699999809E+01 0.  1.
</event>
<event>
 5   0  0.2149029E-06  0.2399954E+04  0.7818609E-02  0.8439521E-01
       -1   -1    0    0    0  501  0.00000000000E+00  0.00000000000E+00  0.83172628573E+03  0.83172628574E+03  0.50400001928E-02 0.  1.
        1   -1    0    0  501    0  0.00000000000E+00  0.00000000000E+00 -0.17312724197E+04  0.17312724197E+04  0.50400001928E-02 0. -1.
    10030    2    1    2    0    0  0.00000000000E+00  0.00000000000E+00 -0.89954613400E+03  0.25629987055E+04  0.23999539823E+04 0.  0.
        4    1    3    3  502    0 -0.22701582823E+03 -0.91680573631E+03 -0.12402440019E+04  0.15589341685E+04  0.12699999809E+01 0. -1.
       -4    1    3    3    0  502  0.22701582823E+03  0.91680573631E+03  0.34069786792E+03  0.10040645370E+04  0.12699999809E+01 0.  1.
</event>
<event>
 5   0  0.5371843E-06  0.2401553E+04  0.7818609E-02  0.8438922E-01
        2   -1    0    0  501    0  0.00000000000E+00  0.00000000000E+00  0.10005883847E+04  0.10005883847E+04  0.25500000920E-02 0. -1.
       -2   -1    0    0    0  501  0.00000000000E+00  0.00000000000E+00 -0.14410164874E+04  0.14410164874E+04  0.25500000920E-02 0.  1.
    10030    2    1    2    0    0  0.00000000000E+00  0.00000000000E+00 -0.44042810270E+03  0.24416048721E+04  0.24015531303E+04 0.  0.
        4    1    3    3  502    0  0.99999248625E+03 -0.50531903830E+03  0.21888049711E+03  0.11415965084E+04  0.12699999809E+01 0. -1.
       -4    1    3    3    0  502 -0.99999248625E+03  0.50531903830E+03 -0.65930859981E+03  0.13000083637E+04  0.12699999809E+01 0.  1.
</event>
<event>
 5   0  0.2215700E-06  0.2400744E+04  0.7818609E-02  0.8439225E-01
        1   -1    0    0  501    0  0.00000000000E+00  0.00000000000E+00  0.14700617418E+04  0.14700617418E+04  0.50400001928E-02 0.  1.
       -1   -1    0    0    0  501  0.00000000000E+00  0.00000000000E+00 -0.98015851468E+03  0.98015851470E+03  0.50400001928E-02 0. -1.
    10030    2    1    2    0    0  0.00000000000E+00  0.00000000000E+00  0.48990322709E+03  0.24502202565E+04  0.24007444956E+04 0.  0.
        3    1    3    3  502    0  0.57966432137E+03 -0.36011495132E+03  0.12528251329E+04  0.14266269055E+04  0.10100000352E+00 0.  1.
       -3    1    3    3    0  502 -0.57966432137E+03  0.36011495132E+03 -0.76292190581E+03  0.10235933510E+04  0.10100000352E+00 0. -1.
</event>
<event>
 5   0  0.5268358E-06  0.2398296E+04  0.7818609E-02  0.8440142E-01
       -2   -1    0    0    0  501  0.00000000000E+00  0.00000000000E+00  0.64007057702E+03  0.64007057702E+03  0.25500000920E-02 0.  1.
        2   -1    0    0  501    0  0.00000000000E+00  0.00000000000E+00 -0.22465584058E+04  0.22465584058E+04  0.25500000920E-02 0. -1.
    10030    2    1    2    0    0  0.00000000000E+00  0.00000000000E+00 -0.16064878288E+04  0.28866289828E+04  0.23982960077E+04 0.  0.
        2    1    3    3  502    0  0.13782748766E+02 -0.11877598423E+04 -0.60549688757E+03  0.13332628728E+04  0.25500000920E-02 0.  1.
       -2    1    3    3    0  502 -0.13782748766E+02  0.11877598423E+04 -0.10009909412E+04  0.15533661100E+04  0.25500000920E-02 0. -1.
</event>
<event>
 5   0  0.5379778E-06  0.2400823E+04  0.7818609E-02  0.8439195E-01
       -2   -1    0    0    0  501  0.00000000000E+00  0.00000000000E+00  0.85610829220E+03  0.85610829220E+03  0.25500000920E-02 0.  1.
        2   -1    0    0  501    0  0.00000000000E+00  0.00000000000E+00 -0.16831844102E+04  0.16831844102E+04  0.25500000920E-02 0. -1.
    10030    2    1    2    0    0  0.00000000000E+00  0.00000000000E+00 -0.82707611801E+03  0.25392927024E+04  0.24008233012E+04 0.  0.
        5    1    3    3  502    0  0.60559602386E+02 -0.68868054090E+03  0.62439584673E+03  0.93157963496E+03  0.46999998093E+01 0.  1.
       -5    1    3    3    0  502 -0.60559602386E+02  0.68868054090E+03 -0.14514719647E+04  0.16077130675E+04  0.46999998093E+01 0. -1.
</event>
<event>
 5   0  0.5440503E-06  0.2393079E+04  0.7818609E-02  0.8442099E-01
        2   -1    0    0  501    0  0.00000000000E+00  0.00000000000E+00  0.74274029818E+03  0.74274029818E+03  0.25500000920E-02 0.  1.
       -2   -1    0    0    0  501  0.00000000000E+00  0.00000000000E+00 -0.19276005100E+04  0.19276005100E+04  0.25500000920E-02 0. -1.
    10030    2    1    2    0    0  0.00000000000E+00  0.00000000000E+00 -0.11848602119E+04  0.26703408082E+04  0.23930788350E+04 0.  0.
        3    1    3    3  502    0  0.10946612767E+04  0.48328023457E+02 -0.56018626506E+02  0.10971586053E+04  0.10100000352E+00 0.  1.
       -3    1    3    3    0  502 -0.10946612767E+04 -0.48328023457E+02 -0.11288415853E+04  0.15731822029E+04  0.10100000352E+00 0. -1.
</event>
<event>
 5   0  0.2254269E-06  0.2398213E+04  0.7818609E-02  0.8440173E-01
       -1   -1    0    0    0  501  0.00000000000E+00  0.00000000000E+00  0.15664098924E+04  0.15664098924E+04  0.50400001928E-02 0. -1.
        1   -1    0    0  501    0  0.00000000000E+00  0.00000000000E+00 -0.91793093028E+03  0.91793093029E+03  0.50400001928E-02 0.  1.
    10030    2    1    2    0    0  0.00000000000E+00  0.00000000000E+00  0.64847896208E+03  0.24843408227E+04  0.23982127426E+04 0.  0.
        2    1    3    3  502    0 -0.12054410931E+03 -0.51726821861E+03  0.14379108982E+04  0.15328682408E+04  0.25500000920E-02 0. -1.
       -2    1    3    3    0  502  0.12054410931E+03  0.51726821861E+03 -0.78943193616E+03  0.95147258190E+03  0.25500000920E-02 0.  1.
</event>
<event>
 5   0  0.5440503E-06  0.2401541E+04  0.7818609E-02  0.8438927E-01
       -2   -1    0    0    0  501  0.00000000000E+00  0.00000000000E+00  0.14231057896E+04  0.14231057896E+04  0.25500000920E-02 0. -1.
        2   -1    0    0  501    0  0.00000000000E+00  0.00000000000E+00 -0.10131709763E+04  0.10131709763E+04  0.25500000920E-02 0.  1.
    10030    2    1    2    0    0  0.00000000000E+00  0.00000000000E+00  0.40993481322E+03  0.24362767659E+04  0.24015407407E+04 0.  0.
        3    1    3    3  502    0  0.49907351007E+03  0.13043777668E+03  0.13049763264E+04  0.14032289923E+04  0.10100000352E+00 0. -1.
       -3    1    3    3    0  502 -0.49907351007E+03 -0.13043777668E+03 -0.89504151321E+03  0.10330477736E+04  0.10100000352E+00 0.  1.
</event>
<event>
 5   0  0.2149417E-06  0.2402853E+04  0.7818609E-02  0.8438436E-01
       -1   -1    0    0    0  501  0.00000000000E+00  0.00000000000E+00  0.88222477047E+03  0.88222477049E+03  0.50400001928E-02 0. -1.
        1   -1    0    0  501    0  0.00000000000E+00  0.00000000000E+00 -0.16361195846E+04  0.16361195846E+04  0.50400001928E-02 0.  1.
    10030    2    1    2    0    0  0.00000000000E+00  0.00000000000E+00 -0.75389481408E+03  0.25183443551E+04  0.24028526588E+04 0.  0.
        5    1    3    3  502    0 -0.42753347823E+03  0.91789901108E+03 -0.10546162149E+04  0.14620399858E+04  0.46999998093E+01 0.  1.
       -5    1    3    3    0  502  0.42753347823E+03 -0.91789901108E+03  0.30072140077E+03  0.10563043692E+04  0.46999998093E+01 0. -1.
</event>
<event>
 5   0  0.2215700E-06  0.2405420E+04  0.7818609E-02  0.8437477E-01
       -1   -1    0    0    0  501  0.00000000000E+00  0.00000000000E+00  0.15078762921E+04  0.15078762921E+04  0.50400001928E-02 0.  1.
        1   -1    0    0  501    0  0.00000000000E+00  0.00000000000E+00 -0.95930373218E+03  0.95930373220E+03  0.50400001928E-02 0. -1.
    10030    2    1    2    0    0  0.00000000000E+00  0.00000000000E+00  0.54857255996E+03  0.24671800243E+04  0.24054200089E+04 0.  0.
        3    1    3    3  502    0  0.91852121783E+03  0.31521646234E+03 -0.45348708705E+03  0.10717710549E+04  0.10100000352E+00 0. -1.
       -3    1    3    3    0  502 -0.91852121783E+03 -0.31521646234E+03  0.10020596470E+04  0.13954089695E+04  0.10100000352E+00 0.  1.
</event>
<event>
 5   0  0.2297414E-06  0.2398832E+04  0.7818609E-02  0.8439941E-01
        1   -1    0    0  501    0  0.00000000000E+00  0.00000000000E+00  0.12238645752E+04  0.12238645752E+04  0.50400001928E-02 0. -1.
       -1   -1    0    0    0  501  0.00000000000E+00  0.00000000000E+00 -0.11754562821E+04  0.11754562821E+04  0.50400001928E-02 0.  1.
    10030    2    1    2    0    0  0.00000000000E+00  0.00000000000E+00  0.48408293070E+02  0.23993208573E+04  0.23988324688E+04 0.  0.
        1    1    3    3  502    0 -0.80931378698E+03 -0.51734149092E+03  0.74265971029E+03  0.12141558670E+04  0.50400001928E-02 0. -1.
       -1    1    3    3    0  502  0.80931378698E+03  0.51734149092E+03 -0.69425141722E+03  0.11851649903E+04  0.50400001928E-02 0.  1.
</event>
<event>
 5   0  0.5371843E-06  0.2400858E+04  0.7818609E-02  0.8439183E-01
        2   -1    0    0  501    0  0.00000000000E+00  0.00000000000E+00  0.20373125194E+04  0.20373125194E+04  0.25500000920E-02 0. -1.
       -2   -1    0    0    0  501  0.00000000000E+00  0.00000000000E+00 -0.70731870616E+03  0.70731870616E+03  0.25500000920E-02 0.  1.
    10030    2    1    2    0    0  0.00000000000E+00  0.00000000000E+00  0.13299938132E+04  0.27446312256E+04  0.24008575595E+04 0.  0.
        4    1    3    3  502    0 -0.46911489355E+03 -0.89416458030E+03 -0.77132411188E+02  0.10126944760E+04  0.12699999809E+01 0.  1.
       -4    1    3    3    0  502  0.46911489355E+03  0.89416458030E+03  0.14071262244E+04  0.17319367495E+04  0.12699999809E+01 0. -1.
</event>
<event>
 5   0  0.2149029E-06  0.2401124E+04  0.7818609E-02  0.8439083E-01
        1   -1    0    0  501    0  0.00000000000E+00  0.00000000000E+00  0.19940697451E+04  0.19940697451E+04  0.50400001928E-02 0.  1.
       -1   -1    0    0    0  501  0.00000000000E+00  0.00000000000E+00 -0.72281751501E+03  0.72281751503E+03  0.50400001928E-02 0. -1.
    10030    2    1    2    0    0  0.00000000000E+00  0.00000000000E+00  0.12712522301E+04  0.27168872601E+04  0.24011235186E+04 0.  0.
        4    1    3    3  502    0  0.10978372370E+04 -0.38744700389E+03  0.96742034567E+03  0.15136926762E+04  0.12699999809E+01 0. -1.
       -4    1    3    3    0  502 -0.10978372370E+04  0.38744700389E+03  0.30383188438E+03  0.12031945839E+04  0.12699999809E+01 0.  1.
</event>
<event>
 5   0  0.2254269E-06  0.2398902E+04  0.7818609E-02  0.8439915E-01
        1   -1    0    0  501    0  0.00000000000E+00  0.00000000000E+00  0.13422837727E+04  0.13422837727E+04  0.50400001928E-02 0. -1.
       -1   -1    0    0    0  501  0.00000000000E+00  0.00000000000E+00 -0.10718173281E+04  0.10718173281E+04  0.50400001928E-02 0.  1.
    10030    2    1    2    0    0  0.00000000000E+00  0.00000000000E+00  0.27046644456E+03  0.24141011008E+04  0.23989022546E+04 0.  0.
        2    1    3    3  502    0  0.71185459374E+02 -0.83253877158E+03 -0.73073891163E+03  0.11100304198E+04  0.25500000920E-02 0.  1.
       -2    1    3    3    0  502 -0.71185459374E+02  0.83253877158E+03  0.10012053562E+04  0.13040706810E+04  0.25500000920E-02 0. -1.
</event>
<event>
 5   0  0.2149417E-06  0.2401454E+04  0.7818609E-02  0.8438959E-01
       -1   -1    0    0    0  501  0.00000000000E+00  0.00000000000E+00  0.59698457260E+03  0.59698457262E+03  0.50400001928E-02 0.  1.
        1   -1    0    0  501    0  0.00000000000E+00  0.00000000000E+00 -0.24150467705E+04  0.24150467705E+04  0.50400001928E-02 0. -1.
    10030    2    1    2    0    0  0.00000000000E+00  0.00000000000E+00 -0.18180621979E+04  0.30120313431E+04  0.24014542795E+04 0.  0.
        5    1    3    3  502    0  0.69300310740E+03  0.40024544819E+03  0.21369973115E+03  0.82833531300E+03  0.46999998093E+01 0.  1.
       -5    1    3    3    0  502 -0.69300310740E+03 -0.40024544819E+03 -0.20317619291E+04  0.21836960301E+04  0.46999998093E+01 0. -1.
</event>
<event>
 5   0  0.5268358E-06  0.2401960E+04  0.7818609E-02  0.8438770E-01
        2   -1    0    0  501    0  0.00000000000E+00  0.00000000000E+00  0.89113068112E+03  0.89113068113E+03  0.25500000920E-02 0.  1.
       -2   -1    0    0    0  501  0.00000000000E+00  0.00000000000E+00 -0.16185652632E+04  0.16185652632E+04  0.25500000920E-02 0. -1.
    10030    2    1    2    0    0  0.00000000000E+00  0.00000000000E+00 -0.72743458204E+03  0.25096959443E+04  0.24019601707E+04 0.  0.
        2    1    3    3  502    0  0.43897370940E+03  0.42386279981E+03 -0.14445196850E+04  0.15681182069E+04  0.25500000920E-02 0. -1.
       -2    1    3    3    0  502 -0.43897370940E+03 -0.42386279981E+03  0.71708510295E+03  0.94157773735E+03  0.25500000920E-02 0.  1.
</event>
<event>
 5   0  0.5371843E-06  0.2400691E+04  0.7818609E-02  0.8439245E-01
       -2   -1    0    0    0  501  0.00000000000E+00  0.00000000000E+00  0.94681007180E+03  0.94681007181E+03  0.25500000920E-02 0.  1.
        2   -1    0    0  501    0  0.00000000000E+00  0.00000000000E+00 -0.15217722270E+04  0.15217722270E+04  0.25500000920E-02 0. -1.
    10030    2    1    2    0    0  0.00000000000E+00  0.00000000000E+00 -0.57496215515E+03  0.24685822988E+04  0.24006909601E+04 0.  0.
        4    1    3    3  502    0 -0.10253257197E+04 -0.32110923827E+03  0.26283958161E+03  0.11061149276E+04  0.12699999809E+01 0.  1.
       -4    1    3    3    0  502  0.10253257197E+04  0.32110923827E+03 -0.83780173676E+03  0.13624673712E+04  0.12699999809E+01 0. -1.
</event>
<event>
 5   0  0.5268358E-06  0.2397966E+04  0.7818609E-02  0.8440266E-01
        2   -1    0    0  501    0  0.00000000000E+00  0.00000000000E+00  0.16879396484E+04  0.16879396484E+04  0.25500000920E-02 0. -1.
       -2   -1    0    0    0  501  0.00000000000E+00  0.00000000000E+00 -0.85166531677E+03  0.85166531678E+03  0.25500000920E-02 0.  1.
    10030    2    1    2    0    0  0.00000000000E+00  0.00000000000E+00  0.83627433163E+03  0.25396049652E+04  0.23979655171E+04 0.  0.
        2    1    3    3  502    0  0.10680927708E+04  0.11069865923E+02 -0.15865552662E+03  0.10798686425E+04  0.25500000920E-02 0. -1.
       -2    1    3    3    0  502 -0.10680927708E+04 -0.11069865923E+02  0.99492985824E+03  0.14597363227E+04  0.25500000920E-02 0.  1.
</event>
<event>
 5   0  0.2149029E-06  0.2401193E+04  0.7818609E-02  0.8439057E-01
        1   -1    0    0  501    0  0.00000000000E+00  0.00000000000E+00  0.30560545290E+04  0.30560545290E+04  0.50400001928E-02 0.  1.
       -1   -1    0    0    0  501  0.00000000000E+00  0.00000000000E+00 -0.47166450897E+03  0.47166450900E+03  0.50400001928E-02 0. -1.
    10030    2    1    2    0    0  0.00000000000E+00  0.00000000000E+00  0.25843900200E+04  0.35277190380E+04  0.24011934190E+04 0.  0.
        4    1    3    3  502    0  0.82705998638E+03  0.47999994253E+03  0.23587254527E+04  0.25451945977E+04  0.12699999809E+01 0.  1.
       -4    1    3    3    0  502 -0.82705998638E+03 -0.47999994253E+03  0.22566456725E+03  0.98252444026E+03  0.12699999809E+01 0. -1.
</event>
<event>
 5   0  0.5379778E-06  0.2399912E+04  0.7818609E-02  0.8439536E-01
        2   -1    0    0  501    0  0.00000000000E+00  0.00000000000E+00  0.10240659888E+04  0.10240659888E+04  0.25500000920E-02 0. -1.
       -2   -1    0    0    0  501  0.00000000000E+00  0.00000000000E+00 -0.14060563029E+04  0.14060563029E+04  0.25500000920E-02 0.  1.
    10030    2    1    2    0    0  0.00000000000E+00  0.00000000000E+00 -0.38199031410E+03  0.24301222917E+04  0.23999120302E+04 0.  0.
        5    1    3    3  502    0  0.45417804773E+03  0.45020161788E+03 -0.12191152497E+04  0.13766710856E+04  0.46999998093E+01 0.  1.
       -5    1    3    3    0  502 -0.45417804773E+03 -0.45020161788E+03  0.83712493563E+03  0.10534512061E+04  0.46999998093E+01 0. -1.
</event>
<event>
 5   0  0.2254269E-06  0.2399683E+04  0.7818609E-02  0.8439622E-01
       -1   -1    0    0    0  501  0.00000000000E+00  0.00000000000E+00  0.10112755466E+04  0.10112755466E+04  0.50400001928E-02 0.  1.
        1   -1    0    0  501    0  0.00000000000E+00  0.00000000000E+00 -0.14235681982E+04  0.14235681982E+04  0.50400001928E-02 0. -1.
    10030    2    1    2    0    0  0.00000000000E+00  0.00000000000E+00 -0.41229265163E+03  0.24348437448E+04  0.23996830688E+04 0.  0.
        2    1    3    3  502    0 -0.11724311300E+04  0.19442780577E+03 -0.37355711989E+03  0.12457695807E+04  0.25500000920E-02 0. -1.
       -2    1    3    3    0  502  0.11724311300E+04 -0.19442780577E+03 -0.38735531734E+02  0.11890741641E+04  0.25500000920E-02 0.  1.
</event>
<event>
 5   0  0.2297414E-06  0.2401101E+04  0.7818609E-02  0.8439092E-01
       -1   -1    0    0    0  501  0.00000000000E+00  0.00000000000E+00  0.84723005925E+03  0.84723005926E+03  0.50400001928E-02 0.  1.
        1   -1    0    0  501    0  0.00000000000E+00  0.00000000000E+00 -0.17012160297E+04  0.17012160297E+04  0.50400001928E-02 0. -1.
    10030    2    1    2    0    0  0.00000000000E+00  0.00000000000E+00 -0.85398597044E+03  0.25484460890E+04  0.24011008789E+04 0.  0.
        1    1    3    3  502    0 -0.48984518601E+03 -0.49016850263E+03 -0.14675146219E+04  0.16229025333E+04  0.50400001928E-02 0. -1.
       -1    1    3    3    0  502  0.48984518601E+03  0.49016850263E+03  0.61352865143E+03  0.92554355563E+03  0.50400001928E-02 0.  1.
</event>
<event>
 5   0  0.2149417E-06  0.2400095E+04  0.7818609E-02  0.8439468E-01
        1   -1    0    0  501    0  0.00000000000E+00  0.00000000000E+00  0.17759738831E+04  0.17759738831E+04  0.50400001928E-02 0. -1.
       -1   -1    0    0    0  501  0.00000000000E+00  0.00000000000E+00 -0.81088675937E+03  0.81088675938E+03  0.50400001928E-02 0.  1.
    10030    2    1    2    0    0  0.00000000000E+00  0.00000000000E+00  0.96508712374E+03  0.25868606425E+04  0.24000947538E+04 0.  0.
        5    1    3    3  502    0 -0.14484810814E+03  0.82471181111E+02 -0.79833964429E+03  0.81556774567E+03  0.46999998093E+01 0.  1.
       -5    1    3    3    0  502  0.14484810814E+03 -0.82471181111E+02  0.17634267680E+04  0.17712928968E+04  0.46999998093E+01 0. -1.
</event>
<event>
 5   0  0.2149029E-06  0.2399859E+04  0.7818609E-02  0.8439556E-01
        1   -1    0    0  501    0  0.00000000000E+00  0.00000000000E+00  0.11479145135E+04  0.11479145135E+04  0.50400001928E-02 0.  1.
       -1   -1    0    0    0  501  0.00000000000E+00  0.00000000000E+00 -0.12543018474E+04  0.12543018474E+04  0.50400001928E-02 0. -1.
    10030    2    1    2    0    0  0.00000000000E+00  0.00000000000E+00 -0.10638733386E+03  0.24022163609E+04  0.23998594084E+04 0.  0.
        4    1    3    3  502    0  0.40044243968E+03  0.52103268163E+03  0.95178464558E+03  0.11566005478E+04  0.12699999809E+01 0.  1.
       -4    1    3    3    0  502 -0.40044243968E+03 -0.52103268163E+03 -0.10581719794E+04  0.12456158131E+04  0.12699999809E+01 0. -1.
</event>
<event>
 5   0  0.5349036E-06  0.2419188E+04  0.7818609E-02  0.8432355E-01
       -2   -1    0    0    0  501  0.00000000000E+00  0.00000000000E+00  0.13352115822E+04  0.13352115822E+04  0.25500000920E-02 0.  1.
        2   -1    0    0  501    0  0.00000000000E+00  0.00000000000E+00 -0.10957942149E+04  0.10957942149E+04  0.25500000920E-02 0. -1.
    10030    2    1    2    0    0  0.00000000000E+00  0.00000000000E+00  0.23941736728E+03  0.24310057970E+04  0.24191875722E+04 0.  0.
        1    1    3    3  502    0 -0.12470194440E+03 -0.76769982303E+03 -0.81120968766E+03  0.11238214941E+04  0.50400001928E-02 0. -1.
       -1    1    3    3    0  502  0.12470194440E+03  0.76769982303E+03  0.10506270549E+04  0.13071843029E+04  0.50400001928E-02 0.  1.
</event>
<event>
 5   0  0.2297414E-06  0.2412252E+04  0.7818609E-02  0.8434931E-01
        1   -1    0    0  501    0  0.00000000000E+00  0.00000000000E+00  0.19228524143E+04  0.19228524143E+04  0.50400001928E-02 0. -1.
       -1   -1    0    0    0  501  0.00000000000E+00  0.00000000000E+00 -0.75655337272E+03  0.75655337273E+03  0.50400001928E-02 0.  1.
    10030    2    1    2    0    0  0.00000000000E+00  0.00000000000E+00  0.11662990416E+04  0.26794057871E+04  0.24122524572E+04 0.  0.
        1    1    3    3  502    0  0.70531318162E+03 -0.78901332177E+03 -0.59485224240E+02  0.10599750931E+04  0.50400001928E-02 0.  1.
       -1    1    3    3    0  502 -0.70531318162E+03  0.78901332177E+03  0.12257842658E+04  0.16194306939E+04  0.50400001928E-02 0. -1.
</event>
<event>
 5   0  0.5440503E-06  0.2396752E+04  0.7818609E-02  0.8440720E-01
        2   -1    0    0  501    0  0.00000000000E+00  0.00000000000E+00  0.14709243545E+04  0.14709243545E+04  0.25500000920E-02 0.  1.
       -2   -1    0    0    0  501  0.00000000000E+00  0.00000000000E+00 -0.97632847284E+03  0.97632847285E+03  0.25500000920E-02 0. -1.
    10030    2    1    2    0    0  0.00000000000E+00  0.00000000000E+00  0.49459588164E+03  0.24472528273E+04  0.23967522431E+04 0.  0.
        3    1    3    3  502    0  0.11450362453E+04  0.32422327789E+03  0.39125287104E+03  0.12527200630E+04  0.10100000352E+00 0.  1.
       -3    1    3    3    0  502 -0.11450362453E+04 -0.32422327789E+03  0.10334301060E+03  0.11945327643E+04  0.10100000352E+00 0. -1.
</event>
<event>
 5   0  0.5349036E-06  0.2402158E+04  0.7818609E-02  0.8438696E-01
        2   -1    0    0  501    0  0.00000000000E+00  0.00000000000E+00  0.14106504292E+04  0.14106504292E+04  0.25500000920E-02 0.  1.
       -2   -1    0    0    0  501  0.00000000000E+00  0.00000000000E+00 -0.10226421775E+04  0.10226421775E+04  0.25500000920E-02 0. -1.
    10030    2    1    2    0    0  0.00000000000E+00  0.00000000000E+00  0.38800825167E+03  0.24332926067E+04  0.24021578854E+04 0.  0.
        1    1    3    3  502    0 -0.11902351582E+03 -0.56180221480E+03 -0.87456296616E+03  0.10462546094E+04  0.50400001928E-02 0. -1.
       -1    1    3    3    0  502  0.11902351582E+03  0.56180221480E+03  0.12625712178E+04  0.13870379973E+04  0.50400001928E-02 0.  1.
</event>
<event>
 5   0  0.5349036E-06  0.2397675E+04  0.7818609E-02  0.8440375E-01
        2   -1    0    0  501    0  0.00000000000E+00  0.00000000000E+00  0.19759618732E+04  0.19759618732E+04  0.25500000920E-02 0.  1.
       -2   -1    0    0    0  501  0.00000000000E+00  0.00000000000E+00 -0.72734749726E+03  0.72734749726E+03  0.25500000920E-02 0. -1.
    10030    2    1    2    0    0  0.00000000000E+00  0.00000000000E+00  0.12486143759E+04  0.27033093705E+04  0.23976746428E+04 0.  0.
        1    1    3    3  502    0 -0.78698760154E+03  0.12096346821E+03  0.16347814698E+04  0.18183762261E+04  0.50400001928E-02 0.  1.
       -1    1    3    3    0  502  0.78698760154E+03 -0.12096346821E+03 -0.38616709385E+03  0.88493314438E+03  0.50400001928E-02 0. -1.
</event>
<event>
 5   0  0.5379778E-06  0.2393374E+04  0.7818609E-02  0.8441989E-01
        2   -1    0    0  501    0  0.00000000000E+00  0.00000000000E+00  0.13436869091E+04  0.13436869091E+04  0.25500000920E-02 0. -1.
       -2   -1    0    0    0  501  0.00000000000E+00  0.00000000000E+00 -0.10657686070E+04  0.10657686070E+04  0.25500000920E-02 0.  1.
    10030    2    1    2    0    0  0.00000000000E+00  0.00000000000E+00  0.27791830211E+03  0.24094555160E+04  0.23933736234E+04 0.  0.
        5    1    3    3  502    0  0.76977170931E+01 -0.72649906729E+03 -0.81831241779E+03  0.10943114057E+04  0.46999998093E+01 0.  1.
       -5    1    3    3    0  502 -0.76977170931E+01  0.72649906729E+03  0.10962307199E+04  0.13151441103E+04  0.46999998093E+01 0. -1.
</event>
<event>
 5   0  0.2149417E-06  0.2396981E+04  0.7818609E-02  0.8440635E-01
        1   -1    0    0  501    0  0.00000000000E+00  0.00000000000E+00  0.11858482903E+04  0.11858482903E+04  0.50400001928E-02 0.  1.
       -1   -1    0    0    0  501  0.00000000000E+00  0.00000000000E+00 -0.12112675988E+04  0.12112675988E+04  0.50400001928E-02 0. -1.
    10030    2    1    2    0    0  0.00000000000E+00  0.00000000000E+00 -0.25419308468E+02  0.23971158891E+04  0.23969811106E+04 0.  0.
        5    1    3    3  502    0 -0.93994330216E+03  0.67661965104E+03 -0.32102872111E+03  0.12018273974E+04  0.46999998093E+01 0. -1.
       -5    1    3    3    0  502  0.93994330216E+03 -0.67661965104E+03  0.29560941265E+03  0.11952884917E+04  0.46999998093E+01 0.  1.
</event>
<event>
 5   0  0.5440503E-06  0.2398557E+04  0.7818609E-02  0.8440044E-01
       -2   -1    0    0    0  501  0.00000000000E+00  0.00000000000E+00  0.14297291131E+04  0.14297291131E+04  0.25500000920E-02 0.  1.
        2   -1    0    0  501    0  0.00000000000E+00  0.00000000000E+00 -0.10059733164E+04  0.10059733164E+04  0.25500000920E-02 0. -1.
    10030    2    1    2    0    0  0.00000000000E+00  0.00000000000E+00  0.42375579678E+03  0.24357024295E+04  0.23985573476E+04 0.  0.
        3    1    3    3  502    0 -0.15348859491E+03  0.11725559397E+04  0.92300904163E+01  0.11825951907E+04  0.10100000352E+00 0. -1.
       -3    1    3    3    0  502  0.15348859491E+03 -0.11725559397E+04  0.41452570636E+03  0.12531072388E+04  0.10100000352E+00 0.  1.
</event>
<event>
 5   0  0.2149029E-06  0.2422133E+04  0.7818609E-02  0.8431264E-01
        1   -1    0    0  501    0  0.00000000000E+00  0.00000000000E+00  0.18493805936E+04  0.18493805936E+04  0.50400001928E-02 0.  1.
       -1   -1    0    0    0  501  0.00000000000E+00  0.00000000000E+00 -0.79306632937E+03  0.79306632938E+03  0.50400001928E-02 0. -1.
    10030    2    1    2    0    0  0.00000000000E+00  0.00000000000E+00  0.10563142642E+04  0.26424469230E+04  0.24221325141E+04 0.  0.
        4    1    3    3  502    0  0.48516965974E+03  0.42088393770E+03 -0.59194843879E+03  0.87346290982E+03  0.12699999809E+01 0. -1.
       -4    1    3    3    0  502 -0.48516965974E+03 -0.42088393770E+03  0.16482627030E+04  0.17689840132E+04  0.12699999809E+01 0.  1.
</event>
<event>
 5   0  0.2297414E-06  0.2400478E+04  0.7818609E-02  0.8439325E-01
       -1   -1    0    0    0  501  0.00000000000E+00  0.00000000000E+00  0.96282726337E+03  0.96282726338E+03  0.50400001928E-02 0. -1.
        1   -1    0    0  501    0  0.00000000000E+00  0.00000000000E+00 -0.14961908020E+04  0.14961908020E+04  0.50400001928E-02 0.  1.
    10030    2    1    2    0    0  0.00000000000E+00  0.00000000000E+00 -0.53336353866E+03  0.24590180654E+04  0.24004776986E+04 0.  0.
        1    1    3    3  502    0 -0.77413173481E+03  0.36398399322E+03 -0.11291213049E+04  0.14165730519E+04  0.50400001928E-02 0.  1.
       -1    1    3    3    0  502  0.77413173481E+03 -0.36398399322E+03  0.59575776623E+03  0.10424450135E+04  0.50400001928E-02 0. -1.
</event>
<event>
 5   0  0.2215700E-06  0.2398949E+04  0.7818609E-02  0.8439897E-01
       -1   -1    0    0    0  501  0.00000000000E+00  0.00000000000E+00  0.10350221510E+04  0.10350221510E+04  0.50400001928E-02 0.  1.
        1   -1    0    0  501    0  0.00000000000E+00  0.00000000000E+00 -0.13900557990E+04  0.13900557990E+04  0.50400001928E-02 0. -1.
    10030    2    1    2    0    0  0.00000000000E+00  0.00000000000E+00 -0.35503364798E+03  0.24250779501E+04  0.23989485556E+04 0.  0.
        3    1    3    3  502    0  0.88114918241E+03 -0.35039700826E+03  0.56501525106E+03  0.11038315946E+04  0.10100000352E+00 0.  1.
       -3    1    3    3    0  502 -0.88114918241E+03  0.35039700826E+03 -0.92004889903E+03  0.13212463555E+04  0.10100000352E+00 0. -1.
</event>
<event>
 5   0  0.2215700E-06  0.2395338E+04  0.7818609E-02  0.8441251E-01
       -1   -1    0    0    0  501  0.00000000000E+00  0.00000000000E+00  0.10500984194E+04  0.10500984194E+04  0.50400001928E-02 0.  1.
        1   -1    0    0  501    0  0.00000000000E+00  0.00000000000E+00 -0.13659781953E+04  0.13659781954E+04  0.50400001928E-02 0. -1.
    10030    2    1    2    0    0  0.00000000000E+00  0.00000000000E+00 -0.31587977592E+03  0.24160766148E+04  0.23953384261E+04 0.  0.
        3    1    3    3  502    0 -0.10857974888E+04 -0.28754040823E+03  0.26132196821E+03  0.11532236793E+04  0.10100000352E+00 0.  1.
       -3    1    3    3    0  502  0.10857974888E+04  0.28754040823E+03 -0.57720174413E+03  0.12628529355E+04  0.10100000352E+00 0. -1.
</event>
<event>
 5   0  0.5268358E-06  0.2426382E+04  0.7818609E-02  0.8429692E-01
        2   -1    0    0  501    0  0.00000000000E+00  0.00000000000E+00  0.12322119199E+04  0.12322119199E+04  0.25500000920E-02 0. -1.
       -2   -1    0    0    0  501  0.00000000000E+00  0.00000000000E+00 -0.11944636719E+04  0.11944636719E+04  0.25500000920E-02 0.  1.
    10030    2    1    2    0    0  0.00000000000E+00  0.00000000000E+00  0.37748247996E+02  0.24266755917E+04  0.24263819768E+04 0.  0.
        2    1    3    3  502    0  0.32474620727E+03 -0.43272916293E+03 -0.10671291599E+04  0.11964444289E+04  0.25500000920E-02 0.  1.
       -2    1    3    3    0  502 -0.32474620727E+03  0.43272916293E+03  0.11048774079E+04  0.12302311628E+04  0.25500000920E-02 0. -1.
</event>
<event>
 5   0  0.2149417E-06  0.2414055E+04  0.7818609E-02  0.8434260E-01
       -1   -1    0    0    0  501  0.00000000000E+00  0.00000000000E+00  0.17517548362E+04  0.17517548362E+04  0.50400001928E-02 0. -1.
        1   -1    0    0  501    0  0.00000000000E+00  0.00000000000E+00 -0.83168903662E+03  0.83168903664E+03  0.50400001928E-02 0.  1.
    10030    2    1    2    0    0  0.00000000000E+00  0.00000000000E+00  0.92006579961E+03  0.25834438729E+04  0.24140549225E+04 0.  0.
        5    1    3    3  502    0 -0.84544902866E+03  0.58739193771E+03 -0.21432556084E+03  0.10515564106E+04  0.46999998093E+01 0.  1.
       -5    1    3    3    0  502  0.84544902866E+03 -0.58739193771E+03  0.11343913604E+04  0.15318874623E+04  0.46999998093E+01 0. -1.
</event>
<event>
 5   0  0.5379778E-06  0.2406215E+04  0.7818609E-02  0.8437181E-01
       -2   -1    0    0    0  501  0.00000000000E+00  0.00000000000E+00  0.68149178313E+03  0.68149178314E+03  0.25500000920E-02 0. -1.
        2   -1    0    0  501    0  0.00000000000E+00  0.00000000000E+00 -0.21239687821E+04  0.21239687821E+04  0.25500000920E-02 0.  1.
    10030    2    1    2    0    0  0.00000000000E+00  0.00000000000E+00 -0.14424769989E+04  0.28054605652E+04  0.24062146809E+04 0.  0.
        5    1    3    3  502    0 -0.88686426184E+03 -0.47612651919E+03 -0.14895281068E+04  0.17977599261E+04  0.46999998093E+01 0.  1.
       -5    1    3    3    0  502  0.88686426184E+03  0.47612651919E+03  0.47051107841E+02  0.10077006391E+04  0.46999998093E+01 0. -1.
</event>
<event>
 5   0  0.2254269E-06  0.2405998E+04  0.7818609E-02  0.8437262E-01
        1   -1    0    0  501    0  0.00000000000E+00  0.00000000000E+00  0.14742420997E+04  0.14742420997E+04  0.50400001928E-02 0.  1.
       -1   -1    0    0    0  501  0.00000000000E+00  0.00000000000E+00 -0.98166117604E+03  0.98166117606E+03  0.50400001928E-02 0. -1.
    10030    2    1    2    0    0  0.00000000000E+00  0.00000000000E+00  0.49258092361E+03  0.24559032757E+04  0.24059977002E+04 0.  0.
        2    1    3    3  502    0 -0.38131121396E+03  0.24987091616E+03 -0.89007226748E+03  0.10000311785E+04  0.25500000920E-02 0. -1.
       -2    1    3    3    0  502  0.38131121396E+03 -0.24987091616E+03  0.13826531911E+04  0.14558720972E+04  0.25500000920E-02 0.  1.
</event>
<event>
 5   0  0.2254269E-06  0.2399293E+04  0.7818609E-02  0.8439768E-01
       -1   -1    0    0    0  501  0.00000000000E+00  0.00000000000E+00  0.11312439112E+04  0.11312439112E+04  0.50400001928E-02 0.  1.
        1   -1    0    0  501    0  0.00000000000E+00  0.00000000000E+00 -0.12721850788E+04  0.12721850788E+04  0.50400001928E-02 0. -1.
    10030    2    1    2    0    0  0.00000000000E+00  0.00000000000E+00 -0.14094116753E+03  0.24034289900E+04  0.23992929161E+04 0.  0.
        2    1    3    3  502    0  0.96601100582E+03  0.81900824795E+02  0.63733549352E+03  0.11602075417E+04  0.25500000920E-02 0.  1.
       -2    1    3    3    0  502 -0.96601100582E+03 -0.81900824795E+02 -0.77827666105E+03  0.12432214483E+04  0.25500000920E-02 0. -1.
</event>
<event>
 5   0  0.2297414E-06  0.2400312E+04  0.7818609E-02  0.8439387E-01
        1   -1    0    0  501    0  0.00000000000E+00  0.00000000000E+00  0.15817804662E+04  0.15817804662E+04  0.50400001928E-02 0. -1.
       -1   -1    0    0    0  501  0.00000000000E+00  0.00000000000E+00 -0.91060287213E+03  0.91060287214E+03  0.50400001928E-02 0.  1.
    10030    2    1    2    0    0  0.00000000000E+00  0.00000000000E+00  0.67117759406E+03  0.24923833383E+04  0.24003115095E+04 0.  0.
        1    1    3    3  502    0 -0.19340347996E+03 -0.40557414665E+03  0.14911460685E+04  0.15573733953E+04  0.50400001928E-02 0. -1.
       -1    1    3    3    0  502  0.19340347996E+03  0.40557414665E+03 -0.81996847448E+03  0.93500994308E+03  0.50400001928E-02 0.  1.
</event>
<event>
 5   0  0.2254269E-06  0.2399048E+04  0.7818609E-02  0.8439860E-01
       -1   -1    0    0    0  501  0.00000000000E+00  0.00000000000E+00  0.61603332971E+03  0.61603332973E+03  0.50400001928E-02 0.  1.
        1   -1    0    0  501    0  0.00000000000E+00  0.00000000000E+00 -0.23356818183E+04  0.23356818183E+04  0.50400001928E-02 0. -1.
    10030    2    1    2    0    0  0.00000000000E+00  0.00000000000E+00 -0.17196484886E+04  0.29517151480E+04  0.23990480176E+04 0.  0.
        2    1    3    3  502    0 -0.34680252027E+03  0.28970768415E+03 -0.22269496974E+04  0.22723352493E+04  0.25500000920E-02 0. -1.
       -2    1    3    3    0  502  0.34680252027E+03 -0.28970768415E+03  0.50730120883E+03  0.67937989874E+03  0.25500000920E-02 0.  1.
</event>
<event>
 5   0  0.5349036E-06  0.2401168E+04  0.7818609E-02  0.8439066E-01
       -2   -1    0    0    0  501  0.00000000000E+00  0.00000000000E+00  0.78629183169E+03  0.78629183169E+03  0.25500000920E-02 0. -1.
        2   -1    0    0  501    0  0.00000000000E+00  0.00000000000E+00 -0.18331639754E+04  0.18331639755E+04  0.25500000920E-02 0.  1.
    10030    2    1    2    0    0  0.00000000000E+00  0.00000000000E+00 -0.10468721438E+04  0.26194558071E+04  0.24011679325E+04 0.  0.
        1    1    3    3  502    0  0.30723921308E+03 -0.94848892180E+03 -0.12531023019E+04  0.16013408593E+04  0.50400001928E-02 0.  1.
       -1    1    3    3    0  502 -0.30723921308E+03  0.94848892180E+03  0.20623015810E+03  0.10181149478E+04  0.50400001928E-02 0. -1.
</event>
<event>
 5   0  0.5349036E-06  0.2400076E+04  0.7818609E-02  0.8439475E-01
       -2   -1    0    0    0  501  0.00000000000E+00  0.00000000000E+00  0.87386132799E+03  0.87386132800E+03  0.25500000920E-02 0. -1.
        2   -1    0    0  501    0  0.00000000000E+00  0.00000000000E+00 -0.16479633938E+04  0.16479633938E+04  0.25500000920E-02 0.  1.
    10030    2    1    2    0    0  0.00000000000E+00  0.00000000000E+00 -0.77410206582E+03  0.25218247218E+04  0.24000762320E+04 0.  0.
        1    1    3    3  502    0  0.18613943259E+02  0.78594951073E+02 -0.16451041721E+04  0.16470857240E+04  0.50400001928E-02 0.  1.
       -1    1    3    3    0  502 -0.18613943259E+02 -0.78594951073E+02  0.87100210624E+03  0.87473899782E+03  0.50400001928E-02 0. -1.
</event>
<event>
 5   0  0.2149029E-06  0.2399595E+04  0.7818609E-02  0.8439655E-01
       -1   -1    0    0    0  501  0.00000000000E+00  0.00000000000E+00  0.20563187518E+04  0.20563187518E+04  0.50400001928E-02 0. -1.
        1   -1    0    0  501    0  0.00000000000E+00  0.00000000000E+00 -0.70004402172E+03  0.70004402173E+03  0.50400001928E-02 0.  1.
    10030    2    1    2    0    0  0.00000000000E+00  0.00000000000E+00  0.13562747300E+04  0.27563627735E+04  0.23995946732E+04 0.  0.
        4    1    3    3  502    0  0.99962630043E+03  0.63374789962E+03  0.45239093046E+03  0.12671023272E+04  0.12699999809E+01 0. -1.
       -4    1    3    3    0  502 -0.99962630043E+03 -0.63374789962E+03  0.90388379958E+03  0.14892604463E+04  0.12699999809E+01 0.  1.
</event>
<event>
 5   0  0.5379778E-06  0.2400050E+04  0.7818609E-02  0.8439485E-01
        2   -1    0    0  501    0  0.00000000000E+00  0.00000000000E+00  0.13480401828E+04  0.13480401828E+04  0.25500000920E-02 0. -1.
       -2   -1    0    0    0  501  0.00000000000E+00  0.00000000000E+00 -0.10682615415E+04  0.10682615416E+04  0.25500000920E-02 0.  1.
    10030    2    1    2    0    0  0.00000000000E+00  0.00000000000E+00  0.27977864121E+03  0.24163017243E+04  0.24000495692E+04 0.  0.
        5    1    3    3  502    0  0.63121059272E+03 -0.64492417124E+03 -0.65646853217E+03  0.11159422130E+04  0.46999998093E+01 0. -1.
       -5    1    3    3    0  502 -0.63121059272E+03  0.64492417124E+03  0.93624717338E+03  0.13003595113E+04  0.46999998093E+01 0.  1.
</event>
<event>
 5   0  0.2149417E-06  0.2433206E+04  0.7818609E-02  0.8427176E-01
        1   -1    0    0  501    0  0.00000000000E+00  0.00000000000E+00  0.12996970877E+04  0.12996970877E+04  0.50400001928E-02 0.  1.
       -1   -1    0    0    0  501  0.00000000000E+00  0.00000000000E+00 -0.11388209517E+04  0.11388209517E+04  0.50400001928E-02 0. -1.
    10030    2    1    2    0    0  0.00000000000E+00  0.00000000000E+00  0.16087613601E+03  0.24385180395E+04  0.24332055190E+04 0.  0.
        5    1    3    3  502    0  0.88013743245E+03  0.64734491713E+03  0.61677270124E+03  0.12546425773E+04  0.46999998093E+01 0.  1.
       -5    1    3    3    0  502 -0.88013743245E+03 -0.64734491713E+03 -0.45589656523E+03  0.11838754622E+04  0.46999998093E+01 0. -1.
</event>
<event>
 5   0  0.2254269E-06  0.2407756E+04  0.7818609E-02  0.8436606E-01
       -1   -1    0    0    0  501  0.00000000000E+00  0.00000000000E+00  0.98415796033E+03  0.98415796034E+03  0.50400001928E-02 0.  1.
        1   -1    0    0  501    0  0.00000000000E+00  0.00000000000E+00 -0.14726518941E+04  0.14726518942E+04  0.50400001928E-02 0. -1.
    10030    2    1    2    0    0  0.00000000000E+00  0.00000000000E+00 -0.48849393382E+03  0.24568098545E+04  0.24077558717E+04 0.  0.
        2    1    3    3  502    0 -0.37903634511E+02 -0.11971091844E+04 -0.36844362721E+03  0.12530992743E+04  0.25500000920E-02 0.  1.
       -2    1    3    3    0  502  0.37903634511E+02  0.11971091844E+04 -0.12005030661E+03  0.12037105802E+04  0.25500000920E-02 0. -1.
</event>
<event>
 5   0  0.5379778E-06  0.2399509E+04  0.7818609E-02  0.8439688E-01
       -2   -1    0    0    0  501  0.00000000000E+00  0.00000000000E+00  0.83107395497E+03  0.83107395497E+03  0.25500000920E-02 0. -1.
        2   -1    0    0  501    0  0.00000000000E+00  0.00000000000E+00 -0.17319885159E+04  0.17319885159E+04  0.25500000920E-02 0.  1.
    10030    2    1    2    0    0  0.00000000000E+00  0.00000000000E+00 -0.90091456097E+03  0.25630624709E+04  0.23995087380E+04 0.  0.
        5    1    3    3  502    0  0.27903777633E+03  0.72121748932E+03 -0.14302423295E+04  0.16259249548E+04  0.46999998093E+01 0.  1.
       -5    1    3    3    0  502 -0.27903777633E+03 -0.72121748932E+03  0.52932776855E+03  0.93713751610E+03  0.46999998093E+01 0. -1.
</event>
<event>
 5   0  0.5349036E-06  0.2402195E+04  0.7818609E-02  0.8438682E-01
       -2   -1    0    0    0  501  0.00000000000E+00  0.00000000000E+00  0.10179676651E+04  0.10179676651E+04  0.25500000920E-02 0.  1.
        2   -1    0    0  501    0  0.00000000000E+00  0.00000000000E+00 -0.14171721267E+04  0.14171721267E+04  0.25500000920E-02 0. -1.
    10030    2    1    2    0    0  0.00000000000E+00  0.00000000000E+00 -0.39920446160E+03  0.24351397918E+04  0.24021951635E+04 0.  0.
        1    1    3    3  502    0 -0.81500829350E+03  0.61696008072E+03  0.43972705983E+03  0.11127614959E+04  0.50400001928E-02 0.  1.
       -1    1    3    3    0  502  0.81500829350E+03 -0.61696008072E+03 -0.83893152143E+03  0.13223782959E+04  0.50400001928E-02 0. -1.
</event>
<event>
 5   0  0.2149029E-06  0.2404182E+04  0.7818609E-02  0.8437940E-01
       -1   -1    0    0    0  501  0.00000000000E+00  0.00000000000E+00  0.13993616892E+04  0.13993616892E+04  0.50400001928E-02 0. -1.
        1   -1    0    0  501    0  0.00000000000E+00  0.00000000000E+00 -0.10326298131E+04  0.10326298131E+04  0.50400001928E-02 0.  1.
    10030    2    1    2    0    0  0.00000000000E+00  0.00000000000E+00  0.36673187604E+03  0.24319915023E+04  0.24041818563E+04 0.  0.
        4    1    3    3  502    0  0.80476547000E+02  0.11383790447E+04 -0.19867670824E+03  0.11583856747E+04  0.12699999809E+01 0.  1.
       -4    1    3    3    0  502 -0.80476547000E+02 -0.11383790447E+04  0.56540858428E+03  0.12736058276E+04  0.12699999809E+01 0. -1.
</event>
<event>
 5   0  0.1796750E-06  0.2400234E+04  0.7818609E-02  0.8439416E-01
        3   -1    0    0  501    0  0.00000000000E+00  0.00000000000E+00  0.13338642510E+04  0.13338642548E+04  0.10100000352E+00 0.  1.
       -3   -1    0    0    0  501  0.00000000000E+00  0.00000000000E+00 -0.10797805449E+04  0.10797805496E+04  0.10100000352E+00 0. -1.
    10030    2    1    2    0    0  0.00000000000E+00  0.00000000000E+00  0.25408370613E+03  0.24136448045E+04  0.24002338870E+04 0.  0.
        4    1    3    3  502    0 -0.84336575990E+03  0.67187241702E+03  0.65686397381E+03  0.12625966271E+04  0.12699999809E+01 0.  1.
       -4    1    3    3    0  502  0.84336575990E+03 -0.67187241702E+03 -0.40278026768E+03  0.11510481774E+04  0.12699999809E+01 0. -1.
</event>
<event>
 5   0  0.2149417E-06  0.2389820E+04  0.7818609E-02  0.8443325E-01
        1   -1    0    0  501    0  0.00000000000E+00  0.00000000000E+00  0.14527225758E+04  0.14527225758E+04  0.50400001928E-02 0. -1.
       -1   -1    0    0    0  501  0.00000000000E+00  0.00000000000E+00 -0.98285097758E+03  0.98285097759E+03  0.50400001928E-02 0.  1.
    10030    2    1    2    0    0  0.00000000000E+00  0.00000000000E+00  0.46987159824E+03  0.24355735534E+04  0.23898199127E+04 0.  0.
        5    1    3    3  502    0  0.10409388072E+04 -0.53292402683E+03  0.48504428498E+03  0.12660377826E+04  0.46999998093E+01 0. -1.
       -5    1    3    3    0  502 -0.10409388072E+04  0.53292402683E+03 -0.15172686740E+02  0.11695357708E+04  0.46999998093E+01 0.  1.
</event>
<event>
 5   0  0.2215700E-06  0.2397822E+04  0.7818609E-02  0.8440320E-01
       -1   -1    0    0    0  501  0.00000000000E+00  0.00000000000E+00  0.77920905095E+03  0.77920905096E+03  0.50400001928E-02 0.  1.
        1   -1    0    0  501    0  0.00000000000E+00  0.00000000000E+00 -0.18446744449E+04  0.18446744450E+04  0.50400001928E-02 0. -1.
    10030    2    1    2    0    0  0.00000000000E+00  0.00000000000E+00 -0.10654653940E+04  0.26238834959E+04  0.23978215310E+04 0.  0.
        3    1    3    3  502    0  0.79660429515E+03  0.38788540311E+03  0.35109823911E+03  0.95304956466E+03  0.10100000352E+00 0.  1.
       -3    1    3    3    0  502 -0.79660429515E+03 -0.38788540311E+03 -0.14165636331E+04  0.16708339313E+04  0.10100000352E+00 0. -1.
</event>
<event>
 5   0  0.2149417E-06  0.2400801E+04  0.7818609E-02  0.8439204E-01
       -1   -1    0    0    0  501  0.00000000000E+00  0.00000000000E+00  0.12639037784E+04  0.12639037784E+04  0.50400001928E-02 0.  1.
        1   -1    0    0  501    0  0.00000000000E+00  0.00000000000E+00 -0.11400874768E+04  0.11400874768E+04  0.50400001928E-02 0. -1.
    10030    2    1    2    0    0  0.00000000000E+00  0.00000000000E+00  0.12381630162E+03  0.24039912552E+04  0.24008005911E+04 0.  0.
        5    1    3    3  502    0 -0.33427307029E+03  0.23990808796E+03  0.11910789441E+04  0.12601529737E+04  0.46999998093E+01 0.  1.
       -5    1    3    3    0  502  0.33427307029E+03 -0.23990808796E+03 -0.10672626424E+04  0.11438382815E+04  0.46999998093E+01 0. -1.
</event>
<event>
 5   0  0.2149029E-06  0.2387492E+04  0.7818609E-02  0.8444201E-01
        1   -1    0    0  501    0  0.00000000000E+00  0.00000000000E+00  0.10484473269E+04  0.10484473269E+04  0.50400001928E-02 0.  1.
       -1   -1    0    0    0  501  0.00000000000E+00  0.00000000000E+00 -0.13591804059E+04  0.13591804059E+04  0.50400001928E-02 0. -1.
    10030    2    1    2    0    0  0.00000000000E+00  0.00000000000E+00 -0.31073307897E+03  0.24076277329E+04  0.23874916238E+04 0.  0.
        4    1    3    3  502    0 -0.50718196945E+03  0.10780114179E+04 -0.23140328739E+03  0.12136273158E+04  0.12699999809E+01 0.  1.
       -4    1    3    3    0  502  0.50718196945E+03 -0.10780114179E+04 -0.79329791581E+02  0.11940004171E+04  0.12699999809E+01 0. -1.
</event>
<event>
 5   0  0.2149417E-06  0.2395015E+04  0.7818609E-02  0.8441372E-01
        1   -1    0    0  501    0  0.00000000000E+00  0.00000000000E+00  0.54681316234E+03  0.54681316237E+03  0.50400001928E-02 0. -1.
       -1   -1    0    0    0  501  0.00000000000E+00  0.00000000000E+00 -0.26225119859E+04  0.26225119859E+04  0.50400001928E-02 0.  1.
    10030    2    1    2    0    0  0.00000000000E+00  0.00000000000E+00 -0.20756988236E+04  0.31693251483E+04  0.23950148829E+04 0.  0.
        5    1    3    3  502    0  0.64444147226E+03 -0.54686773276E+03 -0.21604210651E+04  0.23198729268E+04  0.46999998093E+01 0.  1.
       -5    1    3    3    0  502 -0.64444147226E+03  0.54686773276E+03  0.84722241502E+02  0.84945222144E+03  0.46999998093E+01 0. -1.
</event>
<event>
 5   0  0.5371843E-06  0.2399938E+04  0.7818609E-02  0.8439527E-01
        2   -1    0    0  501    0  0.00000000000E+00  0.00000000000E+00  0.20919704401E+04  0.20919704401E+04  0.25500000920E-02 0.  1.
       -2   -1    0    0    0  501  0.00000000000E+00  0.00000000000E+00 -0.68831090350E+03  0.68831090351E+03  0.25500000920E-02 0. -1.
    10030    2    1    2    0    0  0.00000000000E+00  0.00000000000E+00  0.14036595366E+04  0.27802813436E+04  0.23999383857E+04 0.  0.
        4    1    3    3  502    0  0.11578919522E+04  0.29506517560E+03  0.57414852527E+03  0.13256792119E+04  0.12699999809E+01 0. -1.
       -4    1    3    3    0  502 -0.11578919522E+04 -0.29506517560E+03  0.82951101134E+03  0.14546021317E+04  0.12699999809E+01 0.  1.
</event>
<event>
 5   0  0.2149417E-06  0.2400447E+04  0.7818609E-02  0.8439336E-01
        1   -1    0    0  501    0  0.00000000000E+00  0.00000000000E+00  0.11890980734E+04  0.11890980734E+04  0.50400001928E-02 0. -1.
       -1   -1    0    0    0  501  0.00000000000E+00  0.00000000000E+00 -0.12114533284E+04  0.12114533284E+04  0.50400001928E-02 0.  1.
    10030    2    1    2    0    0  0.00000000000E+00  0.00000000000E+00 -0.22355254995E+02  0.24005514018E+04  0.24004473074E+04 0.  0.
        5    1    3    3  502    0  0.83217015197E+03  0.71367363631E+03  0.47738987921E+03  0.11957258916E+04  0.46999998093E+01 0. -1.
       -5    1    3    3    0  502 -0.83217015197E+03 -0.71367363631E+03 -0.49974513420E+03  0.12048255103E+04  0.46999998093E+01 0.  1.
</event>
<event>
 5   0  0.5440503E-06  0.2399145E+04  0.7818609E-02  0.8439824E-01
       -2   -1    0    0    0  501  0.00000000000E+00  0.00000000000E+00  0.10991409150E+04  0.10991409150E+04  0.25500000920E-02 0.  1.
        2   -1    0    0  501    0  0.00000000000E+00  0.00000000000E+00 -0.13091806751E+04  0.13091806751E+04  0.25500000920E-02 0. -1.
    10030    2    1    2    0    0  0.00000000000E+00  0.00000000000E+00 -0.21003976008E+03  0.24083215901E+04  0.23991448853E+04 0.  0.
        3    1    3    3  502    0  0.94070021017E+03  0.74199975947E+03 -0.45687908284E+02  0.11989862066E+04  0.10100000352E+00 0.  1.
       -3    1    3    3    0  502 -0.94070021017E+03 -0.74199975947E+03 -0.16435185180E+03  0.12093353835E+04  0.10100000352E+00 0. -1.
</event>
<event>
 5   0  0.5379778E-06  0.2383478E+04  0.7818609E-02  0.8445715E-01
        2   -1    0    0  501    0  0.00000000000E+00  0.00000000000E+00  0.16255248147E+04  0.16255248147E+04  0.25500000920E-02 0. -1.
       -2   -1    0    0    0  501  0.00000000000E+00  0.00000000000E+00 -0.87371286747E+03  0.87371286747E+03  0.25500000920E-02 0.  1.
    10030    2    1    2    0    0  0.00000000000E+00  0.00000000000E+00  0.75181194718E+03  0.24992376821E+04  0.23834780863E+04 0.  0.
        5    1    3    3  502    0  0.47879825990E+03  0.95395203111E+03 -0.17988189689E+03  0.10824286758E+04  0.46999998093E+01 0.  1.
       -5    1    3    3    0  502 -0.47879825990E+03 -0.95395203111E+03  0.93169384407E+03  0.14168090063E+04  0.46999998093E+01 0. -1.
</event>
<event>
 5   0  0.2254269E-06  0.2392559E+04  0.7818609E-02  0.8442294E-01
       -1   -1    0    0    0  501  0.00000000000E+00  0.00000000000E+00  0.15202401554E+04  0.15202401554E+04  0.50400001928E-02 0. -1.
        1   -1    0    0  501    0  0.00000000000E+00  0.00000000000E+00 -0.94135469473E+03  0.94135469474E+03  0.50400001928E-02 0.  1.
    10030    2    1    2    0    0  0.00000000000E+00  0.00000000000E+00  0.57888546068E+03  0.24615948502E+04  0.23925594726E+04 0.  0.
        2    1    3    3  502    0 -0.22707136963E+03  0.23960841085E+03  0.14724513042E+04  0.15090018027E+04  0.25500000920E-02 0. -1.
       -2    1    3    3    0  502  0.22707136963E+03 -0.23960841085E+03 -0.89356584347E+03  0.95259304746E+03  0.25500000920E-02 0.  1.
</event>
<event>
 5   0  0.5379778E-06  0.2399429E+04  0.7818609E-02  0.8439717E-01
        2   -1    0    0  501    0  0.00000000000E+00  0.00000000000E+00  0.13085162422E+04  0.13085162422E+04  0.25500000920E-02 0.  1.
       -2   -1    0    0    0  501  0.00000000000E+00  0.00000000000E+00 -0.10999595792E+04  0.10999595792E+04  0.25500000920E-02 0. -1.
    10030    2    1    2    0    0  0.00000000000E+00  0.00000000000E+00  0.20855666296E+03  0.24084758214E+04  0.23994290781E+04 0.  0.
        5    1    3    3  502    0 -0.61828362009E+03  0.76993488885E+03 -0.57962639188E+03  0.11450166864E+04  0.46999998093E+01 0. -1.
       -5    1    3    3    0  502  0.61828362009E+03 -0.76993488885E+03  0.78818305484E+03  0.12634591350E+04  0.46999998093E+01 0.  1.
</event>
<event>
 5   0  0.2149417E-06  0.2401196E+04  0.7818609E-02  0.8439056E-01
       -1   -1    0    0    0  501  0.00000000000E+00  0.00000000000E+00  0.10030485231E+04  0.10030485231E+04  0.50400001928E-02 0. -1.
        1   -1    0    0  501    0  0.00000000000E+00  0.00000000000E+00 -0.14370548679E+04  0.14370548679E+04  0.50400001928E-02 0.  1.
    10030    2    1    2    0    0  0.00000000000E+00  0.00000000000E+00 -0.43400634487E+03  0.24401033910E+04  0.24011961710E+04 0.  0.
        5    1    3    3  502    0  0.42795765075E+03 -0.77334691360E+03 -0.10426959808E+04  0.13669126519E+04  0.46999998093E+01 0.  1.
       -5    1    3    3    0  502 -0.42795765075E+03  0.77334691360E+03  0.60868963593E+03  0.10731907391E+04  0.46999998093E+01 0. -1.
</event>
<event>
 5   0  0.2149029E-06  0.2399111E+04  0.7818609E-02  0.8439837E-01
        1   -1    0    0  501    0  0.00000000000E+00  0.00000000000E+00  0.95246443558E+03  0.95246443559E+03  0.50400001928E-02 0.  1.
       -1   -1    0    0    0  501  0.00000000000E+00  0.00000000000E+00 -0.15107470981E+04  0.15107470981E+04  0.50400001928E-02 0. -1.
    10030    2    1    2    0    0  0.00000000000E+00  0.00000000000E+00 -0.55828266255E+03  0.24632115337E+04  0.23991105703E+04 0.  0.
        4    1    3    3  502    0  0.28087302946E+03 -0.11599157682E+04 -0.40335740479E+03  0.12597591265E+04  0.12699999809E+01 0.  1.
       -4    1    3    3    0  502 -0.28087302946E+03  0.11599157682E+04 -0.15492525776E+03  0.12034524072E+04  0.12699999809E+01 0. -1.
</event>
<event>
 5   0  0.5379778E-06  0.2397992E+04  0.7818609E-02  0.8440256E-01
       -2   -1    0    0    0  501  0.00000000000E+00  0.00000000000E+00  0.10519107668E+04  0.10519107668E+04  0.25500000920E-02 0.  1.
        2   -1    0    0  501    0  0.00000000000E+00  0.00000000000E+00 -0.13666472512E+04  0.13666472512E+04  0.25500000920E-02 0. -1.
    10030    2    1    2    0    0  0.00000000000E+00  0.00000000000E+00 -0.31473648444E+03  0.24185580180E+04  0.23979916246E+04 0.  0.
        5    1    3    3  502    0  0.48572727168E+03  0.11983058507E+03  0.94160002611E+03  0.10662659381E+04  0.46999998093E+01 0.  1.
       -5    1    3    3    0  502 -0.48572727168E+03 -0.11983058507E+03 -0.12563365105E+04  0.13522920799E+04  0.46999998093E+01 0. -1.
</event>
<event>
 5   0  0.5349036E-06  0.2394134E+04  0.7818609E-02  0.8441703E-01
       -2   -1    0    0    0  501  0.00000000000E+00  0.00000000000E+00  0.15018436804E+04  0.15018436804E+04  0.25500000920E-02 0.  1.
        2   -1    0    0  501    0  0.00000000000E+00  0.00000000000E+00 -0.95414032009E+03  0.95414032009E+03  0.25500000920E-02 0. -1.
    10030    2    1    2    0    0  0.00000000000E+00  0.00000000000E+00  0.54770336027E+03  0.24559840005E+04  0.23941341733E+04 0.  0.
        1    1    3    3  502    0  0.32834221314E+03  0.44713022367E+03  0.13620267514E+04  0.14706634276E+04  0.50400001928E-02 0.  1.
       -1    1    3    3    0  502 -0.32834221314E+03 -0.44713022367E+03 -0.81432339113E+03  0.98532057281E+03  0.50400001928E-02 0. -1.
</event>
<event>
 5   0  0.2254269E-06  0.2463167E+04  0.7818609E-02  0.8416226E-01
        1   -1    0    0  501    0  0.00000000000E+00  0.00000000000E+00  0.21216774607E+04  0.21216774607E+04  0.50400001928E-02 0. -1.
       -1   -1    0    0    0  501  0.00000000000E+00  0.00000000000E+00 -0.71490513945E+03  0.71490513947E+03  0.50400001928E-02 0.  1.
    10030    2    1    2    0    0  0.00000000000E+00  0.00000000000E+00  0.14067723213E+04  0.28365826002E+04  0.24631671652E+04 0.  0.
        2    1    3    3  502    0  0.10246043858E+04 -0.27336544162E+03 -0.17864066673E+02  0.10605950862E+04  0.25500000920E-02 0.  1.
       -2    1    3    3    0  502 -0.10246043858E+04  0.27336544162E+03  0.14246363880E+04  0.17759875140E+04  0.25500000920E-02 0. -1.
</event>
<event>
 5   0  0.5349036E-06  0.2391902E+04  0.7818609E-02  0.8442542E-01
       -2   -1    0    0    0  501  0.00000000000E+00  0.00000000000E+00  0.93510911249E+03  0.93510911249E+03  0.25500000920E-02 0. -1.
        2   -1    0    0  501    0  0.00000000000E+00  0.00000000000E+00 -0.15295529940E+04  0.15295529940E+04  0.25500000920E-02 0.  1.
    10030    2    1    2    0    0  0.00000000000E+00  0.00000000000E+00 -0.59444388146E+03  0.24646621064E+04  0.23919021240E+04 0.  0.
        1    1    3    3  502    0  0.22204130142E+03 -0.71888712069E+03 -0.12551228589E+04  0.14633640773E+04  0.50400001928E-02 0.  1.
       -1    1    3    3    0  502 -0.22204130142E+03  0.71888712069E+03  0.66067897745E+03  0.10012980291E+04  0.50400001928E-02 0. -1.
</event>
<event>
 5   0  0.2149029E-06  0.2394855E+04  0.7818609E-02  0.8441432E-01
        1   -1    0    0  501    0  0.00000000000E+00  0.00000000000E+00  0.16775430836E+04  0.16775430836E+04  0.50400001928E-02 0.  1.
       -1   -1    0    0    0  501  0.00000000000E+00  0.00000000000E+00 -0.85472153969E+03  0.85472153970E+03  0.50400001928E-02 0. -1.
    10030    2    1    2    0    0  0.00000000000E+00  0.00000000000E+00  0.82282154394E+03  0.25322646233E+04  0.23948546573E+04 0.  0.
        4    1    3    3  502    0 -0.33071216151E+03  0.62460419595E+03 -0.61065770537E+03  0.93402643506E+03  0.12699999809E+01 0. -1.
       -4    1    3    3    0  502  0.33071216151E+03 -0.62460419595E+03  0.14334792493E+04  0.15982381883E+04  0.12699999809E+01 0.  1.
</event>
<event>
 5   0  0.5440503E-06  0.2402075E+04  0.7818609E-02  0.8438727E-01
       -2   -1    0    0    0  501  0.00000000000E+00  0.00000000000E+00  0.12074559430E+04  0.12074559430E+04  0.25500000920E-02 0. -1.
        2   -1    0    0  501    0  0.00000000000E+00  0.00000000000E+00 -0.11946531147E+04  0.11946531147E+04  0.25500000920E-02 0.  1.
    10030    2    1    2    0    0  0.00000000000E+00  0.00000000000E+00  0.12802828255E+02  0.24021090577E+04  0.24020749391E+04 0.  0.
        3    1    3    3  502    0 -0.21158785849E+03  0.37939389344E+03  0.11261413223E+04  0.12070225500E+04  0.10100000352E+00 0. -1.
       -3    1    3    3    0  502  0.21158785849E+03 -0.37939389344E+03 -0.11133384941E+04  0.11950865077E+04  0.10100000352E+00 0.  1.
</event>
<event>
 5   0  0.2149029E-06  0.2404472E+04  0.7818609E-02  0.8437831E-01
       -1   -1    0    0    0  501  0.00000000000E+00  0.00000000000E+00  0.87685890932E+03  0.87685890933E+03  0.50400001928E-02 0. -1.
        1   -1    0    0  501    0  0.00000000000E+00  0.00000000000E+00 -0.16483516539E+04  0.16483516539E+04  0.50400001928E-02 0.  1.
    10030    2    1    2    0    0  0.00000000000E+00  0.00000000000E+00 -0.77149274458E+03  0.25252105632E+04  0.24044723608E+04 0.  0.
        4    1    3    3  502    0  0.10390006093E+04 -0.28720630287E+03 -0.94479226185E+03  0.14334028594E+04  0.12699999809E+01 0.  1.
       -4    1    3    3    0  502 -0.10390006093E+04  0.28720630287E+03  0.17329951727E+03  0.10918077038E+04  0.12699999809E+01 0. -1.
</event>
<event>
 5   0  0.5440503E-06  0.2396214E+04  0.7818609E-02  0.8440922E-01
       -2   -1    0    0    0  501  0.00000000000E+00  0.00000000000E+00  0.10707879957E+04  0.10707879957E+04  0.25500000920E-02 0. -1.
        2   -1    0    0  501    0  0.00000000000E+00  0.00000000000E+00 -0.13405642842E+04  0.13405642842E+04  0.25500000920E-02 0.  1.
    10030    2    1    2    0    0  0.00000000000E+00  0.00000000000E+00 -0.26977628844E+03  0.24113522799E+04  0.23962137993E+04 0.  0.
        3    1    3    3  502    0  0.10807257069E+04  0.25196474296E+03  0.31963542165E+03  0.11548251375E+04  0.10100000352E+00 0.  1.
       -3    1    3    3    0  502 -0.10807257069E+04 -0.25196474296E+03 -0.58941171009E+03  0.12565271424E+04  0.10100000352E+00 0. -1.
</event>
<event>
 5   0  0.5371843E-06  0.2410248E+04  0.7818609E-02  0.8435677E-01
       -2   -1    0    0    0  501  0.00000000000E+00  0.00000000000E+00  0.57381978095E+03  0.57381978096E+03  0.25500000920E-02 0.  1.
        2   -1    0    0  501    0  0.00000000000E+00  0.00000000000E+00 -0.25309745587E+04  0.25309745587E+04  0.25500000920E-02 0. -1.
    10030    2    1    2    0    0  0.00000000000E+00  0.00000000000E+00 -0.19571547778E+04  0.31047943397E+04  0.24102475117E+04 0.  0.
        4    1    3    3  502    0  0.36731201309E+03  0.44665914350E+03  0.38340818477E+03  0.69384865387E+03  0.12699999809E+01 0.  1.
       -4    1    3    3    0  502 -0.36731201309E+03 -0.44665914350E+03 -0.23405629625E+04  0.24109456858E+04  0.12699999809E+01 0. -1.
</event>
<event>
 5   0  0.5268358E-06  0.2400922E+04  0.7818609E-02  0.8439158E-01
        2   -1    0    0  501    0  0.00000000000E+00  0.00000000000E+00  0.14944507904E+04  0.14944507904E+04  0.25500000920E-02 0. -1.
       -2   -1    0    0    0  501  0.00000000000E+00  0.00000000000E+00 -0.96430513633E+03  0.96430513634E+03  0.25500000920E-02 0.  1.
    10030    2    1    2    0    0  0.00000000000E+00  0.00000000000E+00  0.53014565402E+03  0.24587559267E+04  0.24009219672E+04 0.  0.
        2    1    3    3  502    0  0.45210379868E+03  0.23706722347E+03  0.13777567578E+04  0.14692897593E+04  0.25500000920E-02 0. -1.
       -2    1    3    3    0  502 -0.45210379868E+03 -0.23706722347E+03 -0.84761110374E+03  0.98946616739E+03  0.25500000920E-02 0.  1.
</event>
<event>
 5   0  0.5268358E-06  0.2397059E+04  0.7818609E-02  0.8440605E-01
        2   -1    0    0  501    0  0.00000000000E+00  0.00000000000E+00  0.12132444459E+04  0.12132444459E+04  0.25500000920E-02 0.  1.
       -2   -1    0    0    0  501  0.00000000000E+00  0.00000000000E+00 -0.11839931724E+04  0.11839931724E+04  0.25500000920E-02 0. -1.
    10030    2    1    2    0    0  0.00000000000E+00  0.00000000000E+00  0.29251273495E+02  0.23972376182E+04  0.23970591485E+04 0.  0.
        2    1    3    3  502    0 -0.52358782005E+03 -0.50111603032E+03 -0.94001950688E+03  0.11869701574E+04  0.25500000920E-02 0. -1.
       -2    1    3    3    0  502  0.52358782005E+03  0.50111603032E+03  0.96927078038E+03  0.12102674609E+04  0.25500000920E-02 0.  1.
</event>
<event>
 5   0  0.2149029E-06  0.2400622E+04  0.7818609E-02  0.8439271E-01
        1   -1    0    0  501    0  0.00000000000E+00  0.00000000000E+00  0.13314592460E+04  0.13314592460E+04  0.50400001928E-02 0.  1.
       -1   -1    0    0    0  501  0.00000000000E+00  0.00000000000E+00 -0.10820808677E+04  0.10820808677E+04  0.50400001928E-02 0. -1.
    10030    2    1    2    0    0  0.00000000000E+00  0.00000000000E+00  0.24937837826E+03  0.24135401137E+04  0.24006220663E+04 0.  0.
        4    1    3    3  502    0 -0.25278363294E+02  0.10620416749E+04 -0.43704222050E+03  0.11487293112E+04  0.12699999809E+01 0. -1.
       -4    1    3    3    0  502  0.25278363294E+02 -0.10620416749E+04  0.68642059876E+03  0.12648108025E+04  0.12699999809E+01 0.  1.
</event>
<event>
 5   0  0.5268358E-06  0.2402692E+04  0.7818609E-02  0.8438497E-01
        2   -1    0    0  501    0  0.00000000000E+00  0.00000000000E+00  0.11802701165E+04  0.11802701165E+04  0.25500000920E-02 0. -1.
       -2   -1    0    0    0  501  0.00000000000E+00  0.00000000000E+00 -0.12227977687E+04  0.12227977687E+04  0.25500000920E-02 0.  1.
    10030    2    1    2    0    0  0.00000000000E+00  0.00000000000E+00 -0.42527652179E+02  0.24030678852E+04  0.24026915449E+04 0.  0.
        2    1    3    3  502    0  0.24462980371E+03 -0.45495757769E+03  0.10635265138E+04  0.11823361553E+04  0.25500000920E-02 0. -1.
       -2    1    3    3    0  502 -0.24462980371E+03  0.45495757769E+03 -0.11060541660E+04  0.12207317300E+04  0.25500000920E-02 0.  1.
</event>
<event>
 5   0  0.1796750E-06  0.2397559E+04  0.7818609E-02  0.8440418E-01
       -4   -1    0    0    0  501  0.00000000000E+00  0.00000000000E+00  0.11236014174E+04  0.11236021352E+04  0.12699999809E+01 0. -1.
        4   -1    0    0  501    0  0.00000000000E+00  0.00000000000E+00 -0.12789856932E+04  0.12789863237E+04  0.12699999809E+01 0.  1.
    10030    2    1    2    0    0  0.00000000000E+00  0.00000000000E+00 -0.15538427571E+03  0.24025884589E+04  0.23975585560E+04 0.  0.
        3    1    3    3  502    0  0.15383960058E+03  0.82380881730E+03 -0.93666260887E+03  0.12568470246E+04  0.10100000352E+00 0.  1.
       -3    1    3    3    0  502 -0.15383960058E+03 -0.82380881730E+03  0.78127833316E+03  0.11457414343E+04  0.10100000352E+00 0. -1.
</event>
<event>
 5   0  0.5379778E-06  0.2437515E+04  0.7818609E-02  0.8425591E-01
        2   -1    0    0  501    0  0.00000000000E+00  0.00000000000E+00  0.15512106107E+04  0.15512106107E+04  0.25500000920E-02 0. -1.
       -2   -1    0    0    0  501  0.00000000000E+00  0.00000000000E+00 -0.95755492453E+03  0.95755492454E+03  0.25500000920E-02 0.  1.
    10030    2    1    2    0    0  0.00000000000E+00  0.00000000000E+00  0.59365568620E+03  0.25087655353E+04  0.24375146025E+04 0.  0.
        5    1    3    3  502    0 -0.31216569095E+03 -0.10370111586E+04 -0.27853685954E+03  0.11182327279E+04  0.46999998093E+01 0.  1.
       -5    1    3    3    0  502  0.31216569095E+03  0.10370111586E+04  0.87219254575E+03  0.13905328074E+04  0.46999998093E+01 0. -1.
</event>
<event>
 5   0  0.5440503E-06  0.2404479E+04  0.7818609E-02  0.8437828E-01
        2   -1    0    0  501    0  0.00000000000E+00  0.00000000000E+00  0.15286728607E+04  0.15286728607E+04  0.25500000920E-02 0.  1.
       -2   -1    0    0    0  501  0.00000000000E+00  0.00000000000E+00 -0.94551318369E+03  0.94551318370E+03  0.25500000920E-02 0. -1.
    10030    2    1    2    0    0  0.00000000000E+00  0.00000000000E+00  0.58315967705E+03  0.24741860444E+04  0.24044794392E+04 0.  0.
        3    1    3    3  502    0 -0.22216764415E+03  0.49473622985E+03  0.13956523654E+04  0.14973202512E+04  0.10100000352E+00 0.  1.
       -3    1    3    3    0  502  0.22216764415E+03 -0.49473622985E+03 -0.81249268837E+03  0.97686579328E+03  0.10100000352E+00 0. -1.
</event>
<event>
 5   0  0.2149417E-06  0.2399250E+04  0.7818609E-02  0.8439784E-01
        1   -1    0    0  501    0  0.00000000000E+00  0.00000000000E+00  0.13764406382E+04  0.13764406382E+04  0.50400001928E-02 0.  1.
       -1   -1    0    0    0  501  0.00000000000E+00  0.00000000000E+00 -0.10455227937E+04  0.10455227937E+04  0.50400001928E-02 0. -1.
    10030    2    1    2    0    0  0.00000000000E+00  0.00000000000E+00  0.33091784454E+03  0.24219634319E+04  0.23992499340E+04 0.  0.
        5    1    3    3  502    0 -0.13626221461E+03 -0.66994367872E+03  0.11605322227E+04  0.13469406274E+04  0.46999998093E+01 0.  1.
       -5    1    3    3    0  502  0.13626221461E+03  0.66994367872E+03 -0.82961437817E+03  0.10750228045E+04  0.46999998093E+01 0. -1.
</event>
<event>
 5   0  0.2297414E-06  0.2385729E+04  0.7818609E-02  0.8444866E-01
        1   -1    0    0  501    0  0.00000000000E+00  0.00000000000E+00  0.18377556644E+04  0.18377556644E+04  0.50400001928E-02 0.  1.
       -1   -1    0    0    0  501  0.00000000000E+00  0.00000000000E+00 -0.77427358334E+03  0.77427358335E+03  0.50400001928E-02 0. -1.
    10030    2    1    2    0    0  0.00000000000E+00  0.00000000000E+00  0.10634820811E+04  0.26120292478E+04  0.23857289566E+04 0.  0.
        1    1    3    3  502    0  0.45666458262E+03 -0.35094243055E+03  0.16754449257E+04  0.17716711968E+04  0.50400001928E-02 0.  1.
       -1    1    3    3    0  502 -0.45666458262E+03  0.35094243055E+03 -0.61196284462E+03  0.84035805095E+03  0.50400001928E-02 0. -1.
</event>
<event>
 5   0  0.5440503E-06  0.2402412E+04  0.7818609E-02  0.8438601E-01
        2   -1    0    0  501    0  0.00000000000E+00  0.00000000000E+00  0.16656535062E+04  0.16656535062E+04  0.25500000920E-02 0.  1.
       -2   -1    0    0    0  501  0.00000000000E+00  0.00000000000E+00 -0.86626405003E+03  0.86626405004E+03  0.25500000920E-02 0. -1.
    10030    2    1    2    0    0  0.00000000000E+00  0.00000000000E+00  0.79938945612E+03  0.25319175562E+04  0.24024119149E+04 0.  0.
        3    1    3    3  502    0  0.28390607250E+03 -0.69560775071E+03  0.13874603837E+04  0.15778210061E+04  0.10100000352E+00 0.  1.
       -3    1    3    3    0  502 -0.28390607250E+03  0.69560775071E+03 -0.58807092755E+03  0.95409655008E+03  0.10100000352E+00 0. -1.
</event>
<event>
 5   0  0.2254269E-06  0.2430046E+04  0.7818609E-02  0.8428340E-01
       -1   -1    0    0    0  501  0.00000000000E+00  0.00000000000E+00  0.10922875419E+04  0.10922875419E+04  0.50400001928E-02 0.  1.
        1   -1    0    0  501    0  0.00000000000E+00  0.00000000000E+00 -0.13515493838E+04  0.13515493838E+04  0.50400001928E-02 0. -1.
    10030    2    1    2    0    0  0.00000000000E+00  0.00000000000E+00 -0.25926184192E+03  0.24438369257E+04  0.24300457231E+04 0.  0.
        2    1    3    3  502    0 -0.80790238816E+03 -0.90722259575E+03 -0.10666610855E+03  0.12194821712E+04  0.25500000920E-02 0.  1.
       -2    1    3    3    0  502  0.80790238816E+03  0.90722259575E+03 -0.15259573337E+03  0.12243547545E+04  0.25500000920E-02 0. -1.
</event>
<event>
 5   0  0.5371843E-06  0.2403543E+04  0.7818609E-02  0.8438178E-01
       -2   -1    0    0    0  501  0.00000000000E+00  0.00000000000E+00  0.76402083956E+03  0.76402083956E+03  0.25500000920E-02 0.  1.
        2   -1    0    0  501    0  0.00000000000E+00  0.00000000000E+00 -0.18903339177E+04  0.18903339177E+04  0.25500000920E-02 0. -1.
    10030    2    1    2    0    0  0.00000000000E+00  0.00000000000E+00 -0.11263130781E+04  0.26543547572E+04  0.24035428075E+04 0.  0.
        4    1    3    3  502    0 -0.30928580528E+03 -0.50362532585E+02 -0.18444220050E+04  0.18708522762E+04  0.12699999809E+01 0. -1.
       -4    1    3    3    0  502  0.30928580528E+03  0.50362532585E+02  0.71810892687E+03  0.78350248103E+03  0.12699999809E+01 0.  1.
</event>
<event>
 5   0  0.2149029E-06  0.2401643E+04  0.7818609E-02  0.8438889E-01
        1   -1    0    0  501    0  0.00000000000E+00  0.00000000000E+00  0.77667968673E+03  0.77667968675E+03  0.50400001928E-02 0. -1.
       -1   -1    0    0    0  501  0.00000000000E+00  0.00000000000E+00 -0.18565856305E+04  0.18565856305E+04  0.50400001928E-02 0.  1.
    10030    2    1    2    0    0  0.00000000000E+00  0.00000000000E+00 -0.10799059438E+04  0.26332653173E+04  0.24016430592E+04 0.  0.
        4    1    3    3  502    0 -0.10258054100E+04  0.13391872118E+03  0.12857156674E+03  0.10424697712E+04  0.12699999809E+01 0. -1.
       -4    1    3    3    0  502  0.10258054100E+04 -0.13391872118E+03 -0.12084775105E+04  0.15907955461E+04  0.12699999809E+01 0.  1.
</event>
<event>
 5   0  0.5371843E-06  0.2397538E+04  0.7818609E-02  0.8440426E-01
        2   -1    0    0  501    0  0.00000000000E+00  0.00000000000E+00  0.13674817737E+04  0.13674817737E+04  0.25500000920E-02 0. -1.
       -2   -1    0    0    0  501  0.00000000000E+00  0.00000000000E+00 -0.10508710434E+04  0.10508710434E+04  0.25500000920E-02 0.  1.
    10030    2    1    2    0    0  0.00000000000E+00  0.00000000000E+00  0.31661073031E+03  0.24183528172E+04  0.23975379025E+04 0.  0.
        4    1    3    3  502    0  0.54980137545E+03  0.95558134349E+03 -0.31655576256E+03  0.11470075938E+04  0.12699999809E+01 0.  1.
       -4    1    3    3    0  502 -0.54980137545E+03 -0.95558134349E+03  0.63316649288E+03  0.12713452234E+04  0.12699999809E+01 0. -1.
</event>
<event>
 5   0  0.5349036E-06  0.2397430E+04  0.7818609E-02  0.8440466E-01
        2   -1    0    0  501    0  0.00000000000E+00  0.00000000000E+00  0.11509769658E+04  0.11509769658E+04  0.25500000920E-02 0. -1.
       -2   -1    0    0    0  501  0.00000000000E+00  0.00000000000E+00 -0.12484327322E+04  0.12484327322E+04  0.25500000920E-02 0.  1.
    10030    2    1    2    0    0  0.00000000000E+00  0.00000000000E+00 -0.97455766444E+02  0.23994096980E+04  0.23974297221E+04 0.  0.
        1    1    3    3  502    0 -0.20011547535E+03 -0.42939382691E+03 -0.11507694502E+04  0.12444659857E+04  0.50400001928E-02 0.  1.
       -1    1    3    3    0  502  0.20011547535E+03  0.42939382691E+03  0.10533136838E+04  0.11549437123E+04  0.50400001928E-02 0. -1.
</event>
<event>
 5   0  0.5268358E-06  0.2403176E+04  0.7818609E-02  0.8438316E-01
       -2   -1    0    0    0  501  0.00000000000E+00  0.00000000000E+00  0.50564217536E+03  0.50564217537E+03  0.25500000920E-02 0.  1.
        2   -1    0    0  501    0  0.00000000000E+00  0.00000000000E+00 -0.28554058437E+04  0.28554058437E+04  0.25500000920E-02 0. -1.
    10030    2    1    2    0    0  0.00000000000E+00  0.00000000000E+00 -0.23497636683E+04  0.33610480191E+04  0.24031759173E+04 0.  0.
        2    1    3    3  502    0  0.11972934606E+04 -0.10110307001E+03 -0.11874037368E+04  0.16892782766E+04  0.25500000920E-02 0. -1.
       -2    1    3    3    0  502 -0.11972934606E+04  0.10110307001E+03 -0.11623599316E+04  0.16717697425E+04  0.25500000920E-02 0.  1.
</event>
<event>
 5   0  0.2215700E-06  0.2396626E+04  0.7818609E-02  0.8440768E-01
        1   -1    0    0  501    0  0.00000000000E+00  0.00000000000E+00  0.12352919476E+04  0.12352919476E+04  0.50400001928E-02 0. -1.
       -1   -1    0    0    0  501  0.00000000000E+00  0.00000000000E+00 -0.11624413202E+04  0.11624413202E+04  0.50400001928E-02 0.  1.
    10030    2    1    2    0    0  0.00000000000E+00  0.00000000000E+00  0.72850627427E+02  0.23977332678E+04  0.23966262974E+04 0.  0.
        3    1    3    3  502    0 -0.43283424846E+03  0.32135082971E+03 -0.10342757798E+04  0.11663353897E+04  0.10100000352E+00 0.  1.
       -3    1    3    3    0  502  0.43283424846E+03 -0.32135082971E+03  0.11071264072E+04  0.12313978781E+04  0.10100000352E+00 0. -1.
</event>
<event>
 5   0  0.2297414E-06  0.2399983E+04  0.7818609E-02  0.8439510E-01
        1   -1    0    0  501    0  0.00000000000E+00  0.00000000000E+00  0.11370602506E+04  0.11370602506E+04  0.50400001928E-02 0. -1.
       -1   -1    0    0    0  501  0.00000000000E+00  0.00000000000E+00 -0.12664060290E+04  0.12664060290E+04  0.50400001928E-02 0.  1.
    10030    2    1    2    0    0  0.00000000000E+00  0.00000000000E+00 -0.12934577843E+03  0.24034662796E+04  0.23999832972E+04 0.  0.
        1    1    3    3  502    0 -0.74689478277E+03 -0.22033230564E+03  0.84965913292E+03  0.11525271292E+04  0.50400001928E-02 0. -1.
       -1    1    3    3    0  502  0.74689478277E+03  0.22033230564E+03 -0.97900491135E+03  0.12509391504E+04  0.50400001928E-02 0.  1.
</event>
<event>
 5   0  0.2254269E-06  0.2398634E+04  0.7818609E-02  0.8440015E-01
       -1   -1    0    0    0  501  0.00000000000E+00  0.00000000000E+00  0.12523114904E+04  0.12523114904E+04  0.50400001928E-02 0. -1.
        1   -1    0    0  501    0  0.00000000000E+00  0.00000000000E+00 -0.11485651873E+04  0.11485651873E+04  0.50400001928E-02 0.  1.
    10030    2    1    2    0    0  0.00000000000E+00  0.00000000000E+00  0.10374630309E+03  0.24008766777E+04  0.23986340959E+04 0.  0.
        2    1    3    3  502    0 -0.10276615335E+03 -0.93130818781E+02  0.12442581528E+04  0.12519634908E+04  0.25500000920E-02 0. -1.
       -2    1    3    3    0  502  0.10276615335E+03  0.93130818781E+02 -0.11405118497E+04  0.11489131868E+04  0.25500000920E-02 0.  1.
</event>
<event>
 5   0  0.5268358E-06  0.2399990E+04  0.7818609E-02  0.8439507E-01
        2   -1    0    0  501    0  0.00000000000E+00  0.00000000000E+00  0.19234992761E+04  0.19234992761E+04  0.25500000920E-02 0. -1.
       -2   -1    0    0    0  501  0.00000000000E+00  0.00000000000E+00 -0.74862956865E+03  0.74862956865E+03  0.25500000920E-02 0.  1.
    10030    2    1    2    0    0  0.00000000000E+00  0.00000000000E+00  0.11748697074E+04  0.26721288447E+04  0.23999903611E+04 0.  0.
        2    1    3    3  502    0  0.11294447833E+04 -0.59228462021E+02  0.10339519069E+04  0.15323870513E+04  0.25500000920E-02 0. -1.
       -2    1    3    3    0  502 -0.11294447833E+04  0.59228462021E+02  0.14091780057E+03  0.11397417935E+04  0.25500000920E-02 0.  1.
</event>
<event>
 5   0  0.5379778E-06  0.2395862E+04  0.7818609E-02  0.8441054E-01
       -2   -1    0    0    0  501  0.00000000000E+00  0.00000000000E+00  0.62342557969E+03  0.62342557969E+03  0.25500000920E-02 0. -1.
        2   -1    0    0  501    0  0.00000000000E+00  0.00000000000E+00 -0.23018604566E+04  0.23018604566E+04  0.25500000920E-02 0.  1.
    10030    2    1    2    0    0  0.00000000000E+00  0.00000000000E+00 -0.16784348769E+04  0.29252860362E+04  0.23958620073E+04 0.  0.
        5    1    3    3  502    0  0.19213470324E+02 -0.10328472057E+04 -0.98664450142E+02  0.10377375736E+04  0.46999998093E+01 0.  1.
       -5    1    3    3    0  502 -0.19213470324E+02  0.10328472057E+04 -0.15797704267E+04  0.18875484627E+04  0.46999998093E+01 0. -1.
</event>
<event>
 5   0  0.2297414E-06  0.2398554E+04  0.7818609E-02  0.8440045E-01
        1   -1    0    0  501    0  0.00000000000E+00  0.00000000000E+00  0.12563079514E+04  0.12563079514E+04  0.50400001928E-02 0. -1.
       -1   -1    0    0    0  501  0.00000000000E+00  0.00000000000E+00 -0.11448349018E+04  0.11448349019E+04  0.50400001928E-02 0.  1.
    10030    2    1    2    0    0  0.00000000000E+00  0.00000000000E+00  0.11147304956E+03  0.24011428533E+04  0.23985538895E+04 0.  0.
        1    1    3    3  502    0  0.96197594267E+03 -0.17801637027E+03 -0.63868190859E+03  0.11683330530E+04  0.50400001928E-02 0.  1.
       -1    1    3    3    0  502 -0.96197594267E+03  0.17801637027E+03  0.75015495815E+03  0.12328098003E+04  0.50400001928E-02 0. -1.
</event>
<event>
 5   0  0.5349036E-06  0.2400684E+04  0.7818609E-02  0.8439248E-01
       -2   -1    0    0    0  501  0.00000000000E+00  0.00000000000E+00  0.83804115480E+03  0.83804115480E+03  0.25500000920E-02 0. -1.
        2   -1    0    0  501    0  0.00000000000E+00  0.00000000000E+00 -0.17192722511E+04  0.17192722511E+04  0.25500000920E-02 0.  1.
    10030    2    1    2    0    0  0.00000000000E+00  0.00000000000E+00 -0.88123109626E+03  0.25573134059E+04  0.24006839881E+04 0.  0.
        1    1    3    3  502    0  0.74788369056E+03 -0.64451241866E+03  0.28663826869E+03  0.10280504703E+04  0.50400001928E-02 0. -1.
       -1    1    3    3    0  502 -0.74788369056E+03  0.64451241866E+03 -0.11678693649E+04  0.15292629355E+04  0.50400001928E-02 0.  1.
</event>
<event>
 5   0  0.2297414E-06  0.2400145E+04  0.7818609E-02  0.8439449E-01
        1   -1    0    0  501    0  0.00000000000E+00  0.00000000000E+00  0.17756129418E+04  0.17756129418E+04  0.50400001928E-02 0. -1.
       -1   -1    0    0    0  501  0.00000000000E+00  0.00000000000E+00 -0.81108584423E+03  0.81108584425E+03  0.50400001928E-02 0.  1.
    10030    2    1    2    0    0  0.00000000000E+00  0.00000000000E+00  0.96452709752E+03  0.25866987860E+04  0.24001454305E+04 0.  0.
        1    1    3    3  502    0  0.93233166974E+03 -0.30840482776E+03 -0.26114752886E+03  0.10161465997E+04  0.50400001928E-02 0.  1.
       -1    1    3    3    0  502 -0.93233166974E+03  0.30840482776E+03  0.12256746264E+04  0.15705521863E+04  0.50400001928E-02 0. -1.
</event>
<event>
 5   0  0.5379778E-06  0.2408346E+04  0.7818609E-02  0.8436386E-01
        2   -1    0    0  501    0  0.00000000000E+00  0.00000000000E+00  0.21799273767E+04  0.21799273767E+04  0.25500000920E-02 0. -1.
       -2   -1    0    0    0  501  0.00000000000E+00  0.00000000000E+00 -0.66517463242E+03  0.66517463243E+03  0.25500000920E-02 0.  1.
    10030    2    1    2    0    0  0.00000000000E+00  0.00000000000E+00  0.15147527443E+04  0.28451020092E+04  0.24083458153E+04 0.  0.
        5    1    3    3  502    0  0.11925673375E+03 -0.68846951937E+03 -0.40118994083E+03  0.80572197827E+03  0.46999998093E+01 0.  1.
       -5    1    3    3    0  502 -0.11925673375E+03  0.68846951937E+03  0.19159426851E+04  0.20393800309E+04  0.46999998093E+01 0. -1.
</event>
<event>
 5   0  0.5349036E-06  0.2401265E+04  0.7818609E-02  0.8439030E-01
       -2   -1    0    0    0  501  0.00000000000E+00  0.00000000000E+00  0.14566560148E+04  0.14566560148E+04  0.25500000920E-02 0. -1.
        2   -1    0    0  501    0  0.00000000000E+00  0.00000000000E+00 -0.98960826454E+03  0.98960826454E+03  0.25500000920E-02 0.  1.
    10030    2    1    2    0    0  0.00000000000E+00  0.00000000000E+00  0.46704775026E+03  0.24462642793E+04  0.24012653588E+04 0.  0.
        1    1    3    3  502    0 -0.63933961831E+03 -0.95524568304E+03 -0.11977376214E+03  0.11556795475E+04  0.50400001928E-02 0.  1.
       -1    1    3    3    0  502  0.63933961831E+03  0.95524568304E+03  0.58682151240E+03  0.12905847318E+04  0.50400001928E-02 0. -1.
</event>
<event>
 5   0  0.5379778E-06  0.2400805E+04  0.7818609E-02  0.8439202E-01
        2   -1    0    0  501    0  0.00000000000E+00  0.00000000000E+00  0.19838348578E+04  0.19838348578E+04  0.25500000920E-02 0. -1.
       -2   -1    0    0    0  501  0.00000000000E+00  0.00000000000E+00 -0.72635379530E+03  0.72635379530E+03  0.25500000920E-02 0.  1.
    10030    2    1    2    0    0  0.00000000000E+00  0.00000000000E+00  0.12574810625E+04  0.27101886531E+04  0.24008048469E+04 0.  0.
        5    1    3    3  502    0  0.27286388318E+03 -0.94652709470E+03 -0.14564528210E+03  0.99579258781E+03  0.46999998093E+01 0.  1.
       -5    1    3    3    0  502 -0.27286388318E+03  0.94652709470E+03  0.14031263446E+04  0.17143960653E+04  0.46999998093E+01 0. -1.
</event>
<event>
 5   0  0.5379778E-06  0.2401801E+04  0.7818609E-02  0.8438830E-01
        2   -1    0    0  501    0  0.00000000000E+00  0.00000000000E+00  0.11798305015E+04  0.11798305015E+04  0.25500000920E-02 0. -1.
       -2   -1    0    0    0  501  0.00000000000E+00  0.00000000000E+00 -0.12223467619E+04  0.12223467619E+04  0.25500000920E-02 0.  1.
    10030    2    1    2    0    0  0.00000000000E+00  0.00000000000E+00 -0.42516260432E+02  0.24021772634E+04  0.24018009852E+04 0.  0.
        5    1    3    3  502    0  0.51146848769E+03  0.49897574406E+03  0.94406824239E+03  0.11840032700E+04  0.46999998093E+01 0. -1.
       -5    1    3    3    0  502 -0.51146848769E+03 -0.49897574406E+03 -0.98658450283E+03  0.12181739934E+04  0.46999998093E+01 0.  1.
</event>
<event>
 5   0  0.2254269E-06  0.2402908E+04  0.7818609E-02  0.8438416E-01
       -1   -1    0    0    0  501  0.00000000000E+00  0.00000000000E+00  0.18212851175E+04  0.18212851175E+04  0.50400001928E-02 0. -1.
        1   -1    0    0  501    0  0.00000000000E+00  0.00000000000E+00 -0.79256741398E+03  0.79256741399E+03  0.50400001928E-02 0.  1.
    10030    2    1    2    0    0  0.00000000000E+00  0.00000000000E+00  0.10287177035E+04  0.26138525315E+04  0.24029076018E+04 0.  0.
        2    1    3    3  502    0 -0.67830717314E+03  0.97257878761E+03  0.30376277808E+03  0.12240432773E+04  0.25500000920E-02 0.  1.
       -2    1    3    3    0  502  0.67830717314E+03 -0.97257878761E+03  0.72495492543E+03  0.13898092542E+04  0.25500000920E-02 0. -1.
</event>
<event>
 5   0  0.5440503E-06  0.2397516E+04  0.7818609E-02  0.8440434E-01
       -2   -1    0    0    0  501  0.00000000000E+00  0.00000000000E+00  0.99703318910E+03  0.99703318910E+03  0.25500000920E-02 0. -1.
        2   -1    0    0  501    0  0.00000000000E+00  0.00000000000E+00 -0.14412968646E+04  0.14412968646E+04  0.25500000920E-02 0.  1.
    10030    2    1    2    0    0  0.00000000000E+00  0.00000000000E+00 -0.44426367552E+03  0.24383300537E+04  0.23975160557E+04 0.  0.
        3    1    3    3  502    0  0.70780218600E+02  0.48575127301E+03  0.89012950748E+03  0.10165110373E+04  0.10100000352E+00 0. -1.
       -3    1    3    3    0  502 -0.70780218600E+02 -0.48575127301E+03 -0.13343931830E+04  0.14218190165E+04  0.10100000352E+00 0.  1.
</event>
<event>
 5   0  0.2254269E-06  0.2392983E+04  0.7818609E-02  0.8442135E-01
       -1   -1    0    0    0  501  0.00000000000E+00  0.00000000000E+00  0.94543966783E+03  0.94543966784E+03  0.50400001928E-02 0. -1.
        1   -1    0    0  501    0  0.00000000000E+00  0.00000000000E+00 -0.15142073259E+04  0.15142073259E+04  0.50400001928E-02 0.  1.
    10030    2    1    2    0    0  0.00000000000E+00  0.00000000000E+00 -0.56876765809E+03  0.24596469938E+04  0.23929828008E+04 0.  0.
        2    1    3    3  502    0  0.48725101812E+03 -0.30086360172E+03  0.79543451417E+03  0.98012679171E+03  0.25500000920E-02 0. -1.
       -2    1    3    3    0  502 -0.48725101812E+03  0.30086360172E+03 -0.13642021723E+04  0.14795202021E+04  0.25500000920E-02 0.  1.
</event>
<event>
 5   0  0.5371843E-06  0.2407636E+04  0.7818609E-02  0.8436650E-01
        2   -1    0    0  501    0  0.00000000000E+00  0.00000000000E+00  0.14143647053E+04  0.14143647053E+04  0.25500000920E-02 0.  1.
       -2   -1    0    0    0  501  0.00000000000E+00  0.00000000000E+00 -0.10246135404E+04  0.10246135404E+04  0.25500000920E-02 0. -1.
    10030    2    1    2    0    0  0.00000000000E+00  0.00000000000E+00  0.38975116488E+03  0.24389782457E+04  0.24076355439E+04 0.  0.
        4    1    3    3  502    0  0.73656187616E+03  0.89770673069E+03 -0.12670753915E+03  0.11680998181E+04  0.12699999809E+01 0.  1.
       -4    1    3    3    0  502 -0.73656187616E+03 -0.89770673069E+03  0.51645870404E+03  0.12708784276E+04  0.12699999809E+01 0. -1.
</event>
<event>
 5   0  0.2215700E-06  0.2407477E+04  0.7818609E-02  0.8436710E-01
        1   -1    0    0  501    0  0.00000000000E+00  0.00000000000E+00  0.12755195290E+04  0.12755195290E+04  0.50400001928E-02 0.  1.
       -1   -1    0    0    0  501  0.00000000000E+00  0.00000000000E+00 -0.11359971421E+04  0.11359971421E+04  0.50400001928E-02 0. -1.
    10030    2    1    2    0    0  0.00000000000E+00  0.00000000000E+00  0.13952238693E+03  0.24115166711E+04  0.24074771356E+04 0.  0.
        3    1    3    3  502    0 -0.25547110755E+03 -0.35478852516E+03 -0.10536580503E+04  0.11407610099E+04  0.10100000352E+00 0. -1.
       -3    1    3    3    0  502  0.25547110755E+03  0.35478852516E+03  0.11931804373E+04  0.12707556612E+04  0.10100000352E+00 0.  1.
</event>
<event>
 5   0  0.5440503E-06  0.2404000E+04  0.7818609E-02  0.8438007E-01
       -2   -1    0    0    0  501  0.00000000000E+00  0.00000000000E+00  0.14692219366E+04  0.14692219366E+04  0.25500000920E-02 0.  1.
        2   -1    0    0  501    0  0.00000000000E+00  0.00000000000E+00 -0.98338046569E+03  0.98338046570E+03  0.25500000920E-02 0. -1.
    10030    2    1    2    0    0  0.00000000000E+00  0.00000000000E+00  0.48584147091E+03  0.24526024023E+04  0.24040001266E+04 0.  0.
        3    1    3    3  502    0 -0.42919614585E+03  0.78381228826E+03 -0.57721788790E+03  0.10638381151E+04  0.10100000352E+00 0. -1.
       -3    1    3    3    0  502  0.42919614585E+03 -0.78381228826E+03  0.10630593588E+04  0.13887642872E+04  0.10100000352E+00 0.  1.
</event>
<event>
 5   0  0.2149029E-06  0.2402899E+04  0.7818609E-02  0.8438419E-01
        1   -1    0    0  501    0  0.00000000000E+00  0.00000000000E+00  0.10616451188E+04  0.10616451188E+04  0.50400001928E-02 0. -1.
       -1   -1    0    0    0  501  0.00000000000E+00  0.00000000000E+00 -0.13596637539E+04  0.13596637539E+04  0.50400001928E-02 0.  1.
    10030    2    1    2    0    0  0.00000000000E+00  0.00000000000E+00 -0.29801863510E+03  0.24213088726E+04  0.24028985725E+04 0.  0.
        4    1    3    3  502    0 -0.64228567615E+02 -0.11781992392E+04 -0.37701717445E+03  0.12387180143E+04  0.12699999809E+01 0.  1.
       -4    1    3    3    0  502  0.64228567615E+02  0.11781992392E+04  0.78998539357E+02  0.11825908584E+04  0.12699999809E+01 0. -1.
</event>
<event>
 5   0  0.5349036E-06  0.2390443E+04  0.7818609E-02  0.8443090E-01
        2   -1    0    0  501    0  0.00000000000E+00  0.00000000000E+00  0.12801280582E+04  0.12801280582E+04  0.25500000920E-02 0. -1.
       -2   -1    0    0    0  501  0.00000000000E+00  0.00000000000E+00 -0.11159466551E+04  0.11159466551E+04  0.25500000920E-02 0.  1.
    10030    2    1    2    0    0  0.00000000000E+00  0.00000000000E+00  0.16418140310E+03  0.23960747134E+04  0.23904431595E+04 0.  0.
        1    1    3    3  502    0  0.35281419137E+03  0.39407569129E+03 -0.99224641300E+03  0.11244227178E+04  0.50400001928E-02 0.  1.
       -1    1    3    3    0  502 -0.35281419137E+03 -0.39407569129E+03  0.11564278161E+04  0.12716519956E+04  0.50400001928E-02 0. -1.
</event>
<event>
 5   0  0.2149417E-06  0.2406202E+04  0.7818609E-02  0.8437185E-01
       -1   -1    0    0    0  501  0.00000000000E+00  0.00000000000E+00  0.83976836248E+03  0.83976836250E+03  0.50400001928E-02 0.  1.
        1   -1    0    0  501    0  0.00000000000E+00  0.00000000000E+00 -0.17236324845E+04  0.17236324845E+04  0.50400001928E-02 0. -1.
    10030    2    1    2    0    0  0.00000000000E+00  0.00000000000E+00 -0.88386412198E+03  0.25634008470E+04  0.24062020107E+04 0.  0.
        5    1    3    3  502    0  0.73783850997E+03  0.93600684636E+03 -0.61670947428E+03  0.13419639149E+04  0.46999998093E+01 0. -1.
       -5    1    3    3    0  502 -0.73783850997E+03 -0.93600684636E+03 -0.26715464770E+03  0.12214369321E+04  0.46999998093E+01 0.  1.
</event>
<event>
 5   0  0.2149029E-06  0.2397437E+04  0.7818609E-02  0.8440464E-01
       -1   -1    0    0    0  501  0.00000000000E+00  0.00000000000E+00  0.14337482577E+04  0.14337482577E+04  0.50400001928E-02 0.  1.
        1   -1    0    0  501    0  0.00000000000E+00  0.00000000000E+00 -0.10022166450E+04  0.10022166451E+04  0.50400001928E-02 0. -1.
    10030    2    1    2    0    0  0.00000000000E+00  0.00000000000E+00  0.43153161267E+03  0.24359649028E+04  0.23974372723E+04 0.  0.
        4    1    3    3  502    0  0.14210605073E+03 -0.21474484854E+03 -0.97378106143E+03  0.10072540137E+04  0.12699999809E+01 0. -1.
       -4    1    3    3    0  502 -0.14210605073E+03  0.21474484854E+03  0.14053126741E+04  0.14287108891E+04  0.12699999809E+01 0.  1.
</event>
<event>
 5   0  0.5440503E-06  0.2398220E+04  0.7818609E-02  0.8440170E-01
       -2   -1    0    0    0  501  0.00000000000E+00  0.00000000000E+00  0.12481510622E+04  0.12481510622E+04  0.25500000920E-02 0. -1.
        2   -1    0    0  501    0  0.00000000000E+00  0.00000000000E+00 -0.11519953851E+04  0.11519953851E+04  0.25500000920E-02 0.  1.
    10030    2    1    2    0    0  0.00000000000E+00  0.00000000000E+00  0.96155677152E+02  0.24001464473E+04  0.23982195593E+04 0.  0.
        3    1    3    3  502    0  0.60158499031E+03  0.17235676121E+03 -0.97560904351E+03  0.11590618489E+04  0.10100000352E+00 0.  1.
       -3    1    3    3    0  502 -0.60158499031E+03 -0.17235676121E+03  0.10717647207E+04  0.12410845984E+04  0.10100000352E+00 0. -1.
</event>
<event>
 5   0  0.2149417E-06  0.2399824E+04  0.7818609E-02  0.8439569E-01
        1   -1    0    0  501    0  0.00000000000E+00  0.00000000000E+00  0.18566329888E+04  0.18566329888E+04  0.50400001928E-02 0.  1.
       -1   -1    0    0    0  501  0.00000000000E+00  0.00000000000E+00 -0.77548405366E+03  0.77548405368E+03  0.50400001928E-02 0. -1.
    10030    2    1    2    0    0  0.00000000000E+00  0.00000000000E+00  0.10811489352E+04  0.26321170425E+04  0.23998243905E+04 0.  0.
        5    1    3    3  502    0  0.82838407226E+03 -0.39448564961E+03  0.13886806158E+04  0.16644203320E+04  0.46999998093E+01 0.  1.
       -5    1    3    3    0  502 -0.82838407226E+03  0.39448564961E+03 -0.30753168063E+03  0.96769671050E+03  0.46999998093E+01 0. -1.
</event>
<event>
 5   0  0.2215700E-06  0.2418175E+04  0.7818609E-02  0.8432730E-01
       -1   -1    0    0    0  501  0.00000000000E+00  0.00000000000E+00  0.10557233352E+04  0.10557233352E+04  0.50400001928E-02 0. -1.
        1   -1    0    0  501    0  0.00000000000E+00  0.00000000000E+00 -0.13847302554E+04  0.13847302554E+04  0.50400001928E-02 0.  1.
    10030    2    1    2    0    0  0.00000000000E+00  0.00000000000E+00 -0.32900692019E+03  0.24404535906E+04  0.24181745541E+04 0.  0.
        3    1    3    3  502    0 -0.95148277725E+03 -0.68351254730E+03 -0.46622807932E+03  0.12609034499E+04  0.10100000352E+00 0. -1.
       -3    1    3    3    0  502  0.95148277725E+03  0.68351254730E+03  0.13722115913E+03  0.11795501407E+04  0.10100000352E+00 0.  1.
</event>
<event>
 5   0  0.2254269E-06  0.2400685E+04  0.7818609E-02  0.8439247E-01
        1   -1    0    0  501    0  0.00000000000E+00  0.00000000000E+00  0.12649174900E+04  0.12649174900E+04  0.50400001928E-02 0.  1.
       -1   -1    0    0    0  501  0.00000000000E+00  0.00000000000E+00 -0.11390645593E+04  0.11390645593E+04  0.50400001928E-02 0. -1.
    10030    2    1    2    0    0  0.00000000000E+00  0.00000000000E+00  0.12585293073E+03  0.24039820493E+04  0.24006854715E+04 0.  0.
        2    1    3    3  502    0  0.11821144025E+04 -0.78355370196E+02 -0.13044141497E+03  0.11918678565E+04  0.25500000920E-02 0. -1.
       -2    1    3    3    0  502 -0.11821144025E+04  0.78355370196E+02  0.25629434571E+03  0.12121141928E+04  0.25500000920E-02 0.  1.
</event>
<event>
 5   0  0.5268358E-06  0.2404299E+04  0.7818609E-02  0.8437896E-01
        2   -1    0    0  501    0  0.00000000000E+00  0.00000000000E+00  0.11026443749E+04  0.11026443749E+04  0.25500000920E-02 0. -1.
       -2   -1    0    0    0  501  0.00000000000E+00  0.00000000000E+00 -0.13106346543E+04  0.13106346543E+04  0.25500000920E-02 0.  1.
    10030    2    1    2    0    0  0.00000000000E+00  0.00000000000E+00 -0.20799027944E+03  0.24132790292E+04  0.24042994232E+04 0.  0.
        2    1    3    3  502    0  0.33040519136E+03  0.80410113698E+03  0.72941772763E+03  0.11348111959E+04  0.25500000920E-02 0. -1.
       -2    1    3    3    0  502 -0.33040519136E+03 -0.80410113698E+03 -0.93740800707E+03  0.12784678333E+04  0.25500000920E-02 0.  1.
</event>
<event>
 5   0  0.2149029E-06  0.2419398E+04  0.7818609E-02  0.8432277E-01
        1   -1    0    0  501    0  0.00000000000E+00  0.00000000000E+00  0.13319525917E+04  0.13319525917E+04  0.50400001928E-02 0.  1.
       -1   -1    0    0    0  501  0.00000000000E+00  0.00000000000E+00 -0.10986662232E+04  0.10986662232E+04  0.50400001928E-02 0. -1.
    10030    2    1    2    0    0  0.00000000000E+00  0.00000000000E+00  0.23328636844E+03  0.24306188149E+04  0.24193977130E+04 0.  0.
        4    1    3    3  502    0 -0.61936675846E+03 -0.10081790142E+04  0.36946408655E+03  0.12395746974E+04  0.12699999809E+01 0.  1.
       -4    1    3    3    0  502  0.61936675846E+03  0.10081790142E+04 -0.13617771811E+03  0.11910441176E+04  0.12699999809E+01 0. -1.
</event>
<event>
 5   0  0.2254269E-06  0.2418102E+04  0.7818609E-02  0.8432757E-01
       -1   -1    0    0    0  501  0.00000000000E+00  0.00000000000E+00  0.21653050340E+04  0.21653050340E+04  0.50400001928E-02 0. -1.
        1   -1    0    0  501    0  0.00000000000E+00  0.00000000000E+00 -0.67510322076E+03  0.67510322078E+03  0.50400001928E-02 0.  1.
    10030    2    1    2    0    0  0.00000000000E+00  0.00000000000E+00  0.14902018132E+04  0.28404082548E+04  0.24181020677E+04 0.  0.
        2    1    3    3  502    0 -0.76906081220E+03  0.48786304200E+03  0.16791749438E+04  0.19102600275E+04  0.25500000920E-02 0. -1.
       -2    1    3    3    0  502  0.76906081220E+03 -0.48786304200E+03 -0.18897313061E+03  0.93014822728E+03  0.25500000920E-02 0.  1.
</event>
<event>
 5   0  0.2215700E-06  0.2329767E+04  0.7818609E-02  0.8466276E-01
       -1   -1    0    0    0  501  0.00000000000E+00  0.00000000000E+00  0.15711900654E+04  0.15711900654E+04  0.50400001928E-02 0.  1.
        1   -1    0    0  501    0  0.00000000000E+00  0.00000000000E+00 -0.86364682180E+03  0.86364682181E+03  0.50400001928E-02 0. -1.
    10030    2    1    2    0    0  0.00000000000E+00  0.00000000000E+00  0.70754324361E+03  0.24348368872E+04  0.23297667750E+04 0.  0.
        3    1    3    3  502    0 -0.69460035394E+03  0.81918822128E+03  0.82512667598E+03  0.13543902817E+04  0.10100000352E+00 0.  1.
       -3    1    3    3    0  502  0.69460035394E+03 -0.81918822128E+03 -0.11758343238E+03  0.10804466055E+04  0.10100000352E+00 0. -1.
</event>
<event>
 5   0  0.5349036E-06  0.2402705E+04  0.7818609E-02  0.8438492E-01
       -2   -1    0    0    0  501  0.00000000000E+00  0.00000000000E+00  0.12238527937E+04  0.12238527937E+04  0.25500000920E-02 0. -1.
        2   -1    0    0  501    0  0.00000000000E+00  0.00000000000E+00 -0.11792659629E+04  0.11792659629E+04  0.25500000920E-02 0.  1.
    10030    2    1    2    0    0  0.00000000000E+00  0.00000000000E+00  0.44586830774E+02  0.24031187566E+04  0.24027050949E+04 0.  0.
        1    1    3    3  502    0 -0.50706852435E+03 -0.27881612341E+03  0.10752761832E+04  0.12210961425E+04  0.50400001928E-02 0. -1.
       -1    1    3    3    0  502  0.50706852435E+03  0.27881612341E+03 -0.10306893524E+04  0.11820226141E+04  0.50400001928E-02 0.  1.
</event>
<event>
 5   0  0.5371843E-06  0.2397191E+04  0.7818609E-02  0.8440556E-01
       -2   -1    0    0    0  501  0.00000000000E+00  0.00000000000E+00  0.93243756485E+03  0.93243756485E+03  0.25500000920E-02 0.  1.
        2   -1    0    0  501    0  0.00000000000E+00  0.00000000000E+00 -0.15407258896E+04  0.15407258896E+04  0.25500000920E-02 0. -1.
    10030    2    1    2    0    0  0.00000000000E+00  0.00000000000E+00 -0.60828832477E+03  0.24731634545E+04  0.23971906029E+04 0.  0.
        4    1    3    3  502    0  0.14999954613E+03  0.11309345882E+04 -0.68337524710E+03  0.13298557245E+04  0.12699999809E+01 0. -1.
       -4    1    3    3    0  502 -0.14999954613E+03 -0.11309345882E+04  0.75086922326E+02  0.11433077300E+04  0.12699999809E+01 0.  1.
</event>
<event>
 5   0  0.2297414E-06  0.2410089E+04  0.7818609E-02  0.8435736E-01
        1   -1    0    0  501    0  0.00000000000E+00  0.00000000000E+00  0.13696614477E+04  0.13696614477E+04  0.50400001928E-02 0.  1.
       -1   -1    0    0    0  501  0.00000000000E+00  0.00000000000E+00 -0.10602126179E+04  0.10602126179E+04  0.50400001928E-02 0. -1.
    10030    2    1    2    0    0  0.00000000000E+00  0.00000000000E+00  0.30944882978E+03  0.24298740656E+04  0.24100890848E+04 0.  0.
        1    1    3    3  502    0 -0.20669078752E+02 -0.11891117689E+03  0.13635522621E+04  0.13688834319E+04  0.50400001928E-02 0.  1.
       -1    1    3    3    0  502  0.20669078752E+02  0.11891117689E+03 -0.10541034323E+04  0.10609906337E+04  0.50400001928E-02 0. -1.
</event>
<event>
 5   0  0.5349036E-06  0.2397714E+04  0.7818609E-02  0.8440360E-01
       -2   -1    0    0    0  501  0.00000000000E+00  0.00000000000E+00  0.80369454382E+03  0.80369454382E+03  0.25500000920E-02 0. -1.
        2   -1    0    0  501    0  0.00000000000E+00  0.00000000000E+00 -0.17883138499E+04  0.17883138499E+04  0.25500000920E-02 0.  1.
    10030    2    1    2    0    0  0.00000000000E+00  0.00000000000E+00 -0.98461930606E+03  0.25920083937E+04  0.23977139811E+04 0.  0.
        1    1    3    3  502    0  0.68834531274E+03 -0.84357355199E+03  0.50173522103E+02  0.10899325619E+04  0.50400001928E-02 0. -1.
       -1    1    3    3    0  502 -0.68834531274E+03  0.84357355199E+03 -0.10347928282E+04  0.15020758318E+04  0.50400001928E-02 0.  1.
</event>
<event>
 5   0  0.5371843E-06  0.2397097E+04  0.7818609E-02  0.8440591E-01
       -2   -1    0    0    0  501  0.00000000000E+00  0.00000000000E+00  0.11658394384E+04  0.11658394384E+04  0.25500000920E-02 0. -1.
        2   -1    0    0  501    0  0.00000000000E+00  0.00000000000E+00 -0.12321752209E+04  0.12321752209E+04  0.25500000920E-02 0.  1.
    10030    2    1    2    0    0  0.00000000000E+00  0.00000000000E+00 -0.66335782574E+02  0.23980146593E+04  0.23970969672E+04 0.  0.
        4    1    3    3  502    0  0.34958350262E+03 -0.38488670923E+03  0.10471392514E+04  0.11691230170E+04  0.12699999809E+01 0. -1.
       -4    1    3    3    0  502 -0.34958350262E+03  0.38488670923E+03 -0.11134750340E+04  0.12288916423E+04  0.12699999809E+01 0.  1.
</event>
<event>
 5   0  0.5379778E-06  0.2403365E+04  0.7818609E-02  0.8438245E-01
       -2   -1    0    0    0  501  0.00000000000E+00  0.00000000000E+00  0.90004268173E+03  0.90004268174E+03  0.25500000920E-02 0.  1.
        2   -1    0    0  501    0  0.00000000000E+00  0.00000000000E+00 -0.16044137038E+04  0.16044137038E+04  0.25500000920E-02 0. -1.
    10030    2    1    2    0    0  0.00000000000E+00  0.00000000000E+00 -0.70437102210E+03  0.25044563856E+04  0.24033649849E+04 0.  0.
        5    1    3    3  502    0  0.85291892179E+03  0.72165003005E+03  0.10888357417E+03  0.11225538632E+04  0.46999998093E+01 0.  1.
       -5    1    3    3    0  502 -0.85291892179E+03 -0.72165003005E+03 -0.81325459627E+03  0.13819025224E+04  0.46999998093E+01 0. -1.
</event>
<event>
 5   0  0.5349036E-06  0.2399370E+04  0.7818609E-02  0.8439740E-01
        2   -1    0    0  501    0  0.00000000000E+00  0.00000000000E+00  0.16244530663E+04  0.16244530663E+04  0.25500000920E-02 0. -1.
       -2   -1    0    0    0  501  0.00000000000E+00  0.00000000000E+00 -0.88598653754E+03  0.88598653754E+03  0.25500000920E-02 0.  1.
    10030    2    1    2    0    0  0.00000000000E+00  0.00000000000E+00  0.73846652871E+03  0.25104396038E+04  0.23993695402E+04 0.  0.
        1    1    3    3  502    0 -0.68245460269E+03 -0.83892098755E+03 -0.17414446761E+03  0.10953807574E+04  0.50400001928E-02 0.  1.
       -1    1    3    3    0  502  0.68245460269E+03  0.83892098755E+03  0.91261099633E+03  0.14150588464E+04  0.50400001928E-02 0. -1.
</event>
<event>
 5   0  0.5379778E-06  0.2421544E+04  0.7818609E-02  0.8431482E-01
        2   -1    0    0  501    0  0.00000000000E+00  0.00000000000E+00  0.16692295868E+04  0.16692295868E+04  0.25500000920E-02 0.  1.
       -2   -1    0    0    0  501  0.00000000000E+00  0.00000000000E+00 -0.87823069310E+03  0.87823069311E+03  0.25500000920E-02 0. -1.
    10030    2    1    2    0    0  0.00000000000E+00  0.00000000000E+00  0.79099889366E+03  0.25474602799E+04  0.24215438521E+04 0.  0.
        5    1    3    3  502    0 -0.10714355472E+04  0.55487086113E+03  0.50117561982E+03  0.13065431092E+04  0.46999998093E+01 0. -1.
       -5    1    3    3    0  502  0.10714355472E+04 -0.55487086113E+03  0.28982327384E+03  0.12409171707E+04  0.46999998093E+01 0.  1.
</event>
<event>
 5   0  0.5349036E-06  0.2400593E+04  0.7818609E-02  0.8439282E-01
        2   -1    0    0  501    0  0.00000000000E+00  0.00000000000E+00  0.74872463865E+03  0.74872463866E+03  0.25500000920E-02 0. -1.
       -2   -1    0    0    0  501  0.00000000000E+00  0.00000000000E+00 -0.19242207327E+04  0.19242207327E+04  0.25500000920E-02 0.  1.
    10030    2    1    2    0    0  0.00000000000E+00  0.00000000000E+00 -0.11754960941E+04  0.26729453714E+04  0.24005928208E+04 0.  0.
        1    1    3    3  502    0  0.79091156205E+03  0.67726003568E+03 -0.12525538160E+04  0.16288380266E+04  0.50400001928E-02 0.  1.
       -1    1    3    3    0  502 -0.79091156205E+03 -0.67726003568E+03  0.77057721917E+02  0.10441073448E+04  0.50400001928E-02 0. -1.
</event>
<event>
 5   0  0.2149029E-06  0.2399043E+04  0.7818609E-02  0.8439862E-01
       -1   -1    0    0    0  501  0.00000000000E+00  0.00000000000E+00  0.17348123876E+04  0.17348123876E+04  0.50400001928E-02 0. -1.
        1   -1    0    0  501    0  0.00000000000E+00  0.00000000000E+00 -0.82939928295E+03  0.82939928296E+03  0.50400001928E-02 0.  1.
    10030    2    1    2    0    0  0.00000000000E+00  0.00000000000E+00  0.90541310466E+03  0.25642116706E+04  0.23990432679E+04 0.  0.
        4    1    3    3  502    0 -0.29191272616E+03  0.26865641572E+03  0.16626596258E+04  0.17093355298E+04  0.12699999809E+01 0. -1.
       -4    1    3    3    0  502  0.29191272616E+03 -0.26865641572E+03 -0.75724652112E+03  0.85487614076E+03  0.12699999809E+01 0.  1.
</event>
<event>
 5   0  0.2215700E-06  0.2405326E+04  0.7818609E-02  0.8437512E-01
       -1   -1    0    0    0  501  0.00000000000E+00  0.00000000000E+00  0.87928265555E+03  0.87928265556E+03  0.50400001928E-02 0.  1.
        1   -1    0    0  501    0  0.00000000000E+00  0.00000000000E+00 -0.16449759974E+04  0.16449759974E+04  0.50400001928E-02 0. -1.
    10030    2    1    2    0    0  0.00000000000E+00  0.00000000000E+00 -0.76569334186E+03  0.25242586530E+04  0.24053264754E+04 0.  0.
        3    1    3    3  502    0 -0.49493191590E+03  0.10152814386E+04 -0.81636395573E+03  0.13936298358E+04  0.10100000352E+00 0. -1.
       -3    1    3    3    0  502  0.49493191590E+03 -0.10152814386E+04  0.50670613875E+02  0.11306288172E+04  0.10100000352E+00 0.  1.
</event>
<event>
 5   0  0.5349036E-06  0.2394958E+04  0.7818609E-02  0.8441394E-01
        2   -1    0    0  501    0  0.00000000000E+00  0.00000000000E+00  0.12237567733E+04  0.12237567733E+04  0.25500000920E-02 0. -1.
       -2   -1    0    0    0  501  0.00000000000E+00  0.00000000000E+00 -0.11717654042E+04  0.11717654042E+04  0.25500000920E-02 0.  1.
    10030    2    1    2    0    0  0.00000000000E+00  0.00000000000E+00  0.51991369045E+02  0.23955221775E+04  0.23949579120E+04 0.  0.
        1    1    3    3  502    0 -0.35563115198E+03  0.11007004683E+03 -0.11124143391E+04  0.11730535339E+04  0.50400001928E-02 0.  1.
       -1    1    3    3    0  502  0.35563115198E+03 -0.11007004683E+03  0.11644057081E+04  0.12224686436E+04  0.50400001928E-02 0. -1.
</event>
<event>
 5   0  0.2254269E-06  0.2397928E+04  0.7818609E-02  0.8440280E-01
       -1   -1    0    0    0  501  0.00000000000E+00  0.00000000000E+00  0.14807324366E+04  0.14807324366E+04  0.50400001928E-02 0.  1.
        1   -1    0    0  501    0  0.00000000000E+00  0.00000000000E+00 -0.97081345307E+03  0.97081345309E+03  0.50400001928E-02 0. -1.
    10030    2    1    2    0    0  0.00000000000E+00  0.00000000000E+00  0.50991898349E+03  0.24515458897E+04  0.23979282473E+04 0.  0.
        2    1    3    3  502    0  0.59735210283E+02 -0.44615200109E+03  0.13910655382E+04  0.14620818154E+04  0.25500000920E-02 0.  1.
       -2    1    3    3    0  502 -0.59735210283E+02  0.44615200109E+03 -0.88114655468E+03  0.98946407426E+03  0.25500000920E-02 0. -1.
</event>
<event>
 5   0  0.5268358E-06  0.2398470E+04  0.7818609E-02  0.8440077E-01
        2   -1    0    0  501    0  0.00000000000E+00  0.00000000000E+00  0.16475975987E+04  0.16475975987E+04  0.25500000920E-02 0. -1.
       -2   -1    0    0    0  501  0.00000000000E+00  0.00000000000E+00 -0.87288591126E+03  0.87288591126E+03  0.25500000920E-02 0.  1.
    10030    2    1    2    0    0  0.00000000000E+00  0.00000000000E+00  0.77471168743E+03  0.25204835100E+04  0.23984701218E+04 0.  0.
        2    1    3    3  502    0 -0.60944501543E+03 -0.99431940195E+03  0.93730973877E+02  0.11699913655E+04  0.25500000920E-02 0. -1.
       -2    1    3    3    0  502  0.60944501543E+03  0.99431940195E+03  0.68098071356E+03  0.13504921444E+04  0.25500000920E-02 0.  1.
</event>
<event>
 5   0  0.2149029E-06  0.2405511E+04  0.7818609E-02  0.8437443E-01
       -1   -1    0    0    0  501  0.00000000000E+00  0.00000000000E+00  0.12516962950E+04  0.12516962950E+04  0.50400001928E-02 0.  1.
        1   -1    0    0  501    0  0.00000000000E+00  0.00000000000E+00 -0.11557286179E+04  0.11557286179E+04  0.50400001928E-02 0. -1.
    10030    2    1    2    0    0  0.00000000000E+00  0.00000000000E+00  0.95967677138E+02  0.24074249129E+04  0.24055113627E+04 0.  0.
        4    1    3    3  502    0  0.39477784908E+03  0.72809292526E+03  0.92083056813E+03  0.12385069261E+04  0.12699999809E+01 0.  1.
       -4    1    3    3    0  502 -0.39477784908E+03 -0.72809292526E+03 -0.82486289099E+03  0.11689179868E+04  0.12699999809E+01 0. -1.
</event>
<event>
 5   0  0.5379778E-06  0.2401318E+04  0.7818609E-02  0.8439010E-01
       -2   -1    0    0    0  501  0.00000000000E+00  0.00000000000E+00  0.16947134628E+04  0.16947134628E+04  0.25500000920E-02 0.  1.
        2   -1    0    0  501    0  0.00000000000E+00  0.00000000000E+00 -0.85063470912E+03  0.85063470912E+03  0.25500000920E-02 0. -1.
    10030    2    1    2    0    0  0.00000000000E+00  0.00000000000E+00  0.84407875364E+03  0.25453481719E+04  0.24013180493E+04 0.  0.
        5    1    3    3  502    0  0.12880012024E+03  0.85255080744E+03  0.13076950973E+04  0.15663718932E+04  0.46999998093E+01 0.  1.
       -5    1    3    3    0  502 -0.12880012024E+03 -0.85255080744E+03 -0.46361634363E+03  0.97897627873E+03  0.46999998093E+01 0. -1.
</event>
<event>
 5   0  0.2297414E-06  0.2401314E+04  0.7818609E-02  0.8439012E-01
       -1   -1    0    0    0  501  0.00000000000E+00  0.00000000000E+00  0.10756913821E+04  0.10756913822E+04  0.50400001928E-02 0. -1.
        1   -1    0    0  501    0  0.00000000000E+00  0.00000000000E+00 -0.13401403045E+04  0.13401403045E+04  0.50400001928E-02 0.  1.
    10030    2    1    2    0    0  0.00000000000E+00  0.00000000000E+00 -0.26444892230E+03  0.24158316866E+04  0.24013141206E+04 0.  0.
        1    1    3    3  502    0 -0.21206692705E+03 -0.45621223527E+03 -0.12289874727E+04  0.13279729640E+04  0.50400001928E-02 0.  1.
       -1    1    3    3    0  502  0.21206692705E+03  0.45621223527E+03  0.96453855037E+03  0.10878587226E+04  0.50400001928E-02 0. -1.
</event>
<event>
 5   0  0.5349036E-06  0.2393876E+04  0.7818609E-02  0.8441800E-01
        2   -1    0    0  501    0  0.00000000000E+00  0.00000000000E+00  0.14212608675E+04  0.14212608675E+04  0.25500000920E-02 0. -1.
       -2   -1    0    0    0  501  0.00000000000E+00  0.00000000000E+00 -0.10080209715E+04  0.10080209715E+04  0.25500000920E-02 0.  1.
    10030    2    1    2    0    0  0.00000000000E+00  0.00000000000E+00  0.41323989602E+03  0.24292818390E+04  0.23938761542E+04 0.  0.
        1    1    3    3  502    0 -0.95777850296E+03  0.13289020758E+03 -0.50926487656E+03  0.10928632954E+04  0.50400001928E-02 0.  1.
       -1    1    3    3    0  502  0.95777850296E+03 -0.13289020758E+03  0.92250477258E+03  0.13364185435E+04  0.50400001928E-02 0. -1.
</event>
<event>
 5   0  0.2254269E-06  0.2394355E+04  0.7818609E-02  0.8441620E-01
        1   -1    0    0  501    0  0.00000000000E+00  0.00000000000E+00  0.10328449084E+04  0.10328449084E+04  0.50400001928E-02 0. -1.
       -1   -1    0    0    0  501  0.00000000000E+00  0.00000000000E+00 -0.13876567465E+04  0.13876567466E+04  0.50400001928E-02 0.  1.
    10030    2    1    2    0    0  0.00000000000E+00  0.00000000000E+00 -0.35481183815E+03  0.24205016550E+04  0.23943551995E+04 0.  0.
        2    1    3    3  502    0 -0.64818065830E+03  0.56490411139E+03  0.66474531759E+03  0.10868031828E+04  0.25500000920E-02 0. -1.
       -2    1    3    3    0  502  0.64818065830E+03 -0.56490411139E+03 -0.10195571557E+04  0.13336984722E+04  0.25500000920E-02 0.  1.
</event>
<event>
 5   0  0.2254269E-06  0.2401922E+04  0.7818609E-02  0.8438784E-01
        1   -1    0    0  501    0  0.00000000000E+00  0.00000000000E+00  0.87999284293E+03  0.87999284294E+03  0.50400001928E-02 0.  1.
       -1   -1    0    0    0  501  0.00000000000E+00  0.00000000000E+00 -0.16389990554E+04  0.16389990554E+04  0.50400001928E-02 0. -1.
    10030    2    1    2    0    0  0.00000000000E+00  0.00000000000E+00 -0.75900621246E+03  0.25189918983E+04  0.24019220956E+04 0.  0.
        2    1    3    3  502    0  0.11460816481E+04 -0.35750101975E+03 -0.41262262602E+03  0.12694753069E+04  0.25500000920E-02 0. -1.
       -2    1    3    3    0  502 -0.11460816481E+04  0.35750101975E+03 -0.34638358644E+03  0.12495165914E+04  0.25500000920E-02 0.  1.
</event>
<event>
 5   0  0.2149417E-06  0.2391544E+04  0.7818609E-02  0.8442676E-01
        1   -1    0    0  501    0  0.00000000000E+00  0.00000000000E+00  0.17331083239E+04  0.17331083239E+04  0.50400001928E-02 0.  1.
       -1   -1    0    0    0  501  0.00000000000E+00  0.00000000000E+00 -0.82503282596E+03  0.82503282598E+03  0.50400001928E-02 0. -1.
    10030    2    1    2    0    0  0.00000000000E+00  0.00000000000E+00  0.90807549792E+03  0.25581411499E+04  0.23915444869E+04 0.  0.
        5    1    3    3  502    0 -0.10605128320E+03  0.28514839415E+03 -0.78293255794E+03  0.83997735781E+03  0.46999998093E+01 0. -1.
       -5    1    3    3    0  502  0.10605128320E+03 -0.28514839415E+03  0.16910080559E+04  0.17181637921E+04  0.46999998093E+01 0.  1.
</event>
<event>
 5   0  0.2149417E-06  0.2401040E+04  0.7818609E-02  0.8439114E-01
       -1   -1    0    0    0  501  0.00000000000E+00  0.00000000000E+00  0.92299471638E+03  0.92299471639E+03  0.50400001928E-02 0. -1.
        1   -1    0    0  501    0  0.00000000000E+00  0.00000000000E+00 -0.15614908995E+04  0.15614908995E+04  0.50400001928E-02 0.  1.
    10030    2    1    2    0    0  0.00000000000E+00  0.00000000000E+00 -0.63849618315E+03  0.24844856159E+04  0.24010396498E+04 0.  0.
        5    1    3    3  502    0 -0.37890988822E+03  0.35880370078E+03 -0.14379857102E+04  0.15297508921E+04  0.46999998093E+01 0.  1.
       -5    1    3    3    0  502  0.37890988822E+03 -0.35880370078E+03  0.79948952704E+03  0.95473472385E+03  0.46999998093E+01 0. -1.
</event>
<event>
 5   0  0.2149029E-06  0.2401996E+04  0.7818609E-02  0.8438757E-01
        1   -1    0    0  501    0  0.00000000000E+00  0.00000000000E+00  0.21977295301E+04  0.21977295301E+04  0.50400001928E-02 0.  1.
       -1   -1    0    0    0  501  0.00000000000E+00  0.00000000000E+00 -0.65631190551E+03  0.65631190552E+03  0.50400001928E-02 0. -1.
    10030    2    1    2    0    0  0.00000000000E+00  0.00000000000E+00  0.15414176246E+04  0.28540414356E+04  0.24019958832E+04 0.  0.
        4    1    3    3  502    0  0.35389216800E+03  0.84547518499E+03  0.16928639629E+04  0.19250605094E+04  0.12699999809E+01 0.  1.
       -4    1    3    3    0  502 -0.35389216800E+03 -0.84547518499E+03 -0.15144633833E+03  0.92898092623E+03  0.12699999809E+01 0. -1.
</event>
<event>
 5   0  0.5371843E-06  0.2407810E+04  0.7818609E-02  0.8436586E-01
       -2   -1    0    0    0  501  0.00000000000E+00  0.00000000000E+00  0.17439581996E+04  0.17439581996E+04  0.25500000920E-02 0. -1.
        2   -1    0    0  501    0  0.00000000000E+00  0.00000000000E+00 -0.83109036640E+03  0.83109036641E+03  0.25500000920E-02 0.  1.
    10030    2    1    2    0    0  0.00000000000E+00  0.00000000000E+00  0.91286783320E+03  0.25750485660E+04  0.24078096761E+04 0.  0.
        4    1    3    3  502    0 -0.59105676642E+03 -0.67422696284E+02  0.15757886507E+04  0.16843412379E+04  0.12699999809E+01 0. -1.
       -4    1    3    3    0  502  0.59105676642E+03  0.67422696284E+02 -0.66292081753E+03  0.89070732809E+03  0.12699999809E+01 0.  1.
</event>
<event>
 5   0  0.5349036E-06  0.2397571E+04  0.7818609E-02  0.8440414E-01
        2   -1    0    0  501    0  0.00000000000E+00  0.00000000000E+00  0.32746209328E+04  0.32746209328E+04  0.25500000920E-02 0. -1.
       -2   -1    0    0    0  501  0.00000000000E+00  0.00000000000E+00 -0.43885579587E+03  0.43885579588E+03  0.25500000920E-02 0.  1.
    10030    2    1    2    0    0  0.00000000000E+00  0.00000000000E+00  0.28357651370E+04  0.37134767287E+04  0.23975707503E+04 0.  0.
        1    1    3    3  502    0  0.11363688359E+04  0.36218187427E+03  0.16048803336E+04  0.19995376281E+04  0.50400001928E-02 0. -1.
       -1    1    3    3    0  502 -0.11363688359E+04 -0.36218187427E+03  0.12308848034E+04  0.17139391006E+04  0.50400001928E-02 0.  1.
</event>
<event>
 5   0  0.5379778E-06  0.2397438E+04  0.7818609E-02  0.8440463E-01
       -2   -1    0    0    0  501  0.00000000000E+00  0.00000000000E+00  0.10216900381E+04  0.10216900381E+04  0.25500000920E-02 0. -1.
        2   -1    0    0  501    0  0.00000000000E+00  0.00000000000E+00 -0.14064214912E+04  0.14064214913E+04  0.25500000920E-02 0.  1.
    10030    2    1    2    0    0  0.00000000000E+00  0.00000000000E+00 -0.38473145319E+03  0.24281115293E+04  0.23974376546E+04 0.  0.
        5    1    3    3  502    0  0.27544323059E+03 -0.22906123010E+03  0.96619617736E+03  0.10304829759E+04  0.46999998093E+01 0. -1.
       -5    1    3    3    0  502 -0.27544323059E+03  0.22906123010E+03 -0.13509276306E+04  0.13976285534E+04  0.46999998093E+01 0.  1.
</event>
<event>
 5   0  0.5268358E-06  0.2396552E+04  0.7818609E-02  0.8440795E-01
       -2   -1    0    0    0  501  0.00000000000E+00  0.00000000000E+00  0.86511428290E+03  0.86511428290E+03  0.25500000920E-02 0. -1.
        2   -1    0    0  501    0  0.00000000000E+00  0.00000000000E+00 -0.16597409326E+04  0.16597409326E+04  0.25500000920E-02 0.  1.
    10030    2    1    2    0    0  0.00000000000E+00  0.00000000000E+00 -0.79462664970E+03  0.25248552155E+04  0.23965521790E+04 0.  0.
        2    1    3    3  502    0  0.11575550666E+04 -0.30950071474E+03 -0.38479608498E+03  0.12584881611E+04  0.25500000920E-02 0. -1.
       -2    1    3    3    0  502 -0.11575550666E+04  0.30950071474E+03 -0.40983056472E+03  0.12663670544E+04  0.25500000920E-02 0.  1.
</event>
<event>
 5   0  0.2254269E-06  0.2405480E+04  0.7818609E-02  0.8437455E-01
       -1   -1    0    0    0  501  0.00000000000E+00  0.00000000000E+00  0.82104331107E+03  0.82104331108E+03  0.50400001928E-02 0.  1.
        1   -1    0    0  501    0  0.00000000000E+00  0.00000000000E+00 -0.17618847197E+04  0.17618847197E+04  0.50400001928E-02 0. -1.
    10030    2    1    2    0    0  0.00000000000E+00  0.00000000000E+00 -0.94084140864E+03  0.25829280308E+04  0.24054801300E+04 0.  0.
        2    1    3    3  502    0 -0.85016593262E+03  0.39833209170E+02 -0.13829435445E+04  0.16238539481E+04  0.25500000920E-02 0. -1.
       -2    1    3    3    0  502  0.85016593262E+03 -0.39833209170E+02  0.44210213586E+03  0.95907408268E+03  0.25500000920E-02 0.  1.
</event>
<event>
 5   0  0.2297414E-06  0.2389506E+04  0.7818609E-02  0.8443443E-01
       -1   -1    0    0    0  501  0.00000000000E+00  0.00000000000E+00  0.88014389479E+03  0.88014389480E+03  0.50400001928E-02 0. -1.
        1   -1    0    0  501    0  0.00000000000E+00  0.00000000000E+00 -0.16218192999E+04  0.16218192999E+04  0.50400001928E-02 0.  1.
    10030    2    1    2    0    0  0.00000000000E+00  0.00000000000E+00 -0.74167540511E+03  0.25019631947E+04  0.23895056855E+04 0.  0.
        1    1    3    3  502    0  0.79585310068E+03 -0.89069485106E+03 -0.34284213161E+03  0.12426826638E+04  0.50400001928E-02 0. -1.
       -1    1    3    3    0  502 -0.79585310068E+03  0.89069485106E+03 -0.39883327350E+03  0.12592805310E+04  0.50400001928E-02 0.  1.
</event>
<event>
 5   0  0.5379778E-06  0.2400566E+04  0.7818609E-02  0.8439292E-01
       -2   -1    0    0    0  501  0.00000000000E+00  0.00000000000E+00  0.82284476282E+03  0.82284476282E+03  0.25500000920E-02 0.  1.
        2   -1    0    0  501    0  0.00000000000E+00  0.00000000000E+00 -0.17508521849E+04  0.17508521849E+04  0.25500000920E-02 0. -1.
    10030    2    1    2    0    0  0.00000000000E+00  0.00000000000E+00 -0.92800742211E+03  0.25736969478E+04  0.24005662256E+04 0.  0.
        5    1    3    3  502    0 -0.49371492948E+02 -0.92639023814E+03 -0.12805213874E+04  0.15812632707E+04  0.46999998093E+01 0. -1.
       -5    1    3    3    0  502  0.49371492948E+02  0.92639023814E+03  0.35251396530E+03  0.99243367706E+03  0.46999998093E+01 0.  1.
</event>
<event>
 5   0  0.5349036E-06  0.2400374E+04  0.7818609E-02  0.8439363E-01
        2   -1    0    0  501    0  0.00000000000E+00  0.00000000000E+00  0.25677125015E+04  0.25677125015E+04  0.25500000920E-02 0.  1.
       -2   -1    0    0    0  501  0.00000000000E+00  0.00000000000E+00 -0.56098542821E+03  0.56098542822E+03  0.25500000920E-02 0. -1.
    10030    2    1    2    0    0  0.00000000000E+00  0.00000000000E+00  0.20067270733E+04  0.31286979297E+04  0.24003743851E+04 0.  0.
        1    1    3    3  502    0 -0.37670045720E+03  0.10742570158E+04  0.50786142185E+03  0.12465370409E+04  0.50400001928E-02 0. -1.
       -1    1    3    3    0  502  0.37670045720E+03 -0.10742570158E+04  0.14988656514E+04  0.18821608888E+04  0.50400001928E-02 0.  1.
</event>
<event>
 5   0  0.2149417E-06  0.2400722E+04  0.7818609E-02  0.8439233E-01
        1   -1    0    0  501    0  0.00000000000E+00  0.00000000000E+00  0.13488927730E+04  0.13488927730E+04  0.50400001928E-02 0.  1.
       -1   -1    0    0    0  501  0.00000000000E+00  0.00000000000E+00 -0.10681849227E+04  0.10681849227E+04  0.50400001928E-02 0. -1.
    10030    2    1    2    0    0  0.00000000000E+00  0.00000000000E+00  0.28070785029E+03  0.24170776957E+04  0.24007223267E+04 0.  0.
        5    1    3    3  502    0 -0.36677363419E+03 -0.40282539827E+03  0.12172452329E+04  0.13336038569E+04  0.46999998093E+01 0.  1.
       -5    1    3    3    0  502  0.36677363419E+03  0.40282539827E+03 -0.93653738261E+03  0.10834738387E+04  0.46999998093E+01 0. -1.
</event>
<event>
 5   0  0.2215700E-06  0.2397083E+04  0.7818609E-02  0.8440597E-01
        1   -1    0    0  501    0  0.00000000000E+00  0.00000000000E+00  0.11686797240E+04  0.11686797240E+04  0.50400001928E-02 0.  1.
       -1   -1    0    0    0  501  0.00000000000E+00  0.00000000000E+00 -0.12291660831E+04  0.12291660831E+04  0.50400001928E-02 0. -1.
    10030    2    1    2    0    0  0.00000000000E+00  0.00000000000E+00 -0.60486359099E+02  0.23978458071E+04  0.23970827926E+04 0.  0.
        3    1    3    3  502    0 -0.86091159394E+03  0.27337582885E+03 -0.81827458742E+03  0.12188012254E+04  0.10100000352E+00 0. -1.
       -3    1    3    3    0  502  0.86091159394E+03 -0.27337582885E+03  0.75778822832E+03  0.11790445817E+04  0.10100000352E+00 0.  1.
</event>
<event>
 5   0  0.5379778E-06  0.2402739E+04  0.7818609E-02  0.8438479E-01
       -2   -1    0    0    0  501  0.00000000000E+00  0.00000000000E+00  0.88562761638E+03  0.88562761638E+03  0.25500000920E-02 0.  1.
        2   -1    0    0  501    0  0.00000000000E+00  0.00000000000E+00 -0.16296787644E+04  0.16296787644E+04  0.25500000920E-02 0. -1.
    10030    2    1    2    0    0  0.00000000000E+00  0.00000000000E+00 -0.74405114804E+03  0.25153063808E+04  0.24027388702E+04 0.  0.
        5    1    3    3  502    0  0.54441413762E+03  0.39980133342E+02  0.74829005991E+03  0.92625334982E+03  0.46999998093E+01 0.  1.
       -5    1    3    3    0  502 -0.54441413762E+03 -0.39980133342E+02 -0.14923412079E+04  0.15890530310E+04  0.46999998093E+01 0. -1.
</event>
<event>
 5   0  0.2215700E-06  0.2404852E+04  0.7818609E-02  0.8437689E-01
       -1   -1    0    0    0  501  0.00000000000E+00  0.00000000000E+00  0.20630589630E+04  0.20630589630E+04  0.50400001928E-02 0. -1.
        1   -1    0    0  501    0  0.00000000000E+00  0.00000000000E+00 -0.70081768097E+03  0.70081768099E+03  0.50400001928E-02 0.  1.
    10030    2    1    2    0    0  0.00000000000E+00  0.00000000000E+00  0.13622412821E+04  0.27638766440E+04  0.24048519274E+04 0.  0.
        3    1    3    3  502    0  0.16251141973E+03 -0.80293814813E+03  0.16926989106E+04  0.18805183443E+04  0.10100000352E+00 0. -1.
       -3    1    3    3    0  502 -0.16251141973E+03  0.80293814813E+03 -0.33045762849E+03  0.88335829972E+03  0.10100000352E+00 0.  1.
</event>
<event>
 5   0  0.5379778E-06  0.2400438E+04  0.7818609E-02  0.8439340E-01
       -2   -1    0    0    0  501  0.00000000000E+00  0.00000000000E+00  0.98872793223E+03  0.98872793223E+03  0.25500000920E-02 0.  1.
        2   -1    0    0  501    0  0.00000000000E+00  0.00000000000E+00 -0.14569485185E+04  0.14569485185E+04  0.25500000920E-02 0. -1.
    10030    2    1    2    0    0  0.00000000000E+00  0.00000000000E+00 -0.46822058623E+03  0.24456764507E+04  0.24004380400E+04 0.  0.
        5    1    3    3  502    0 -0.37500556221E+03 -0.69803341611E+03 -0.11525555295E+04  0.13986729998E+04  0.46999998093E+01 0. -1.
       -5    1    3    3    0  502  0.37500556221E+03  0.69803341611E+03  0.68433494326E+03  0.10470034509E+04  0.46999998093E+01 0.  1.
</event>
<event>
 5   0  0.2254269E-06  0.2394079E+04  0.7818609E-02  0.8441723E-01
        1   -1    0    0  501    0  0.00000000000E+00  0.00000000000E+00  0.12470887454E+04  0.12470887455E+04  0.50400001928E-02 0.  1.
       -1   -1    0    0    0  501  0.00000000000E+00  0.00000000000E+00 -0.11489993070E+04  0.11489993070E+04  0.50400001928E-02 0. -1.
    10030    2    1    2    0    0  0.00000000000E+00  0.00000000000E+00  0.98089438408E+02  0.23960880525E+04  0.23940794509E+04 0.  0.
        2    1    3    3  502    0 -0.98772410703E+03  0.59761313292E+03  0.36579679694E+03  0.12110110094E+04  0.25500000920E-02 0. -1.
       -2    1    3    3    0  502  0.98772410703E+03 -0.59761313292E+03 -0.26770735853E+03  0.11850770431E+04  0.25500000920E-02 0.  1.
</event>
<event>
 5   0  0.5349036E-06  0.2409824E+04  0.7818609E-02  0.8435835E-01
       -2   -1    0    0    0  501  0.00000000000E+00  0.00000000000E+00  0.11465085240E+04  0.11465085240E+04  0.25500000920E-02 0.  1.
        2   -1    0    0  501    0  0.00000000000E+00  0.00000000000E+00 -0.12662901885E+04  0.12662901885E+04  0.25500000920E-02 0. -1.
    10030    2    1    2    0    0  0.00000000000E+00  0.00000000000E+00 -0.11978166442E+03  0.24127987125E+04  0.24098236408E+04 0.  0.
        1    1    3    3  502    0 -0.23334350931E+03 -0.42954648174E+03 -0.11625465581E+04  0.12611399102E+04  0.50400001928E-02 0. -1.
       -1    1    3    3    0  502  0.23334350931E+03  0.42954648174E+03  0.10427648937E+04  0.11516588023E+04  0.50400001928E-02 0.  1.
</event>
<event>
 5   0  0.2254269E-06  0.2403282E+04  0.7818609E-02  0.8438276E-01
        1   -1    0    0  501    0  0.00000000000E+00  0.00000000000E+00  0.74192267835E+03  0.74192267836E+03  0.50400001928E-02 0. -1.
       -1   -1    0    0    0  501  0.00000000000E+00  0.00000000000E+00 -0.19462150199E+04  0.19462150199E+04  0.50400001928E-02 0.  1.
    10030    2    1    2    0    0  0.00000000000E+00  0.00000000000E+00 -0.12042923416E+04  0.26881376983E+04  0.24032819728E+04 0.  0.
        2    1    3    3  502    0  0.64329279931E+03 -0.10030723260E+04 -0.77528814447E+03  0.14216368819E+04  0.25500000920E-02 0.  1.
       -2    1    3    3    0  502 -0.64329279931E+03  0.10030723260E+04 -0.42900419709E+03  0.12665008164E+04  0.25500000920E-02 0. -1.
</event>
<event>
 5   0  0.5371843E-06  0.2400776E+04  0.7818609E-02  0.8439213E-01
        2   -1    0    0  501    0  0.00000000000E+00  0.00000000000E+00  0.14931814933E+04  0.14931814933E+04  0.25500000920E-02 0. -1.
       -2   -1    0    0    0  501  0.00000000000E+00  0.00000000000E+00 -0.96500733891E+03  0.96500733891E+03  0.25500000920E-02 0.  1.
    10030    2    1    2    0    0  0.00000000000E+00  0.00000000000E+00  0.52817415443E+03  0.24581888322E+04  0.24007757908E+04 0.  0.
        4    1    3    3  502    0  0.34391890522E+03  0.66784683302E+03  0.12227628963E+04  0.14350785063E+04  0.12699999809E+01 0. -1.
       -4    1    3    3    0  502 -0.34391890522E+03 -0.66784683302E+03 -0.69458874191E+03  0.10231103259E+04  0.12699999809E+01 0.  1.
</event>
<event>
 5   0  0.2149029E-06  0.2398731E+04  0.7818609E-02  0.8439979E-01
       -1   -1    0    0    0  501  0.00000000000E+00  0.00000000000E+00  0.71194120179E+03  0.71194120181E+03  0.50400001928E-02 0.  1.
        1   -1    0    0  501    0  0.00000000000E+00  0.00000000000E+00 -0.20205004195E+04  0.20205004195E+04  0.50400001928E-02 0. -1.
    10030    2    1    2    0    0  0.00000000000E+00  0.00000000000E+00 -0.13085592178E+04  0.27324416214E+04  0.23987309119E+04 0.  0.
        4    1    3    3  502    0  0.49211499730E+03 -0.47435712636E+03  0.46836548883E+03  0.82858898009E+03  0.12699999809E+01 0.  1.
       -4    1    3    3    0  502 -0.49211499730E+03  0.47435712636E+03 -0.17769247066E+04  0.19038526413E+04  0.12699999809E+01 0. -1.
</event>
<event>
 5   0  0.2254269E-06  0.2419951E+04  0.7818609E-02  0.8432072E-01
        1   -1    0    0  501    0  0.00000000000E+00  0.00000000000E+00  0.20246103209E+04  0.20246103209E+04  0.50400001928E-02 0.  1.
       -1   -1    0    0    0  501  0.00000000000E+00  0.00000000000E+00 -0.72312242942E+03  0.72312242944E+03  0.50400001928E-02 0. -1.
    10030    2    1    2    0    0  0.00000000000E+00  0.00000000000E+00  0.13014878915E+04  0.27477327503E+04  0.24199513498E+04 0.  0.
        2    1    3    3  502    0  0.54848985766E+03 -0.34712235521E+03 -0.50869746623E+03  0.82468670755E+03  0.25500000920E-02 0. -1.
       -2    1    3    3    0  502 -0.54848985766E+03  0.34712235521E+03  0.18101853577E+04  0.19230460428E+04  0.25500000920E-02 0.  1.
</event>
<event>
 5   0  0.2149417E-06  0.2401945E+04  0.7818609E-02  0.8438776E-01
        1   -1    0    0  501    0  0.00000000000E+00  0.00000000000E+00  0.24467778861E+04  0.24467778861E+04  0.50400001928E-02 0.  1.
       -1   -1    0    0    0  501  0.00000000000E+00  0.00000000000E+00 -0.58948350161E+03  0.58948350163E+03  0.50400001928E-02 0. -1.
    10030    2    1    2    0    0  0.00000000000E+00  0.00000000000E+00  0.18572943845E+04  0.30362613877E+04  0.24019452084E+04 0.  0.
        5    1    3    3  502    0  0.11016064582E+04 -0.11764542497E+03  0.34260280433E+03  0.11596447759E+04  0.46999998093E+01 0. -1.
       -5    1    3    3    0  502 -0.11016064582E+04  0.11764542497E+03  0.15146915801E+04  0.18766166118E+04  0.46999998093E+01 0.  1.
</event>
<event>
 5   0  0.2254269E-06  0.2400684E+04  0.7818609E-02  0.8439247E-01
       -1   -1    0    0    0  501  0.00000000000E+00  0.00000000000E+00  0.13567286644E+04  0.13567286644E+04  0.50400001928E-02 0. -1.
        1   -1    0    0  501    0  0.00000000000E+00  0.00000000000E+00 -0.10619817144E+04  0.10619817144E+04  0.50400001928E-02 0.  1.
    10030    2    1    2    0    0  0.00000000000E+00  0.00000000000E+00  0.29474695006E+03  0.24187103788E+04  0.24006840967E+04 0.  0.
        2    1    3    3  502    0  0.24021980561E+03 -0.43829956095E+03  0.12469016675E+04  0.13433450148E+04  0.25500000920E-02 0. -1.
       -2    1    3    3    0  502 -0.24021980561E+03  0.43829956095E+03 -0.95215471749E+03  0.10753653640E+04  0.25500000920E-02 0.  1.
</event>
<event>
 5   0  0.2215700E-06  0.2400020E+04  0.7818609E-02  0.8439496E-01
       -1   -1    0    0    0  501  0.00000000000E+00  0.00000000000E+00  0.30454204039E+04  0.30454204039E+04  0.50400001928E-02 0. -1.
        1   -1    0    0  501    0  0.00000000000E+00  0.00000000000E+00 -0.47284910761E+03  0.47284910763E+03  0.50400001928E-02 0.  1.
    10030    2    1    2    0    0  0.00000000000E+00  0.00000000000E+00  0.25725712963E+04  0.35182695115E+04  0.24000202668E+04 0.  0.
        3    1    3    3  502    0 -0.85314562916E+03 -0.78609797089E+03  0.17362503330E+04  0.20881505486E+04  0.10100000352E+00 0.  1.
       -3    1    3    3    0  502  0.85314562916E+03  0.78609797089E+03  0.83632096326E+03  0.14301189629E+04  0.10100000352E+00 0. -1.
</event>
<event>
 5   0  0.2149417E-06  0.2372083E+04  0.7818609E-02  0.8450030E-01
        1   -1    0    0  501    0  0.00000000000E+00  0.00000000000E+00  0.12337194346E+04  0.12337194346E+04  0.50400001928E-02 0.  1.
       -1   -1    0    0    0  501  0.00000000000E+00  0.00000000000E+00 -0.11402058331E+04  0.11402058331E+04  0.50400001928E-02 0. -1.
    10030    2    1    2    0    0  0.00000000000E+00  0.00000000000E+00  0.93513601512E+02  0.23739252677E+04  0.23720827100E+04 0.  0.
        5    1    3    3  502    0  0.32472029660E+03  0.40577666370E+03  0.11136871772E+04  0.12289911271E+04  0.46999998093E+01 0.  1.
       -5    1    3    3    0  502 -0.32472029660E+03 -0.40577666370E+03 -0.10201735757E+04  0.11449341406E+04  0.46999998093E+01 0. -1.
</event>
<event>
 5   0  0.2149417E-06  0.2400738E+04  0.7818609E-02  0.8439227E-01
        1   -1    0    0  501    0  0.00000000000E+00  0.00000000000E+00  0.12472102822E+04  0.12472102822E+04  0.50400001928E-02 0. -1.
       -1   -1    0    0    0  501  0.00000000000E+00  0.00000000000E+00 -0.11552872739E+04  0.11552872739E+04  0.50400001928E-02 0.  1.
    10030    2    1    2    0    0  0.00000000000E+00  0.00000000000E+00  0.91923008333E+02  0.24024975561E+04  0.24007383588E+04 0.  0.
        5    1    3    3  502    0  0.54708812232E+03 -0.10630401442E+04 -0.61375262267E+02  0.11971419191E+04  0.46999998093E+01 0. -1.
       -5    1    3    3    0  502 -0.54708812232E+03  0.10630401442E+04  0.15329827060E+03  0.12053556369E+04  0.46999998093E+01 0.  1.
</event>
<event>
 5   0  0.2149417E-06  0.2403715E+04  0.7818609E-02  0.8438114E-01
        1   -1    0    0  501    0  0.00000000000E+00  0.00000000000E+00  0.12352414644E+04  0.12352414644E+04  0.50400001928E-02 0.  1.
       -1   -1    0    0    0  501  0.00000000000E+00  0.00000000000E+00 -0.11693754707E+04  0.11693754707E+04  0.50400001928E-02 0. -1.
    10030    2    1    2    0    0  0.00000000000E+00  0.00000000000E+00  0.65865993720E+02  0.24046169352E+04  0.24037146827E+04 0.  0.
        5    1    3    3  502    0 -0.27950854087E+03  0.10662890135E+04  0.51200908357E+03  0.12154310661E+04  0.46999998093E+01 0.  1.
       -5    1    3    3    0  502  0.27950854087E+03 -0.10662890135E+04 -0.44614308985E+03  0.11891858691E+04  0.46999998093E+01 0. -1.
</event>
<event>
 5   0  0.5371843E-06  0.2397594E+04  0.7818609E-02  0.8440405E-01
       -2   -1    0    0    0  501  0.00000000000E+00  0.00000000000E+00  0.10247654303E+04  0.10247654303E+04  0.25500000920E-02 0.  1.
        2   -1    0    0  501    0  0.00000000000E+00  0.00000000000E+00 -0.14023838804E+04  0.14023838804E+04  0.25500000920E-02 0. -1.
    10030    2    1    2    0    0  0.00000000000E+00  0.00000000000E+00 -0.37761845010E+03  0.24271493107E+04  0.23975942281E+04 0.  0.
        4    1    3    3  502    0 -0.54372851591E+03 -0.22230848297E+03  0.86908512790E+03  0.10489863360E+04  0.12699999809E+01 0.  1.
       -4    1    3    3    0  502  0.54372851591E+03  0.22230848297E+03 -0.12467035780E+04  0.13781629747E+04  0.12699999809E+01 0. -1.
</event>
<event>
 5   0  0.2149029E-06  0.2401009E+04  0.7818609E-02  0.8439126E-01
        1   -1    0    0  501    0  0.00000000000E+00  0.00000000000E+00  0.19993921020E+04  0.19993921020E+04  0.50400001928E-02 0.  1.
       -1   -1    0    0    0  501  0.00000000000E+00  0.00000000000E+00 -0.72082487541E+03  0.72082487542E+03  0.50400001928E-02 0. -1.
    10030    2    1    2    0    0  0.00000000000E+00  0.00000000000E+00  0.12785672266E+04  0.27202169774E+04  0.24010094234E+04 0.  0.
        4    1    3    3  502    0 -0.10780377432E+03 -0.46248308736E+03  0.18884562949E+04  0.19472496118E+04  0.12699999809E+01 0.  1.
       -4    1    3    3    0  502  0.10780377432E+03  0.46248308736E+03 -0.60988906831E+03  0.77296736567E+03  0.12699999809E+01 0. -1.
</event>
<event>
 5   0  0.5440503E-06  0.2401290E+04  0.7818609E-02  0.8439021E-01
       -2   -1    0    0    0  501  0.00000000000E+00  0.00000000000E+00  0.10208177817E+04  0.10208177817E+04  0.25500000920E-02 0.  1.
        2   -1    0    0  501    0  0.00000000000E+00  0.00000000000E+00 -0.14121503016E+04  0.14121503016E+04  0.25500000920E-02 0. -1.
    10030    2    1    2    0    0  0.00000000000E+00  0.00000000000E+00 -0.39133251992E+03  0.24329680832E+04  0.24012897686E+04 0.  0.
        3    1    3    3  502    0 -0.11312250349E+04  0.40227561376E+03 -0.18833345002E+03  0.12153045905E+04  0.10100000352E+00 0.  1.
       -3    1    3    3    0  502  0.11312250349E+04 -0.40227561376E+03 -0.20299906990E+03  0.12176634928E+04  0.10100000352E+00 0. -1.
</event>
<event>
 5   0  0.5349036E-06  0.2399348E+04  0.7818609E-02  0.8439748E-01
        2   -1    0    0  501    0  0.00000000000E+00  0.00000000000E+00  0.10919351324E+04  0.10919351324E+04  0.25500000920E-02 0. -1.
       -2   -1    0    0    0  501  0.00000000000E+00  0.00000000000E+00 -0.13180430720E+04  0.13180430720E+04  0.25500000920E-02 0.  1.
    10030    2    1    2    0    0  0.00000000000E+00  0.00000000000E+00 -0.22610793956E+03  0.24099782044E+04  0.23993478583E+04 0.  0.
        1    1    3    3  502    0 -0.31108927466E+03  0.10426453146E+04  0.39448840439E+03  0.11573706796E+04  0.50400001928E-02 0. -1.
       -1    1    3    3    0  502  0.31108927466E+03 -0.10426453146E+04 -0.62059634395E+03  0.12526075247E+04  0.50400001928E-02 0.  1.
</event>
<event>
 5   0  0.2149029E-06  0.2399324E+04  0.7818609E-02  0.8439757E-01
       -1   -1    0    0    0  501  0.00000000000E+00  0.00000000000E+00  0.13527714550E+04  0.13527714550E+04  0.50400001928E-02 0. -1.
        1   -1    0    0  501    0  0.00000000000E+00  0.00000000000E+00 -0.10638815541E+04  0.10638815541E+04  0.50400001928E-02 0.  1.
    10030    2    1    2    0    0  0.00000000000E+00  0.00000000000E+00  0.28888990090E+03  0.24166530091E+04  0.23993237363E+04 0.  0.
        4    1    3    3  502    0 -0.72779176813E+03 -0.87634139919E+03 -0.23447946011E+03  0.11630293787E+04  0.12699999809E+01 0.  1.
       -4    1    3    3    0  502  0.72779176813E+03  0.87634139919E+03  0.52336936101E+03  0.12536236304E+04  0.12699999809E+01 0. -1.
</event>
<event>
 5   0  0.5349036E-06  0.2405716E+04  0.7818609E-02  0.8437367E-01
       -2   -1    0    0    0  501  0.00000000000E+00  0.00000000000E+00  0.13026278187E+04  0.13026278187E+04  0.25500000920E-02 0.  1.
        2   -1    0    0  501    0  0.00000000000E+00  0.00000000000E+00 -0.11107300454E+04  0.11107300454E+04  0.25500000920E-02 0. -1.
    10030    2    1    2    0    0  0.00000000000E+00  0.00000000000E+00  0.19189777327E+03  0.24133578641E+04  0.24057164057E+04 0.  0.
        1    1    3    3  502    0 -0.50971323123E+03  0.82065033785E+03  0.81487949048E+03  0.12638445866E+04  0.50400001928E-02 0.  1.
       -1    1    3    3    0  502  0.50971323123E+03 -0.82065033785E+03 -0.62298171721E+03  0.11495132775E+04  0.50400001928E-02 0. -1.
</event>
<event>
 5   0  0.5440503E-06  0.2394244E+04  0.7818609E-02  0.8441662E-01
        2   -1    0    0  501    0  0.00000000000E+00  0.00000000000E+00  0.13429102768E+04  0.13429102768E+04  0.25500000920E-02 0.  1.
       -2   -1    0    0    0  501  0.00000000000E+00  0.00000000000E+00 -0.10671607780E+04  0.10671607780E+04  0.25500000920E-02 0. -1.
    10030    2    1    2    0    0  0.00000000000E+00  0.00000000000E+00  0.27574949873E+03  0.24100710548E+04  0.23942440776E+04 0.  0.
        3    1    3    3  502    0  0.15690572475E+03  0.10183369075E+04  0.75138848836E+03  0.12752310122E+04  0.10100000352E+00 0.  1.
       -3    1    3    3    0  502 -0.15690572475E+03 -0.10183369075E+04 -0.47563898963E+03  0.11348400426E+04  0.10100000352E+00 0. -1.
</event>
<event>
 5   0  0.2254269E-06  0.2399401E+04  0.7818609E-02  0.8439728E-01
        1   -1    0    0  501    0  0.00000000000E+00  0.00000000000E+00  0.13175525597E+04  0.13175525597E+04  0.50400001928E-02 0. -1.
       -1   -1    0    0    0  501  0.00000000000E+00  0.00000000000E+00 -0.10923901311E+04  0.10923901311E+04  0.50400001928E-02 0.  1.
    10030    2    1    2    0    0  0.00000000000E+00  0.00000000000E+00  0.22516242867E+03  0.24099426908E+04  0.23994011031E+04 0.  0.
        2    1    3    3  502    0 -0.52737341809E+03  0.10414936563E+04 -0.16512885461E+03  0.11790247228E+04  0.25500000920E-02 0.  1.
       -2    1    3    3    0  502  0.52737341809E+03 -0.10414936563E+04  0.39029128328E+03  0.12309179681E+04  0.25500000920E-02 0. -1.
</event>
<event>
 5   0  0.5440503E-06  0.2399515E+04  0.7818609E-02  0.8439685E-01
        2   -1    0    0  501    0  0.00000000000E+00  0.00000000000E+00  0.22608442104E+04  0.22608442104E+04  0.25500000920E-02 0. -1.
       -2   -1    0    0    0  501  0.00000000000E+00  0.00000000000E+00 -0.63667297723E+03  0.63667297724E+03  0.25500000920E-02 0.  1.
    10030    2    1    2    0    0  0.00000000000E+00  0.00000000000E+00  0.16241712331E+04  0.28975171876E+04  0.23995152965E+04 0.  0.
        3    1    3    3  502    0 -0.32680315707E+03 -0.84660033847E+02  0.22023080761E+04  0.22280324273E+04  0.10100000352E+00 0. -1.
       -3    1    3    3    0  502  0.32680315707E+03  0.84660033847E+02 -0.57813684300E+03  0.66948476028E+03  0.10100000352E+00 0.  1.
</event>
<event>
 5   0  0.2297414E-06  0.2400411E+04  0.7818609E-02  0.8439350E-01
       -1   -1    0    0    0  501  0.00000000000E+00  0.00000000000E+00  0.14999293929E+04  0.14999293929E+04  0.50400001928E-02 0. -1.
        1   -1    0    0  501    0  0.00000000000E+00  0.00000000000E+00 -0.96037378194E+03  0.96037378195E+03  0.50400001928E-02 0.  1.
    10030    2    1    2    0    0  0.00000000000E+00  0.00000000000E+00  0.53955561094E+03  0.24603031748E+04  0.24004106846E+04 0.  0.
        1    1    3    3  502    0 -0.67941378988E+03 -0.93370271894E+02  0.12793267751E+04  0.14515502413E+04  0.50400001928E-02 0. -1.
       -1    1    3    3    0  502  0.67941378988E+03  0.93370271894E+02 -0.73977116416E+03  0.10087529335E+04  0.50400001928E-02 0.  1.
</event>
<event>
 5   0  0.2254269E-06  0.2399685E+04  0.7818609E-02  0.8439621E-01
        1   -1    0    0  501    0  0.00000000000E+00  0.00000000000E+00  0.24129339901E+04  0.24129339901E+04  0.50400001928E-02 0. -1.
       -1   -1    0    0    0  501  0.00000000000E+00  0.00000000000E+00 -0.59662735370E+03  0.59662735372E+03  0.50400001928E-02 0.  1.
    10030    2    1    2    0    0  0.00000000000E+00  0.00000000000E+00  0.18163066364E+04  0.30095613438E+04  0.23996853304E+04 0.  0.
        2    1    3    3  502    0 -0.11947052965E+04  0.10305846999E+03  0.95956770276E+03  0.15358098742E+04  0.25500000920E-02 0. -1.
       -2    1    3    3    0  502  0.11947052965E+04 -0.10305846999E+03  0.85673893362E+03  0.14737514696E+04  0.25500000920E-02 0.  1.
</event>
<event>
 5   0  0.2297414E-06  0.2401286E+04  0.7818609E-02  0.8439022E-01
        1   -1    0    0  501    0  0.00000000000E+00  0.00000000000E+00  0.14841181086E+04  0.14841181086E+04  0.50400001928E-02 0.  1.
       -1   -1    0    0    0  501  0.00000000000E+00  0.00000000000E+00 -0.97131294142E+03  0.97131294143E+03  0.50400001928E-02 0. -1.
    10030    2    1    2    0    0  0.00000000000E+00  0.00000000000E+00  0.51280516721E+03  0.24554310501E+04  0.24012855936E+04 0.  0.
        1    1    3    3  502    0 -0.13745315969E+03  0.10258292550E+04 -0.36586175475E+03  0.10977585596E+04  0.50400001928E-02 0. -1.
       -1    1    3    3    0  502  0.13745315969E+03 -0.10258292550E+04  0.87866692196E+03  0.13576724905E+04  0.50400001928E-02 0.  1.
</event>
<event>
 5   0  0.5349036E-06  0.2393609E+04  0.7818609E-02  0.8441900E-01
        2   -1    0    0  501    0  0.00000000000E+00  0.00000000000E+00  0.14006428707E+04  0.14006428707E+04  0.25500000920E-02 0. -1.
       -2   -1    0    0    0  501  0.00000000000E+00  0.00000000000E+00 -0.10226307648E+04  0.10226307648E+04  0.25500000920E-02 0.  1.
    10030    2    1    2    0    0  0.00000000000E+00  0.00000000000E+00  0.37801210589E+03  0.24232736356E+04  0.23936085646E+04 0.  0.
        1    1    3    3  502    0  0.60503953413E+03 -0.89338695275E+03  0.71323371004E+03  0.12934123126E+04  0.50400001928E-02 0. -1.
       -1    1    3    3    0  502 -0.60503953413E+03  0.89338695275E+03 -0.33522160414E+03  0.11298613230E+04  0.50400001928E-02 0.  1.
</event>
<event>
 5   0  0.2297414E-06  0.2394991E+04  0.7818609E-02  0.8441381E-01
       -1   -1    0    0    0  501  0.00000000000E+00  0.00000000000E+00  0.52257895245E+03  0.52257895247E+03  0.50400001928E-02 0. -1.
        1   -1    0    0  501    0  0.00000000000E+00  0.00000000000E+00 -0.27440734913E+04  0.27440734913E+04  0.50400001928E-02 0.  1.
    10030    2    1    2    0    0  0.00000000000E+00  0.00000000000E+00 -0.22214945389E+04  0.32666524438E+04  0.23949906477E+04 0.  0.
        1    1    3    3  502    0  0.29560077259E+02 -0.11779866230E+04 -0.81990621955E+03  0.14355390942E+04  0.50400001928E-02 0.  1.
       -1    1    3    3    0  502 -0.29560077259E+02  0.11779866230E+04 -0.14015883193E+04  0.18311133496E+04  0.50400001928E-02 0. -1.
</event>
<event>
 5   0  0.2149029E-06  0.2401579E+04  0.7818609E-02  0.8438913E-01
       -1   -1    0    0    0  501  0.00000000000E+00  0.00000000000E+00  0.89908195076E+03  0.89908195077E+03  0.50400001928E-02 0.  1.
        1   -1    0    0  501    0  0.00000000000E+00  0.00000000000E+00 -0.16037415687E+04  0.16037415688E+04  0.50400001928E-02 0. -1.
    10030    2    1    2    0    0  0.00000000000E+00  0.00000000000E+00 -0.70465961799E+03  0.25028235195E+04  0.24015787292E+04 0.  0.
        4    1    3    3  502    0  0.28920466759E+03  0.25225118227E+03 -0.15381125908E+04  0.15852640013E+04  0.12699999809E+01 0. -1.
       -4    1    3    3    0  502 -0.28920466759E+03 -0.25225118227E+03  0.83345297284E+03  0.91755951826E+03  0.12699999809E+01 0.  1.
</event>
<event>
 5   0  0.5268358E-06  0.2400183E+04  0.7818609E-02  0.8439435E-01
       -2   -1    0    0    0  501  0.00000000000E+00  0.00000000000E+00  0.15036726857E+04  0.15036726857E+04  0.25500000920E-02 0. -1.
        2   -1    0    0  501    0  0.00000000000E+00  0.00000000000E+00 -0.95780108760E+03  0.95780108761E+03  0.25500000920E-02 0.  1.
    10030    2    1    2    0    0  0.00000000000E+00  0.00000000000E+00  0.54587159811E+03  0.24614737733E+04  0.24001827712E+04 0.  0.
        2    1    3    3  502    0 -0.11917480512E+04 -0.12982352720E+03  0.21582009126E+03  0.12180705552E+04  0.25500000920E-02 0. -1.
       -2    1    3    3    0  502  0.11917480512E+04  0.12982352720E+03  0.33005150685E+03  0.12434032181E+04  0.25500000920E-02 0.  1.
</event>
<event>
 5   0  0.5268358E-06  0.2396230E+04  0.7818609E-02  0.8440916E-01
        2   -1    0    0  501    0  0.00000000000E+00  0.00000000000E+00  0.22236615361E+04  0.22236615361E+04  0.25500000920E-02 0. -1.
       -2   -1    0    0    0  501  0.00000000000E+00  0.00000000000E+00 -0.64554785834E+03  0.64554785835E+03  0.25500000920E-02 0.  1.
    10030    2    1    2    0    0  0.00000000000E+00  0.00000000000E+00  0.15781136777E+04  0.28692093944E+04  0.23962303247E+04 0.  0.
        2    1    3    3  502    0 -0.34727986258E+03  0.57921310729E+02 -0.58220829811E+03  0.68038568738E+03  0.25500000920E-02 0.  1.
       -2    1    3    3    0  502  0.34727986258E+03 -0.57921310729E+02  0.21603219758E+04  0.21888237070E+04  0.25500000920E-02 0. -1.
</event>
<event>
 5   0  0.2254269E-06  0.2408786E+04  0.7818609E-02  0.8436221E-01
       -1   -1    0    0    0  501  0.00000000000E+00  0.00000000000E+00  0.83162669751E+03  0.83162669752E+03  0.50400001928E-02 0. -1.
        1   -1    0    0  501    0  0.00000000000E+00  0.00000000000E+00 -0.17442475767E+04  0.17442475767E+04  0.50400001928E-02 0.  1.
    10030    2    1    2    0    0  0.00000000000E+00  0.00000000000E+00 -0.91262087923E+03  0.25758742743E+04  0.24087862935E+04 0.  0.
        2    1    3    3  502    0  0.26294895489E+03  0.26262101129E+03 -0.16814002384E+04  0.17219810423E+04  0.25500000920E-02 0.  1.
       -2    1    3    3    0  502 -0.26294895489E+03 -0.26262101129E+03  0.76877935917E+03  0.85389323194E+03  0.25500000920E-02 0. -1.
</event>
<event>
 5   0  0.5349036E-06  0.2401852E+04  0.7818609E-02  0.8438811E-01
        2   -1    0    0  501    0  0.00000000000E+00  0.00000000000E+00  0.10520426813E+04  0.10520426813E+04  0.25500000920E-02 0.  1.
       -2   -1    0    0    0  501  0.00000000000E+00  0.00000000000E+00 -0.13708786878E+04  0.13708786878E+04  0.25500000920E-02 0. -1.
    10030    2    1    2    0    0  0.00000000000E+00  0.00000000000E+00 -0.31883600652E+03  0.24229213691E+04  0.24018516944E+04 0.  0.
        1    1    3    3  502    0  0.29820214504E+02  0.20690383480E+03  0.10335482649E+04  0.10544763904E+04  0.50400001928E-02 0.  1.
       -1    1    3    3    0  502 -0.29820214504E+02 -0.20690383480E+03 -0.13523842714E+04  0.13684449787E+04  0.50400001928E-02 0. -1.
</event>
<event>
 5   0  0.2215700E-06  0.2401327E+04  0.7818609E-02  0.8439007E-01
        1   -1    0    0  501    0  0.00000000000E+00  0.00000000000E+00  0.14554795319E+04  0.14554795320E+04  0.50400001928E-02 0. -1.
       -1   -1    0    0    0  501  0.00000000000E+00  0.00000000000E+00 -0.99045866286E+03  0.99045866287E+03  0.50400001928E-02 0.  1.
    10030    2    1    2    0    0  0.00000000000E+00  0.00000000000E+00  0.46502086908E+03  0.24459381948E+04  0.24013265593E+04 0.  0.
        3    1    3    3  502    0 -0.70292646329E+03  0.96532141428E+03  0.35989888516E+03  0.12471881427E+04  0.10100000352E+00 0.  1.
       -3    1    3    3    0  502  0.70292646329E+03 -0.96532141428E+03  0.10512198392E+03  0.11987500521E+04  0.10100000352E+00 0. -1.
</event>
<event>
 5   0  0.5371843E-06  0.2403522E+04  0.7818609E-02  0.8438186E-01
        2   -1    0    0  501    0  0.00000000000E+00  0.00000000000E+00  0.22385455703E+04  0.22385455703E+04  0.25500000920E-02 0. -1.
       -2   -1    0    0    0  501  0.00000000000E+00  0.00000000000E+00 -0.64516421617E+03  0.64516421617E+03  0.25500000920E-02 0.  1.
    10030    2    1    2    0    0  0.00000000000E+00  0.00000000000E+00  0.15933813541E+04  0.28837097864E+04  0.24035219976E+04 0.  0.
        4    1    3    3  502    0 -0.57125623210E+02 -0.28036431278E+02 -0.64314063088E+03  0.64628233946E+03  0.12699999809E+01 0.  1.
       -4    1    3    3    0  502  0.57125623210E+02  0.28036431278E+02  0.22365219850E+04  0.22374274470E+04  0.12699999809E+01 0. -1.
</event>
<event>
 5   0  0.1796750E-06  0.2398817E+04  0.7818609E-02  0.8439947E-01
        4   -1    0    0  501    0  0.00000000000E+00  0.00000000000E+00  0.12991799097E+04  0.12991805304E+04  0.12699999809E+01 0. -1.
       -4   -1    0    0    0  501  0.00000000000E+00  0.00000000000E+00 -0.11072979122E+04  0.11072986405E+04  0.12699999809E+01 0.  1.
    10030    2    1    2    0    0  0.00000000000E+00  0.00000000000E+00  0.19188199751E+03  0.24064791709E+04  0.23988170624E+04 0.  0.
        1    1    3    3  502    0 -0.57260966492E+03  0.10370000832E+03  0.11480737092E+04  0.12871319908E+04  0.50400001928E-02 0. -1.
       -1    1    3    3    0  502  0.57260966492E+03 -0.10370000832E+03 -0.95619171166E+03  0.11193471801E+04  0.50400001928E-02 0.  1.
</event>
<event>
 5   0  0.5440503E-06  0.2398810E+04  0.7818609E-02  0.8439949E-01
        2   -1    0    0  501    0  0.00000000000E+00  0.00000000000E+00  0.17129373341E+04  0.17129373341E+04  0.25500000920E-02 0. -1.
       -2   -1    0    0    0  501  0.00000000000E+00  0.00000000000E+00 -0.83982764815E+03  0.83982764815E+03  0.25500000920E-02 0.  1.
    10030    2    1    2    0    0  0.00000000000E+00  0.00000000000E+00  0.87310968598E+03  0.25527649823E+04  0.23988098155E+04 0.  0.
        3    1    3    3  502    0  0.60278780757E+03 -0.93548438250E+03  0.91257515616E+03  0.14391933841E+04  0.10100000352E+00 0. -1.
       -3    1    3    3    0  502 -0.60278780757E+03  0.93548438250E+03 -0.39465470181E+02  0.11135715982E+04  0.10100000352E+00 0.  1.
</event>
<event>
 5   0  0.2297414E-06  0.2397679E+04  0.7818609E-02  0.8440373E-01
       -1   -1    0    0    0  501  0.00000000000E+00  0.00000000000E+00  0.12268294193E+04  0.12268294193E+04  0.50400001928E-02 0.  1.
        1   -1    0    0  501    0  0.00000000000E+00  0.00000000000E+00 -0.11714880095E+04  0.11714880095E+04  0.50400001928E-02 0. -1.
    10030    2    1    2    0    0  0.00000000000E+00  0.00000000000E+00  0.55341409876E+02  0.23983174288E+04  0.23976788396E+04 0.  0.
        1    1    3    3  502    0  0.11156957158E+04  0.42298557831E+03  0.14398677691E+03  0.12018427192E+04  0.50400001928E-02 0.  1.
       -1    1    3    3    0  502 -0.11156957158E+04 -0.42298557831E+03 -0.88645367030E+02  0.11964747096E+04  0.50400001928E-02 0. -1.
</event>
<event>
 5   0  0.2254269E-06  0.2401601E+04  0.7818609E-02  0.8438904E-01
       -1   -1    0    0    0  501  0.00000000000E+00  0.00000000000E+00  0.82362720027E+03  0.82362720029E+03  0.50400001928E-02 0. -1.
        1   -1    0    0  501    0  0.00000000000E+00  0.00000000000E+00 -0.17506971477E+04  0.17506971477E+04  0.50400001928E-02 0.  1.
    10030    2    1    2    0    0  0.00000000000E+00  0.00000000000E+00 -0.92706994746E+03  0.25743243480E+04  0.24016009580E+04 0.  0.
        2    1    3    3  502    0 -0.95142943594E+03  0.73255175321E+03 -0.47261456274E+03  0.12904319306E+04  0.25500000920E-02 0.  1.
       -2    1    3    3    0  502  0.95142943594E+03 -0.73255175321E+03 -0.45445538472E+03  0.12838924174E+04  0.25500000920E-02 0. -1.
</event>
<event>
 5   0  0.2254269E-06  0.2399920E+04  0.7818609E-02  0.8439534E-01
       -1   -1    0    0    0  501  0.00000000000E+00  0.00000000000E+00  0.74161093957E+03  0.74161093958E+03  0.50400001928E-02 0. -1.
        1   -1    0    0  501    0  0.00000000000E+00  0.00000000000E+00 -0.19415887010E+04  0.19415887010E+04  0.50400001928E-02 0.  1.
    10030    2    1    2    0    0  0.00000000000E+00  0.00000000000E+00 -0.11999777615E+04  0.26831996406E+04  0.23999195160E+04 0.  0.
        2    1    3    3  502    0  0.61738429249E+03  0.74235990866E+03  0.19660140669E+03  0.98534953784E+03  0.25500000920E-02 0. -1.
       -2    1    3    3    0  502 -0.61738429249E+03 -0.74235990866E+03 -0.13965791681E+04  0.16978501028E+04  0.25500000920E-02 0.  1.
</event>
<event>
 5   0  0.5268358E-06  0.2409301E+04  0.7818609E-02  0.8436030E-01
        2   -1    0    0  501    0  0.00000000000E+00  0.00000000000E+00  0.22305546833E+04  0.22305546833E+04  0.25500000920E-02 0. -1.
       -2   -1    0    0    0  501  0.00000000000E+00  0.00000000000E+00 -0.65059261351E+03  0.65059261351E+03  0.25500000920E-02 0.  1.
    10030    2    1    2    0    0  0.00000000000E+00  0.00000000000E+00  0.15799620698E+04  0.28811472968E+04  0.24093006462E+04 0.  0.
        2    1    3    3  502    0 -0.87776079980E+03 -0.77308945510E+03  0.44535578777E+03  0.12515882330E+04  0.25500000920E-02 0.  1.
       -2    1    3    3    0  502  0.87776079980E+03  0.77308945510E+03  0.11346062820E+04  0.16295590638E+04  0.25500000920E-02 0. -1.
</event>
<event>
 5   0  0.5371843E-06  0.2402984E+04  0.7818609E-02  0.8438387E-01
       -2   -1    0    0    0  501  0.00000000000E+00  0.00000000000E+00  0.97098716681E+03  0.97098716681E+03  0.25500000920E-02 0.  1.
        2   -1    0    0  501    0  0.00000000000E+00  0.00000000000E+00 -0.14867164979E+04  0.14867164979E+04  0.25500000920E-02 0. -1.
    10030    2    1    2    0    0  0.00000000000E+00  0.00000000000E+00 -0.51572933108E+03  0.24577036647E+04  0.24029836788E+04 0.  0.
        4    1    3    3  502    0 -0.69213541825E+03 -0.97866083689E+03 -0.34190984432E+03  0.12464880366E+04  0.12699999809E+01 0. -1.
       -4    1    3    3    0  502  0.69213541825E+03  0.97866083689E+03 -0.17381948675E+03  0.12112156281E+04  0.12699999809E+01 0.  1.
</event>
<event>
 5   0  0.5379778E-06  0.2398716E+04  0.7818609E-02  0.8439984E-01
       -2   -1    0    0    0  501  0.00000000000E+00  0.00000000000E+00  0.67937986843E+03  0.67937986844E+03  0.25500000920E-02 0. -1.
        2   -1    0    0  501    0  0.00000000000E+00  0.00000000000E+00 -0.21173124935E+04  0.21173124935E+04  0.25500000920E-02 0.  1.
    10030    2    1    2    0    0  0.00000000000E+00  0.00000000000E+00 -0.14379326251E+04  0.27966923619E+04  0.23987158925E+04 0.  0.
        5    1    3    3  502    0  0.42668264338E+03  0.56339293524E+03  0.41080674576E+03  0.81746801161E+03  0.46999998093E+01 0. -1.
       -5    1    3    3    0  502 -0.42668264338E+03 -0.56339293524E+03 -0.18487393708E+04  0.19792243503E+04  0.46999998093E+01 0.  1.
</event>
<event>
 5   0  0.2297414E-06  0.2399507E+04  0.7818609E-02  0.8439688E-01
        1   -1    0    0  501    0  0.00000000000E+00  0.00000000000E+00  0.10597865158E+04  0.10597865158E+04  0.50400001928E-02 0.  1.
       -1   -1    0    0    0  501  0.00000000000E+00  0.00000000000E+00 -0.13582058388E+04  0.13582058388E+04  0.50400001928E-02 0. -1.
    10030    2    1    2    0    0  0.00000000000E+00  0.00000000000E+00 -0.29841932303E+03  0.24179923546E+04  0.23995068107E+04 0.  0.
        1    1    3    3  502    0  0.91660874999E+03 -0.65752969946E+03 -0.56088023153E+03  0.12598029768E+04  0.50400001928E-02 0. -1.
       -1    1    3    3    0  502 -0.91660874999E+03  0.65752969946E+03  0.26246090850E+03  0.11581893778E+04  0.50400001928E-02 0.  1.
</event>
<event>
 5   0  0.2149029E-06  0.2403948E+04  0.7818609E-02  0.8438027E-01
       -1   -1    0    0    0  501  0.00000000000E+00  0.00000000000E+00  0.11676169014E+04  0.11676169014E+04  0.50400001928E-02 0.  1.
        1   -1    0    0  501    0  0.00000000000E+00  0.00000000000E+00 -0.12373418355E+04  0.12373418355E+04  0.50400001928E-02 0. -1.
    10030    2    1    2    0    0  0.00000000000E+00  0.00000000000E+00 -0.69724934079E+02  0.24049587370E+04  0.24039477865E+04 0.  0.
        4    1    3    3  502    0 -0.51962917091E+03 -0.84967180747E+03 -0.70803694373E+03  0.12219961466E+04  0.12699999809E+01 0. -1.
       -4    1    3    3    0  502  0.51962917091E+03  0.84967180747E+03  0.63831200966E+03  0.11829625904E+04  0.12699999809E+01 0.  1.
</event>
<event>
 5   0  0.5268358E-06  0.2399653E+04  0.7818609E-02  0.8439633E-01
       -2   -1    0    0    0  501  0.00000000000E+00  0.00000000000E+00  0.10360818770E+04  0.10360818770E+04  0.25500000920E-02 0.  1.
        2   -1    0    0  501    0  0.00000000000E+00  0.00000000000E+00 -0.13894496267E+04  0.13894496267E+04  0.25500000920E-02 0. -1.
    10030    2    1    2    0    0  0.00000000000E+00  0.00000000000E+00 -0.35336774972E+03  0.24255315037E+04  0.23996529559E+04 0.  0.
        2    1    3    3  502    0  0.61252561139E+03 -0.86881774407E+03 -0.73905765631E+03  0.12946961483E+04  0.25500000920E-02 0. -1.
       -2    1    3    3    0  502 -0.61252561139E+03  0.86881774407E+03  0.38568990659E+03  0.11308353554E+04  0.25500000920E-02 0.  1.
</event>
<event>
 5   0  0.5349036E-06  0.2388178E+04  0.7818609E-02  0.8443943E-01
        2   -1    0    0  501    0  0.00000000000E+00  0.00000000000E+00  0.15728711510E+04  0.15728711510E+04  0.25500000920E-02 0.  1.
       -2   -1    0    0    0  501  0.00000000000E+00  0.00000000000E+00 -0.90652591004E+03  0.90652591005E+03  0.25500000920E-02 0. -1.
    10030    2    1    2    0    0  0.00000000000E+00  0.00000000000E+00  0.66634524097E+03  0.24793970611E+04  0.23881779260E+04 0.  0.
        1    1    3    3  502    0  0.52828390530E+03  0.10210406818E+04 -0.20224559326E+01  0.11496138694E+04  0.50400001928E-02 0.  1.
       -1    1    3    3    0  502 -0.52828390530E+03 -0.10210406818E+04  0.66836769691E+03  0.13297831916E+04  0.50400001928E-02 0. -1.
</event>
<event>
 5   0  0.5349036E-06  0.2431366E+04  0.7818609E-02  0.8427853E-01
        2   -1    0    0  501    0  0.00000000000E+00  0.00000000000E+00  0.13386411740E+04  0.13386411740E+04  0.25500000920E-02 0.  1.
       -2   -1    0    0    0  501  0.00000000000E+00  0.00000000000E+00 -0.11040190805E+04  0.11040190805E+04  0.25500000920E-02 0. -1.
    10030    2    1    2    0    0  0.00000000000E+00  0.00000000000E+00  0.23462209349E+03  0.24426602544E+04  0.24313661986E+04 0.  0.
        1    1    3    3  502    0 -0.49042955992E+03  0.89323091779E+03 -0.54871850692E+03  0.11573567409E+04  0.50400001928E-02 0. -1.
       -1    1    3    3    0  502  0.49042955992E+03 -0.89323091779E+03  0.78334060041E+03  0.12853035136E+04  0.50400001928E-02 0.  1.
</event>
<event>
 5   0  0.2254269E-06  0.2401508E+04  0.7818609E-02  0.8438939E-01
        1   -1    0    0  501    0  0.00000000000E+00  0.00000000000E+00  0.16394571981E+04  0.16394571981E+04  0.50400001928E-02 0.  1.
       -1   -1    0    0    0  501  0.00000000000E+00  0.00000000000E+00 -0.87944339572E+03  0.87944339574E+03  0.50400001928E-02 0. -1.
    10030    2    1    2    0    0  0.00000000000E+00  0.00000000000E+00  0.76001380237E+03  0.25189005938E+04  0.24015076976E+04 0.  0.
        2    1    3    3  502    0  0.90492460116E+03 -0.11344976588E+03 -0.43923076520E+03  0.10122662932E+04  0.25500000920E-02 0. -1.
       -2    1    3    3    0  502 -0.90492460116E+03  0.11344976588E+03  0.11992445676E+04  0.15066343007E+04  0.25500000920E-02 0.  1.
</event>
<event>
 5   0  0.5379778E-06  0.2404642E+04  0.7818609E-02  0.8437768E-01
        2   -1    0    0  501    0  0.00000000000E+00  0.00000000000E+00  0.22805511089E+04  0.22805511089E+04  0.25500000920E-02 0.  1.
       -2   -1    0    0    0  501  0.00000000000E+00  0.00000000000E+00 -0.63387124215E+03  0.63387124215E+03  0.25500000920E-02 0. -1.
    10030    2    1    2    0    0  0.00000000000E+00  0.00000000000E+00  0.16466798668E+04  0.29144223511E+04  0.24046419810E+04 0.  0.
        5    1    3    3  502    0  0.25355671370E+03 -0.64751267968E+03 -0.36540134075E+03  0.78555961405E+03  0.46999998093E+01 0. -1.
       -5    1    3    3    0  502 -0.25355671370E+03  0.64751267968E+03  0.20120812075E+04  0.21288627370E+04  0.46999998093E+01 0.  1.
</event>
<event>
 5   0  0.2149029E-06  0.2405608E+04  0.7818609E-02  0.8437407E-01
        1   -1    0    0  501    0  0.00000000000E+00  0.00000000000E+00  0.12115838275E+04  0.12115838275E+04  0.50400001928E-02 0. -1.
       -1   -1    0    0    0  501  0.00000000000E+00  0.00000000000E+00 -0.11940878031E+04  0.11940878031E+04  0.50400001928E-02 0.  1.
    10030    2    1    2    0    0  0.00000000000E+00  0.00000000000E+00  0.17496024395E+02  0.24056716305E+04  0.24056080070E+04 0.  0.
        4    1    3    3  502    0  0.80080081877E+03  0.86186403937E+03 -0.24154700947E+03  0.12010154638E+04  0.12699999809E+01 0. -1.
       -4    1    3    3    0  502 -0.80080081877E+03 -0.86186403937E+03  0.25904303387E+03  0.12046561667E+04  0.12699999809E+01 0.  1.
</event>
<event>
 5   0  0.2297414E-06  0.2401546E+04  0.7818609E-02  0.8438925E-01
       -1   -1    0    0    0  501  0.00000000000E+00  0.00000000000E+00  0.74216229778E+03  0.74216229780E+03  0.50400001928E-02 0.  1.
        1   -1    0    0  501    0  0.00000000000E+00  0.00000000000E+00 -0.19427775715E+04  0.19427775715E+04  0.50400001928E-02 0. -1.
    10030    2    1    2    0    0  0.00000000000E+00  0.00000000000E+00 -0.12006152737E+04  0.26849398693E+04  0.24015463906E+04 0.  0.
        1    1    3    3  502    0 -0.55229155042E+03 -0.47438372309E+03  0.46724940499E+03  0.86509414510E+03  0.50400001928E-02 0.  1.
       -1    1    3    3    0  502  0.55229155042E+03  0.47438372309E+03 -0.16678646787E+04  0.18198457242E+04  0.50400001928E-02 0. -1.
</event>
<event>
 5   0  0.2297414E-06  0.2396850E+04  0.7818609E-02  0.8440684E-01
       -1   -1    0    0    0  501  0.00000000000E+00  0.00000000000E+00  0.15487387015E+04  0.15487387015E+04  0.50400001928E-02 0. -1.
        1   -1    0    0  501    0  0.00000000000E+00  0.00000000000E+00 -0.92734989966E+03  0.92734989968E+03  0.50400001928E-02 0.  1.
    10030    2    1    2    0    0  0.00000000000E+00  0.00000000000E+00  0.62138880184E+03  0.24760886012E+04  0.23968501659E+04 0.  0.
        1    1    3    3  502    0  0.30814957085E+03 -0.97367309293E+03 -0.33711476223E+03  0.10754728322E+04  0.50400001928E-02 0.  1.
       -1    1    3    3    0  502 -0.30814957085E+03  0.97367309293E+03  0.95850356407E+03  0.14006157690E+04  0.50400001928E-02 0. -1.
</event>
<event>
 5   0  0.2254269E-06  0.2396255E+04  0.7818609E-02  0.8440907E-01
        1   -1    0    0  501    0  0.00000000000E+00  0.00000000000E+00  0.11435001934E+04  0.11435001934E+04  0.50400001928E-02 0. -1.
       -1   -1    0    0    0  501  0.00000000000E+00  0.00000000000E+00 -0.12553643015E+04  0.12553643015E+04  0.50400001928E-02 0.  1.
    10030    2    1    2    0    0  0.00000000000E+00  0.00000000000E+00 -0.11186410818E+03  0.23988644949E+04  0.23962548458E+04 0.  0.
        2    1    3    3  502    0 -0.12990881040E+03  0.64487392216E+02  0.11346799533E+04  0.11439114997E+04  0.25500000920E-02 0. -1.
       -2    1    3    3    0  502  0.12990881040E+03 -0.64487392216E+02 -0.12465440615E+04  0.12549529952E+04  0.25500000920E-02 0.  1.
</event>
<event>
 5   0  0.2215700E-06  0.2387548E+04  0.7818609E-02  0.8444180E-01
       -1   -1    0    0    0  501  0.00000000000E+00  0.00000000000E+00  0.94701082807E+03  0.94701082808E+03  0.50400001928E-02 0.  1.
        1   -1    0    0  501    0  0.00000000000E+00  0.00000000000E+00 -0.15048368486E+04  0.15048368486E+04  0.50400001928E-02 0. -1.
    10030    2    1    2    0    0  0.00000000000E+00  0.00000000000E+00 -0.55782602056E+03  0.24518476767E+04  0.23875483578E+04 0.  0.
        3    1    3    3  502    0  0.61781019813E+03  0.35453772857E+03 -0.12626842483E+04  0.14497441026E+04  0.10100000352E+00 0. -1.
       -3    1    3    3    0  502 -0.61781019813E+03 -0.35453772857E+03  0.70485822773E+03  0.10021035741E+04  0.10100000352E+00 0.  1.
</event>
<event>
 5   0  0.5440503E-06  0.2407916E+04  0.7818609E-02  0.8436546E-01
       -2   -1    0    0    0  501  0.00000000000E+00  0.00000000000E+00  0.77012651119E+03  0.77012651119E+03  0.25500000920E-02 0.  1.
        2   -1    0    0  501    0  0.00000000000E+00  0.00000000000E+00 -0.18821770510E+04  0.18821770510E+04  0.25500000920E-02 0. -1.
    10030    2    1    2    0    0  0.00000000000E+00  0.00000000000E+00 -0.11120505398E+04  0.26523035622E+04  0.24079156511E+04 0.  0.
        3    1    3    3  502    0 -0.10338431032E+04 -0.58271731149E+03 -0.77939612687E+03  0.14198060994E+04  0.10100000352E+00 0.  1.
       -3    1    3    3    0  502  0.10338431032E+04  0.58271731149E+03 -0.33265441294E+03  0.12324974628E+04  0.10100000352E+00 0. -1.
</event>
<event>
 5   0  0.2215700E-06  0.2399347E+04  0.7818609E-02  0.8439748E-01
       -1   -1    0    0    0  501  0.00000000000E+00  0.00000000000E+00  0.15711521991E+04  0.15711521991E+04  0.50400001928E-02 0.  1.
        1   -1    0    0  501    0  0.00000000000E+00  0.00000000000E+00 -0.91602616229E+03  0.91602616230E+03  0.50400001928E-02 0. -1.
    10030    2    1    2    0    0  0.00000000000E+00  0.00000000000E+00  0.65512603678E+03  0.24871783614E+04  0.23993470106E+04 0.  0.
        3    1    3    3  502    0 -0.32509646351E+03  0.10928601689E+04 -0.59169584253E+02  0.11417233068E+04  0.10100000352E+00 0. -1.
       -3    1    3    3    0  502  0.32509646351E+03 -0.10928601689E+04  0.71429562103E+03  0.13454550546E+04  0.10100000352E+00 0.  1.
</event>
<event>
 5   0  0.5371843E-06  0.2401180E+04  0.7818609E-02  0.8439062E-01
       -2   -1    0    0    0  501  0.00000000000E+00  0.00000000000E+00  0.86847777506E+03  0.86847777507E+03  0.25500000920E-02 0. -1.
        2   -1    0    0  501    0  0.00000000000E+00  0.00000000000E+00 -0.16597044906E+04  0.16597044906E+04  0.25500000920E-02 0.  1.
    10030    2    1    2    0    0  0.00000000000E+00  0.00000000000E+00 -0.79122671552E+03  0.25281822657E+04  0.24011800959E+04 0.  0.
        4    1    3    3  502    0 -0.26964771216E+03 -0.57646214864E+03 -0.14674943852E+04  0.15995498995E+04  0.12699999809E+01 0.  1.
       -4    1    3    3    0  502  0.26964771216E+03  0.57646214864E+03  0.67626766969E+03  0.92863236615E+03  0.12699999809E+01 0. -1.
</event>
<event>
 5   0  0.5440503E-06  0.2404817E+04  0.7818609E-02  0.8437702E-01
       -2   -1    0    0    0  501  0.00000000000E+00  0.00000000000E+00  0.92965444167E+03  0.92965444167E+03  0.25500000920E-02 0.  1.
        2   -1    0    0  501    0  0.00000000000E+00  0.00000000000E+00 -0.15551868946E+04  0.15551868946E+04  0.25500000920E-02 0. -1.
    10030    2    1    2    0    0  0.00000000000E+00  0.00000000000E+00 -0.62553245298E+03  0.24848413363E+04  0.24048171691E+04 0.  0.
        3    1    3    3  502    0  0.43207693744E+03 -0.52426353654E+03 -0.13378701880E+04  0.15004797185E+04  0.10100000352E+00 0. -1.
       -3    1    3    3    0  502 -0.43207693744E+03  0.52426353654E+03  0.71233773503E+03  0.98436161778E+03  0.10100000352E+00 0.  1.
</event>
<event>
 5   0  0.5268358E-06  0.2414819E+04  0.7818609E-02  0.8433976E-01
       -2   -1    0    0    0  501  0.00000000000E+00  0.00000000000E+00  0.79503684328E+03  0.79503684328E+03  0.25500000920E-02 0. -1.
        2   -1    0    0  501    0  0.00000000000E+00  0.00000000000E+00 -0.18336737188E+04  0.18336737188E+04  0.25500000920E-02 0.  1.
    10030    2    1    2    0    0  0.00000000000E+00  0.00000000000E+00 -0.10386368755E+04  0.26287105621E+04  0.24148193845E+04 0.  0.
        2    1    3    3  502    0 -0.15170786360E+03  0.86390506997E+03  0.38393001223E+03  0.95747036513E+03  0.25500000920E-02 0. -1.
       -2    1    3    3    0  502  0.15170786360E+03 -0.86390506997E+03 -0.14225668877E+04  0.16712401969E+04  0.25500000920E-02 0.  1.
</event>
<event>
 5   0  0.2149417E-06  0.2398062E+04  0.7818609E-02  0.8440230E-01
       -1   -1    0    0    0  501  0.00000000000E+00  0.00000000000E+00  0.12378882389E+04  0.12378882390E+04  0.50400001928E-02 0.  1.
        1   -1    0    0  501    0  0.00000000000E+00  0.00000000000E+00 -0.11613930226E+04  0.11613930226E+04  0.50400001928E-02 0. -1.
    10030    2    1    2    0    0  0.00000000000E+00  0.00000000000E+00  0.76495216330E+02  0.23992812616E+04  0.23980615201E+04 0.  0.
        5    1    3    3  502    0 -0.16643262450E+03  0.18588064508E+03 -0.11351239251E+04  0.11622305486E+04  0.46999998093E+01 0. -1.
       -5    1    3    3    0  502  0.16643262450E+03 -0.18588064508E+03  0.12116191414E+04  0.12370507130E+04  0.46999998093E+01 0.  1.
</event>
<event>
 5   0  0.2297414E-06  0.2396629E+04  0.7818609E-02  0.8440767E-01
       -1   -1    0    0    0  501  0.00000000000E+00  0.00000000000E+00  0.83765735299E+03  0.83765735301E+03  0.50400001928E-02 0.  1.
        1   -1    0    0  501    0  0.00000000000E+00  0.00000000000E+00 -0.17142539122E+04  0.17142539122E+04  0.50400001928E-02 0. -1.
    10030    2    1    2    0    0  0.00000000000E+00  0.00000000000E+00 -0.87659655921E+03  0.25519112652E+04  0.23966287944E+04 0.  0.
        1    1    3    3  502    0  0.52226452061E+03  0.68020219742E+03 -0.13294994080E+04  0.15820884725E+04  0.50400001928E-02 0. -1.
       -1    1    3    3    0  502 -0.52226452061E+03 -0.68020219742E+03  0.45290284878E+03  0.96982279275E+03  0.50400001928E-02 0.  1.
</event>
<event>
 5   0  0.5349036E-06  0.2406714E+04  0.7818609E-02  0.8436994E-01
        2   -1    0    0  501    0  0.00000000000E+00  0.00000000000E+00  0.29114598749E+04  0.29114598749E+04  0.25500000920E-02 0. -1.
       -2   -1    0    0    0  501  0.00000000000E+00  0.00000000000E+00 -0.49736840886E+03  0.49736840886E+03  0.25500000920E-02 0.  1.
    10030    2    1    2    0    0  0.00000000000E+00  0.00000000000E+00  0.24140914660E+04  0.34088282838E+04  0.24067140798E+04 0.  0.
        1    1    3    3  502    0 -0.95851204278E+03  0.55499915172E+03  0.54074525195E+03  0.12325481013E+04  0.50400001928E-02 0.  1.
       -1    1    3    3    0  502  0.95851204278E+03 -0.55499915172E+03  0.18733462141E+04  0.21762801824E+04  0.50400001928E-02 0. -1.
</event>
<event>
 5   0  0.5371843E-06  0.2417057E+04  0.7818609E-02  0.8433145E-01
        2   -1    0    0  501    0  0.00000000000E+00  0.00000000000E+00  0.17297979536E+04  0.17297979536E+04  0.25500000920E-02 0. -1.
       -2   -1    0    0    0  501  0.00000000000E+00  0.00000000000E+00 -0.84434223575E+03  0.84434223576E+03  0.25500000920E-02 0.  1.
    10030    2    1    2    0    0  0.00000000000E+00  0.00000000000E+00  0.88545571785E+03  0.25741401894E+04  0.24170572782E+04 0.  0.
        4    1    3    3  502    0 -0.83683056216E+03 -0.87124807180E+03  0.40612465051E+03  0.12744792807E+04  0.12699999809E+01 0.  1.
       -4    1    3    3    0  502  0.83683056216E+03  0.87124807180E+03  0.47933106734E+03  0.12996609086E+04  0.12699999809E+01 0. -1.
</event>
<event>
 5   0  0.2254269E-06  0.2385997E+04  0.7818609E-02  0.8444765E-01
       -1   -1    0    0    0  501  0.00000000000E+00  0.00000000000E+00  0.72719337798E+03  0.72719337800E+03  0.50400001928E-02 0.  1.
        1   -1    0    0  501    0  0.00000000000E+00  0.00000000000E+00 -0.19571765437E+04  0.19571765437E+04  0.50400001928E-02 0. -1.
    10030    2    1    2    0    0  0.00000000000E+00  0.00000000000E+00 -0.12299831657E+04  0.26843699217E+04  0.23859973362E+04 0.  0.
        2    1    3    3  502    0  0.11629836949E+04 -0.65983999859E+02 -0.90481162163E+03  0.14749810281E+04  0.25500000920E-02 0. -1.
       -2    1    3    3    0  502 -0.11629836949E+04  0.65983999859E+02 -0.32517154408E+03  0.12093888935E+04  0.25500000920E-02 0.  1.
</event>
<event>
 5   0  0.5440503E-06  0.2400417E+04  0.7818609E-02  0.8439347E-01
        2   -1    0    0  501    0  0.00000000000E+00  0.00000000000E+00  0.19705245624E+04  0.19705245624E+04  0.25500000920E-02 0.  1.
       -2   -1    0    0    0  501  0.00000000000E+00  0.00000000000E+00 -0.73102391016E+03  0.73102391017E+03  0.25500000920E-02 0. -1.
    10030    2    1    2    0    0  0.00000000000E+00  0.00000000000E+00  0.12395006523E+04  0.27015484726E+04  0.24004171060E+04 0.  0.
        3    1    3    3  502    0  0.16740465643E+03 -0.49635983888E+03  0.18350812144E+04  0.19083816396E+04  0.10100000352E+00 0.  1.
       -3    1    3    3    0  502 -0.16740465643E+03  0.49635983888E+03 -0.59558056219E+03  0.79316683296E+03  0.10100000352E+00 0. -1.
</event>
<event>
 5   0  0.5371843E-06  0.2407280E+04  0.7818609E-02  0.8436783E-01
       -2   -1    0    0    0  501  0.00000000000E+00  0.00000000000E+00  0.64731635447E+03  0.64731635448E+03  0.25500000920E-02 0. -1.
        2   -1    0    0  501    0  0.00000000000E+00  0.00000000000E+00 -0.22380857244E+04  0.22380857244E+04  0.25500000920E-02 0.  1.
    10030    2    1    2    0    0  0.00000000000E+00  0.00000000000E+00 -0.15907693699E+04  0.28854020789E+04  0.24072802015E+04 0.  0.
        4    1    3    3  502    0  0.85881839369E+03 -0.32412447197E+03  0.13778319536E+03  0.92823032082E+03  0.12699999809E+01 0. -1.
       -4    1    3    3    0  502 -0.85881839369E+03  0.32412447197E+03 -0.17285525653E+04  0.19571717581E+04  0.12699999809E+01 0.  1.
</event>
<event>
 5   0  0.2149417E-06  0.2394235E+04  0.7818609E-02  0.8441665E-01
       -1   -1    0    0    0  501  0.00000000000E+00  0.00000000000E+00  0.11109281484E+04  0.11109281484E+04  0.50400001928E-02 0. -1.
        1   -1    0    0  501    0  0.00000000000E+00  0.00000000000E+00 -0.12899940388E+04  0.12899940388E+04  0.50400001928E-02 0.  1.
    10030    2    1    2    0    0  0.00000000000E+00  0.00000000000E+00 -0.17906589040E+03  0.24009221872E+04  0.23942353175E+04 0.  0.
        5    1    3    3  502    0 -0.57862583266E+02 -0.10882879613E+04 -0.58624435506E+03  0.12375068885E+04  0.46999998093E+01 0.  1.
       -5    1    3    3    0  502  0.57862583266E+02  0.10882879613E+04  0.40717846465E+03  0.11634152987E+04  0.46999998093E+01 0. -1.
</event>
<event>
 5   0  0.2254269E-06  0.2422596E+04  0.7818609E-02  0.8431092E-01
        1   -1    0    0  501    0  0.00000000000E+00  0.00000000000E+00  0.23592817007E+04  0.23592817007E+04  0.50400001928E-02 0. -1.
       -1   -1    0    0    0  501  0.00000000000E+00  0.00000000000E+00 -0.62190220992E+03  0.62190220994E+03  0.50400001928E-02 0.  1.
    10030    2    1    2    0    0  0.00000000000E+00  0.00000000000E+00  0.17373794908E+04  0.29811839106E+04  0.24225957182E+04 0.  0.
        2    1    3    3  502    0 -0.69225862477E+03  0.97547468166E+03  0.63368664418E+03  0.13536364435E+04  0.25500000920E-02 0.  1.
       -2    1    3    3    0  502  0.69225862477E+03 -0.97547468166E+03  0.11036928466E+04  0.16275474671E+04  0.25500000920E-02 0. -1.
</event>
<event>
 5   0  0.5371843E-06  0.2398304E+04  0.7818609E-02  0.8440139E-01
        2   -1    0    0  501    0  0.00000000000E+00  0.00000000000E+00  0.17024799912E+04  0.17024799912E+04  0.25500000920E-02 0.  1.
       -2   -1    0    0    0  501  0.00000000000E+00  0.00000000000E+00 -0.84462970640E+03  0.84462970640E+03  0.25500000920E-02 0. -1.
    10030    2    1    2    0    0  0.00000000000E+00  0.00000000000E+00  0.85785028477E+03  0.25471096976E+04  0.23983037131E+04 0.  0.
        4    1    3    3  502    0  0.95497136923E+03 -0.67775154483E+03  0.15474827764E+03  0.11812138312E+04  0.12699999809E+01 0. -1.
       -4    1    3    3    0  502 -0.95497136923E+03  0.67775154483E+03  0.70310200713E+03  0.13658958664E+04  0.12699999809E+01 0.  1.
</event>
<event>
 5   0  0.5440503E-06  0.2394282E+04  0.7818609E-02  0.8441647E-01
        2   -1    0    0  501    0  0.00000000000E+00  0.00000000000E+00  0.11128205025E+04  0.11128205025E+04  0.25500000920E-02 0.  1.
       -2   -1    0    0    0  501  0.00000000000E+00  0.00000000000E+00 -0.12878503041E+04  0.12878503041E+04  0.25500000920E-02 0. -1.
    10030    2    1    2    0    0  0.00000000000E+00  0.00000000000E+00 -0.17502980165E+03  0.24006708066E+04  0.23942817066E+04 0.  0.
        3    1    3    3  502    0  0.72210160227E+03 -0.59248584866E+03 -0.83829603326E+03  0.12550738841E+04  0.10100000352E+00 0. -1.
       -3    1    3    3    0  502 -0.72210160227E+03  0.59248584866E+03  0.66326623161E+03  0.11455969226E+04  0.10100000352E+00 0.  1.
</event>
<event>
 5   0  0.1796750E-06  0.2398607E+04  0.7818609E-02  0.8440025E-01
        3   -1    0    0  501    0  0.00000000000E+00  0.00000000000E+00  0.23414421358E+04  0.23414421380E+04  0.10100000352E+00 0.  1.
       -3   -1    0    0    0  501  0.00000000000E+00  0.00000000000E+00 -0.61429212264E+03  0.61429213094E+03  0.10100000352E+00 0. -1.
    10030    2    1    2    0    0  0.00000000000E+00  0.00000000000E+00  0.17271500132E+04  0.29557342689E+04  0.23986074920E+04 0.  0.
        5    1    3    3  502    0  0.10010171901E+04 -0.40307601213E+03  0.15083738801E+04  0.18546480903E+04  0.46999998093E+01 0. -1.
       -5    1    3    3    0  502 -0.10010171901E+04  0.40307601213E+03  0.21877613305E+03  0.11010861787E+04  0.46999998093E+01 0.  1.
</event>
<event>
 5   0  0.5268358E-06  0.2400863E+04  0.7818609E-02  0.8439181E-01
       -2   -1    0    0    0  501  0.00000000000E+00  0.00000000000E+00  0.80987873486E+03  0.80987873487E+03  0.25500000920E-02 0.  1.
        2   -1    0    0  501    0  0.00000000000E+00  0.00000000000E+00 -0.17793228351E+04  0.17793228351E+04  0.25500000920E-02 0. -1.
    10030    2    1    2    0    0  0.00000000000E+00  0.00000000000E+00 -0.96944410021E+03  0.25892015699E+04  0.24008629503E+04 0.  0.
        2    1    3    3  502    0 -0.46700899170E+02  0.11781992501E+04 -0.72755518849E+03  0.13855219230E+04  0.25500000920E-02 0. -1.
       -2    1    3    3    0  502  0.46700899170E+02 -0.11781992501E+04 -0.24188891172E+03  0.12036796469E+04  0.25500000920E-02 0.  1.
</event>
<event>
 5   0  0.5371843E-06  0.2399809E+04  0.7818609E-02  0.8439575E-01
        2   -1    0    0  501    0  0.00000000000E+00  0.00000000000E+00  0.17156327193E+04  0.17156327193E+04  0.25500000920E-02 0. -1.
       -2   -1    0    0    0  501  0.00000000000E+00  0.00000000000E+00 -0.83920666155E+03  0.83920666155E+03  0.25500000920E-02 0.  1.
    10030    2    1    2    0    0  0.00000000000E+00  0.00000000000E+00  0.87642605771E+03  0.25548393808E+04  0.23998086647E+04 0.  0.
        4    1    3    3  502    0  0.32018125157E+03  0.44165910285E+03 -0.69956137923E+03  0.88711134205E+03  0.12699999809E+01 0.  1.
       -4    1    3    3    0  502 -0.32018125157E+03 -0.44165910285E+03  0.15759874369E+04  0.16677280388E+04  0.12699999809E+01 0. -1.
</event>
<event>
 5   0  0.2297414E-06  0.2392296E+04  0.7818609E-02  0.8442393E-01
       -1   -1    0    0    0  501  0.00000000000E+00  0.00000000000E+00  0.61963697311E+03  0.61963697313E+03  0.50400001928E-02 0. -1.
        1   -1    0    0  501    0  0.00000000000E+00  0.00000000000E+00 -0.23090456226E+04  0.23090456226E+04  0.50400001928E-02 0.  1.
    10030    2    1    2    0    0  0.00000000000E+00  0.00000000000E+00 -0.16894086495E+04  0.29286825957E+04  0.23922960021E+04 0.  0.
        1    1    3    3  502    0 -0.17188314364E+03  0.11812585041E+04 -0.75103336761E+03  0.14103072672E+04  0.50400001928E-02 0. -1.
       -1    1    3    3    0  502  0.17188314364E+03 -0.11812585041E+04 -0.93837528190E+03  0.15183753285E+04  0.50400001928E-02 0.  1.
</event>
<event>
 5   0  0.5268358E-06  0.2401394E+04  0.7818609E-02  0.8438982E-01
        2   -1    0    0  501    0  0.00000000000E+00  0.00000000000E+00  0.11397377625E+04  0.11397377625E+04  0.25500000920E-02 0. -1.
       -2   -1    0    0    0  501  0.00000000000E+00  0.00000000000E+00 -0.12649165812E+04  0.12649165812E+04  0.25500000920E-02 0.  1.
    10030    2    1    2    0    0  0.00000000000E+00  0.00000000000E+00 -0.12517881871E+03  0.24046543437E+04  0.24013939235E+04 0.  0.
        2    1    3    3  502    0 -0.41289470632E+03 -0.51027236430E+03 -0.10693465476E+04  0.12547358141E+04  0.25500000920E-02 0.  1.
       -2    1    3    3    0  502  0.41289470632E+03  0.51027236430E+03  0.94416772893E+03  0.11499185296E+04  0.25500000920E-02 0. -1.
</event>
<event>
 5   0  0.2149417E-06  0.2390749E+04  0.7818609E-02  0.8442975E-01
        1   -1    0    0  501    0  0.00000000000E+00  0.00000000000E+00  0.13433560610E+04  0.13433560610E+04  0.50400001928E-02 0. -1.
       -1   -1    0    0    0  501  0.00000000000E+00  0.00000000000E+00 -0.10636943820E+04  0.10636943820E+04  0.50400001928E-02 0.  1.
    10030    2    1    2    0    0  0.00000000000E+00  0.00000000000E+00  0.27966167900E+03  0.24070504430E+04  0.23907490836E+04 0.  0.
        5    1    3    3  502    0 -0.11615705143E+04  0.28091337537E+03  0.11244572908E+03  0.12003434993E+04  0.46999998093E+01 0.  1.
       -5    1    3    3    0  502  0.11615705143E+04 -0.28091337537E+03  0.16721594992E+03  0.12067069438E+04  0.46999998093E+01 0. -1.
</event>
<event>
 5   0  0.2215700E-06  0.2409476E+04  0.7818609E-02  0.8435964E-01
       -1   -1    0    0    0  501  0.00000000000E+00  0.00000000000E+00  0.67794203298E+03  0.67794203300E+03  0.50400001928E-02 0. -1.
        1   -1    0    0  501    0  0.00000000000E+00  0.00000000000E+00 -0.21408812963E+04  0.21408812963E+04  0.50400001928E-02 0.  1.
    10030    2    1    2    0    0  0.00000000000E+00  0.00000000000E+00 -0.14629392634E+04  0.28188233293E+04  0.24094758089E+04 0.  0.
        3    1    3    3  502    0 -0.26930051083E+03  0.11740797078E+04 -0.75508528294E+03  0.14216679360E+04  0.10100000352E+00 0. -1.
       -3    1    3    3    0  502  0.26930051083E+03 -0.11740797078E+04 -0.70785398041E+03  0.13971553934E+04  0.10100000352E+00 0.  1.
</event>
<event>
 5   0  0.1796750E-06  0.2403669E+04  0.7818609E-02  0.8438131E-01
       -4   -1    0    0    0  501  0.00000000000E+00  0.00000000000E+00  0.10263471806E+04  0.10263479664E+04  0.12699999809E+01 0. -1.
        4   -1    0    0  501    0  0.00000000000E+00  0.00000000000E+00 -0.14073250454E+04  0.14073256184E+04  0.12699999809E+01 0.  1.
    10030    2    1    2    0    0  0.00000000000E+00  0.00000000000E+00 -0.38097786477E+03  0.24336735848E+04  0.24036686510E+04 0.  0.
        4    1    3    3  502    0 -0.39365223421E+03 -0.10835796211E+04 -0.53428207937E+03  0.12706556693E+04  0.12699999809E+01 0. -1.
       -4    1    3    3    0  502  0.39365223421E+03  0.10835796211E+04  0.15330421460E+03  0.11630179155E+04  0.12699999809E+01 0.  1.
</event>
<event>
 5   0  0.2149417E-06  0.2405740E+04  0.7818609E-02  0.8437358E-01
        1   -1    0    0  501    0  0.00000000000E+00  0.00000000000E+00  0.26101277358E+04  0.26101277358E+04  0.50400001928E-02 0.  1.
       -1   -1    0    0    0  501  0.00000000000E+00  0.00000000000E+00 -0.55433917112E+03  0.55433917114E+03  0.50400001928E-02 0. -1.
    10030    2    1    2    0    0  0.00000000000E+00  0.00000000000E+00  0.20557885647E+04  0.31644669069E+04  0.24057398410E+04 0.  0.
        5    1    3    3  502    0  0.17989234149E+03  0.14942466307E+03  0.25799251996E+04  0.25905067284E+04  0.46999998093E+01 0.  1.
       -5    1    3    3    0  502 -0.17989234149E+03 -0.14942466307E+03 -0.52413663493E+03  0.57396017852E+03  0.46999998093E+01 0. -1.
</event>
<event>
 5   0  0.5440503E-06  0.2394776E+04  0.7818609E-02  0.8441462E-01
        2   -1    0    0  501    0  0.00000000000E+00  0.00000000000E+00  0.13076639110E+04  0.13076639111E+04  0.25500000920E-02 0.  1.
       -2   -1    0    0    0  501  0.00000000000E+00  0.00000000000E+00 -0.10964119934E+04  0.10964119934E+04  0.25500000920E-02 0. -1.
    10030    2    1    2    0    0  0.00000000000E+00  0.00000000000E+00  0.21125191768E+03  0.24040759044E+04  0.23947763114E+04 0.  0.
        3    1    3    3  502    0  0.47572292619E+03  0.36803862986E+03 -0.93375624611E+03  0.11107049441E+04  0.10100000352E+00 0. -1.
       -3    1    3    3    0  502 -0.47572292619E+03 -0.36803862986E+03  0.11450081638E+04  0.12933709603E+04  0.10100000352E+00 0.  1.
</event>
<event>
 5   0  0.2297414E-06  0.2399124E+04  0.7818609E-02  0.8439832E-01
       -1   -1    0    0    0  501  0.00000000000E+00  0.00000000000E+00  0.64530251870E+03  0.64530251872E+03  0.50400001928E-02 0. -1.
        1   -1    0    0  501    0  0.00000000000E+00  0.00000000000E+00 -0.22298827439E+04  0.22298827439E+04  0.50400001928E-02 0.  1.
    10030    2    1    2    0    0  0.00000000000E+00  0.00000000000E+00 -0.15845802252E+04  0.28751852627E+04  0.23991239660E+04 0.  0.
        1    1    3    3  502    0  0.86900373958E+03  0.48895676868E+03  0.68962093663E+01  0.99714280761E+03  0.50400001928E-02 0. -1.
       -1    1    3    3    0  502 -0.86900373958E+03 -0.48895676868E+03 -0.15914764346E+04  0.18780424550E+04  0.50400001928E-02 0.  1.
</event>
<event>
 5   0  0.2149417E-06  0.2359935E+04  0.7818609E-02  0.8454657E-01
       -1   -1    0    0    0  501  0.00000000000E+00  0.00000000000E+00  0.15205652420E+04  0.15205652420E+04  0.50400001928E-02 0. -1.
        1   -1    0    0  501    0  0.00000000000E+00  0.00000000000E+00 -0.91566168949E+03  0.91566168951E+03  0.50400001928E-02 0.  1.
    10030    2    1    2    0    0  0.00000000000E+00  0.00000000000E+00  0.60490355249E+03  0.24362269315E+04  0.23599350317E+04 0.  0.
        5    1    3    3  502    0 -0.61702039685E+03  0.95784761856E+03 -0.14247563117E+02  0.11394785270E+04  0.46999998093E+01 0. -1.
       -5    1    3    3    0  502  0.61702039685E+03 -0.95784761856E+03  0.61915111561E+03  0.12967484045E+04  0.46999998093E+01 0.  1.
</event>
<event>
 5   0  0.5440503E-06  0.2413017E+04  0.7818609E-02  0.8434646E-01
        2   -1    0    0  501    0  0.00000000000E+00  0.00000000000E+00  0.14266295859E+04  0.14266295859E+04  0.25500000920E-02 0.  1.
       -2   -1    0    0    0  501  0.00000000000E+00  0.00000000000E+00 -0.10203511950E+04  0.10203511950E+04  0.25500000920E-02 0. -1.
    10030    2    1    2    0    0  0.00000000000E+00  0.00000000000E+00  0.40627839091E+03  0.24469807809E+04  0.24130173665E+04 0.  0.
        3    1    3    3  502    0  0.27258062622E+03 -0.11417207554E+04 -0.79779958420E+02  0.11765166098E+04  0.10100000352E+00 0. -1.
       -3    1    3    3    0  502 -0.27258062622E+03  0.11417207554E+04  0.48605834933E+03  0.12704641712E+04  0.10100000352E+00 0.  1.
</event>
<event>
 5   0  0.5379778E-06  0.2409416E+04  0.7818609E-02  0.8435987E-01
        2   -1    0    0  501    0  0.00000000000E+00  0.00000000000E+00  0.21813901621E+04  0.21813901621E+04  0.25500000920E-02 0. -1.
       -2   -1    0    0    0  501  0.00000000000E+00  0.00000000000E+00 -0.66531945642E+03  0.66531945643E+03  0.25500000920E-02 0.  1.
    10030    2    1    2    0    0  0.00000000000E+00  0.00000000000E+00  0.15160707057E+04  0.28467096185E+04  0.24094159599E+04 0.  0.
        5    1    3    3  502    0  0.59599232816E+03  0.89720127534E+03  0.12055165893E+03  0.10838504399E+04  0.46999998093E+01 0.  1.
       -5    1    3    3    0  502 -0.59599232816E+03 -0.89720127534E+03  0.13955190468E+04  0.17628591786E+04  0.46999998093E+01 0. -1.
</event>
<event>
 5   0  0.5379778E-06  0.2397184E+04  0.7818609E-02  0.8440559E-01
       -2   -1    0    0    0  501  0.00000000000E+00  0.00000000000E+00  0.80162591738E+03  0.80162591738E+03  0.25500000920E-02 0.  1.
        2   -1    0    0  501    0  0.00000000000E+00  0.00000000000E+00 -0.17921355953E+04  0.17921355953E+04  0.25500000920E-02 0. -1.
    10030    2    1    2    0    0  0.00000000000E+00  0.00000000000E+00 -0.99050967788E+03  0.25937615126E+04  0.23971836314E+04 0.  0.
        5    1    3    3  502    0 -0.24007681349E+03  0.48464673909E+03 -0.16525845651E+04  0.17388436310E+04  0.46999998093E+01 0. -1.
       -5    1    3    3    0  502  0.24007681349E+03 -0.48464673909E+03  0.66207488724E+03  0.85491788167E+03  0.46999998093E+01 0.  1.
</event>
<event>
 5   0  0.2149029E-06  0.2398276E+04  0.7818609E-02  0.8440149E-01
        1   -1    0    0  501    0  0.00000000000E+00  0.00000000000E+00  0.19969810672E+04  0.19969810672E+04  0.50400001928E-02 0. -1.
       -1   -1    0    0    0  501  0.00000000000E+00  0.00000000000E+00 -0.72005314428E+03  0.72005314429E+03  0.50400001928E-02 0.  1.
    10030    2    1    2    0    0  0.00000000000E+00  0.00000000000E+00  0.12769279229E+04  0.27170342115E+04  0.23982764616E+04 0.  0.
        4    1    3    3  502    0  0.11844420282E+04  0.35117972493E+02  0.84673079679E+03  0.14563965275E+04  0.12699999809E+01 0. -1.
       -4    1    3    3    0  502 -0.11844420282E+04 -0.35117972493E+02  0.43019712615E+03  0.12606376840E+04  0.12699999809E+01 0.  1.
</event>
<event>
 5   0  0.1796750E-06  0.2419327E+04  0.7818609E-02  0.8432303E-01
        3   -1    0    0  501    0  0.00000000000E+00  0.00000000000E+00  0.12030446127E+04  0.12030446169E+04  0.10100000352E+00 0.  1.
       -3   -1    0    0    0  501  0.00000000000E+00  0.00000000000E+00 -0.12163184720E+04  0.12163184762E+04  0.10100000352E+00 0. -1.
    10030    2    1    2    0    0  0.00000000000E+00  0.00000000000E+00 -0.13273859372E+02  0.24193630931E+04  0.24193266793E+04 0.  0.
        1    1    3    3  502    0 -0.53749965391E+03 -0.85258476419E+02  0.10737082201E+04  0.12037542223E+04  0.50400001928E-02 0.  1.
       -1    1    3    3    0  502  0.53749965391E+03  0.85258476419E+02 -0.10869820795E+04  0.12156088708E+04  0.50400001928E-02 0. -1.
</event>
<event>
 5   0  0.2149029E-06  0.2395144E+04  0.7818609E-02  0.8441324E-01
       -1   -1    0    0    0  501  0.00000000000E+00  0.00000000000E+00  0.14665539826E+04  0.14665539826E+04  0.50400001928E-02 0.  1.
        1   -1    0    0  501    0  0.00000000000E+00  0.00000000000E+00 -0.97792424766E+03  0.97792424768E+03  0.50400001928E-02 0. -1.
    10030    2    1    2    0    0  0.00000000000E+00  0.00000000000E+00  0.48862973493E+03  0.24444782303E+04  0.23951440041E+04 0.  0.
        4    1    3    3  502    0 -0.36788863287E+03 -0.11301415317E+04  0.39436409552E+03  0.12522326383E+04  0.12699999809E+01 0.  1.
       -4    1    3    3    0  502  0.36788863287E+03  0.11301415317E+04  0.94265639403E+02  0.11922455919E+04  0.12699999809E+01 0. -1.
</event>
<event>
 5   0  0.2215700E-06  0.2396918E+04  0.7818609E-02  0.8440658E-01
        1   -1    0    0  501    0  0.00000000000E+00  0.00000000000E+00  0.15561433550E+04  0.15561433550E+04  0.50400001928E-02 0.  1.
       -1   -1    0    0    0  501  0.00000000000E+00  0.00000000000E+00 -0.92298945795E+03  0.92298945797E+03  0.50400001928E-02 0. -1.
    10030    2    1    2    0    0  0.00000000000E+00  0.00000000000E+00  0.63315389707E+03  0.24791328130E+04  0.23969179475E+04 0.  0.
        3    1    3    3  502    0 -0.24511820977E+03  0.28671435414E+03 -0.85998940112E+03  0.93907925005E+03  0.10100000352E+00 0. -1.
       -3    1    3    3    0  502  0.24511820977E+03 -0.28671435414E+03  0.14931432982E+04  0.15400535630E+04  0.10100000352E+00 0.  1.
</event>
<event>
 5   0  0.2297414E-06  0.2399508E+04  0.7818609E-02  0.8439688E-01
       -1   -1    0    0    0  501  0.00000000000E+00  0.00000000000E+00  0.85812998572E+03  0.85812998574E+03  0.50400001928E-02 0.  1.
        1   -1    0    0  501    0  0.00000000000E+00  0.00000000000E+00 -0.16773794174E+04  0.16773794174E+04  0.50400001928E-02 0. -1.
    10030    2    1    2    0    0  0.00000000000E+00  0.00000000000E+00 -0.81924943172E+03  0.25355094032E+04  0.23995079292E+04 0.  0.
        1    1    3    3  502    0 -0.14383808724E+03  0.48439009578E+03 -0.15594576278E+04  0.16392776620E+04  0.50400001928E-02 0. -1.
       -1    1    3    3    0  502  0.14383808724E+03 -0.48439009578E+03  0.74020819611E+03  0.89623174115E+03  0.50400001928E-02 0.  1.
</event>
<event>
 5   0  0.5379778E-06  0.2378868E+04  0.7818609E-02  0.8447458E-01
       -2   -1    0    0    0  501  0.00000000000E+00  0.00000000000E+00  0.92470279763E+03  0.92470279763E+03  0.25500000920E-02 0. -1.
        2   -1    0    0  501    0  0.00000000000E+00  0.00000000000E+00 -0.15299541700E+04  0.15299541700E+04  0.25500000920E-02 0.  1.
    10030    2    1    2    0    0  0.00000000000E+00  0.00000000000E+00 -0.60525137234E+03  0.24546569676E+04  0.23788677149E+04 0.  0.
        5    1    3    3  502    0 -0.10213149455E+04 -0.60546017115E+03 -0.22919256263E+03  0.12092218810E+04  0.46999998093E+01 0. -1.
       -5    1    3    3    0  502  0.10213149455E+04  0.60546017115E+03 -0.37605880971E+03  0.12454350866E+04  0.46999998093E+01 0.  1.
</event>
<event>
 5   0  0.5379778E-06  0.2395186E+04  0.7818609E-02  0.8441308E-01
       -2   -1    0    0    0  501  0.00000000000E+00  0.00000000000E+00  0.10762286626E+04  0.10762286626E+04  0.25500000920E-02 0. -1.
        2   -1    0    0  501    0  0.00000000000E+00  0.00000000000E+00 -0.13326429959E+04  0.13326429959E+04  0.25500000920E-02 0.  1.
    10030    2    1    2    0    0  0.00000000000E+00  0.00000000000E+00 -0.25641433324E+03  0.24088716585E+04  0.23951856623E+04 0.  0.
        5    1    3    3  502    0 -0.81803665210E+03  0.66565208680E+03  0.44242347915E+03  0.11436945789E+04  0.46999998093E+01 0. -1.
       -5    1    3    3    0  502  0.81803665210E+03 -0.66565208680E+03 -0.69883781239E+03  0.12651770796E+04  0.46999998093E+01 0.  1.
</event>
<event>
 5   0  0.1796750E-06  0.2404078E+04  0.7818609E-02  0.8437978E-01
       -4   -1    0    0    0  501  0.00000000000E+00  0.00000000000E+00  0.13306358119E+04  0.13306364180E+04  0.12699999809E+01 0.  1.
        4   -1    0    0  501    0  0.00000000000E+00  0.00000000000E+00 -0.10858691741E+04  0.10858699168E+04  0.12699999809E+01 0. -1.
    10030    2    1    2    0    0  0.00000000000E+00  0.00000000000E+00  0.24476663778E+03  0.24165063348E+04  0.24040782348E+04 0.  0.
        3    1    3    3  502    0 -0.10668184421E+04 -0.55389201447E+03  0.12266311743E+03  0.12082815080E+04  0.10100000352E+00 0.  1.
       -3    1    3    3    0  502  0.10668184421E+04  0.55389201447E+03  0.12210352035E+03  0.12082248267E+04  0.10100000352E+00 0. -1.
</event>
<event>
 5   0  0.2297414E-06  0.2387977E+04  0.7818609E-02  0.8444018E-01
       -1   -1    0    0    0  501  0.00000000000E+00  0.00000000000E+00  0.90242181226E+03  0.90242181228E+03  0.50400001928E-02 0. -1.
        1   -1    0    0  501    0  0.00000000000E+00  0.00000000000E+00 -0.15797586493E+04  0.15797586493E+04  0.50400001928E-02 0.  1.
    10030    2    1    2    0    0  0.00000000000E+00  0.00000000000E+00 -0.67733683700E+03  0.24821804615E+04  0.23879771048E+04 0.  0.
        1    1    3    3  502    0  0.11166569482E+04 -0.23385730860E+03 -0.70469129268E+03  0.13409704690E+04  0.50400001928E-02 0.  1.
       -1    1    3    3    0  502 -0.11166569482E+04  0.23385730860E+03  0.27354455681E+02  0.11412099925E+04  0.50400001928E-02 0. -1.
</event>
<event>
 5   0  0.5349036E-06  0.2398541E+04  0.7818609E-02  0.8440050E-01
       -2   -1    0    0    0  501  0.00000000000E+00  0.00000000000E+00  0.74802588936E+03  0.74802588936E+03  0.25500000920E-02 0.  1.
        2   -1    0    0  501    0  0.00000000000E+00  0.00000000000E+00 -0.19227270687E+04  0.19227270687E+04  0.25500000920E-02 0. -1.
    10030    2    1    2    0    0  0.00000000000E+00  0.00000000000E+00 -0.11747011794E+04  0.26707529581E+04  0.23985409111E+04 0.  0.
        1    1    3    3  502    0 -0.70220713248E+03  0.51899568365E+03  0.32801613024E+03  0.93276254121E+03  0.50400001928E-02 0.  1.
       -1    1    3    3    0  502  0.70220713248E+03 -0.51899568365E+03 -0.15027173096E+04  0.17379904169E+04  0.50400001928E-02 0. -1.
</event>
<event>
 5   0  0.5349036E-06  0.2395389E+04  0.7818609E-02  0.8441232E-01
       -2   -1    0    0    0  501  0.00000000000E+00  0.00000000000E+00  0.64935821698E+03  0.64935821698E+03  0.25500000920E-02 0. -1.
        2   -1    0    0  501    0  0.00000000000E+00  0.00000000000E+00 -0.22090617051E+04  0.22090617051E+04  0.25500000920E-02 0.  1.
    10030    2    1    2    0    0  0.00000000000E+00  0.00000000000E+00 -0.15597034882E+04  0.28584199221E+04  0.23953892127E+04 0.  0.
        1    1    3    3  502    0 -0.10348250906E+04  0.30527881371E+03 -0.14003845205E+04  0.17678051158E+04  0.50400001928E-02 0.  1.
       -1    1    3    3    0  502  0.10348250906E+04 -0.30527881371E+03 -0.15931896763E+03  0.10906148063E+04  0.50400001928E-02 0. -1.
</event>
<event>
 5   0  0.2215700E-06  0.2397234E+04  0.7818609E-02  0.8440540E-01
       -1   -1    0    0    0  501  0.00000000000E+00  0.00000000000E+00  0.63101799964E+03  0.63101799966E+03  0.50400001928E-02 0. -1.
        1   -1    0    0  501    0  0.00000000000E+00  0.00000000000E+00 -0.22767706069E+04  0.22767706069E+04  0.50400001928E-02 0.  1.
    10030    2    1    2    0    0  0.00000000000E+00  0.00000000000E+00 -0.16457526072E+04  0.29077886065E+04  0.23972344349E+04 0.  0.
        3    1    3    3  502    0 -0.82784228008E+03  0.68801615402E+03 -0.14624199009E+04  0.18158637189E+04  0.10100000352E+00 0.  1.
       -3    1    3    3    0  502  0.82784228008E+03 -0.68801615402E+03 -0.18333270637E+03  0.10919248877E+04  0.10100000352E+00 0. -1.
</event>
<event>
 5   0  0.5371843E-06  0.2400775E+04  0.7818609E-02  0.8439213E-01
       -2   -1    0    0    0  501  0.00000000000E+00  0.00000000000E+00  0.79468303747E+03  0.79468303747E+03  0.25500000920E-02 0. -1.
        2   -1    0    0  501    0  0.00000000000E+00  0.00000000000E+00 -0.18132140408E+04  0.18132140408E+04  0.25500000920E-02 0.  1.
    10030    2    1    2    0    0  0.00000000000E+00  0.00000000000E+00 -0.10185310033E+04  0.26078970782E+04  0.24007752427E+04 0.  0.
        4    1    3    3  502    0  0.11410170659E+04  0.22775342016E+03 -0.82992263245E+03  0.14291832471E+04  0.12699999809E+01 0.  1.
       -4    1    3    3    0  502 -0.11410170659E+04 -0.22775342016E+03 -0.18860837084E+03  0.11787138311E+04  0.12699999809E+01 0. -1.
</event>
<event>
 5   0  0.2254269E-06  0.2404149E+04  0.7818609E-02  0.8437952E-01
       -1   -1    0    0    0  501  0.00000000000E+00  0.00000000000E+00  0.23289265591E+04  0.23289265591E+04  0.50400001928E-02 0. -1.
        1   -1    0    0  501    0  0.00000000000E+00  0.00000000000E+00 -0.62045036439E+03  0.62045036441E+03  0.50400001928E-02 0.  1.
    10030    2    1    2    0    0  0.00000000000E+00  0.00000000000E+00  0.17084761947E+04  0.29493769235E+04  0.24041491903E+04 0.  0.
        2    1    3    3  502    0  0.77265037029E+03 -0.65773692302E+03  0.63577634776E+02  0.10166850890E+04  0.25500000920E-02 0.  1.
       -2    1    3    3    0  502 -0.77265037029E+03  0.65773692302E+03  0.16448985599E+04  0.19326918345E+04  0.25500000920E-02 0. -1.
</event>
<event>
 5   0  0.5268358E-06  0.2401151E+04  0.7818609E-02  0.8439073E-01
       -2   -1    0    0    0  501  0.00000000000E+00  0.00000000000E+00  0.12061956830E+04  0.12061956830E+04  0.25500000920E-02 0. -1.
        2   -1    0    0  501    0  0.00000000000E+00  0.00000000000E+00 -0.11949812464E+04  0.11949812464E+04  0.25500000920E-02 0.  1.
    10030    2    1    2    0    0  0.00000000000E+00  0.00000000000E+00  0.11214436590E+02  0.24011769294E+04  0.24011507413E+04 0.  0.
        2    1    3    3  502    0 -0.87323406393E+03 -0.55061940922E+03 -0.60731198579E+03  0.11977258920E+04  0.25500000920E-02 0.  1.
       -2    1    3    3    0  502  0.87323406393E+03  0.55061940922E+03  0.61852642238E+03  0.12034510374E+04  0.25500000920E-02 0. -1.
</event>
<event>
 5   0  0.2215700E-06  0.2395907E+04  0.7818609E-02  0.8441037E-01
       -1   -1    0    0    0  501  0.00000000000E+00  0.00000000000E+00  0.84825968844E+03  0.84825968845E+03  0.50400001928E-02 0. -1.
        1   -1    0    0  501    0  0.00000000000E+00  0.00000000000E+00 -0.16918085174E+04  0.16918085174E+04  0.50400001928E-02 0.  1.
    10030    2    1    2    0    0  0.00000000000E+00  0.00000000000E+00 -0.84354882895E+03  0.25400682058E+04  0.23959073153E+04 0.  0.
        3    1    3    3  502    0 -0.52832462803E+03  0.10044233152E+04 -0.82838761650E+03  0.14050690951E+04  0.10100000352E+00 0.  1.
       -3    1    3    3    0  502  0.52832462803E+03 -0.10044233152E+04 -0.15161212447E+02  0.11349991107E+04  0.10100000352E+00 0. -1.
</event>
<event>
 5   0  0.5268358E-06  0.2417367E+04  0.7818609E-02  0.8433030E-01
       -2   -1    0    0    0  501  0.00000000000E+00  0.00000000000E+00  0.12840899360E+04  0.12840899360E+04  0.25500000920E-02 0.  1.
        2   -1    0    0  501    0  0.00000000000E+00  0.00000000000E+00 -0.11377051677E+04  0.11377051677E+04  0.25500000920E-02 0. -1.
    10030    2    1    2    0    0  0.00000000000E+00  0.00000000000E+00  0.14638476833E+03  0.24217951038E+04  0.24173669610E+04 0.  0.
        2    1    3    3  502    0 -0.42642631517E+03 -0.79830946922E+03 -0.72938578838E+03  0.11623859253E+04  0.25500000920E-02 0. -1.
       -2    1    3    3    0  502  0.42642631517E+03  0.79830946922E+03  0.87577055671E+03  0.12594091785E+04  0.25500000920E-02 0.  1.
</event>
<event>
 5   0  0.5379778E-06  0.2409656E+04  0.7818609E-02  0.8435897E-01
       -2   -1    0    0    0  501  0.00000000000E+00  0.00000000000E+00  0.17974775533E+04  0.17974775533E+04  0.25500000920E-02 0.  1.
        2   -1    0    0  501    0  0.00000000000E+00  0.00000000000E+00 -0.80758225033E+03  0.80758225033E+03  0.25500000920E-02 0. -1.
    10030    2    1    2    0    0  0.00000000000E+00  0.00000000000E+00  0.98989530292E+03  0.26050598036E+04  0.24096563800E+04 0.  0.
        5    1    3    3  502    0  0.76808057722E+03 -0.29488364815E+03  0.14464833402E+04  0.16641034471E+04  0.46999998093E+01 0.  1.
       -5    1    3    3    0  502 -0.76808057722E+03  0.29488364815E+03 -0.45658803730E+03  0.94095635651E+03  0.46999998093E+01 0. -1.
</event>
<event>
 5   0  0.5379778E-06  0.2400768E+04  0.7818609E-02  0.8439216E-01
       -2   -1    0    0    0  501  0.00000000000E+00  0.00000000000E+00  0.12255485654E+04  0.12255485654E+04  0.25500000920E-02 0. -1.
        2   -1    0    0  501    0  0.00000000000E+00  0.00000000000E+00 -0.11757365655E+04  0.11757365655E+04  0.25500000920E-02 0.  1.
    10030    2    1    2    0    0  0.00000000000E+00  0.00000000000E+00  0.49811999917E+02  0.24012851309E+04  0.24007684280E+04 0.  0.
        5    1    3    3  502    0 -0.11014917491E+04 -0.44640722473E+03 -0.14346527544E+03  0.11971498899E+04  0.46999998093E+01 0. -1.
       -5    1    3    3    0  502  0.11014917491E+04  0.44640722473E+03  0.19327727536E+03  0.12041352410E+04  0.46999998093E+01 0.  1.
</event>
<event>
 5   0  0.2254269E-06  0.2402707E+04  0.7818609E-02  0.8438491E-01
        1   -1    0    0  501    0  0.00000000000E+00  0.00000000000E+00  0.18653509134E+04  0.18653509134E+04  0.50400001928E-02 0. -1.
       -1   -1    0    0    0  501  0.00000000000E+00  0.00000000000E+00 -0.77371501022E+03  0.77371501024E+03  0.50400001928E-02 0.  1.
    10030    2    1    2    0    0  0.00000000000E+00  0.00000000000E+00  0.10916359031E+04  0.26390659236E+04  0.24027068078E+04 0.  0.
        2    1    3    3  502    0 -0.10799576030E+04  0.50801927107E+03  0.39498464850E+03  0.12571415499E+04  0.25500000920E-02 0.  1.
       -2    1    3    3    0  502  0.10799576030E+04 -0.50801927107E+03  0.69665125463E+03  0.13819243737E+04  0.25500000920E-02 0. -1.
</event>
<event>
 5   0  0.2215700E-06  0.2405155E+04  0.7818609E-02  0.8437576E-01
       -1   -1    0    0    0  501  0.00000000000E+00  0.00000000000E+00  0.11113872456E+04  0.11113872456E+04  0.50400001928E-02 0.  1.
        1   -1    0    0  501    0  0.00000000000E+00  0.00000000000E+00 -0.13012501876E+04  0.13012501876E+04  0.50400001928E-02 0. -1.
    10030    2    1    2    0    0  0.00000000000E+00  0.00000000000E+00 -0.18986294199E+03  0.24126374332E+04  0.24051551816E+04 0.  0.
        3    1    3    3  502    0 -0.11772983240E+04  0.22543114845E+03  0.20248190161E+01  0.11986887237E+04  0.10100000352E+00 0.  1.
       -3    1    3    3    0  502  0.11772983240E+04 -0.22543114845E+03 -0.19188776100E+03  0.12139487095E+04  0.10100000352E+00 0. -1.
</event>
<event>
 5   0  0.2215700E-06  0.2397776E+04  0.7818609E-02  0.8440337E-01
        1   -1    0    0  501    0  0.00000000000E+00  0.00000000000E+00  0.16143574753E+04  0.16143574753E+04  0.50400001928E-02 0. -1.
       -1   -1    0    0    0  501  0.00000000000E+00  0.00000000000E+00 -0.89034354626E+03  0.89034354628E+03  0.50400001928E-02 0.  1.
    10030    2    1    2    0    0  0.00000000000E+00  0.00000000000E+00  0.72401392901E+03  0.25047010216E+04  0.23977762694E+04 0.  0.
        3    1    3    3  502    0 -0.92111037059E+03 -0.69977282942E+03  0.32990881436E+02  0.11572444582E+04  0.10100000352E+00 0.  1.
       -3    1    3    3    0  502  0.92111037059E+03  0.69977282942E+03  0.69102304757E+03  0.13474565633E+04  0.10100000352E+00 0. -1.
</event>
<event>
 5   0  0.2149417E-06  0.2397078E+04  0.7818609E-02  0.8440598E-01
       -1   -1    0    0    0  501  0.00000000000E+00  0.00000000000E+00  0.95178791950E+03  0.95178791952E+03  0.50400001928E-02 0.  1.
        1   -1    0    0  501    0  0.00000000000E+00  0.00000000000E+00 -0.15092598757E+04  0.15092598757E+04  0.50400001928E-02 0. -1.
    10030    2    1    2    0    0  0.00000000000E+00  0.00000000000E+00 -0.55747195619E+03  0.24610477952E+04  0.23970776517E+04 0.  0.
        5    1    3    3  502    0  0.10739949611E+04 -0.51530483062E+03 -0.14303850913E+03  0.11997859600E+04  0.46999998093E+01 0.  1.
       -5    1    3    3    0  502 -0.10739949611E+04  0.51530483062E+03 -0.41443344706E+03  0.12612618352E+04  0.46999998093E+01 0. -1.
</event>
<event>
 5   0  0.5349036E-06  0.2400797E+04  0.7818609E-02  0.8439205E-01
        2   -1    0    0  501    0  0.00000000000E+00  0.00000000000E+00  0.19066665721E+04  0.19066665721E+04  0.25500000920E-02 0.  1.
       -2   -1    0    0    0  501  0.00000000000E+00  0.00000000000E+00 -0.75574654708E+03  0.75574654709E+03  0.25500000920E-02 0. -1.
    10030    2    1    2    0    0  0.00000000000E+00  0.00000000000E+00  0.11509200250E+04  0.26624131192E+04  0.24007970996E+04 0.  0.
        1    1    3    3  502    0 -0.10967203710E+04  0.42684759741E+03  0.31311820219E+03  0.12178002513E+04  0.50400001928E-02 0. -1.
       -1    1    3    3    0  502  0.10967203710E+04 -0.42684759741E+03  0.83780182285E+03  0.14446128679E+04  0.50400001928E-02 0.  1.
</event>
<event>
 5   0  0.2149417E-06  0.2411927E+04  0.7818609E-02  0.8435052E-01
        1   -1    0    0  501    0  0.00000000000E+00  0.00000000000E+00  0.14236902914E+04  0.14236902914E+04  0.50400001928E-02 0.  1.
       -1   -1    0    0    0  501  0.00000000000E+00  0.00000000000E+00 -0.10215340428E+04  0.10215340428E+04  0.50400001928E-02 0. -1.
    10030    2    1    2    0    0  0.00000000000E+00  0.00000000000E+00  0.40215624867E+03  0.24452243342E+04  0.24119271125E+04 0.  0.
        5    1    3    3  502    0  0.40461695789E+03  0.75242403780E+03  0.10639861159E+04  0.13645311870E+04  0.46999998093E+01 0.  1.
       -5    1    3    3    0  502 -0.40461695789E+03 -0.75242403780E+03 -0.66182986728E+03  0.10806931472E+04  0.46999998093E+01 0. -1.
</event>
<event>
 5   0  0.5349036E-06  0.2398673E+04  0.7818609E-02  0.8440001E-01
       -2   -1    0    0    0  501  0.00000000000E+00  0.00000000000E+00  0.14946407794E+04  0.14946407794E+04  0.25500000920E-02 0. -1.
        2   -1    0    0  501    0  0.00000000000E+00  0.00000000000E+00 -0.96237711514E+03  0.96237711515E+03  0.25500000920E-02 0.  1.
    10030    2    1    2    0    0  0.00000000000E+00  0.00000000000E+00  0.53226366426E+03  0.24570178946E+04  0.23986730344E+04 0.  0.
        1    1    3    3  502    0  0.29606593043E+03  0.65384122314E+03  0.12503597472E+04  0.14417221915E+04  0.50400001928E-02 0. -1.
       -1    1    3    3    0  502 -0.29606593043E+03 -0.65384122314E+03 -0.71809608290E+03  0.10152957030E+04  0.50400001928E-02 0.  1.
</event>
<event>
 5   0  0.5440503E-06  0.2401861E+04  0.7818609E-02  0.8438807E-01
        2   -1    0    0  501    0  0.00000000000E+00  0.00000000000E+00  0.13489427148E+04  0.13489427148E+04  0.25500000920E-02 0. -1.
       -2   -1    0    0    0  501  0.00000000000E+00  0.00000000000E+00 -0.10691590080E+04  0.10691590081E+04  0.25500000920E-02 0.  1.
    10030    2    1    2    0    0  0.00000000000E+00  0.00000000000E+00  0.27978370674E+03  0.24181017228E+04  0.24018611574E+04 0.  0.
        3    1    3    3  502    0  0.14885767520E+03  0.11076506196E+04 -0.30260909190E+03  0.11578517934E+04  0.10100000352E+00 0.  1.
       -3    1    3    3    0  502 -0.14885767520E+03 -0.11076506196E+04  0.58239279864E+03  0.12602499295E+04  0.10100000352E+00 0. -1.
</event>
<event>
 5   0  0.5268358E-06  0.2398557E+04  0.7818609E-02  0.8440044E-01
        2   -1    0    0  501    0  0.00000000000E+00  0.00000000000E+00  0.11279639830E+04  0.11279639830E+04  0.25500000920E-02 0. -1.
       -2   -1    0    0    0  501  0.00000000000E+00  0.00000000000E+00 -0.12751019145E+04  0.12751019145E+04  0.25500000920E-02 0.  1.
    10030    2    1    2    0    0  0.00000000000E+00  0.00000000000E+00 -0.14713793157E+03  0.24030658975E+04  0.23985570948E+04 0.  0.
        2    1    3    3  502    0 -0.40629875110E+03 -0.28960426403E+03  0.10190404308E+04  0.11346332908E+04  0.25500000920E-02 0. -1.
       -2    1    3    3    0  502  0.40629875110E+03  0.28960426403E+03 -0.11661783624E+04  0.12684326067E+04  0.25500000920E-02 0.  1.
</event>
<event>
 5   0  0.2149029E-06  0.2400967E+04  0.7818609E-02  0.8439142E-01
        1   -1    0    0  501    0  0.00000000000E+00  0.00000000000E+00  0.10925534130E+04  0.10925534131E+04  0.50400001928E-02 0.  1.
       -1   -1    0    0    0  501  0.00000000000E+00  0.00000000000E+00 -0.13190754538E+04  0.13190754538E+04  0.50400001928E-02 0. -1.
    10030    2    1    2    0    0  0.00000000000E+00  0.00000000000E+00 -0.22652204073E+03  0.24116288668E+04  0.24009667962E+04 0.  0.
        4    1    3    3  502    0  0.73377279753E+03  0.94002175881E+03  0.25538555763E+02  0.11927771192E+04  0.12699999809E+01 0.  1.
       -4    1    3    3    0  502 -0.73377279753E+03 -0.94002175881E+03 -0.25206059649E+03  0.12188517476E+04  0.12699999809E+01 0. -1.
</event>
<event>
 5   0  0.5379778E-06  0.2425654E+04  0.7818609E-02  0.8429961E-01
        2   -1    0    0  501    0  0.00000000000E+00  0.00000000000E+00  0.12559914895E+04  0.12559914895E+04  0.25500000920E-02 0.  1.
       -2   -1    0    0    0  501  0.00000000000E+00  0.00000000000E+00 -0.11711462993E+04  0.11711462993E+04  0.25500000920E-02 0. -1.
    10030    2    1    2    0    0  0.00000000000E+00  0.00000000000E+00  0.84845190180E+02  0.24271377888E+04  0.24256543734E+04 0.  0.
        5    1    3    3  502    0  0.90788910358E+03  0.68563386008E+03 -0.37803823739E+03  0.11988708911E+04  0.46999998093E+01 0. -1.
       -5    1    3    3    0  502 -0.90788910358E+03 -0.68563386008E+03  0.46288342757E+03  0.12282668977E+04  0.46999998093E+01 0.  1.
</event>
<event>
 5   0  0.5379778E-06  0.2401441E+04  0.7818609E-02  0.8438964E-01
        2   -1    0    0  501    0  0.00000000000E+00  0.00000000000E+00  0.18747216936E+04  0.18747216936E+04  0.25500000920E-02 0. -1.
       -2   -1    0    0    0  501  0.00000000000E+00  0.00000000000E+00 -0.76903697295E+03  0.76903697295E+03  0.25500000920E-02 0.  1.
    10030    2    1    2    0    0  0.00000000000E+00  0.00000000000E+00  0.11056847207E+04  0.26437586666E+04  0.24014414808E+04 0.  0.
        5    1    3    3  502    0  0.79776141135E+03 -0.18550621085E+03  0.15194295694E+04  0.17261298126E+04  0.46999998093E+01 0. -1.
       -5    1    3    3    0  502 -0.79776141135E+03  0.18550621085E+03 -0.41374484874E+03  0.91762885393E+03  0.46999998093E+01 0.  1.
</event>
<event>
 5   0  0.5349036E-06  0.2400549E+04  0.7818609E-02  0.8439298E-01
        2   -1    0    0  501    0  0.00000000000E+00  0.00000000000E+00  0.14111732965E+04  0.14111732965E+04  0.25500000920E-02 0.  1.
       -2   -1    0    0    0  501  0.00000000000E+00  0.00000000000E+00 -0.10208942649E+04  0.10208942649E+04  0.25500000920E-02 0. -1.
    10030    2    1    2    0    0  0.00000000000E+00  0.00000000000E+00  0.39027903160E+03  0.24320675614E+04  0.24005488748E+04 0.  0.
        1    1    3    3  502    0  0.10048223418E+04  0.37113379736E+03 -0.35349668023E+03  0.11279929685E+04  0.50400001928E-02 0. -1.
       -1    1    3    3    0  502 -0.10048223418E+04 -0.37113379736E+03  0.74377571183E+03  0.13040745928E+04  0.50400001928E-02 0.  1.
</event>
<event>
 5   0  0.5371843E-06  0.2407165E+04  0.7818609E-02  0.8436826E-01
       -2   -1    0    0    0  501  0.00000000000E+00  0.00000000000E+00  0.14147795923E+04  0.14147795923E+04  0.25500000920E-02 0.  1.
        2   -1    0    0  501    0  0.00000000000E+00  0.00000000000E+00 -0.10239130829E+04  0.10239130829E+04  0.25500000920E-02 0. -1.
    10030    2    1    2    0    0  0.00000000000E+00  0.00000000000E+00  0.39086650941E+03  0.24386926752E+04  0.24071654152E+04 0.  0.
        4    1    3    3  502    0  0.21850519178E+03 -0.11787568778E+04  0.87276283902E+02  0.12020112556E+04  0.12699999809E+01 0.  1.
       -4    1    3    3    0  502 -0.21850519178E+03  0.11787568778E+04  0.30359022550E+03  0.12366814197E+04  0.12699999809E+01 0. -1.
</event>
<event>
 5   0  0.2149029E-06  0.2399409E+04  0.7818609E-02  0.8439725E-01
        1   -1    0    0  501    0  0.00000000000E+00  0.00000000000E+00  0.21211582842E+04  0.21211582842E+04  0.50400001928E-02 0. -1.
       -1   -1    0    0    0  501  0.00000000000E+00  0.00000000000E+00 -0.67854009108E+03  0.67854009110E+03  0.50400001928E-02 0.  1.
    10030    2    1    2    0    0  0.00000000000E+00  0.00000000000E+00  0.14426181932E+04  0.27996983753E+04  0.23994090401E+04 0.  0.
        4    1    3    3  502    0 -0.10635621254E+04  0.51355990268E+03  0.47549530205E+03  0.12731871675E+04  0.12699999809E+01 0.  1.
       -4    1    3    3    0  502  0.10635621254E+04 -0.51355990268E+03  0.96712289112E+03  0.15265112079E+04  0.12699999809E+01 0. -1.
</event>
<event>
 5   0  0.2254269E-06  0.2404959E+04  0.7818609E-02  0.8437649E-01
       -1   -1    0    0    0  501  0.00000000000E+00  0.00000000000E+00  0.94005182972E+03  0.94005182973E+03  0.50400001928E-02 0. -1.
        1   -1    0    0  501    0  0.00000000000E+00  0.00000000000E+00 -0.15381673318E+04  0.15381673318E+04  0.50400001928E-02 0.  1.
    10030    2    1    2    0    0  0.00000000000E+00  0.00000000000E+00 -0.59811550207E+03  0.24782191615E+04  0.24049590555E+04 0.  0.
        2    1    3    3  502    0  0.91597530190E+03  0.77531506976E+03 -0.37775702043E+03  0.12581035639E+04  0.25500000920E-02 0.  1.
       -2    1    3    3    0  502 -0.91597530190E+03 -0.77531506976E+03 -0.22035848164E+03  0.12201155976E+04  0.25500000920E-02 0. -1.
</event>
<event>
 5   0  0.5379778E-06  0.2402333E+04  0.7818609E-02  0.8438630E-01
       -2   -1    0    0    0  501  0.00000000000E+00  0.00000000000E+00  0.14793295419E+04  0.14793295419E+04  0.25500000920E-02 0.  1.
        2   -1    0    0  501    0  0.00000000000E+00  0.00000000000E+00 -0.97530773608E+03  0.97530773608E+03  0.25500000920E-02 0. -1.
    10030    2    1    2    0    0  0.00000000000E+00  0.00000000000E+00  0.50402180585E+03  0.24546372780E+04  0.24023334876E+04 0.  0.
        5    1    3    3  502    0 -0.97894801716E+03 -0.43499203497E+03  0.80718412588E+03  0.13413148750E+04  0.46999998093E+01 0.  1.
       -5    1    3    3    0  502  0.97894801716E+03  0.43499203497E+03 -0.30316232003E+03  0.11133224030E+04  0.46999998093E+01 0. -1.
</event>
<event>
 5   0  0.5440503E-06  0.2439480E+04  0.7818609E-02  0.8424869E-01
        2   -1    0    0  501    0  0.00000000000E+00  0.00000000000E+00  0.19632467503E+04  0.19632467503E+04  0.25500000920E-02 0.  1.
       -2   -1    0    0    0  501  0.00000000000E+00  0.00000000000E+00 -0.75780849996E+03  0.75780849997E+03  0.25500000920E-02 0. -1.
    10030    2    1    2    0    0  0.00000000000E+00  0.00000000000E+00  0.12054382503E+04  0.27210552502E+04  0.24394795141E+04 0.  0.
        3    1    3    3  502    0 -0.61153305328E+03 -0.10553364091E+04  0.61117379428E+03  0.13642730770E+04  0.10100000352E+00 0. -1.
       -3    1    3    3    0  502  0.61153305328E+03  0.10553364091E+04  0.59426445603E+03  0.13567821732E+04  0.10100000352E+00 0.  1.
</event>
<event>
 5   0  0.2254269E-06  0.2400815E+04  0.7818609E-02  0.8439198E-01
        1   -1    0    0  501    0  0.00000000000E+00  0.00000000000E+00  0.18135498990E+04  0.18135498990E+04  0.50400001928E-02 0. -1.
       -1   -1    0    0    0  501  0.00000000000E+00  0.00000000000E+00 -0.79456237867E+03  0.79456237868E+03  0.50400001928E-02 0.  1.
    10030    2    1    2    0    0  0.00000000000E+00  0.00000000000E+00  0.10189875203E+04  0.26081122777E+04  0.24008152962E+04 0.  0.
        2    1    3    3  502    0  0.76121242965E+03  0.19555288963E+03 -0.47620635018E+03  0.91894384141E+03  0.25500000920E-02 0.  1.
       -2    1    3    3    0  502 -0.76121242965E+03 -0.19555288963E+03  0.14951938705E+04  0.16891684363E+04  0.25500000920E-02 0. -1.
</event>
<event>
 5   0  0.5371843E-06  0.2399743E+04  0.7818609E-02  0.8439600E-01
        2   -1    0    0  501    0  0.00000000000E+00  0.00000000000E+00  0.97876270637E+03  0.97876270637E+03  0.25500000920E-02 0. -1.
       -2   -1    0    0    0  501  0.00000000000E+00  0.00000000000E+00 -0.14709299380E+04  0.14709299380E+04  0.25500000920E-02 0.  1.
    10030    2    1    2    0    0  0.00000000000E+00  0.00000000000E+00 -0.49216723165E+03  0.24496926444E+04  0.23997427921E+04 0.  0.
        4    1    3    3  502    0 -0.78377790434E+03 -0.32074571645E+03  0.62161133665E+03  0.10505179126E+04  0.12699999809E+01 0. -1.
       -4    1    3    3    0  502  0.78377790434E+03  0.32074571645E+03 -0.11137785683E+04  0.13991747318E+04  0.12699999809E+01 0.  1.
</event>
<event>
 5   0  0.2149029E-06  0.2400020E+04  0.7818609E-02  0.8439496E-01
        1   -1    0    0  501    0  0.00000000000E+00  0.00000000000E+00  0.78237070239E+03  0.78237070240E+03  0.50400001928E-02 0.  1.
       -1   -1    0    0    0  501  0.00000000000E+00  0.00000000000E+00 -0.18405905655E+04  0.18405905655E+04  0.50400001928E-02 0. -1.
    10030    2    1    2    0    0  0.00000000000E+00  0.00000000000E+00 -0.10582198631E+04  0.26229612679E+04  0.24000201112E+04 0.  0.
        4    1    3    3  502    0 -0.32371791452E+03 -0.10449472630E+04 -0.10681995239E+04  0.15289734813E+04  0.12699999809E+01 0. -1.
       -4    1    3    3    0  502  0.32371791452E+03  0.10449472630E+04  0.99796608203E+01  0.10939877866E+04  0.12699999809E+01 0.  1.
</event>
<event>
 5   0  0.2215700E-06  0.2430767E+04  0.7818609E-02  0.8428074E-01
        1   -1    0    0  501    0  0.00000000000E+00  0.00000000000E+00  0.94646354522E+03  0.94646354523E+03  0.50400001928E-02 0.  1.
       -1   -1    0    0    0  501  0.00000000000E+00  0.00000000000E+00 -0.15607114437E+04  0.15607114437E+04  0.50400001928E-02 0. -1.
    10030    2    1    2    0    0  0.00000000000E+00  0.00000000000E+00 -0.61424789845E+03  0.25071749889E+04  0.24307665343E+04 0.  0.
        3    1    3    3  502    0  0.22340196833E+03  0.85816852995E+03 -0.11643906042E+04  0.14636144146E+04  0.10100000352E+00 0.  1.
       -3    1    3    3    0  502 -0.22340196833E+03 -0.85816852995E+03  0.55014270579E+03  0.10435605743E+04  0.10100000352E+00 0. -1.
</event>
<event>
 5   0  0.5440503E-06  0.2398500E+04  0.7818609E-02  0.8440065E-01
       -2   -1    0    0    0  501  0.00000000000E+00  0.00000000000E+00  0.17124083587E+04  0.17124083588E+04  0.25500000920E-02 0.  1.
        2   -1    0    0  501    0  0.00000000000E+00  0.00000000000E+00 -0.83987007218E+03  0.83987007218E+03  0.25500000920E-02 0. -1.
    10030    2    1    2    0    0  0.00000000000E+00  0.00000000000E+00  0.87253828657E+03  0.25522784309E+04  0.23984999745E+04 0.  0.
        3    1    3    3  502    0  0.10939881827E+04 -0.13212570673E+03  0.93982488398E+03  0.14482880131E+04  0.10100000352E+00 0.  1.
       -3    1    3    3    0  502 -0.10939881827E+04  0.13212570673E+03 -0.67286597405E+02  0.11039904178E+04  0.10100000352E+00 0. -1.
</event>
<event>
 5   0  0.2254269E-06  0.2413867E+04  0.7818609E-02  0.8434330E-01
        1   -1    0    0  501    0  0.00000000000E+00  0.00000000000E+00  0.13752305228E+04  0.13752305228E+04  0.50400001928E-02 0.  1.
       -1   -1    0    0    0  501  0.00000000000E+00  0.00000000000E+00 -0.10592324639E+04  0.10592324639E+04  0.50400001928E-02 0. -1.
    10030    2    1    2    0    0  0.00000000000E+00  0.00000000000E+00  0.31599805898E+03  0.24344629867E+04  0.24138672831E+04 0.  0.
        2    1    3    3  502    0 -0.44676425425E+03  0.50907098532E+03 -0.84949250124E+03  0.10864571214E+04  0.25500000920E-02 0. -1.
       -2    1    3    3    0  502  0.44676425425E+03 -0.50907098532E+03  0.11654905602E+04  0.13480058653E+04  0.25500000920E-02 0.  1.
</event>
<event>
 5   0  0.5349036E-06  0.2404667E+04  0.7818609E-02  0.8437759E-01
       -2   -1    0    0    0  501  0.00000000000E+00  0.00000000000E+00  0.75271045984E+03  0.75271045984E+03  0.25500000920E-02 0.  1.
        2   -1    0    0  501    0  0.00000000000E+00  0.00000000000E+00 -0.19205331697E+04  0.19205331697E+04  0.25500000920E-02 0. -1.
    10030    2    1    2    0    0  0.00000000000E+00  0.00000000000E+00 -0.11678227099E+04  0.26732436296E+04  0.24046666341E+04 0.  0.
        1    1    3    3  502    0  0.93036905335E+02 -0.11818698084E+04 -0.36120322297E+03  0.12393304152E+04  0.50400001928E-02 0.  1.
       -1    1    3    3    0  502 -0.93036905335E+02  0.11818698084E+04 -0.80661948689E+03  0.14339132144E+04  0.50400001928E-02 0. -1.
</event>
<event>
 5   0  0.5440503E-06  0.2398802E+04  0.7818609E-02  0.8439952E-01
        2   -1    0    0  501    0  0.00000000000E+00  0.00000000000E+00  0.13065736814E+04  0.13065736814E+04  0.25500000920E-02 0.  1.
       -2   -1    0    0    0  501  0.00000000000E+00  0.00000000000E+00 -0.11010193057E+04  0.11010193057E+04  0.25500000920E-02 0. -1.
    10030    2    1    2    0    0  0.00000000000E+00  0.00000000000E+00  0.20555437570E+03  0.24075929871E+04  0.23988020740E+04 0.  0.
        3    1    3    3  502    0 -0.16483205132E+02  0.98708138640E+03  0.78642057235E+03  0.12621642865E+04  0.10100000352E+00 0.  1.
       -3    1    3    3    0  502  0.16483205132E+02 -0.98708138640E+03 -0.58086619665E+03  0.11454287005E+04  0.10100000352E+00 0. -1.
</event>
<event>
 5   0  0.2215700E-06  0.2404554E+04  0.7818609E-02  0.8437801E-01
        1   -1    0    0  501    0  0.00000000000E+00  0.00000000000E+00  0.15099869836E+04  0.15099869836E+04  0.50400001928E-02 0. -1.
       -1   -1    0    0    0  501  0.00000000000E+00  0.00000000000E+00 -0.95727308148E+03  0.95727308149E+03  0.50400001928E-02 0.  1.
    10030    2    1    2    0    0  0.00000000000E+00  0.00000000000E+00  0.55271390212E+03  0.24672600651E+04  0.24045539235E+04 0.  0.
        3    1    3    3  502    0 -0.18844149499E+02  0.38990861827E+03 -0.89043687318E+03  0.97224568289E+03  0.10100000352E+00 0.  1.
       -3    1    3    3    0  502  0.18844149499E+02 -0.38990861827E+03  0.14431507753E+04  0.14950143822E+04  0.10100000352E+00 0. -1.
</event>
<event>
 5   0  0.2297414E-06  0.2394361E+04  0.7818609E-02  0.8441618E-01
        1   -1    0    0  501    0  0.00000000000E+00  0.00000000000E+00  0.15672301193E+04  0.15672301193E+04  0.50400001928E-02 0. -1.
       -1   -1    0    0    0  501  0.00000000000E+00  0.00000000000E+00 -0.91450594434E+03  0.91450594436E+03  0.50400001928E-02 0.  1.
    10030    2    1    2    0    0  0.00000000000E+00  0.00000000000E+00  0.65272417496E+03  0.24817360637E+04  0.23943610925E+04 0.  0.
        1    1    3    3  502    0 -0.11327912416E+04 -0.25510607112E+03  0.62845310353E+03  0.13203213275E+04  0.50400001928E-02 0.  1.
       -1    1    3    3    0  502  0.11327912416E+04  0.25510607112E+03  0.24271071432E+02  0.11614147362E+04  0.50400001928E-02 0. -1.
</event>
<event>
 5   0  0.5349036E-06  0.2360103E+04  0.7818609E-02  0.8454593E-01
       -2   -1    0    0    0  501  0.00000000000E+00  0.00000000000E+00  0.16468057491E+04  0.16468057491E+04  0.25500000920E-02 0.  1.
        2   -1    0    0  501    0  0.00000000000E+00  0.00000000000E+00 -0.84558918010E+03  0.84558918010E+03  0.25500000920E-02 0. -1.
    10030    2    1    2    0    0  0.00000000000E+00  0.00000000000E+00  0.80121656901E+03  0.24923949292E+04  0.23601026445E+04 0.  0.
        1    1    3    3  502    0 -0.30647988321E+03  0.10460025454E+04 -0.76921690484E+02  0.10926885148E+04  0.50400001928E-02 0. -1.
       -1    1    3    3    0  502  0.30647988321E+03 -0.10460025454E+04  0.87813825949E+03  0.13997064144E+04  0.50400001928E-02 0.  1.
</event>
<event>
 5   0  0.2254269E-06  0.2399670E+04  0.7818609E-02  0.8439627E-01
        1   -1    0    0  501    0  0.00000000000E+00  0.00000000000E+00  0.19886709284E+04  0.19886709284E+04  0.50400001928E-02 0. -1.
       -1   -1    0    0    0  501  0.00000000000E+00  0.00000000000E+00 -0.72390231440E+03  0.72390231442E+03  0.50400001928E-02 0.  1.
    10030    2    1    2    0    0  0.00000000000E+00  0.00000000000E+00  0.12647686139E+04  0.27125732428E+04  0.23996695503E+04 0.  0.
        2    1    3    3  502    0 -0.44727174670E+03  0.10993014742E+04  0.43307635998E+03  0.12633569884E+04  0.25500000920E-02 0.  1.
       -2    1    3    3    0  502  0.44727174670E+03 -0.10993014742E+04  0.83169225397E+03  0.14492162544E+04  0.25500000920E-02 0. -1.
</event>
<event>
 5   0  0.2297414E-06  0.2401078E+04  0.7818609E-02  0.8439100E-01
       -1   -1    0    0    0  501  0.00000000000E+00  0.00000000000E+00  0.21238233222E+04  0.21238233223E+04  0.50400001928E-02 0.  1.
        1   -1    0    0  501    0  0.00000000000E+00  0.00000000000E+00 -0.67863172285E+03  0.67863172287E+03  0.50400001928E-02 0. -1.
    10030    2    1    2    0    0  0.00000000000E+00  0.00000000000E+00  0.14451915994E+04  0.28024550451E+04  0.24010779914E+04 0.  0.
        1    1    3    3  502    0 -0.77752134456E+00 -0.98847571871E+03 -0.72627652493E+02  0.99114056872E+03  0.50400001928E-02 0. -1.
       -1    1    3    3    0  502  0.77752134456E+00  0.98847571871E+03  0.15178192519E+04  0.18113144764E+04  0.50400001928E-02 0.  1.
</event>
<event>
 5   0  0.5440503E-06  0.2405575E+04  0.7818609E-02  0.8437419E-01
       -2   -1    0    0    0  501  0.00000000000E+00  0.00000000000E+00  0.85662548138E+03  0.85662548139E+03  0.25500000920E-02 0. -1.
        2   -1    0    0  501    0  0.00000000000E+00  0.00000000000E+00 -0.16888330968E+04  0.16888330968E+04  0.25500000920E-02 0.  1.
    10030    2    1    2    0    0  0.00000000000E+00  0.00000000000E+00 -0.83220761538E+03  0.25454585782E+04  0.24055747459E+04 0.  0.
        3    1    3    3  502    0 -0.25194719454E+00  0.94255867310E+03 -0.12067340506E+04  0.15312165081E+04  0.10100000352E+00 0.  1.
       -3    1    3    3    0  502  0.25194719454E+00 -0.94255867310E+03  0.37452643521E+03  0.10142420700E+04  0.10100000352E+00 0. -1.
</event>
<event>
 5   0  0.2149029E-06  0.2355906E+04  0.7818609E-02  0.8456199E-01
        1   -1    0    0  501    0  0.00000000000E+00  0.00000000000E+00  0.15054405369E+04  0.15054405369E+04  0.50400001928E-02 0. -1.
       -1   -1    0    0    0  501  0.00000000000E+00  0.00000000000E+00 -0.92170572376E+03  0.92170572377E+03  0.50400001928E-02 0.  1.
    10030    2    1    2    0    0  0.00000000000E+00  0.00000000000E+00  0.58373481316E+03  0.24271462607E+04  0.23559059062E+04 0.  0.
        4    1    3    3  502    0 -0.10635973138E+04  0.26396229397E+03  0.73696907945E+03  0.13206212082E+04  0.12699999809E+01 0. -1.
       -4    1    3    3    0  502  0.10635973138E+04 -0.26396229397E+03 -0.15323426630E+03  0.11065250525E+04  0.12699999809E+01 0.  1.
</event>
<event>
 5   0  0.2297414E-06  0.2426059E+04  0.7818609E-02  0.8429811E-01
        1   -1    0    0  501    0  0.00000000000E+00  0.00000000000E+00  0.89989749105E+03  0.89989749106E+03  0.50400001928E-02 0.  1.
       -1   -1    0    0    0  501  0.00000000000E+00  0.00000000000E+00 -0.16351200555E+04  0.16351200555E+04  0.50400001928E-02 0. -1.
    10030    2    1    2    0    0  0.00000000000E+00  0.00000000000E+00 -0.73522256441E+03  0.25350175465E+04  0.24260588909E+04 0.  0.
        1    1    3    3  502    0  0.45908618230E+03  0.37942783038E+03 -0.14718189878E+04  0.15877583992E+04  0.50400001928E-02 0. -1.
       -1    1    3    3    0  502 -0.45908618230E+03 -0.37942783038E+03  0.73659642340E+03  0.94725914735E+03  0.50400001928E-02 0.  1.
</event>
<event>
 5   0  0.2297414E-06  0.2327612E+04  0.7818609E-02  0.8467113E-01
       -1   -1    0    0    0  501  0.00000000000E+00  0.00000000000E+00  0.79750240840E+03  0.79750240842E+03  0.50400001928E-02 0. -1.
        1   -1    0    0  501    0  0.00000000000E+00  0.00000000000E+00 -0.16983584018E+04  0.16983584018E+04  0.50400001928E-02 0.  1.
    10030    2    1    2    0    0  0.00000000000E+00  0.00000000000E+00 -0.90085599343E+03  0.24958608102E+04  0.23276124384E+04 0.  0.
        1    1    3    3  502    0 -0.27621773656E+03  0.87869137120E+03 -0.12132205987E+04  0.15232527646E+04  0.50400001928E-02 0.  1.
       -1    1    3    3    0  502  0.27621773656E+03 -0.87869137120E+03  0.31236460525E+03  0.97260804564E+03  0.50400001928E-02 0. -1.
</event>
<event>
 5   0  0.5268358E-06  0.2401638E+04  0.7818609E-02  0.8438890E-01
       -2   -1    0    0    0  501  0.00000000000E+00  0.00000000000E+00  0.16370687207E+04  0.16370687207E+04  0.25500000920E-02 0. -1.
        2   -1    0    0  501    0  0.00000000000E+00  0.00000000000E+00 -0.88082228592E+03  0.88082228592E+03  0.25500000920E-02 0.  1.
    10030    2    1    2    0    0  0.00000000000E+00  0.00000000000E+00  0.75624643473E+03  0.25178910066E+04  0.24016382848E+04 0.  0.
        2    1    3    3  502    0  0.71722112782E+03  0.83506370425E+03 -0.12492476810E+03  0.11078554662E+04  0.25500000920E-02 0.  1.
       -2    1    3    3    0  502 -0.71722112782E+03 -0.83506370425E+03  0.88117120283E+03  0.14100355404E+04  0.25500000920E-02 0. -1.
</event>
<event>
 5   0  0.5371843E-06  0.2390843E+04  0.7818609E-02  0.8442940E-01
       -2   -1    0    0    0  501  0.00000000000E+00  0.00000000000E+00  0.13811671342E+04  0.13811671342E+04  0.25500000920E-02 0. -1.
        2   -1    0    0  501    0  0.00000000000E+00  0.00000000000E+00 -0.10346558237E+04  0.10346558237E+04  0.25500000920E-02 0.  1.
    10030    2    1    2    0    0  0.00000000000E+00  0.00000000000E+00  0.34651131046E+03  0.24158229579E+04  0.23908430470E+04 0.  0.
        4    1    3    3  502    0 -0.71494474197E+03 -0.42434116422E+03 -0.69468319984E+03  0.10834194796E+04  0.12699999809E+01 0.  1.
       -4    1    3    3    0  502  0.71494474197E+03  0.42434116422E+03  0.10411945103E+04  0.13324034783E+04  0.12699999809E+01 0. -1.
</event>
<event>
 5   0  0.5440503E-06  0.2393033E+04  0.7818609E-02  0.8442117E-01
        2   -1    0    0  501    0  0.00000000000E+00  0.00000000000E+00  0.16977120765E+04  0.16977120765E+04  0.25500000920E-02 0. -1.
       -2   -1    0    0    0  501  0.00000000000E+00  0.00000000000E+00 -0.84328273981E+03  0.84328273981E+03  0.25500000920E-02 0.  1.
    10030    2    1    2    0    0  0.00000000000E+00  0.00000000000E+00  0.85442933668E+03  0.25409948163E+04  0.23930326293E+04 0.  0.
        3    1    3    3  502    0  0.60711883712E+02 -0.10556352023E+04  0.10218393828E+04  0.14704446088E+04  0.10100000352E+00 0. -1.
       -3    1    3    3    0  502 -0.60711883712E+02  0.10556352023E+04 -0.16741004607E+03  0.10705502075E+04  0.10100000352E+00 0.  1.
</event>
<event>
 5   0  0.2215700E-06  0.2397330E+04  0.7818609E-02  0.8440504E-01
       -1   -1    0    0    0  501  0.00000000000E+00  0.00000000000E+00  0.64035094648E+03  0.64035094650E+03  0.50400001928E-02 0.  1.
        1   -1    0    0  501    0  0.00000000000E+00  0.00000000000E+00 -0.22437668786E+04  0.22437668786E+04  0.50400001928E-02 0. -1.
    10030    2    1    2    0    0  0.00000000000E+00  0.00000000000E+00 -0.16034159321E+04  0.28841178251E+04  0.23973303856E+04 0.  0.
        3    1    3    3  502    0  0.33734644263E+03  0.10936675904E+04 -0.37316600333E+03  0.12038124010E+04  0.10100000352E+00 0.  1.
       -3    1    3    3    0  502 -0.33734644263E+03 -0.10936675904E+04 -0.12302499288E+04  0.16803054241E+04  0.10100000352E+00 0. -1.
</event>
<event>
 5   0  0.5379778E-06  0.2401561E+04  0.7818609E-02  0.8438919E-01
       -2   -1    0    0    0  501  0.00000000000E+00  0.00000000000E+00  0.65066349293E+03  0.65066349294E+03  0.25500000920E-02 0.  1.
        2   -1    0    0  501    0  0.00000000000E+00  0.00000000000E+00 -0.22160052999E+04  0.22160052999E+04  0.25500000920E-02 0. -1.
    10030    2    1    2    0    0  0.00000000000E+00  0.00000000000E+00 -0.15653418070E+04  0.28666687929E+04  0.24015609497E+04 0.  0.
        5    1    3    3  502    0  0.46438889216E+02 -0.10058144655E+04 -0.15636190562E+04  0.18597704031E+04  0.46999998093E+01 0. -1.
       -5    1    3    3    0  502 -0.46438889216E+02  0.10058144655E+04 -0.17227508241E+01  0.10068983898E+04  0.46999998093E+01 0.  1.
</event>
<event>
 5   0  0.5268358E-06  0.2402421E+04  0.7818609E-02  0.8438598E-01
        2   -1    0    0  501    0  0.00000000000E+00  0.00000000000E+00  0.14013408486E+04  0.14013408486E+04  0.25500000920E-02 0.  1.
       -2   -1    0    0    0  501  0.00000000000E+00  0.00000000000E+00 -0.10296618486E+04  0.10296618486E+04  0.25500000920E-02 0. -1.
    10030    2    1    2    0    0  0.00000000000E+00  0.00000000000E+00  0.37167900007E+03  0.24310026972E+04  0.24024214524E+04 0.  0.
        2    1    3    3  502    0 -0.12049273594E+03 -0.42037992328E+03 -0.94625079159E+03  0.10424146679E+04  0.25500000920E-02 0. -1.
       -2    1    3    3    0  502  0.12049273594E+03  0.42037992328E+03  0.13179297917E+04  0.13885880293E+04  0.25500000920E-02 0.  1.
</event>
<event>
 5   0  0.2215700E-06  0.2396590E+04  0.7818609E-02  0.8440781E-01
       -1   -1    0    0    0  501  0.00000000000E+00  0.00000000000E+00  0.11545435306E+04  0.11545435306E+04  0.50400001928E-02 0.  1.
        1   -1    0    0  501    0  0.00000000000E+00  0.00000000000E+00 -0.12437043677E+04  0.12437043677E+04  0.50400001928E-02 0. -1.
    10030    2    1    2    0    0  0.00000000000E+00  0.00000000000E+00 -0.89160837174E+02  0.23982478983E+04  0.23965899372E+04 0.  0.
        3    1    3    3  502    0  0.66721506827E+03 -0.33065766599E+03 -0.98405916220E+03  0.12340514107E+04  0.10100000352E+00 0. -1.
       -3    1    3    3    0  502 -0.66721506827E+03  0.33065766599E+03  0.89489832502E+03  0.11641964876E+04  0.10100000352E+00 0.  1.
</event>
<event>
 5   0  0.5379778E-06  0.2392227E+04  0.7818609E-02  0.8442420E-01
       -2   -1    0    0    0  501  0.00000000000E+00  0.00000000000E+00  0.95006434721E+03  0.95006434722E+03  0.25500000920E-02 0.  1.
        2   -1    0    0  501    0  0.00000000000E+00  0.00000000000E+00 -0.15058843669E+04  0.15058843669E+04  0.25500000920E-02 0. -1.
    10030    2    1    2    0    0  0.00000000000E+00  0.00000000000E+00 -0.55582001970E+03  0.24559487141E+04  0.23922266181E+04 0.  0.
        5    1    3    3  502    0 -0.25724373608E+03  0.10140368738E+04 -0.87320008465E+03  0.13626979118E+04  0.46999998093E+01 0. -1.
       -5    1    3    3    0  502  0.25724373608E+03 -0.10140368738E+04  0.31738006494E+03  0.10932508023E+04  0.46999998093E+01 0.  1.
</event>
<event>
 5   0  0.1796750E-06  0.2407997E+04  0.7818609E-02  0.8436516E-01
       -3   -1    0    0    0  501  0.00000000000E+00  0.00000000000E+00  0.19020065217E+04  0.19020065244E+04  0.10100000352E+00 0. -1.
        3   -1    0    0  501    0  0.00000000000E+00  0.00000000000E+00 -0.76214885926E+03  0.76214886596E+03  0.10100000352E+00 0.  1.
    10030    2    1    2    0    0  0.00000000000E+00  0.00000000000E+00  0.11398576624E+04  0.26641553903E+04  0.24079967718E+04 0.  0.
        3    1    3    3  502    0 -0.33832153818E+03 -0.10611306758E+04  0.63946905084E+02  0.11155935600E+04  0.10100000352E+00 0. -1.
       -3    1    3    3    0  502  0.33832153818E+03  0.10611306758E+04  0.10759107573E+04  0.15485618303E+04  0.10100000352E+00 0.  1.
</event>
<event>
 5   0  0.5379778E-06  0.2427956E+04  0.7818609E-02  0.8429111E-01
        2   -1    0    0  501    0  0.00000000000E+00  0.00000000000E+00  0.11889234882E+04  0.11889234882E+04  0.25500000920E-02 0.  1.
       -2   -1    0    0    0  501  0.00000000000E+00  0.00000000000E+00 -0.12395604443E+04  0.12395604443E+04  0.25500000920E-02 0. -1.
    10030    2    1    2    0    0  0.00000000000E+00  0.00000000000E+00 -0.50636956147E+02  0.24284839326E+04  0.24279559529E+04 0.  0.
        5    1    3    3  502    0 -0.11462464282E+04  0.21523335993E+03  0.31167341864E+03  0.12072152597E+04  0.46999998093E+01 0.  1.
       -5    1    3    3    0  502  0.11462464282E+04 -0.21523335993E+03 -0.36231037478E+03  0.12212686728E+04  0.46999998093E+01 0. -1.
</event>
<event>
 5   0  0.5349036E-06  0.2406020E+04  0.7818609E-02  0.8437253E-01
       -2   -1    0    0    0  501  0.00000000000E+00  0.00000000000E+00  0.84623126936E+03  0.84623126936E+03  0.25500000920E-02 0.  1.
        2   -1    0    0  501    0  0.00000000000E+00  0.00000000000E+00 -0.17102092199E+04  0.17102092199E+04  0.25500000920E-02 0. -1.
    10030    2    1    2    0    0  0.00000000000E+00  0.00000000000E+00 -0.86397795050E+03  0.25564404892E+04  0.24060195502E+04 0.  0.
        1    1    3    3  502    0 -0.58157329630E+03  0.28620874410E+03 -0.15088029818E+04  0.16421417059E+04  0.50400001928E-02 0. -1.
       -1    1    3    3    0  502  0.58157329630E+03 -0.28620874410E+03  0.64482503133E+03  0.91429878335E+03  0.50400001928E-02 0.  1.
</event>
<event>
 5   0  0.5371843E-06  0.2399353E+04  0.7818609E-02  0.8439746E-01
       -2   -1    0    0    0  501  0.00000000000E+00  0.00000000000E+00  0.68396084516E+03  0.68396084516E+03  0.25500000920E-02 0.  1.
        2   -1    0    0  501    0  0.00000000000E+00  0.00000000000E+00 -0.21042480138E+04  0.21042480138E+04  0.25500000920E-02 0. -1.
    10030    2    1    2    0    0  0.00000000000E+00  0.00000000000E+00 -0.14202871686E+04  0.27882088590E+04  0.23993526210E+04 0.  0.
        4    1    3    3  502    0 -0.15820344677E+03  0.52352791781E+03 -0.19509526251E+04  0.20261607956E+04  0.12699999809E+01 0. -1.
       -4    1    3    3    0  502  0.15820344677E+03 -0.52352791781E+03  0.53066545647E+03  0.76204806337E+03  0.12699999809E+01 0.  1.
</event>
<event>
 5   0  0.2215700E-06  0.2401552E+04  0.7818609E-02  0.8438923E-01
       -1   -1    0    0    0  501  0.00000000000E+00  0.00000000000E+00  0.56999069347E+03  0.56999069349E+03  0.50400001928E-02 0. -1.
        1   -1    0    0  501    0  0.00000000000E+00  0.00000000000E+00 -0.25296257166E+04  0.25296257166E+04  0.50400001928E-02 0.  1.
    10030    2    1    2    0    0  0.00000000000E+00  0.00000000000E+00 -0.19596350232E+04  0.30996164101E+04  0.24015520952E+04 0.  0.
        3    1    3    3  502    0  0.37922040456E+03  0.90310049138E+03 -0.83320970539E+02  0.98302645290E+03  0.10100000352E+00 0. -1.
       -3    1    3    3    0  502 -0.37922040456E+03 -0.90310049138E+03 -0.18763140526E+04  0.21165899572E+04  0.10100000352E+00 0.  1.
</event>
<event>
 5   0  0.2149029E-06  0.2371328E+04  0.7818609E-02  0.8450316E-01
        1   -1    0    0  501    0  0.00000000000E+00  0.00000000000E+00  0.11997975795E+04  0.11997975795E+04  0.50400001928E-02 0.  1.
       -1   -1    0    0    0  501  0.00000000000E+00  0.00000000000E+00 -0.11716973235E+04  0.11716973235E+04  0.50400001928E-02 0. -1.
    10030    2    1    2    0    0  0.00000000000E+00  0.00000000000E+00  0.28100256049E+02  0.23714949030E+04  0.23713284147E+04 0.  0.
        4    1    3    3  502    0  0.59571207572E+03  0.85260310641E+03 -0.55519372260E+03  0.11790023820E+04  0.12699999809E+01 0. -1.
       -4    1    3    3    0  502 -0.59571207572E+03 -0.85260310641E+03  0.58329397865E+03  0.11924925210E+04  0.12699999809E+01 0.  1.
</event>
<event>
 5   0  0.5349036E-06  0.2395768E+04  0.7818609E-02  0.8441090E-01
        2   -1    0    0  501    0  0.00000000000E+00  0.00000000000E+00  0.15441019633E+04  0.15441019633E+04  0.25500000920E-02 0. -1.
       -2   -1    0    0    0  501  0.00000000000E+00  0.00000000000E+00 -0.92929515875E+03  0.92929515875E+03  0.25500000920E-02 0.  1.
    10030    2    1    2    0    0  0.00000000000E+00  0.00000000000E+00  0.61480680450E+03  0.24733971220E+04  0.23957683353E+04 0.  0.
        1    1    3    3  502    0  0.95325925618E+03 -0.69680914451E+03  0.51563231315E+03  0.12884575568E+04  0.50400001928E-02 0.  1.
       -1    1    3    3    0  502 -0.95325925618E+03  0.69680914451E+03  0.99174491356E+02  0.11849395652E+04  0.50400001928E-02 0. -1.
</event>
<event>
 5   0  0.2297414E-06  0.2399784E+04  0.7818609E-02  0.8439585E-01
        1   -1    0    0  501    0  0.00000000000E+00  0.00000000000E+00  0.93984968316E+03  0.93984968318E+03  0.50400001928E-02 0. -1.
       -1   -1    0    0    0  501  0.00000000000E+00  0.00000000000E+00 -0.15318835003E+04  0.15318835003E+04  0.50400001928E-02 0.  1.
    10030    2    1    2    0    0  0.00000000000E+00  0.00000000000E+00 -0.59203381716E+03  0.24717331835E+04  0.23997835089E+04 0.  0.
        1    1    3    3  502    0 -0.71077776286E+03 -0.45952708327E+03 -0.11720283662E+04  0.14456903748E+04  0.50400001928E-02 0.  1.
       -1    1    3    3    0  502  0.71077776286E+03  0.45952708327E+03  0.57999454906E+03  0.10260428088E+04  0.50400001928E-02 0. -1.
</event>
<event>
 5   0  0.5371843E-06  0.2358809E+04  0.7818609E-02  0.8455088E-01
       -2   -1    0    0    0  501  0.00000000000E+00  0.00000000000E+00  0.96637925283E+03  0.96637925284E+03  0.25500000920E-02 0. -1.
        2   -1    0    0  501    0  0.00000000000E+00  0.00000000000E+00 -0.14393881914E+04  0.14393881914E+04  0.25500000920E-02 0.  1.
    10030    2    1    2    0    0  0.00000000000E+00  0.00000000000E+00 -0.47300893860E+03  0.24057674443E+04  0.23588089240E+04 0.  0.
        4    1    3    3  502    0 -0.18873500028E+03  0.33277142407E+03 -0.13743465266E+04  0.14266000523E+04  0.12699999809E+01 0.  1.
       -4    1    3    3    0  502  0.18873500028E+03 -0.33277142407E+03  0.90133758804E+03  0.97916739198E+03  0.12699999809E+01 0. -1.
</event>
<event>
 5   0  0.5379778E-06  0.2397861E+04  0.7818609E-02  0.8440305E-01
       -2   -1    0    0    0  501  0.00000000000E+00  0.00000000000E+00  0.11223280323E+04  0.11223280324E+04  0.25500000920E-02 0. -1.
        2   -1    0    0  501    0  0.00000000000E+00  0.00000000000E+00 -0.12807611346E+04  0.12807611346E+04  0.25500000920E-02 0.  1.
    10030    2    1    2    0    0  0.00000000000E+00  0.00000000000E+00 -0.15843310221E+03  0.24030891669E+04  0.23978608167E+04 0.  0.
        5    1    3    3  502    0  0.22901445498E+03  0.79760467196E+03  0.78799744981E+03  0.11443700906E+04  0.46999998093E+01 0. -1.
       -5    1    3    3    0  502 -0.22901445498E+03 -0.79760467196E+03 -0.94643055202E+03  0.12587190763E+04  0.46999998093E+01 0.  1.
</event>
<event>
 5   0  0.1796750E-06  0.2400495E+04  0.7818609E-02  0.8439318E-01
       -4   -1    0    0    0  501  0.00000000000E+00  0.00000000000E+00  0.95156491034E+03  0.95156575784E+03  0.12699999809E+01 0.  1.
        4   -1    0    0  501    0  0.00000000000E+00  0.00000000000E+00 -0.15139185539E+04  0.15139190866E+04  0.12699999809E+01 0. -1.
    10030    2    1    2    0    0  0.00000000000E+00  0.00000000000E+00 -0.56235364357E+03  0.24654848444E+04  0.24004945111E+04 0.  0.
        4    1    3    3  502    0  0.15467998584E+03 -0.66260243709E+03 -0.12966946250E+04  0.14643723745E+04  0.12699999809E+01 0. -1.
       -4    1    3    3    0  502 -0.15467998584E+03  0.66260243709E+03  0.73434098142E+03  0.10011124700E+04  0.12699999809E+01 0.  1.
</event>
<event>
 5   0  0.2149029E-06  0.2393973E+04  0.7818609E-02  0.8441763E-01
        1   -1    0    0  501    0  0.00000000000E+00  0.00000000000E+00  0.11116967777E+04  0.11116967777E+04  0.50400001928E-02 0. -1.
       -1   -1    0    0    0  501  0.00000000000E+00  0.00000000000E+00 -0.12888195558E+04  0.12888195558E+04  0.50400001928E-02 0.  1.
    10030    2    1    2    0    0  0.00000000000E+00  0.00000000000E+00 -0.17712277811E+03  0.24005163336E+04  0.23939728882E+04 0.  0.
        4    1    3    3  502    0  0.63187247639E+03  0.21796751720E+03 -0.10842519611E+04  0.12737254779E+04  0.12699999809E+01 0.  1.
       -4    1    3    3    0  502 -0.63187247639E+03 -0.21796751720E+03  0.90712918299E+03  0.11267908557E+04  0.12699999809E+01 0. -1.
</event>
<event>
 5   0  0.2149029E-06  0.2397166E+04  0.7818609E-02  0.8440565E-01
       -1   -1    0    0    0  501  0.00000000000E+00  0.00000000000E+00  0.17261265320E+04  0.17261265320E+04  0.50400001928E-02 0. -1.
        1   -1    0    0  501    0  0.00000000000E+00  0.00000000000E+00 -0.83226906464E+03  0.83226906465E+03  0.50400001928E-02 0.  1.
    10030    2    1    2    0    0  0.00000000000E+00  0.00000000000E+00  0.89385746736E+03  0.25583955967E+04  0.23971664225E+04 0.  0.
        4    1    3    3  502    0  0.11283504607E+03  0.38414696880E+03 -0.75878943671E+03  0.85794152680E+03  0.12699999809E+01 0.  1.
       -4    1    3    3    0  502 -0.11283504607E+03 -0.38414696880E+03  0.16526469041E+04  0.17004540698E+04  0.12699999809E+01 0. -1.
</event>
<event>
 5   0  0.2297414E-06  0.2380063E+04  0.7818609E-02  0.8447006E-01
        1   -1    0    0  501    0  0.00000000000E+00  0.00000000000E+00  0.23097432786E+04  0.23097432786E+04  0.50400001928E-02 0. -1.
       -1   -1    0    0    0  501  0.00000000000E+00  0.00000000000E+00 -0.61313080756E+03  0.61313080758E+03  0.50400001928E-02 0.  1.
    10030    2    1    2    0    0  0.00000000000E+00  0.00000000000E+00  0.16966124710E+04  0.29228740862E+04  0.23800628241E+04 0.  0.
        1    1    3    3  502    0  0.64792261869E+03  0.71596222869E+03 -0.58567772653E+01  0.96562929460E+03  0.50400001928E-02 0.  1.
       -1    1    3    3    0  502 -0.64792261869E+03 -0.71596222869E+03  0.17024692483E+04  0.19572447916E+04  0.50400001928E-02 0. -1.
</event>
<event>
 5   0  0.1796750E-06  0.2403866E+04  0.7818609E-02  0.8438057E-01
        4   -1    0    0  501    0  0.00000000000E+00  0.00000000000E+00  0.97199049344E+03  0.97199132313E+03  0.12699999809E+01 0. -1.
       -4   -1    0    0    0  501  0.00000000000E+00  0.00000000000E+00 -0.14862714478E+04  0.14862719904E+04  0.12699999809E+01 0.  1.
    10030    2    1    2    0    0  0.00000000000E+00  0.00000000000E+00 -0.51428095434E+03  0.24582633135E+04  0.24038663895E+04 0.  0.
        1    1    3    3  502    0  0.10839936666E+04 -0.21878662180E+03  0.22440108715E+03  0.11283907581E+04  0.50400001928E-02 0. -1.
       -1    1    3    3    0  502 -0.10839936666E+04  0.21878662180E+03 -0.73868204149E+03  0.13298725554E+04  0.50400001928E-02 0.  1.
</event>
<event>
 5   0  0.5349036E-06  0.2401201E+04  0.7818609E-02  0.8439054E-01
       -2   -1    0    0    0  501  0.00000000000E+00  0.00000000000E+00  0.17919119381E+04  0.17919119381E+04  0.25500000920E-02 0. -1.
        2   -1    0    0  501    0  0.00000000000E+00  0.00000000000E+00 -0.80441573575E+03  0.80441573576E+03  0.25500000920E-02 0.  1.
    10030    2    1    2    0    0  0.00000000000E+00  0.00000000000E+00  0.98749620232E+03  0.25963276738E+04  0.24012014993E+04 0.  0.
        1    1    3    3  502    0  0.22197081797E+03  0.11113642485E+04  0.65261839961E+02  0.11351918978E+04  0.50400001928E-02 0.  1.
       -1    1    3    3    0  502 -0.22197081797E+03 -0.11113642485E+04  0.92223436236E+03  0.14611357761E+04  0.50400001928E-02 0. -1.
</event>
<event>
 5   0  0.5349036E-06  0.2399892E+04  0.7818609E-02  0.8439544E-01
       -2   -1    0    0    0  501  0.00000000000E+00  0.00000000000E+00  0.57522034644E+03  0.57522034645E+03  0.25500000920E-02 0. -1.
        2   -1    0    0  501    0  0.00000000000E+00  0.00000000000E+00 -0.25031624613E+04  0.25031624614E+04  0.25500000920E-02 0.  1.
    10030    2    1    2    0    0  0.00000000000E+00  0.00000000000E+00 -0.19279421149E+04  0.30783828078E+04  0.23998916461E+04 0.  0.
        1    1    3    3  502    0 -0.11293446454E+04  0.28239197404E+03 -0.59064646553E+03  0.13053841589E+04  0.50400001928E-02 0. -1.
       -1    1    3    3    0  502  0.11293446454E+04 -0.28239197404E+03 -0.13372956494E+04  0.17729986489E+04  0.50400001928E-02 0.  1.
</event>
<event>
 5   0  0.5349036E-06  0.2395563E+04  0.7818609E-02  0.8441166E-01
       -2   -1    0    0    0  501  0.00000000000E+00  0.00000000000E+00  0.69228497418E+03  0.69228497419E+03  0.25500000920E-02 0. -1.
        2   -1    0    0  501    0  0.00000000000E+00  0.00000000000E+00 -0.20723848695E+04  0.20723848695E+04  0.25500000920E-02 0.  1.
    10030    2    1    2    0    0  0.00000000000E+00  0.00000000000E+00 -0.13800998953E+04  0.27646698437E+04  0.23955633207E+04 0.  0.
        1    1    3    3  502    0  0.61115520869E+03 -0.95094026257E+03 -0.23293719952E+03  0.11541480889E+04  0.50400001928E-02 0. -1.
       -1    1    3    3    0  502 -0.61115520869E+03  0.95094026257E+03 -0.11471626958E+04  0.16105217548E+04  0.50400001928E-02 0.  1.
</event>
<event>
 5   0  0.2254269E-06  0.2401802E+04  0.7818609E-02  0.8438829E-01
        1   -1    0    0  501    0  0.00000000000E+00  0.00000000000E+00  0.21232516181E+04  0.21232516181E+04  0.50400001928E-02 0. -1.
       -1   -1    0    0    0  501  0.00000000000E+00  0.00000000000E+00 -0.67922409714E+03  0.67922409716E+03  0.50400001928E-02 0.  1.
    10030    2    1    2    0    0  0.00000000000E+00  0.00000000000E+00  0.14440275209E+04  0.28024757152E+04  0.24018023760E+04 0.  0.
        2    1    3    3  502    0 -0.95241447816E+02  0.11887537063E+04  0.88685128580E+03  0.14861734457E+04  0.25500000920E-02 0. -1.
       -2    1    3    3    0  502  0.95241447816E+02 -0.11887537063E+04  0.55717623514E+03  0.13163022695E+04  0.25500000920E-02 0.  1.
</event>
<event>
 5   0  0.2149417E-06  0.2399138E+04  0.7818609E-02  0.8439826E-01
        1   -1    0    0  501    0  0.00000000000E+00  0.00000000000E+00  0.63655955667E+03  0.63655955669E+03  0.50400001928E-02 0.  1.
       -1   -1    0    0    0  501  0.00000000000E+00  0.00000000000E+00 -0.22605353321E+04  0.22605353321E+04  0.50400001928E-02 0. -1.
    10030    2    1    2    0    0  0.00000000000E+00  0.00000000000E+00 -0.16239757754E+04  0.28970948888E+04  0.23991376525E+04 0.  0.
        5    1    3    3  502    0  0.36091996094E+03 -0.10236050242E+04 -0.14288033593E+04  0.17943053233E+04  0.46999998093E+01 0. -1.
       -5    1    3    3    0  502 -0.36091996094E+03  0.10236050242E+04 -0.19517241608E+03  0.11027895655E+04  0.46999998093E+01 0.  1.
</event>
<event>
 5   0  0.5379778E-06  0.2330641E+04  0.7818609E-02  0.8465937E-01
       -2   -1    0    0    0  501  0.00000000000E+00  0.00000000000E+00  0.15575705225E+04  0.15575705225E+04  0.25500000920E-02 0.  1.
        2   -1    0    0  501    0  0.00000000000E+00  0.00000000000E+00 -0.87185233776E+03  0.87185233777E+03  0.25500000920E-02 0. -1.
    10030    2    1    2    0    0  0.00000000000E+00  0.00000000000E+00  0.68571818474E+03  0.24294228603E+04  0.23306406855E+04 0.  0.
        5    1    3    3  502    0 -0.87817718212E+03  0.44991231579E+03 -0.30336287391E+03  0.10323116673E+04  0.46999998093E+01 0. -1.
       -5    1    3    3    0  502  0.87817718212E+03 -0.44991231579E+03  0.98908105865E+03  0.13971111930E+04  0.46999998093E+01 0.  1.
</event>
<event>
 5   0  0.2149029E-06  0.2395493E+04  0.7818609E-02  0.8441193E-01
        1   -1    0    0  501    0  0.00000000000E+00  0.00000000000E+00  0.19250351825E+04  0.19250351825E+04  0.50400001928E-02 0.  1.
       -1   -1    0    0    0  501  0.00000000000E+00  0.00000000000E+00 -0.74523125897E+03  0.74523125898E+03  0.50400001928E-02 0. -1.
    10030    2    1    2    0    0  0.00000000000E+00  0.00000000000E+00  0.11798039235E+04  0.26702664415E+04  0.23954927615E+04 0.  0.
        4    1    3    3  502    0  0.10751111387E+04  0.49612872733E+03  0.79112728117E+03  0.14240406113E+04  0.12699999809E+01 0. -1.
       -4    1    3    3    0  502 -0.10751111387E+04 -0.49612872733E+03  0.38867664235E+03  0.12462258302E+04  0.12699999809E+01 0.  1.
</event>
<event>
 5   0  0.5268358E-06  0.2404668E+04  0.7818609E-02  0.8437758E-01
       -2   -1    0    0    0  501  0.00000000000E+00  0.00000000000E+00  0.93585968603E+03  0.93585968604E+03  0.25500000920E-02 0.  1.
        2   -1    0    0  501    0  0.00000000000E+00  0.00000000000E+00 -0.15446838606E+04  0.15446838606E+04  0.25500000920E-02 0. -1.
    10030    2    1    2    0    0  0.00000000000E+00  0.00000000000E+00 -0.60882417454E+03  0.24805435466E+04  0.24046682539E+04 0.  0.
        2    1    3    3  502    0 -0.68894938068E+03  0.61537711261E+03 -0.10982841058E+04  0.14351195828E+04  0.25500000920E-02 0. -1.
       -2    1    3    3    0  502  0.68894938068E+03 -0.61537711261E+03  0.48945993124E+03  0.10454239638E+04  0.25500000920E-02 0.  1.
</event>
<event>
 5   0  0.2297414E-06  0.2400696E+04  0.7818609E-02  0.8439243E-01
        1   -1    0    0  501    0  0.00000000000E+00  0.00000000000E+00  0.23808809436E+04  0.23808809436E+04  0.50400001928E-02 0.  1.
       -1   -1    0    0    0  501  0.00000000000E+00  0.00000000000E+00 -0.60516880166E+03  0.60516880168E+03  0.50400001928E-02 0. -1.
    10030    2    1    2    0    0  0.00000000000E+00  0.00000000000E+00  0.17757121420E+04  0.29860497453E+04  0.24006956222E+04 0.  0.
        1    1    3    3  502    0 -0.86695164598E+03 -0.77724240406E+02  0.19159440009E+04  0.21043972127E+04  0.50400001928E-02 0.  1.
       -1    1    3    3    0  502  0.86695164598E+03  0.77724240406E+02 -0.14023185896E+03  0.88165253264E+03  0.50400001928E-02 0. -1.
</event>
<event>
 5   0  0.5440503E-06  0.2397416E+04  0.7818609E-02  0.8440471E-01
       -2   -1    0    0    0  501  0.00000000000E+00  0.00000000000E+00  0.72502793231E+03  0.72502793231E+03  0.25500000920E-02 0.  1.
        2   -1    0    0  501    0  0.00000000000E+00  0.00000000000E+00 -0.19818563987E+04  0.19818563987E+04  0.25500000920E-02 0. -1.
    10030    2    1    2    0    0  0.00000000000E+00  0.00000000000E+00 -0.12568284664E+04  0.27068843310E+04  0.23974163150E+04 0.  0.
        3    1    3    3  502    0 -0.60766700502E+03 -0.79713997029E+03 -0.13707042242E+04  0.16980934609E+04  0.10100000352E+00 0. -1.
       -3    1    3    3    0  502  0.60766700502E+03  0.79713997029E+03  0.11387575787E+03  0.10087908701E+04  0.10100000352E+00 0.  1.
</event>
<event>
 5   0  0.1796750E-06  0.2395328E+04  0.7818609E-02  0.8441255E-01
       -4   -1    0    0    0  501  0.00000000000E+00  0.00000000000E+00  0.87103790953E+03  0.87103883538E+03  0.12699999809E+01 0.  1.
        4   -1    0    0  501    0  0.00000000000E+00  0.00000000000E+00 -0.16467685088E+04  0.16467689985E+04  0.12699999809E+01 0. -1.
    10030    2    1    2    0    0  0.00000000000E+00  0.00000000000E+00 -0.77573059930E+03  0.25178078339E+04  0.23953284380E+04 0.  0.
        5    1    3    3  502    0  0.76098725908E+03  0.20865558083E+03 -0.13348994589E+04  0.15506828868E+04  0.46999998093E+01 0. -1.
       -5    1    3    3    0  502 -0.76098725908E+03 -0.20865558083E+03  0.55916885961E+03  0.96712494717E+03  0.46999998093E+01 0.  1.
</event>
<event>
 5   0  0.2297414E-06  0.2396222E+04  0.7818609E-02  0.8440919E-01
        1   -1    0    0  501    0  0.00000000000E+00  0.00000000000E+00  0.17191739766E+04  0.17191739766E+04  0.50400001928E-02 0.  1.
       -1   -1    0    0    0  501  0.00000000000E+00  0.00000000000E+00 -0.83497629854E+03  0.83497629856E+03  0.50400001928E-02 0. -1.
    10030    2    1    2    0    0  0.00000000000E+00  0.00000000000E+00  0.88419767804E+03  0.25541502752E+04  0.23962216288E+04 0.  0.
        1    1    3    3  502    0 -0.97439855575E+03 -0.12236278530E+03 -0.28946183373E+03  0.10238229094E+04  0.50400001928E-02 0. -1.
       -1    1    3    3    0  502  0.97439855575E+03  0.12236278530E+03  0.11736595118E+04  0.15303273657E+04  0.50400001928E-02 0.  1.
</event>
<event>
 5   0  0.2149029E-06  0.2379483E+04  0.7818609E-02  0.8447225E-01
        1   -1    0    0  501    0  0.00000000000E+00  0.00000000000E+00  0.28387117317E+04  0.28387117317E+04  0.50400001928E-02 0. -1.
       -1   -1    0    0    0  501  0.00000000000E+00  0.00000000000E+00 -0.49863617103E+03  0.49863617105E+03  0.50400001928E-02 0.  1.
    10030    2    1    2    0    0  0.00000000000E+00  0.00000000000E+00  0.23400755607E+04  0.33373479028E+04  0.23794825896E+04 0.  0.
        4    1    3    3  502    0  0.66967027804E+03 -0.94465279959E+03  0.15532593796E+04  0.19373805786E+04  0.12699999809E+01 0.  1.
       -4    1    3    3    0  502 -0.66967027804E+03  0.94465279959E+03  0.78681618108E+03  0.13999673242E+04  0.12699999809E+01 0. -1.
</event>
<event>
 5   0  0.1796750E-06  0.2404281E+04  0.7818609E-02  0.8437903E-01
        3   -1    0    0  501    0  0.00000000000E+00  0.00000000000E+00  0.10295638716E+04  0.10295638766E+04  0.10100000352E+00 0. -1.
       -3   -1    0    0    0  501  0.00000000000E+00  0.00000000000E+00 -0.14036442479E+04  0.14036442515E+04  0.10100000352E+00 0.  1.
    10030    2    1    2    0    0  0.00000000000E+00  0.00000000000E+00 -0.37408037622E+03  0.24332081281E+04  0.24042806963E+04 0.  0.
        1    1    3    3  502    0  0.10830495573E+03 -0.64748040276E+02  0.10228431656E+04  0.10305971151E+04  0.50400001928E-02 0. -1.
       -1    1    3    3    0  502 -0.10830495573E+03  0.64748040276E+02 -0.13969235418E+04  0.14026110130E+04  0.50400001928E-02 0.  1.
</event>
<event>
 5   0  0.2149417E-06  0.2410617E+04  0.7818609E-02  0.8435539E-01
       -1   -1    0    0    0  501  0.00000000000E+00  0.00000000000E+00  0.85930232965E+03  0.85930232967E+03  0.50400001928E-02 0.  1.
        1   -1    0    0  501    0  0.00000000000E+00  0.00000000000E+00 -0.16906377671E+04  0.16906377671E+04  0.50400001928E-02 0. -1.
    10030    2    1    2    0    0  0.00000000000E+00  0.00000000000E+00 -0.83133543748E+03  0.25499400968E+04  0.24106173250E+04 0.  0.
        5    1    3    3  502    0  0.34540767117E+03 -0.38490871284E+03  0.73596296616E+03  0.89951362084E+03  0.46999998093E+01 0.  1.
       -5    1    3    3    0  502 -0.34540767117E+03  0.38490871284E+03 -0.15672984036E+04  0.16504264760E+04  0.46999998093E+01 0. -1.
</event>
<event>
 5   0  0.1796750E-06  0.2409150E+04  0.7818609E-02  0.8436086E-01
        4   -1    0    0  501    0  0.00000000000E+00  0.00000000000E+00  0.10310940194E+04  0.10310948015E+04  0.12699999809E+01 0. -1.
       -4   -1    0    0    0  501  0.00000000000E+00  0.00000000000E+00 -0.14072423307E+04  0.14072429037E+04  0.12699999809E+01 0.  1.
    10030    2    1    2    0    0  0.00000000000E+00  0.00000000000E+00 -0.37614831128E+03  0.24383377053E+04  0.24091498942E+04 0.  0.
        3    1    3    3  502    0 -0.97400630217E+03 -0.70147958467E+03 -0.85660736349E+02  0.12033701244E+04  0.10100000352E+00 0.  1.
       -3    1    3    3    0  502  0.97400630217E+03  0.70147958467E+03 -0.29048757493E+03  0.12349675809E+04  0.10100000352E+00 0. -1.
</event>
<event>
 5   0  0.5379778E-06  0.2401139E+04  0.7818609E-02  0.8439077E-01
       -2   -1    0    0    0  501  0.00000000000E+00  0.00000000000E+00  0.88987446581E+03  0.88987446581E+03  0.25500000920E-02 0. -1.
        2   -1    0    0  501    0  0.00000000000E+00  0.00000000000E+00 -0.16197426106E+04  0.16197426106E+04  0.25500000920E-02 0.  1.
    10030    2    1    2    0    0  0.00000000000E+00  0.00000000000E+00 -0.72986814476E+03  0.25096170764E+04  0.24011393881E+04 0.  0.
        5    1    3    3  502    0 -0.22069870201E+02  0.56405867430E+03 -0.14723766624E+04  0.15768843944E+04  0.46999998093E+01 0.  1.
       -5    1    3    3    0  502  0.22069870201E+02 -0.56405867430E+03  0.74250851767E+03  0.93273268198E+03  0.46999998093E+01 0. -1.
</event>
<event>
 5   0  0.5379778E-06  0.2401081E+04  0.7818609E-02  0.8439099E-01
       -2   -1    0    0    0  501  0.00000000000E+00  0.00000000000E+00  0.72745698138E+03  0.72745698139E+03  0.25500000920E-02 0. -1.
        2   -1    0    0  501    0  0.00000000000E+00  0.00000000000E+00 -0.19812820122E+04  0.19812820122E+04  0.25500000920E-02 0.  1.
    10030    2    1    2    0    0  0.00000000000E+00  0.00000000000E+00 -0.12538250309E+04  0.27087389936E+04  0.24010809498E+04 0.  0.
        5    1    3    3  502    0  0.77840623561E+02  0.11722558690E+04 -0.90561473523E+03  0.14833755842E+04  0.46999998093E+01 0.  1.
       -5    1    3    3    0  502 -0.77840623561E+02 -0.11722558690E+04 -0.34821029562E+03  0.12253634094E+04  0.46999998093E+01 0. -1.
</event>
<event>
 5   0  0.5379778E-06  0.2381080E+04  0.7818609E-02  0.8446621E-01
        2   -1    0    0  501    0  0.00000000000E+00  0.00000000000E+00  0.18480338421E+04  0.18480338421E+04  0.25500000920E-02 0. -1.
       -2   -1    0    0    0  501  0.00000000000E+00  0.00000000000E+00 -0.76696963089E+03  0.76696963089E+03  0.25500000920E-02 0.  1.
    10030    2    1    2    0    0  0.00000000000E+00  0.00000000000E+00  0.10810642112E+04  0.26150034729E+04  0.23810802874E+04 0.  0.
        5    1    3    3  502    0  0.10283763283E+04  0.50718949033E+03  0.89225219158E+03  0.14529057488E+04  0.46999998093E+01 0.  1.
       -5    1    3    3    0  502 -0.10283763283E+04 -0.50718949033E+03  0.18881201958E+03  0.11620977241E+04  0.46999998093E+01 0. -1.
</event>
<event>
 5   0  0.2254269E-06  0.2405794E+04  0.7818609E-02  0.8437338E-01
        1   -1    0    0  501    0  0.00000000000E+00  0.00000000000E+00  0.20096018750E+04  0.20096018750E+04  0.50400001928E-02 0.  1.
       -1   -1    0    0    0  501  0.00000000000E+00  0.00000000000E+00 -0.72002389047E+03  0.72002389048E+03  0.50400001928E-02 0. -1.
    10030    2    1    2    0    0  0.00000000000E+00  0.00000000000E+00  0.12895779845E+04  0.27296257655E+04  0.24057941395E+04 0.  0.
        2    1    3    3  502    0 -0.10183935457E+04  0.26598200403E+03 -0.15907239898E+02  0.10526751068E+04  0.25500000920E-02 0. -1.
       -2    1    3    3    0  502  0.10183935457E+04 -0.26598200403E+03  0.13054852244E+04  0.16769506586E+04  0.25500000920E-02 0.  1.
</event>
<event>
 5   0  0.5440503E-06  0.2413344E+04  0.7818609E-02  0.8434525E-01
        2   -1    0    0  501    0  0.00000000000E+00  0.00000000000E+00  0.19789192750E+04  0.19789192750E+04  0.25500000920E-02 0.  1.
       -2   -1    0    0    0  501  0.00000000000E+00  0.00000000000E+00 -0.73578407884E+03  0.73578407884E+03  0.25500000920E-02 0. -1.
    10030    2    1    2    0    0  0.00000000000E+00  0.00000000000E+00  0.12431351961E+04  0.27147033538E+04  0.24133439836E+04 0.  0.
        3    1    3    3  502    0 -0.36715805860E+03  0.23401512380E+03  0.18874806896E+04  0.19370471037E+04  0.10100000352E+00 0.  1.
       -3    1    3    3    0  502  0.36715805860E+03 -0.23401512380E+03 -0.64434549347E+03  0.77765625010E+03  0.10100000352E+00 0. -1.
</event>
<event>
 5   0  0.5371843E-06  0.2402492E+04  0.7818609E-02  0.8438571E-01
        2   -1    0    0  501    0  0.00000000000E+00  0.00000000000E+00  0.22621770038E+04  0.22621770038E+04  0.25500000920E-02 0. -1.
       -2   -1    0    0    0  501  0.00000000000E+00  0.00000000000E+00 -0.63787774875E+03  0.63787774875E+03  0.25500000920E-02 0.  1.
    10030    2    1    2    0    0  0.00000000000E+00  0.00000000000E+00  0.16242992551E+04  0.29000547526E+04  0.24024923513E+04 0.  0.
        4    1    3    3  502    0  0.31437740817E+03 -0.29520413581E+03 -0.54121218245E+03  0.69201941873E+03  0.12699999809E+01 0.  1.
       -4    1    3    3    0  502 -0.31437740817E+03  0.29520413581E+03  0.21655114375E+04  0.22080353339E+04  0.12699999809E+01 0. -1.
</event>
<event>
 5   0  0.5440503E-06  0.2402453E+04  0.7818609E-02  0.8438586E-01
       -2   -1    0    0    0  501  0.00000000000E+00  0.00000000000E+00  0.14821519915E+04  0.14821519915E+04  0.25500000920E-02 0. -1.
        2   -1    0    0  501    0  0.00000000000E+00  0.00000000000E+00 -0.97354748290E+03  0.97354748291E+03  0.25500000920E-02 0.  1.
    10030    2    1    2    0    0  0.00000000000E+00  0.00000000000E+00  0.50860450855E+03  0.24556994744E+04  0.24024531967E+04 0.  0.
        3    1    3    3  502    0  0.11404533313E+04 -0.21910744885E+03 -0.59592519233E+02  0.11628384039E+04  0.10100000352E+00 0.  1.
       -3    1    3    3    0  502 -0.11404533313E+04  0.21910744885E+03  0.56819702778E+03  0.12928610705E+04  0.10100000352E+00 0. -1.
</event>
<event>
 5   0  0.2254269E-06  0.2398851E+04  0.7818609E-02  0.8439934E-01
        1   -1    0    0  501    0  0.00000000000E+00  0.00000000000E+00  0.13822337797E+04  0.13822337798E+04  0.50400001928E-02 0. -1.
       -1   -1    0    0    0  501  0.00000000000E+00  0.00000000000E+00 -0.10407946741E+04  0.10407946741E+04  0.50400001928E-02 0.  1.
    10030    2    1    2    0    0  0.00000000000E+00  0.00000000000E+00  0.34143910568E+03  0.24230284538E+04  0.23988510219E+04 0.  0.
        2    1    3    3  502    0 -0.15195133580E+03 -0.95978135066E+03  0.88090771898E+03  0.13115898211E+04  0.25500000920E-02 0. -1.
       -2    1    3    3    0  502  0.15195133580E+03  0.95978135066E+03 -0.53946861331E+03  0.11114386327E+04  0.25500000920E-02 0.  1.
</event>
<event>
 5   0  0.5268358E-06  0.2398414E+04  0.7818609E-02  0.8440097E-01
       -2   -1    0    0    0  501  0.00000000000E+00  0.00000000000E+00  0.13681016037E+04  0.13681016037E+04  0.25500000920E-02 0. -1.
        2   -1    0    0  501    0  0.00000000000E+00  0.00000000000E+00 -0.10511630206E+04  0.10511630206E+04  0.25500000920E-02 0.  1.
    10030    2    1    2    0    0  0.00000000000E+00  0.00000000000E+00  0.31693858307E+03  0.24192646243E+04  0.23984143213E+04 0.  0.
        2    1    3    3  502    0 -0.32891497799E+03 -0.63217656508E+03  0.11313568141E+04  0.13370865765E+04  0.25500000920E-02 0. -1.
       -2    1    3    3    0  502  0.32891497799E+03  0.63217656508E+03 -0.81441823100E+03  0.10821780478E+04  0.25500000920E-02 0.  1.
</event>
<event>
 5   0  0.2149029E-06  0.2397011E+04  0.7818609E-02  0.8440623E-01
       -1   -1    0    0    0  501  0.00000000000E+00  0.00000000000E+00  0.10730894875E+04  0.10730894875E+04  0.50400001928E-02 0. -1.
        1   -1    0    0  501    0  0.00000000000E+00  0.00000000000E+00 -0.13385792260E+04  0.13385792260E+04  0.50400001928E-02 0.  1.
    10030    2    1    2    0    0  0.00000000000E+00  0.00000000000E+00 -0.26548973856E+03  0.24116687135E+04  0.23970108849E+04 0.  0.
        4    1    3    3  502    0  0.95398077218E+03  0.26946775132E+03  0.54496267889E+03  0.11312285874E+04  0.12699999809E+01 0. -1.
       -4    1    3    3    0  502 -0.95398077218E+03 -0.26946775132E+03 -0.81045241745E+03  0.12804401261E+04  0.12699999809E+01 0.  1.
</event>
<event>
 5   0  0.2149029E-06  0.2400900E+04  0.7818609E-02  0.8439167E-01
        1   -1    0    0  501    0  0.00000000000E+00  0.00000000000E+00  0.14440081751E+04  0.14440081751E+04  0.50400001928E-02 0.  1.
       -1   -1    0    0    0  501  0.00000000000E+00  0.00000000000E+00 -0.99797271555E+03  0.99797271556E+03  0.50400001928E-02 0. -1.
    10030    2    1    2    0    0  0.00000000000E+00  0.00000000000E+00  0.44603545956E+03  0.24419808907E+04  0.24009004643E+04 0.  0.
        4    1    3    3  502    0 -0.70211008747E+03  0.79579767383E+03  0.79371242911E+03  0.13252296200E+04  0.12699999809E+01 0.  1.
       -4    1    3    3    0  502  0.70211008747E+03 -0.79579767383E+03 -0.34767696955E+03  0.11167512707E+04  0.12699999809E+01 0. -1.
</event>
<event>
 5   0  0.5371843E-06  0.2402641E+04  0.7818609E-02  0.8438515E-01
       -2   -1    0    0    0  501  0.00000000000E+00  0.00000000000E+00  0.75333266252E+03  0.75333266253E+03  0.25500000920E-02 0. -1.
        2   -1    0    0  501    0  0.00000000000E+00  0.00000000000E+00 -0.19157153068E+04  0.19157153068E+04  0.25500000920E-02 0.  1.
    10030    2    1    2    0    0  0.00000000000E+00  0.00000000000E+00 -0.11623826443E+04  0.26690479694E+04  0.24026409742E+04 0.  0.
        4    1    3    3  502    0 -0.42370764717E+03 -0.18404380769E+03  0.65071950362E+03  0.79802116433E+03  0.12699999809E+01 0. -1.
       -4    1    3    3    0  502  0.42370764717E+03  0.18404380769E+03 -0.18131021479E+04  0.18710268050E+04  0.12699999809E+01 0.  1.
</event>
<event>
 5   0  0.2149417E-06  0.2399115E+04  0.7818609E-02  0.8439835E-01
        1   -1    0    0  501    0  0.00000000000E+00  0.00000000000E+00  0.55121315904E+03  0.55121315906E+03  0.50400001928E-02 0.  1.
       -1   -1    0    0    0  501  0.00000000000E+00  0.00000000000E+00 -0.26104937961E+04  0.26104937961E+04  0.50400001928E-02 0. -1.
    10030    2    1    2    0    0  0.00000000000E+00  0.00000000000E+00 -0.20592806371E+04  0.31617069552E+04  0.23991152803E+04 0.  0.
        5    1    3    3  502    0  0.39326585230E+01 -0.28346951843E+03 -0.25656985259E+04  0.25813177739E+04  0.46999998093E+01 0. -1.
       -5    1    3    3    0  502 -0.39326585230E+01  0.28346951843E+03  0.50641788884E+03  0.58038918134E+03  0.46999998093E+01 0.  1.
</event>
<event>
 5   0  0.2254269E-06  0.2397829E+04  0.7818609E-02  0.8440317E-01
       -1   -1    0    0    0  501  0.00000000000E+00  0.00000000000E+00  0.13913510766E+04  0.13913510766E+04  0.50400001928E-02 0. -1.
        1   -1    0    0  501    0  0.00000000000E+00  0.00000000000E+00 -0.10330939591E+04  0.10330939591E+04  0.50400001928E-02 0.  1.
    10030    2    1    2    0    0  0.00000000000E+00  0.00000000000E+00  0.35825711750E+03  0.24244450357E+04  0.23978293452E+04 0.  0.
        2    1    3    3  502    0 -0.76472100767E+03  0.37128621858E+03  0.10339384693E+04  0.13385366764E+04  0.25500000920E-02 0. -1.
       -2    1    3    3    0  502  0.76472100767E+03 -0.37128621858E+03 -0.67568135180E+03  0.10859083593E+04  0.25500000920E-02 0.  1.
</event>
<event>
 5   0  0.5440503E-06  0.2401846E+04  0.7818609E-02  0.8438813E-01
       -2   -1    0    0    0  501  0.00000000000E+00  0.00000000000E+00  0.75883292114E+03  0.75883292115E+03  0.25500000920E-02 0.  1.
        2   -1    0    0  501    0  0.00000000000E+00  0.00000000000E+00 -0.19005709915E+04  0.19005709915E+04  0.25500000920E-02 0. -1.
    10030    2    1    2    0    0  0.00000000000E+00  0.00000000000E+00 -0.11417380704E+04  0.26594039127E+04  0.24018458213E+04 0.  0.
        3    1    3    3  502    0 -0.89212821461E+03 -0.38075769661E+03  0.21311683817E+03  0.99312032088E+03  0.10100000352E+00 0.  1.
       -3    1    3    3    0  502  0.89212821461E+03  0.38075769661E+03 -0.13548549086E+04  0.16662835918E+04  0.10100000352E+00 0. -1.
</event>
<event>
 5   0  0.5440503E-06  0.2396052E+04  0.7818609E-02  0.8440983E-01
       -2   -1    0    0    0  501  0.00000000000E+00  0.00000000000E+00  0.89119781594E+03  0.89119781595E+03  0.25500000920E-02 0. -1.
        2   -1    0    0  501    0  0.00000000000E+00  0.00000000000E+00 -0.16104918276E+04  0.16104918276E+04  0.25500000920E-02 0.  1.
    10030    2    1    2    0    0  0.00000000000E+00  0.00000000000E+00 -0.71929401170E+03  0.25016896436E+04  0.23960524196E+04 0.  0.
        3    1    3    3  502    0  0.98533081597E+03  0.48277945141E+02 -0.10693651893E+04  0.14549053217E+04  0.10100000352E+00 0.  1.
       -3    1    3    3    0  502 -0.98533081597E+03 -0.48277945141E+02  0.35007117761E+03  0.10467843219E+04  0.10100000352E+00 0. -1.
</event>
<event>
 5   0  0.5371843E-06  0.2391963E+04  0.7818609E-02  0.8442519E-01
       -2   -1    0    0    0  501  0.00000000000E+00  0.00000000000E+00  0.10550422146E+04  0.10550422146E+04  0.25500000920E-02 0.  1.
        2   -1    0    0  501    0  0.00000000000E+00  0.00000000000E+00 -0.13557478605E+04  0.13557478605E+04  0.25500000920E-02 0. -1.
    10030    2    1    2    0    0  0.00000000000E+00  0.00000000000E+00 -0.30070564590E+03  0.24107900751E+04  0.23919625625E+04 0.  0.
        4    1    3    3  502    0 -0.49722795468E+03  0.14028213045E+03  0.93677295227E+03  0.10697943223E+04  0.12699999809E+01 0.  1.
       -4    1    3    3    0  502  0.49722795468E+03 -0.14028213045E+03 -0.12374785982E+04  0.13409957527E+04  0.12699999809E+01 0. -1.
</event>
<event>
 5   0  0.2297414E-06  0.2401356E+04  0.7818609E-02  0.8438996E-01
        1   -1    0    0  501    0  0.00000000000E+00  0.00000000000E+00  0.22293055252E+04  0.22293055252E+04  0.50400001928E-02 0.  1.
       -1   -1    0    0    0  501  0.00000000000E+00  0.00000000000E+00 -0.64667124421E+03  0.64667124423E+03  0.50400001928E-02 0. -1.
    10030    2    1    2    0    0  0.00000000000E+00  0.00000000000E+00  0.15826342809E+04  0.28759767694E+04  0.24013560983E+04 0.  0.
        1    1    3    3  502    0 -0.38346123001E+02 -0.97906991934E+03 -0.39801032085E+02  0.98062860161E+03  0.50400001928E-02 0. -1.
       -1    1    3    3    0  502  0.38346123001E+02  0.97906991934E+03  0.16224353130E+04  0.18953481678E+04  0.50400001928E-02 0.  1.
</event>
<event>
 5   0  0.5371843E-06  0.2400639E+04  0.7818609E-02  0.8439265E-01
       -2   -1    0    0    0  501  0.00000000000E+00  0.00000000000E+00  0.13907971061E+04  0.13907971061E+04  0.25500000920E-02 0. -1.
        2   -1    0    0  501    0  0.00000000000E+00  0.00000000000E+00 -0.10359285046E+04  0.10359285046E+04  0.25500000920E-02 0.  1.
    10030    2    1    2    0    0  0.00000000000E+00  0.00000000000E+00  0.35486860148E+03  0.24267256107E+04  0.24006385537E+04 0.  0.
        4    1    3    3  502    0  0.10647490332E+04  0.51013173483E+03  0.39621132194E+03  0.12453553369E+04  0.12699999809E+01 0. -1.
       -4    1    3    3    0  502 -0.10647490332E+04 -0.51013173483E+03 -0.41342720459E+02  0.11813702739E+04  0.12699999809E+01 0.  1.
</event>
<event>
 5   0  0.2215700E-06  0.2419020E+04  0.7818609E-02  0.8432417E-01
       -1   -1    0    0    0  501  0.00000000000E+00  0.00000000000E+00  0.92612421895E+03  0.92612421896E+03  0.50400001928E-02 0. -1.
        1   -1    0    0  501    0  0.00000000000E+00  0.00000000000E+00 -0.15796096646E+04  0.15796096646E+04  0.50400001928E-02 0.  1.
    10030    2    1    2    0    0  0.00000000000E+00  0.00000000000E+00 -0.65348544564E+03  0.25057338836E+04  0.24190202702E+04 0.  0.
        3    1    3    3  502    0 -0.67745409223E+03  0.96559086337E+03 -0.49559401029E+02  0.11805786323E+04  0.10100000352E+00 0. -1.
       -3    1    3    3    0  502  0.67745409223E+03 -0.96559086337E+03 -0.60392604461E+03  0.13251552513E+04  0.10100000352E+00 0.  1.
</event>
<event>
 5   0  0.5440503E-06  0.2401211E+04  0.7818609E-02  0.8439050E-01
       -2   -1    0    0    0  501  0.00000000000E+00  0.00000000000E+00  0.75559413923E+03  0.75559413924E+03  0.25500000920E-02 0. -1.
        2   -1    0    0  501    0  0.00000000000E+00  0.00000000000E+00 -0.19077085919E+04  0.19077085919E+04  0.25500000920E-02 0.  1.
    10030    2    1    2    0    0  0.00000000000E+00  0.00000000000E+00 -0.11521144527E+04  0.26633027312E+04  0.24012108874E+04 0.  0.
        3    1    3    3  502    0  0.10431401881E+04 -0.57280734754E+03 -0.39997217711E+03  0.12554789772E+04  0.10100000352E+00 0.  1.
       -3    1    3    3    0  502 -0.10431401881E+04  0.57280734754E+03 -0.75214227560E+03  0.14078237540E+04  0.10100000352E+00 0. -1.
</event>
<event>
 5   0  0.5379778E-06  0.2405456E+04  0.7818609E-02  0.8437464E-01
        2   -1    0    0  501    0  0.00000000000E+00  0.00000000000E+00  0.17211276211E+04  0.17211276211E+04  0.25500000920E-02 0. -1.
       -2   -1    0    0    0  501  0.00000000000E+00  0.00000000000E+00 -0.84046897929E+03  0.84046897929E+03  0.25500000920E-02 0.  1.
    10030    2    1    2    0    0  0.00000000000E+00  0.00000000000E+00  0.88065864182E+03  0.25615966004E+04  0.24054557780E+04 0.  0.
        5    1    3    3  502    0 -0.98979075942E+03 -0.57601213246E+03  0.83168460684E+03  0.14153434563E+04  0.46999998093E+01 0. -1.
       -5    1    3    3    0  502  0.98979075942E+03  0.57601213246E+03  0.48974034984E+02  0.11462531441E+04  0.46999998093E+01 0.  1.
</event>
<event>
 5   0  0.2297414E-06  0.2399454E+04  0.7818609E-02  0.8439708E-01
        1   -1    0    0  501    0  0.00000000000E+00  0.00000000000E+00  0.11873460856E+04  0.11873460856E+04  0.50400001928E-02 0.  1.
       -1   -1    0    0    0  501  0.00000000000E+00  0.00000000000E+00 -0.12122369539E+04  0.12122369539E+04  0.50400001928E-02 0. -1.
    10030    2    1    2    0    0  0.00000000000E+00  0.00000000000E+00 -0.24890868326E+02  0.23995830395E+04  0.23994539395E+04 0.  0.
        1    1    3    3  502    0 -0.10378072036E+04  0.38377344766E+03 -0.47617174279E+03  0.12046017515E+04  0.50400001928E-02 0.  1.
       -1    1    3    3    0  502  0.10378072036E+04 -0.38377344766E+03  0.45128087446E+03  0.11949812880E+04  0.50400001928E-02 0. -1.
</event>
<event>
 5   0  0.2297414E-06  0.2401286E+04  0.7818609E-02  0.8439022E-01
        1   -1    0    0  501    0  0.00000000000E+00  0.00000000000E+00  0.99271404119E+03  0.99271404120E+03  0.50400001928E-02 0.  1.
       -1   -1    0    0    0  501  0.00000000000E+00  0.00000000000E+00 -0.14521238096E+04  0.14521238097E+04  0.50400001928E-02 0. -1.
    10030    2    1    2    0    0  0.00000000000E+00  0.00000000000E+00 -0.45940976846E+03  0.24448378509E+04  0.24012860683E+04 0.  0.
        1    1    3    3  502    0 -0.31518255769E+03  0.59453542448E+03  0.78267917070E+03  0.10321817185E+04  0.50400001928E-02 0.  1.
       -1    1    3    3    0  502  0.31518255769E+03 -0.59453542448E+03 -0.12420889392E+04  0.14126561324E+04  0.50400001928E-02 0. -1.
</event>
<event>
 5   0  0.5349036E-06  0.2403196E+04  0.7818609E-02  0.8438308E-01
        2   -1    0    0  501    0  0.00000000000E+00  0.00000000000E+00  0.14337109790E+04  0.14337109790E+04  0.25500000920E-02 0. -1.
       -2   -1    0    0    0  501  0.00000000000E+00  0.00000000000E+00 -0.10070635194E+04  0.10070635194E+04  0.25500000920E-02 0.  1.
    10030    2    1    2    0    0  0.00000000000E+00  0.00000000000E+00  0.42664745960E+03  0.24407744985E+04  0.24031962254E+04 0.  0.
        1    1    3    3  502    0  0.19147623588E+03 -0.70845427114E+03  0.11796568604E+04  0.13893023111E+04  0.50400001928E-02 0. -1.
       -1    1    3    3    0  502 -0.19147623588E+03  0.70845427114E+03 -0.75300940079E+03  0.10514721874E+04  0.50400001928E-02 0.  1.
</event>
<event>
 5   0  0.2149029E-06  0.2396591E+04  0.7818609E-02  0.8440781E-01
        1   -1    0    0  501    0  0.00000000000E+00  0.00000000000E+00  0.18939995684E+04  0.18939995684E+04  0.50400001928E-02 0. -1.
       -1   -1    0    0    0  501  0.00000000000E+00  0.00000000000E+00 -0.75813719385E+03  0.75813719386E+03  0.50400001928E-02 0.  1.
    10030    2    1    2    0    0  0.00000000000E+00  0.00000000000E+00  0.11358623745E+04  0.26521367622E+04  0.23965905098E+04 0.  0.
        4    1    3    3  502    0 -0.52001221725E+03  0.60976295167E+03 -0.41795443622E+03  0.90383133768E+03  0.12699999809E+01 0.  1.
       -4    1    3    3    0  502  0.52001221725E+03 -0.60976295167E+03  0.15538168107E+04  0.17483054245E+04  0.12699999809E+01 0. -1.
</event>
<event>
 5   0  0.5379778E-06  0.2412963E+04  0.7818609E-02  0.8434666E-01
       -2   -1    0    0    0  501  0.00000000000E+00  0.00000000000E+00  0.98490001661E+03  0.98490001661E+03  0.25500000920E-02 0. -1.
        2   -1    0    0  501    0  0.00000000000E+00  0.00000000000E+00 -0.14779142392E+04  0.14779142392E+04  0.25500000920E-02 0.  1.
    10030    2    1    2    0    0  0.00000000000E+00  0.00000000000E+00 -0.49301422260E+03  0.24628142558E+04  0.24129631234E+04 0.  0.
        5    1    3    3  502    0 -0.32815773272E+03  0.30497629054E+03  0.89684938416E+03  0.10025262806E+04  0.46999998093E+01 0. -1.
       -5    1    3    3    0  502  0.32815773272E+03 -0.30497629054E+03 -0.13898636068E+04  0.14602879753E+04  0.46999998093E+01 0.  1.
</event>
<event>
 5   0  0.2254269E-06  0.2399984E+04  0.7818609E-02  0.8439510E-01
       -1   -1    0    0    0  501  0.00000000000E+00  0.00000000000E+00  0.65506900111E+03  0.65506900113E+03  0.50400001928E-02 0. -1.
        1   -1    0    0  501    0  0.00000000000E+00  0.00000000000E+00 -0.21982122648E+04  0.21982122648E+04  0.50400001928E-02 0.  1.
    10030    2    1    2    0    0  0.00000000000E+00  0.00000000000E+00 -0.15431432636E+04  0.28532812659E+04  0.23999839271E+04 0.  0.
        2    1    3    3  502    0  0.46560878850E+03 -0.18277159738E+03 -0.20683634485E+04  0.21279859858E+04  0.25500000920E-02 0.  1.
       -2    1    3    3    0  502 -0.46560878850E+03  0.18277159738E+03  0.52522018485E+03  0.72529528009E+03  0.25500000920E-02 0. -1.
</event>
<event>
 5   0  0.2149417E-06  0.2399265E+04  0.7818609E-02  0.8439779E-01
       -1   -1    0    0    0  501  0.00000000000E+00  0.00000000000E+00  0.26757650805E+04  0.26757650805E+04  0.50400001928E-02 0.  1.
        1   -1    0    0  501    0  0.00000000000E+00  0.00000000000E+00 -0.53783425596E+03  0.53783425598E+03  0.50400001928E-02 0. -1.
    10030    2    1    2    0    0  0.00000000000E+00  0.00000000000E+00  0.21379308245E+04  0.32135993365E+04  0.23992649885E+04 0.  0.
        5    1    3    3  502    0 -0.47401575168E+03  0.88407640549E+03  0.19501444687E+04  0.21930270318E+04  0.46999998093E+01 0.  1.
       -5    1    3    3    0  502  0.47401575168E+03 -0.88407640549E+03  0.18778635585E+03  0.10205723047E+04  0.46999998093E+01 0. -1.
</event>
<event>
 5   0  0.2215700E-06  0.2394964E+04  0.7818609E-02  0.8441392E-01
       -1   -1    0    0    0  501  0.00000000000E+00  0.00000000000E+00  0.15108097413E+04  0.15108097413E+04  0.50400001928E-02 0.  1.
        1   -1    0    0  501    0  0.00000000000E+00  0.00000000000E+00 -0.94913515688E+03  0.94913515690E+03  0.50400001928E-02 0. -1.
    10030    2    1    2    0    0  0.00000000000E+00  0.00000000000E+00  0.56167458445E+03  0.24599448982E+04  0.23949635829E+04 0.  0.
        3    1    3    3  502    0 -0.11330554092E+04  0.36715549522E+03  0.15360168273E+03  0.12009209821E+04  0.10100000352E+00 0. -1.
       -3    1    3    3    0  502  0.11330554092E+04 -0.36715549522E+03  0.40807290172E+03  0.12590239161E+04  0.10100000352E+00 0.  1.
</event>
<event>
 5   0  0.5379778E-06  0.2401371E+04  0.7818609E-02  0.8438990E-01
        2   -1    0    0  501    0  0.00000000000E+00  0.00000000000E+00  0.11368881242E+04  0.11368881242E+04  0.25500000920E-02 0. -1.
       -2   -1    0    0    0  501  0.00000000000E+00  0.00000000000E+00 -0.12680634148E+04  0.12680634148E+04  0.25500000920E-02 0.  1.
    10030    2    1    2    0    0  0.00000000000E+00  0.00000000000E+00 -0.13117529054E+03  0.24049515390E+04  0.24013714723E+04 0.  0.
        5    1    3    3  502    0 -0.62489290817E+03 -0.73265933483E+03  0.65265886696E+03  0.11632998471E+04  0.46999998093E+01 0. -1.
       -5    1    3    3    0  502  0.62489290817E+03  0.73265933483E+03 -0.78383415750E+03  0.12416516919E+04  0.46999998093E+01 0.  1.
</event>
<event>
 5   0  0.2254269E-06  0.2403750E+04  0.7818609E-02  0.8438101E-01
       -1   -1    0    0    0  501  0.00000000000E+00  0.00000000000E+00  0.14894350214E+04  0.14894350214E+04  0.50400001928E-02 0.  1.
        1   -1    0    0  501    0  0.00000000000E+00  0.00000000000E+00 -0.96983320136E+03  0.96983320137E+03  0.50400001928E-02 0. -1.
    10030    2    1    2    0    0  0.00000000000E+00  0.00000000000E+00  0.51960182008E+03  0.24592682228E+04  0.24037500162E+04 0.  0.
        2    1    3    3  502    0 -0.67357472681E+03  0.65465168849E+03 -0.50733850440E+03  0.10675505159E+04  0.25500000920E-02 0. -1.
       -2    1    3    3    0  502  0.67357472681E+03 -0.65465168849E+03  0.10269403245E+04  0.13917177070E+04  0.25500000920E-02 0.  1.
</event>
<event>
 5   0  0.2215700E-06  0.2400956E+04  0.7818609E-02  0.8439146E-01
       -1   -1    0    0    0  501  0.00000000000E+00  0.00000000000E+00  0.92225551944E+03  0.92225551945E+03  0.50400001928E-02 0.  1.
        1   -1    0    0  501    0  0.00000000000E+00  0.00000000000E+00 -0.15626340879E+04  0.15626340879E+04  0.50400001928E-02 0. -1.
    10030    2    1    2    0    0  0.00000000000E+00  0.00000000000E+00 -0.64037856842E+03  0.24848896073E+04  0.24009564031E+04 0.  0.
        3    1    3    3  502    0  0.95823318010E+02  0.11204428352E+04 -0.75508564046E+03  0.13545215354E+04  0.10100000352E+00 0. -1.
       -3    1    3    3    0  502 -0.95823318010E+02 -0.11204428352E+04  0.11470707204E+03  0.11303680719E+04  0.10100000352E+00 0.  1.
</event>
<event>
 5   0  0.5379778E-06  0.2404101E+04  0.7818609E-02  0.8437970E-01
        2   -1    0    0  501    0  0.00000000000E+00  0.00000000000E+00  0.12704596971E+04  0.12704596971E+04  0.25500000920E-02 0.  1.
       -2   -1    0    0    0  501  0.00000000000E+00  0.00000000000E+00 -0.11373248595E+04  0.11373248595E+04  0.25500000920E-02 0. -1.
    10030    2    1    2    0    0  0.00000000000E+00  0.00000000000E+00  0.13313483761E+03  0.24077845567E+04  0.24041009934E+04 0.  0.
        5    1    3    3  502    0  0.16937219885E+02 -0.15265068559E+03  0.12605829200E+04  0.12699135756E+04  0.46999998093E+01 0.  1.
       -5    1    3    3    0  502 -0.16937219885E+02  0.15265068559E+03 -0.11274480824E+04  0.11378709811E+04  0.46999998093E+01 0. -1.
</event>
<event>
 5   0  0.1796750E-06  0.2400545E+04  0.7818609E-02  0.8439299E-01
       -4   -1    0    0    0  501  0.00000000000E+00  0.00000000000E+00  0.15702322354E+04  0.15702327490E+04  0.12699999809E+01 0. -1.
        4   -1    0    0  501    0  0.00000000000E+00  0.00000000000E+00 -0.91747759158E+03  0.91747847056E+03  0.12699999809E+01 0.  1.
    10030    2    1    2    0    0  0.00000000000E+00  0.00000000000E+00  0.65275464379E+03  0.24877112195E+04  0.24005454561E+04 0.  0.
        1    1    3    3  502    0  0.39062207927E+03  0.87197237366E+03  0.10792078745E+04  0.14413920582E+04  0.50400001928E-02 0. -1.
       -1    1    3    3    0  502 -0.39062207927E+03 -0.87197237366E+03 -0.42645323068E+03  0.10463191613E+04  0.50400001928E-02 0.  1.
</event>
<event>
 5   0  0.5349036E-06  0.2388014E+04  0.7818609E-02  0.8444005E-01
        2   -1    0    0  501    0  0.00000000000E+00  0.00000000000E+00  0.26519593583E+04  0.26519593583E+04  0.25500000920E-02 0.  1.
       -2   -1    0    0    0  501  0.00000000000E+00  0.00000000000E+00 -0.53758468565E+03  0.53758468565E+03  0.25500000920E-02 0. -1.
    10030    2    1    2    0    0  0.00000000000E+00  0.00000000000E+00  0.21143746727E+04  0.31895440440E+04  0.23880140184E+04 0.  0.
        1    1    3    3  502    0 -0.48353361606E+03  0.97414126482E+02 -0.39514602906E+03  0.63200842890E+03  0.50400001928E-02 0. -1.
       -1    1    3    3    0  502  0.48353361606E+03 -0.97414126482E+02  0.25095207018E+04  0.25575356151E+04  0.50400001928E-02 0.  1.
</event>
<event>
 5   0  0.2149029E-06  0.2403238E+04  0.7818609E-02  0.8438292E-01
       -1   -1    0    0    0  501  0.00000000000E+00  0.00000000000E+00  0.52719115257E+03  0.52719115259E+03  0.50400001928E-02 0. -1.
        1   -1    0    0  501    0  0.00000000000E+00  0.00000000000E+00 -0.27388323182E+04  0.27388323182E+04  0.50400001928E-02 0.  1.
    10030    2    1    2    0    0  0.00000000000E+00  0.00000000000E+00 -0.22116411656E+04  0.32660234708E+04  0.24032379546E+04 0.  0.
        4    1    3    3  502    0  0.80902551410E+03 -0.42375446980E+03 -0.44577280029E+02  0.91437349040E+03  0.12699999809E+01 0. -1.
       -4    1    3    3    0  502 -0.80902551410E+03  0.42375446980E+03 -0.21670638856E+04  0.23516499804E+04  0.12699999809E+01 0.  1.
</event>
<event>
 5   0  0.2149417E-06  0.2405703E+04  0.7818609E-02  0.8437371E-01
       -1   -1    0    0    0  501  0.00000000000E+00  0.00000000000E+00  0.75644279756E+03  0.75644279758E+03  0.50400001928E-02 0.  1.
        1   -1    0    0  501    0  0.00000000000E+00  0.00000000000E+00 -0.19127052202E+04  0.19127052202E+04  0.50400001928E-02 0. -1.
    10030    2    1    2    0    0  0.00000000000E+00  0.00000000000E+00 -0.11562624226E+04  0.26691480178E+04  0.24057032965E+04 0.  0.
        5    1    3    3  502    0  0.54437814049E+03  0.55775271208E+03  0.43838337720E+03  0.89422464911E+03  0.46999998093E+01 0.  1.
       -5    1    3    3    0  502 -0.54437814049E+03 -0.55775271208E+03 -0.15946457998E+04  0.17749233687E+04  0.46999998093E+01 0. -1.
</event>
<event>
 5   0  0.2215700E-06  0.2400463E+04  0.7818609E-02  0.8439330E-01
        1   -1    0    0  501    0  0.00000000000E+00  0.00000000000E+00  0.13950941905E+04  0.13950941905E+04  0.50400001928E-02 0. -1.
       -1   -1    0    0    0  501  0.00000000000E+00  0.00000000000E+00 -0.10325870875E+04  0.10325870875E+04  0.50400001928E-02 0.  1.
    10030    2    1    2    0    0  0.00000000000E+00  0.00000000000E+00  0.36250710300E+03  0.24276812780E+04  0.24004634944E+04 0.  0.
        3    1    3    3  502    0 -0.20024946641E+03  0.15832988271E+03  0.13673204474E+04  0.13909469496E+04  0.10100000352E+00 0. -1.
       -3    1    3    3    0  502  0.20024946641E+03 -0.15832988271E+03 -0.10048133444E+04  0.10367343284E+04  0.10100000352E+00 0.  1.
</event>
<event>
 5   0  0.5268358E-06  0.2401834E+04  0.7818609E-02  0.8438817E-01
       -2   -1    0    0    0  501  0.00000000000E+00  0.00000000000E+00  0.91275138260E+03  0.91275138261E+03  0.25500000920E-02 0.  1.
        2   -1    0    0  501    0  0.00000000000E+00  0.00000000000E+00 -0.15800599022E+04  0.15800599022E+04  0.25500000920E-02 0. -1.
    10030    2    1    2    0    0  0.00000000000E+00  0.00000000000E+00 -0.66730851955E+03  0.24928112848E+04  0.24018341827E+04 0.  0.
        2    1    3    3  502    0  0.10376420066E+04  0.52661695835E+03 -0.25462970135E+02  0.11639049435E+04  0.25500000920E-02 0.  1.
       -2    1    3    3    0  502 -0.10376420066E+04 -0.52661695835E+03 -0.64184554941E+03  0.13289063413E+04  0.25500000920E-02 0. -1.
</event>
<event>
 5   0  0.2215700E-06  0.2369266E+04  0.7818609E-02  0.8451100E-01
       -1   -1    0    0    0  501  0.00000000000E+00  0.00000000000E+00  0.25666280228E+04  0.25666280228E+04  0.50400001928E-02 0. -1.
        1   -1    0    0  501    0  0.00000000000E+00  0.00000000000E+00 -0.54677022847E+03  0.54677022849E+03  0.50400001928E-02 0.  1.
    10030    2    1    2    0    0  0.00000000000E+00  0.00000000000E+00  0.20198577943E+04  0.31133982513E+04  0.23692663763E+04 0.  0.
        3    1    3    3  502    0 -0.26587091918E+02 -0.42742238586E+03 -0.44149211344E+03  0.61507078115E+03  0.10100000352E+00 0.  1.
       -3    1    3    3    0  502  0.26587091918E+02  0.42742238586E+03  0.24613499077E+04  0.24983274701E+04  0.10100000352E+00 0. -1.
</event>
<event>
 5   0  0.2254269E-06  0.2400648E+04  0.7818609E-02  0.8439261E-01
        1   -1    0    0  501    0  0.00000000000E+00  0.00000000000E+00  0.85788771869E+03  0.85788771870E+03  0.50400001928E-02 0.  1.
       -1   -1    0    0    0  501  0.00000000000E+00  0.00000000000E+00 -0.16794474294E+04  0.16794474294E+04  0.50400001928E-02 0. -1.
    10030    2    1    2    0    0  0.00000000000E+00  0.00000000000E+00 -0.82155971072E+03  0.25373351481E+04  0.24006476825E+04 0.  0.
        2    1    3    3  502    0  0.58484153081E+03 -0.20243998029E+03 -0.14978113008E+04  0.16206357563E+04  0.25500000920E-02 0. -1.
       -2    1    3    3    0  502 -0.58484153081E+03  0.20243998029E+03  0.67625159011E+03  0.91669939179E+03  0.25500000920E-02 0.  1.
</event>
<event>
 5   0  0.2149029E-06  0.2404857E+04  0.7818609E-02  0.8437687E-01
       -1   -1    0    0    0  501  0.00000000000E+00  0.00000000000E+00  0.10675457535E+04  0.10675457535E+04  0.50400001928E-02 0.  1.
        1   -1    0    0  501    0  0.00000000000E+00  0.00000000000E+00 -0.13543537085E+04  0.13543537086E+04  0.50400001928E-02 0. -1.
    10030    2    1    2    0    0  0.00000000000E+00  0.00000000000E+00 -0.28680795505E+03  0.24218994621E+04  0.24048572102E+04 0.  0.
        4    1    3    3  502    0 -0.59338805793E+03  0.59533131426E+03 -0.10093252236E+04  0.13134944922E+04  0.12699999809E+01 0. -1.
       -4    1    3    3    0  502  0.59338805793E+03 -0.59533131426E+03  0.72251726856E+03  0.11084049699E+04  0.12699999809E+01 0.  1.
</event>
<event>
 5   0  0.5440503E-06  0.2399327E+04  0.7818609E-02  0.8439755E-01
        2   -1    0    0  501    0  0.00000000000E+00  0.00000000000E+00  0.15806712506E+04  0.15806712506E+04  0.25500000920E-02 0.  1.
       -2   -1    0    0    0  501  0.00000000000E+00  0.00000000000E+00 -0.91049488304E+03  0.91049488304E+03  0.25500000920E-02 0. -1.
    10030    2    1    2    0    0  0.00000000000E+00  0.00000000000E+00  0.67017636755E+03  0.24911661336E+04  0.23993274770E+04 0.  0.
        3    1    3    3  502    0 -0.11454517825E+04  0.11404274225E+03  0.68584683871E+03  0.13399445621E+04  0.10100000352E+00 0. -1.
       -3    1    3    3    0  502  0.11454517825E+04 -0.11404274225E+03 -0.15670471160E+02  0.11512215716E+04  0.10100000352E+00 0.  1.
</event>
<event>
 5   0  0.5440503E-06  0.2402610E+04  0.7818609E-02  0.8438527E-01
        2   -1    0    0  501    0  0.00000000000E+00  0.00000000000E+00  0.13162394576E+04  0.13162394576E+04  0.25500000920E-02 0. -1.
       -2   -1    0    0    0  501  0.00000000000E+00  0.00000000000E+00 -0.10964064233E+04  0.10964064233E+04  0.25500000920E-02 0.  1.
    10030    2    1    2    0    0  0.00000000000E+00  0.00000000000E+00  0.21983303430E+03  0.24126458810E+04  0.24026097444E+04 0.  0.
        3    1    3    3  502    0  0.73087693826E+03 -0.25950060768E+03 -0.81130958769E+03  0.11223835893E+04  0.10100000352E+00 0.  1.
       -3    1    3    3    0  502 -0.73087693826E+03  0.25950060768E+03  0.10311426220E+04  0.12902622917E+04  0.10100000352E+00 0. -1.
</event>
<event>
 5   0  0.2254269E-06  0.2401182E+04  0.7818609E-02  0.8439061E-01
        1   -1    0    0  501    0  0.00000000000E+00  0.00000000000E+00  0.19858870615E+04  0.19858870615E+04  0.50400001928E-02 0.  1.
       -1   -1    0    0    0  501  0.00000000000E+00  0.00000000000E+00 -0.72583139690E+03  0.72583139691E+03  0.50400001928E-02 0. -1.
    10030    2    1    2    0    0  0.00000000000E+00  0.00000000000E+00  0.12600556646E+04  0.27117184584E+04  0.24011823587E+04 0.  0.
        2    1    3    3  502    0 -0.63783087813E+03  0.10100236414E+04  0.49430557179E+03  0.12927930939E+04  0.25500000920E-02 0. -1.
       -2    1    3    3    0  502  0.63783087813E+03 -0.10100236414E+04  0.76575009278E+03  0.14189253645E+04  0.25500000920E-02 0.  1.
</event>
<event>
 5   0  0.2149417E-06  0.2399811E+04  0.7818609E-02  0.8439574E-01
       -1   -1    0    0    0  501  0.00000000000E+00  0.00000000000E+00  0.72360728812E+03  0.72360728814E+03  0.50400001928E-02 0.  1.
        1   -1    0    0  501    0  0.00000000000E+00  0.00000000000E+00 -0.19897166052E+04  0.19897166052E+04  0.50400001928E-02 0. -1.
    10030    2    1    2    0    0  0.00000000000E+00  0.00000000000E+00 -0.12661093171E+04  0.27133238934E+04  0.23998111900E+04 0.  0.
        5    1    3    3  502    0  0.10235015880E+04  0.25834707233E+02 -0.13405216927E+04  0.16867849393E+04  0.46999998093E+01 0.  1.
       -5    1    3    3    0  502 -0.10235015880E+04 -0.25834707233E+02  0.74412375626E+02  0.10265389541E+04  0.46999998093E+01 0. -1.
</event>
<event>
 5   0  0.5379778E-06  0.2396703E+04  0.7818609E-02  0.8440739E-01
       -2   -1    0    0    0  501  0.00000000000E+00  0.00000000000E+00  0.63748697113E+03  0.63748697114E+03  0.25500000920E-02 0. -1.
        2   -1    0    0  501    0  0.00000000000E+00  0.00000000000E+00 -0.22526680643E+04  0.22526680643E+04  0.25500000920E-02 0.  1.
    10030    2    1    2    0    0  0.00000000000E+00  0.00000000000E+00 -0.16151810932E+04  0.28901550354E+04  0.23967031867E+04 0.  0.
        5    1    3    3  502    0 -0.11633291302E+04  0.48051250076E+02 -0.11494780447E+04  0.16361434696E+04  0.46999998093E+01 0. -1.
       -5    1    3    3    0  502  0.11633291302E+04 -0.48051250076E+02 -0.46570304842E+03  0.12540115658E+04  0.46999998093E+01 0.  1.
</event>
<event>
 5   0  0.5349036E-06  0.2395714E+04  0.7818609E-02  0.8441110E-01
        2   -1    0    0  501    0  0.00000000000E+00  0.00000000000E+00  0.12172064924E+04  0.12172064924E+04  0.25500000920E-02 0.  1.
       -2   -1    0    0    0  501  0.00000000000E+00  0.00000000000E+00 -0.11788153219E+04  0.11788153219E+04  0.25500000920E-02 0. -1.
    10030    2    1    2    0    0  0.00000000000E+00  0.00000000000E+00  0.38391170512E+02  0.23960218143E+04  0.23957142260E+04 0.  0.
        1    1    3    3  502    0 -0.56108792849E+03  0.24930345146E+03  0.10478653347E+04  0.12144931593E+04  0.50400001928E-02 0.  1.
       -1    1    3    3    0  502  0.56108792849E+03 -0.24930345146E+03 -0.10094741642E+04  0.11815286550E+04  0.50400001928E-02 0. -1.
</event>
<event>
 5   0  0.1796750E-06  0.2400502E+04  0.7818609E-02  0.8439316E-01
       -3   -1    0    0    0  501  0.00000000000E+00  0.00000000000E+00  0.13196826021E+04  0.13196826060E+04  0.10100000352E+00 0. -1.
        3   -1    0    0  501    0  0.00000000000E+00  0.00000000000E+00 -0.10916280846E+04  0.10916280893E+04  0.10100000352E+00 0.  1.
    10030    2    1    2    0    0  0.00000000000E+00  0.00000000000E+00  0.22805451757E+03  0.24113106953E+04  0.24005021154E+04 0.  0.
        1    1    3    3  502    0  0.79759161093E+00 -0.97502918849E+03 -0.58906721545E+03  0.11391587856E+04  0.50400001928E-02 0.  1.
       -1    1    3    3    0  502 -0.79759161093E+00  0.97502918849E+03  0.81712173302E+03  0.12721519096E+04  0.50400001928E-02 0. -1.
</event>
<event>
 5   0  0.2149029E-06  0.2401716E+04  0.7818609E-02  0.8438861E-01
        1   -1    0    0  501    0  0.00000000000E+00  0.00000000000E+00  0.23688337329E+04  0.23688337329E+04  0.50400001928E-02 0. -1.
       -1   -1    0    0    0  501  0.00000000000E+00  0.00000000000E+00 -0.60876387955E+03  0.60876387957E+03  0.50400001928E-02 0.  1.
    10030    2    1    2    0    0  0.00000000000E+00  0.00000000000E+00  0.17600698534E+04  0.29775976125E+04  0.24017163973E+04 0.  0.
        4    1    3    3  502    0 -0.58772244842E+03  0.58058049224E+03 -0.20047173165E+03  0.85010700058E+03  0.12699999809E+01 0.  1.
       -4    1    3    3    0  502  0.58772244842E+03 -0.58058049224E+03  0.19605415850E+04  0.21274906119E+04  0.12699999809E+01 0. -1.
</event>
<event>
 5   0  0.5371843E-06  0.2399554E+04  0.7818609E-02  0.8439671E-01
       -2   -1    0    0    0  501  0.00000000000E+00  0.00000000000E+00  0.97555783189E+03  0.97555783189E+03  0.25500000920E-02 0.  1.
        2   -1    0    0  501    0  0.00000000000E+00  0.00000000000E+00 -0.14755294417E+04  0.14755294417E+04  0.25500000920E-02 0. -1.
    10030    2    1    2    0    0  0.00000000000E+00  0.00000000000E+00 -0.49997160981E+03  0.24510872736E+04  0.23995535443E+04 0.  0.
        4    1    3    3  502    0 -0.11560747587E+04 -0.32051901947E+03 -0.23478671150E+03  0.12224433330E+04  0.12699999809E+01 0.  1.
       -4    1    3    3    0  502  0.11560747587E+04  0.32051901947E+03 -0.26518489831E+03  0.12286439406E+04  0.12699999809E+01 0. -1.
</event>
<event>
 5   0  0.5440503E-06  0.2399589E+04  0.7818609E-02  0.8439657E-01
       -2   -1    0    0    0  501  0.00000000000E+00  0.00000000000E+00  0.10395760928E+04  0.10395760928E+04  0.25500000920E-02 0. -1.
        2   -1    0    0  501    0  0.00000000000E+00  0.00000000000E+00 -0.13847061084E+04  0.13847061084E+04  0.25500000920E-02 0.  1.
    10030    2    1    2    0    0  0.00000000000E+00  0.00000000000E+00 -0.34513001559E+03  0.24242822013E+04  0.23995894365E+04 0.  0.
        3    1    3    3  502    0  0.70661249755E+03  0.33583556495E+03  0.74642205605E+03  0.10813106142E+04  0.10100000352E+00 0. -1.
       -3    1    3    3    0  502 -0.70661249755E+03 -0.33583556495E+03 -0.10915520716E+04  0.13429715871E+04  0.10100000352E+00 0.  1.
</event>
<event>
 5   0  0.5379778E-06  0.2397570E+04  0.7818609E-02  0.8440414E-01
        2   -1    0    0  501    0  0.00000000000E+00  0.00000000000E+00  0.20822933378E+04  0.20822933378E+04  0.25500000920E-02 0. -1.
       -2   -1    0    0    0  501  0.00000000000E+00  0.00000000000E+00 -0.69014528165E+03  0.69014528165E+03  0.25500000920E-02 0.  1.
    10030    2    1    2    0    0  0.00000000000E+00  0.00000000000E+00  0.13921480562E+04  0.27724386195E+04  0.23975695378E+04 0.  0.
        5    1    3    3  502    0 -0.83234851247E+02  0.23756595601E+03  0.20513765161E+04  0.20667688126E+04  0.46999998093E+01 0. -1.
       -5    1    3    3    0  502  0.83234851247E+02 -0.23756595601E+03 -0.65922845995E+03  0.70566980686E+03  0.46999998093E+01 0.  1.
</event>
<event>
 5   0  0.5379778E-06  0.2403363E+04  0.7818609E-02  0.8438246E-01
        2   -1    0    0  501    0  0.00000000000E+00  0.00000000000E+00  0.16560882221E+04  0.16560882221E+04  0.25500000920E-02 0. -1.
       -2   -1    0    0    0  501  0.00000000000E+00  0.00000000000E+00 -0.87195752862E+03  0.87195752862E+03  0.25500000920E-02 0.  1.
    10030    2    1    2    0    0  0.00000000000E+00  0.00000000000E+00  0.78413069348E+03  0.25280457507E+04  0.24033631380E+04 0.  0.
        5    1    3    3  502    0 -0.97486261913E+02  0.11918320986E+04  0.26738700047E+03  0.12253510601E+04  0.46999998093E+01 0. -1.
       -5    1    3    3    0  502  0.97486261913E+02 -0.11918320986E+04  0.51674369302E+03  0.13026946906E+04  0.46999998093E+01 0.  1.
</event>
<event>
 5   0  0.5379778E-06  0.2403471E+04  0.7818609E-02  0.8438205E-01
        2   -1    0    0  501    0  0.00000000000E+00  0.00000000000E+00  0.19161865142E+04  0.19161865142E+04  0.25500000920E-02 0.  1.
       -2   -1    0    0    0  501  0.00000000000E+00  0.00000000000E+00 -0.75366809193E+03  0.75366809194E+03  0.25500000920E-02 0. -1.
    10030    2    1    2    0    0  0.00000000000E+00  0.00000000000E+00  0.11625184222E+04  0.26698546061E+04  0.24034713511E+04 0.  0.
        5    1    3    3  502    0  0.49112425745E+03  0.71597800645E+03  0.15041994385E+04  0.17367975077E+04  0.46999998093E+01 0.  1.
       -5    1    3    3    0  502 -0.49112425745E+03 -0.71597800645E+03 -0.34168101628E+03  0.93305709839E+03  0.46999998093E+01 0. -1.
</event>
<event>
 5   0  0.2149417E-06  0.2384178E+04  0.7818609E-02  0.8445451E-01
       -1   -1    0    0    0  501  0.00000000000E+00  0.00000000000E+00  0.22452229750E+04  0.22452229750E+04  0.50400001928E-02 0.  1.
        1   -1    0    0  501    0  0.00000000000E+00  0.00000000000E+00 -0.63293327597E+03  0.63293327599E+03  0.50400001928E-02 0. -1.
    10030    2    1    2    0    0  0.00000000000E+00  0.00000000000E+00  0.16122896990E+04  0.28781562510E+04  0.23841781250E+04 0.  0.
        5    1    3    3  502    0  0.53472652947E+03  0.17359640425E+03 -0.46283308378E+03  0.72822024575E+03  0.46999998093E+01 0. -1.
       -5    1    3    3    0  502 -0.53472652947E+03 -0.17359640425E+03  0.20751227828E+04  0.21499360052E+04  0.46999998093E+01 0.  1.
</event>
<event>
 5   0  0.5349036E-06  0.2414845E+04  0.7818609E-02  0.8433967E-01
       -2   -1    0    0    0  501  0.00000000000E+00  0.00000000000E+00  0.13437690969E+04  0.13437690969E+04  0.25500000920E-02 0. -1.
        2   -1    0    0  501    0  0.00000000000E+00  0.00000000000E+00 -0.10849103200E+04  0.10849103201E+04  0.25500000920E-02 0.  1.
    10030    2    1    2    0    0  0.00000000000E+00  0.00000000000E+00  0.25885877689E+03  0.24286794170E+04  0.24148448903E+04 0.  0.
        1    1    3    3  502    0 -0.11897667204E+04  0.20528314165E+03  0.14303255195E+03  0.12157895904E+04  0.50400001928E-02 0.  1.
       -1    1    3    3    0  502  0.11897667204E+04 -0.20528314165E+03  0.11582622495E+03  0.12128898266E+04  0.50400001928E-02 0. -1.
</event>
<event>
 5   0  0.2254269E-06  0.2397389E+04  0.7818609E-02  0.8440482E-01
       -1   -1    0    0    0  501  0.00000000000E+00  0.00000000000E+00  0.11128124597E+04  0.11128124597E+04  0.50400001928E-02 0.  1.
        1   -1    0    0  501    0  0.00000000000E+00  0.00000000000E+00 -0.12912049197E+04  0.12912049197E+04  0.50400001928E-02 0. -1.
    10030    2    1    2    0    0  0.00000000000E+00  0.00000000000E+00 -0.17839246001E+03  0.24040173795E+04  0.23973893491E+04 0.  0.
        2    1    3    3  502    0  0.19138794215E+03 -0.80184669056E+03  0.78342885755E+03  0.11372546920E+04  0.25500000920E-02 0.  1.
       -2    1    3    3    0  502 -0.19138794215E+03  0.80184669056E+03 -0.96182131756E+03  0.12667626875E+04  0.25500000920E-02 0. -1.
</event>
<event>
 5   0  0.2149029E-06  0.2400773E+04  0.7818609E-02  0.8439214E-01
        1   -1    0    0  501    0  0.00000000000E+00  0.00000000000E+00  0.17753308611E+04  0.17753308611E+04  0.50400001928E-02 0.  1.
       -1   -1    0    0    0  501  0.00000000000E+00  0.00000000000E+00 -0.81163918187E+03  0.81163918188E+03  0.50400001928E-02 0. -1.
    10030    2    1    2    0    0  0.00000000000E+00  0.00000000000E+00  0.96369167920E+03  0.25869700430E+04  0.24007732818E+04 0.  0.
        4    1    3    3  502    0  0.31400235151E+03  0.43601349078E+03 -0.67482074073E+03  0.86260644903E+03  0.12699999809E+01 0. -1.
       -4    1    3    3    0  502 -0.31400235151E+03 -0.43601349078E+03  0.16385124199E+04  0.17243635939E+04  0.12699999809E+01 0.  1.
</event>
<event>
 5   0  0.2215700E-06  0.2392203E+04  0.7818609E-02  0.8442428E-01
        1   -1    0    0  501    0  0.00000000000E+00  0.00000000000E+00  0.14837207783E+04  0.14837207784E+04  0.50400001928E-02 0.  1.
       -1   -1    0    0    0  501  0.00000000000E+00  0.00000000000E+00 -0.96423723963E+03  0.96423723965E+03  0.50400001928E-02 0. -1.
    10030    2    1    2    0    0  0.00000000000E+00  0.00000000000E+00  0.51948353871E+03  0.24479580180E+04  0.23922030246E+04 0.  0.
        3    1    3    3  502    0  0.56077681620E+03  0.10490785932E+04  0.13183951135E+03  0.11968367471E+04  0.10100000352E+00 0. -1.
       -3    1    3    3    0  502 -0.56077681620E+03 -0.10490785932E+04  0.38764402737E+03  0.12511212709E+04  0.10100000352E+00 0.  1.
</event>
<event>
 5   0  0.5349036E-06  0.2406586E+04  0.7818609E-02  0.8437042E-01
        2   -1    0    0  501    0  0.00000000000E+00  0.00000000000E+00  0.23407117211E+04  0.23407117211E+04  0.25500000920E-02 0.  1.
       -2   -1    0    0    0  501  0.00000000000E+00  0.00000000000E+00 -0.61857877498E+03  0.61857877498E+03  0.25500000920E-02 0. -1.
    10030    2    1    2    0    0  0.00000000000E+00  0.00000000000E+00  0.17221329461E+04  0.29592904961E+04  0.24065864531E+04 0.  0.
        1    1    3    3  502    0  0.86796459539E+02  0.11965390143E+04  0.97559921504E+03  0.15462965648E+04  0.50400001928E-02 0. -1.
       -1    1    3    3    0  502 -0.86796459539E+02 -0.11965390143E+04  0.74653373107E+03  0.14129939312E+04  0.50400001928E-02 0.  1.
</event>
<event>
 5   0  0.2149029E-06  0.2379505E+04  0.7818609E-02  0.8447217E-01
        1   -1    0    0  501    0  0.00000000000E+00  0.00000000000E+00  0.14631421833E+04  0.14631421833E+04  0.50400001928E-02 0.  1.
       -1   -1    0    0    0  501  0.00000000000E+00  0.00000000000E+00 -0.96744566076E+03  0.96744566077E+03  0.50400001928E-02 0. -1.
    10030    2    1    2    0    0  0.00000000000E+00  0.00000000000E+00  0.49569652253E+03  0.24305878441E+04  0.23795046176E+04 0.  0.
        4    1    3    3  502    0 -0.47331346353E+02 -0.47782791662E+03 -0.86407452467E+03  0.98852727394E+03  0.12699999809E+01 0. -1.
       -4    1    3    3    0  502  0.47331346353E+02  0.47782791662E+03  0.13597710472E+04  0.14420605701E+04  0.12699999809E+01 0.  1.
</event>
<event>
 5   0  0.2149029E-06  0.2428442E+04  0.7818609E-02  0.8428931E-01
       -1   -1    0    0    0  501  0.00000000000E+00  0.00000000000E+00  0.12963635571E+04  0.12963635571E+04  0.50400001928E-02 0. -1.
        1   -1    0    0  501    0  0.00000000000E+00  0.00000000000E+00 -0.11372834437E+04  0.11372834437E+04  0.50400001928E-02 0.  1.
    10030    2    1    2    0    0  0.00000000000E+00  0.00000000000E+00  0.15908011344E+03  0.24336470008E+04  0.24284421431E+04 0.  0.
        4    1    3    3  502    0 -0.12822318191E+03 -0.60732594215E+03  0.11253500286E+04  0.12851849222E+04  0.12699999809E+01 0. -1.
       -4    1    3    3    0  502  0.12822318191E+03  0.60732594215E+03 -0.96626991515E+03  0.11484620787E+04  0.12699999809E+01 0.  1.
</event>
<event>
 5   0  0.2149417E-06  0.2397001E+04  0.7818609E-02  0.8440627E-01
        1   -1    0    0  501    0  0.00000000000E+00  0.00000000000E+00  0.77578282532E+03  0.77578282534E+03  0.50400001928E-02 0. -1.
       -1   -1    0    0    0  501  0.00000000000E+00  0.00000000000E+00 -0.18515531748E+04  0.18515531749E+04  0.50400001928E-02 0.  1.
    10030    2    1    2    0    0  0.00000000000E+00  0.00000000000E+00 -0.10757703495E+04  0.26273360002E+04  0.23970007536E+04 0.  0.
        5    1    3    3  502    0 -0.78598861099E+03  0.26721026720E+03  0.40958675932E+03  0.92572286723E+03  0.46999998093E+01 0. -1.
       -5    1    3    3    0  502  0.78598861099E+03 -0.26721026720E+03 -0.14853571088E+04  0.17016131330E+04  0.46999998093E+01 0.  1.
</event>
<event>
 5   0  0.5268358E-06  0.2395255E+04  0.7818609E-02  0.8441282E-01
       -2   -1    0    0    0  501  0.00000000000E+00  0.00000000000E+00  0.99892111839E+03  0.99892111839E+03  0.25500000920E-02 0. -1.
        2   -1    0    0  501    0  0.00000000000E+00  0.00000000000E+00 -0.14358603613E+04  0.14358603613E+04  0.25500000920E-02 0.  1.
    10030    2    1    2    0    0  0.00000000000E+00  0.00000000000E+00 -0.43693924292E+03  0.24347814797E+04  0.23952546737E+04 0.  0.
        2    1    3    3  502    0  0.78675615468E+03  0.90241832085E+03 -0.25008210624E+03  0.12230638301E+04  0.25500000920E-02 0.  1.
       -2    1    3    3    0  502 -0.78675615468E+03 -0.90241832085E+03 -0.18685713668E+03  0.12117176496E+04  0.25500000920E-02 0. -1.
</event>
<event>
 5   0  0.5371843E-06  0.2399326E+04  0.7818609E-02  0.8439756E-01
       -2   -1    0    0    0  501  0.00000000000E+00  0.00000000000E+00  0.11000535758E+04  0.11000535758E+04  0.25500000920E-02 0. -1.
        2   -1    0    0  501    0  0.00000000000E+00  0.00000000000E+00 -0.13082921173E+04  0.13082921173E+04  0.25500000920E-02 0.  1.
    10030    2    1    2    0    0  0.00000000000E+00  0.00000000000E+00 -0.20823854151E+03  0.24083456931E+04  0.23993260902E+04 0.  0.
        4    1    3    3  502    0 -0.93492875683E+03 -0.30392327426E+03 -0.79425660332E+03  0.12638458378E+04  0.12699999809E+01 0.  1.
       -4    1    3    3    0  502  0.93492875683E+03  0.30392327426E+03  0.58601806181E+03  0.11444998552E+04  0.12699999809E+01 0. -1.
</event>
<event>
 5   0  0.5379778E-06  0.2358150E+04  0.7818609E-02  0.8455340E-01
        2   -1    0    0  501    0  0.00000000000E+00  0.00000000000E+00  0.14523051457E+04  0.14523051457E+04  0.25500000920E-02 0. -1.
       -2   -1    0    0    0  501  0.00000000000E+00  0.00000000000E+00 -0.95724891181E+03  0.95724891181E+03  0.25500000920E-02 0.  1.
    10030    2    1    2    0    0  0.00000000000E+00  0.00000000000E+00  0.49505623391E+03  0.24095540575E+04  0.23581497157E+04 0.  0.
        5    1    3    3  502    0 -0.14614417692E+03 -0.99299303592E+02  0.14386915321E+04  0.14495081534E+04  0.46999998093E+01 0. -1.
       -5    1    3    3    0  502  0.14614417692E+03  0.99299303592E+02 -0.94363529818E+03  0.96004590417E+03  0.46999998093E+01 0.  1.
</event>
<event>
 5   0  0.5440503E-06  0.2399123E+04  0.7818609E-02  0.8439832E-01
       -2   -1    0    0    0  501  0.00000000000E+00  0.00000000000E+00  0.55296018759E+03  0.55296018759E+03  0.25500000920E-02 0. -1.
        2   -1    0    0  501    0  0.00000000000E+00  0.00000000000E+00 -0.26022625870E+04  0.26022625870E+04  0.25500000920E-02 0.  1.
    10030    2    1    2    0    0  0.00000000000E+00  0.00000000000E+00 -0.20493023994E+04  0.31552227746E+04  0.23991228466E+04 0.  0.
        3    1    3    3  502    0  0.36699579222E+03 -0.18651430134E+03  0.45714836973E+03  0.61518951410E+03  0.10100000352E+00 0. -1.
       -3    1    3    3    0  502 -0.36699579222E+03  0.18651430134E+03 -0.25064507691E+04  0.25400332605E+04  0.10100000352E+00 0.  1.
</event>
<event>
 5   0  0.5379778E-06  0.2409245E+04  0.7818609E-02  0.8436051E-01
       -2   -1    0    0    0  501  0.00000000000E+00  0.00000000000E+00  0.98518192625E+03  0.98518192626E+03  0.25500000920E-02 0. -1.
        2   -1    0    0  501    0  0.00000000000E+00  0.00000000000E+00 -0.14729413357E+04  0.14729413357E+04  0.25500000920E-02 0.  1.
    10030    2    1    2    0    0  0.00000000000E+00  0.00000000000E+00 -0.48775940948E+03  0.24581232620E+04  0.24092448463E+04 0.  0.
        5    1    3    3  502    0  0.30974977894E+03  0.26542027846E+03 -0.14003210790E+04  0.14585314751E+04  0.46999998093E+01 0.  1.
       -5    1    3    3    0  502 -0.30974977894E+03 -0.26542027846E+03  0.91256166947E+03  0.99959178686E+03  0.46999998093E+01 0. -1.
</event>
<event>
 5   0  0.5268358E-06  0.2398072E+04  0.7818609E-02  0.8440226E-01
        2   -1    0    0  501    0  0.00000000000E+00  0.00000000000E+00  0.12054522066E+04  0.12054522066E+04  0.25500000920E-02 0.  1.
       -2   -1    0    0    0  501  0.00000000000E+00  0.00000000000E+00 -0.11926536879E+04  0.11926536879E+04  0.25500000920E-02 0. -1.
    10030    2    1    2    0    0  0.00000000000E+00  0.00000000000E+00  0.12798518665E+02  0.23981058945E+04  0.23980717419E+04 0.  0.
        2    1    3    3  502    0  0.13788515809E+03  0.42629969853E+03  0.11185946121E+04  0.12049886539E+04  0.25500000920E-02 0.  1.
       -2    1    3    3    0  502 -0.13788515809E+03 -0.42629969853E+03 -0.11057960934E+04  0.11931172407E+04  0.25500000920E-02 0. -1.
</event>
<event>
 5   0  0.2297414E-06  0.2399616E+04  0.7818609E-02  0.8439647E-01
        1   -1    0    0  501    0  0.00000000000E+00  0.00000000000E+00  0.19485005801E+04  0.19485005801E+04  0.50400001928E-02 0. -1.
       -1   -1    0    0    0  501  0.00000000000E+00  0.00000000000E+00 -0.73879344357E+03  0.73879344358E+03  0.50400001928E-02 0.  1.
    10030    2    1    2    0    0  0.00000000000E+00  0.00000000000E+00  0.12097071366E+04  0.26872940237E+04  0.23996161805E+04 0.  0.
        1    1    3    3  502    0 -0.11606849423E+04 -0.30170628889E+03  0.56411632573E+03  0.13253088127E+04  0.50400001928E-02 0.  1.
       -1    1    3    3    0  502  0.11606849423E+04  0.30170628889E+03  0.64559081082E+03  0.13619852110E+04  0.50400001928E-02 0. -1.
</event>
<event>
 5   0  0.2149029E-06  0.2404909E+04  0.7818609E-02  0.8437668E-01
        1   -1    0    0  501    0  0.00000000000E+00  0.00000000000E+00  0.15187840639E+04  0.15187840639E+04  0.50400001928E-02 0.  1.
       -1   -1    0    0    0  501  0.00000000000E+00  0.00000000000E+00 -0.95200963224E+03  0.95200963226E+03  0.50400001928E-02 0. -1.
    10030    2    1    2    0    0  0.00000000000E+00  0.00000000000E+00  0.56677443164E+03  0.24707936962E+04  0.24049091942E+04 0.  0.
        4    1    3    3  502    0  0.86157650981E+03 -0.64750744768E+03  0.83120742068E+03  0.13610611177E+04  0.12699999809E+01 0.  1.
       -4    1    3    3    0  502 -0.86157650981E+03  0.64750744768E+03 -0.26443298904E+03  0.11097325784E+04  0.12699999809E+01 0. -1.
</event>
<event>
 5   0  0.5371843E-06  0.2375693E+04  0.7818609E-02  0.8448660E-01
        2   -1    0    0  501    0  0.00000000000E+00  0.00000000000E+00  0.19508028919E+04  0.19508028919E+04  0.25500000920E-02 0.  1.
       -2   -1    0    0    0  501  0.00000000000E+00  0.00000000000E+00 -0.72328128294E+03  0.72328128294E+03  0.25500000920E-02 0. -1.
    10030    2    1    2    0    0  0.00000000000E+00  0.00000000000E+00  0.12275216089E+04  0.26740841748E+04  0.23756929249E+04 0.  0.
        4    1    3    3  502    0 -0.61026955418E+03  0.55673466064E+03  0.15745495800E+04  0.17780861632E+04  0.12699999809E+01 0.  1.
       -4    1    3    3    0  502  0.61026955418E+03 -0.55673466064E+03 -0.34702797108E+03  0.89599801156E+03  0.12699999809E+01 0. -1.
</event>
<event>
 5   0  0.5371843E-06  0.2401058E+04  0.7818609E-02  0.8439108E-01
        2   -1    0    0  501    0  0.00000000000E+00  0.00000000000E+00  0.11660293397E+04  0.11660293397E+04  0.25500000920E-02 0.  1.
       -2   -1    0    0    0  501  0.00000000000E+00  0.00000000000E+00 -0.12360494533E+04  0.12360494533E+04  0.25500000920E-02 0. -1.
    10030    2    1    2    0    0  0.00000000000E+00  0.00000000000E+00 -0.70020113521E+02  0.24020787930E+04  0.24010580400E+04 0.  0.
        4    1    3    3  502    0  0.98953087617E+03  0.19273101748E+02 -0.71480280049E+03  0.12208552182E+04  0.12699999809E+01 0. -1.
       -4    1    3    3    0  502 -0.98953087617E+03 -0.19273101748E+02  0.64478268697E+03  0.11812235748E+04  0.12699999809E+01 0.  1.
</event>
<event>
 5   0  0.2254269E-06  0.2405721E+04  0.7818609E-02  0.8437365E-01
        1   -1    0    0  501    0  0.00000000000E+00  0.00000000000E+00  0.23364401557E+04  0.23364401557E+04  0.50400001928E-02 0.  1.
       -1   -1    0    0    0  501  0.00000000000E+00  0.00000000000E+00 -0.61926383135E+03  0.61926383137E+03  0.50400001928E-02 0. -1.
    10030    2    1    2    0    0  0.00000000000E+00  0.00000000000E+00  0.17171763243E+04  0.29557039870E+04  0.24057205844E+04 0.  0.
        2    1    3    3  502    0 -0.89836830396E+02 -0.74640586073E+03 -0.29505467876E+03  0.80761973013E+03  0.25500000920E-02 0. -1.
       -2    1    3    3    0  502  0.89836830396E+02  0.74640586073E+03  0.20122310031E+04  0.21480842569E+04  0.25500000920E-02 0.  1.
</event>
<event>
 5   0  0.2254269E-06  0.2398573E+04  0.7818609E-02  0.8440038E-01
        1   -1    0    0  501    0  0.00000000000E+00  0.00000000000E+00  0.13931607591E+04  0.13931607592E+04  0.50400001928E-02 0.  1.
       -1   -1    0    0    0  501  0.00000000000E+00  0.00000000000E+00 -0.10323920532E+04  0.10323920532E+04  0.50400001928E-02 0. -1.
    10030    2    1    2    0    0  0.00000000000E+00  0.00000000000E+00  0.36076870595E+03  0.24255528124E+04  0.23985729896E+04 0.  0.
        2    1    3    3  502    0  0.22993717028E+03  0.11014367621E+04 -0.23931907984E+03  0.11503511052E+04  0.25500000920E-02 0.  1.
       -2    1    3    3    0  502 -0.22993717028E+03 -0.11014367621E+04  0.60008778578E+03  0.12752017072E+04  0.25500000920E-02 0. -1.
</event>
<event>
 5   0  0.5268358E-06  0.2408596E+04  0.7818609E-02  0.8436292E-01
       -2   -1    0    0    0  501  0.00000000000E+00  0.00000000000E+00  0.90694304837E+03  0.90694304838E+03  0.25500000920E-02 0. -1.
        2   -1    0    0  501    0  0.00000000000E+00  0.00000000000E+00 -0.15991456288E+04  0.15991456288E+04  0.25500000920E-02 0.  1.
    10030    2    1    2    0    0  0.00000000000E+00  0.00000000000E+00 -0.69220258043E+03  0.25060886772E+04  0.24085962811E+04 0.  0.
        2    1    3    3  502    0 -0.60658042418E+03  0.99205891244E+03 -0.67217636839E+03  0.13431089930E+04  0.25500000920E-02 0. -1.
       -2    1    3    3    0  502  0.60658042418E+03 -0.99205891244E+03 -0.20026212041E+02  0.11629796842E+04  0.25500000920E-02 0.  1.
</event>
<event>
 5   0  0.5440503E-06  0.2402912E+04  0.7818609E-02  0.8438414E-01
       -2   -1    0    0    0  501  0.00000000000E+00  0.00000000000E+00  0.81779158717E+03  0.81779158717E+03  0.25500000920E-02 0.  1.
        2   -1    0    0  501    0  0.00000000000E+00  0.00000000000E+00 -0.17651157007E+04  0.17651157007E+04  0.25500000920E-02 0. -1.
    10030    2    1    2    0    0  0.00000000000E+00  0.00000000000E+00 -0.94732411353E+03  0.25829072879E+04  0.24029122085E+04 0.  0.
        3    1    3    3  502    0 -0.11421262012E+04 -0.30342431664E+03 -0.70664226551E+03  0.13769030020E+04  0.10100000352E+00 0. -1.
       -3    1    3    3    0  502  0.11421262012E+04  0.30342431664E+03 -0.24068184802E+03  0.12060042859E+04  0.10100000352E+00 0.  1.
</event>
<event>
 5   0  0.5268358E-06  0.2401984E+04  0.7818609E-02  0.8438761E-01
        2   -1    0    0  501    0  0.00000000000E+00  0.00000000000E+00  0.16017589604E+04  0.16017589604E+04  0.25500000920E-02 0.  1.
       -2   -1    0    0    0  501  0.00000000000E+00  0.00000000000E+00 -0.90049897010E+03  0.90049897010E+03  0.25500000920E-02 0. -1.
    10030    2    1    2    0    0  0.00000000000E+00  0.00000000000E+00  0.70125999035E+03  0.25022579305E+04  0.24019844248E+04 0.  0.
        2    1    3    3  502    0 -0.14766803767E+03  0.22752511665E+03  0.15694323266E+04  0.15926993928E+04  0.25500000920E-02 0.  1.
       -2    1    3    3    0  502  0.14766803767E+03 -0.22752511665E+03 -0.86817233628E+03  0.90955853772E+03  0.25500000920E-02 0. -1.
</event>
<event>
 5   0  0.5349036E-06  0.2421215E+04  0.7818609E-02  0.8431603E-01
       -2   -1    0    0    0  501  0.00000000000E+00  0.00000000000E+00  0.94339895347E+03  0.94339895347E+03  0.25500000920E-02 0. -1.
        2   -1    0    0  501    0  0.00000000000E+00  0.00000000000E+00 -0.15535004713E+04  0.15535004713E+04  0.25500000920E-02 0.  1.
    10030    2    1    2    0    0  0.00000000000E+00  0.00000000000E+00 -0.61010151782E+03  0.24968994248E+04  0.24212151650E+04 0.  0.
        1    1    3    3  502    0 -0.61503202563E+03 -0.10415680979E+04 -0.35601439307E+03  0.12609023527E+04  0.50400001928E-02 0. -1.
       -1    1    3    3    0  502  0.61503202563E+03  0.10415680979E+04 -0.25408712475E+03  0.12359970720E+04  0.50400001928E-02 0.  1.
</event>
<event>
 5   0  0.2149417E-06  0.2406076E+04  0.7818609E-02  0.8437232E-01
        1   -1    0    0  501    0  0.00000000000E+00  0.00000000000E+00  0.14437577870E+04  0.14437577870E+04  0.50400001928E-02 0. -1.
       -1   -1    0    0    0  501  0.00000000000E+00  0.00000000000E+00 -0.10024539042E+04  0.10024539042E+04  0.50400001928E-02 0.  1.
    10030    2    1    2    0    0  0.00000000000E+00  0.00000000000E+00  0.44130388275E+03  0.24462116912E+04  0.24060761670E+04 0.  0.
        5    1    3    3  502    0 -0.76679248498E+03 -0.82622751837E+01  0.11630660913E+04  0.13931201682E+04  0.46999998093E+01 0. -1.
       -5    1    3    3    0  502  0.76679248498E+03  0.82622751837E+01 -0.72176220857E+03  0.10530915231E+04  0.46999998093E+01 0.  1.
</event>
<event>
 5   0  0.5379778E-06  0.2399314E+04  0.7818609E-02  0.8439760E-01
        2   -1    0    0  501    0  0.00000000000E+00  0.00000000000E+00  0.48949848343E+03  0.48949848343E+03  0.25500000920E-02 0. -1.
       -2   -1    0    0    0  501  0.00000000000E+00  0.00000000000E+00 -0.29401059441E+04  0.29401059441E+04  0.25500000920E-02 0.  1.
    10030    2    1    2    0    0  0.00000000000E+00  0.00000000000E+00 -0.24506074607E+04  0.34296044276E+04  0.23993144027E+04 0.  0.
        5    1    3    3  502    0  0.60790411294E+02  0.11419489233E+04 -0.17434772291E+04  0.20850606121E+04  0.46999998093E+01 0.  1.
       -5    1    3    3    0  502 -0.60790411294E+02 -0.11419489233E+04 -0.70713023156E+03  0.13445438155E+04  0.46999998093E+01 0. -1.
</event>
<event>
 5   0  0.5371843E-06  0.2397763E+04  0.7818609E-02  0.8440342E-01
       -2   -1    0    0    0  501  0.00000000000E+00  0.00000000000E+00  0.82872723838E+03  0.82872723838E+03  0.25500000920E-02 0.  1.
        2   -1    0    0  501    0  0.00000000000E+00  0.00000000000E+00 -0.17343659624E+04  0.17343659624E+04  0.25500000920E-02 0. -1.
    10030    2    1    2    0    0  0.00000000000E+00  0.00000000000E+00 -0.90563872403E+03  0.25630932008E+04  0.23977625524E+04 0.  0.
        4    1    3    3  502    0  0.46994702044E+03 -0.98611685834E+03 -0.98088388414E+03  0.14681319653E+04  0.12699999809E+01 0.  1.
       -4    1    3    3    0  502 -0.46994702044E+03  0.98611685834E+03  0.75245160111E+02  0.10949612355E+04  0.12699999809E+01 0. -1.
</event>
<event>
 5   0  0.5268358E-06  0.2401224E+04  0.7818609E-02  0.8439045E-01
       -2   -1    0    0    0  501  0.00000000000E+00  0.00000000000E+00  0.41691518232E+03  0.41691518233E+03  0.25500000920E-02 0. -1.
        2   -1    0    0  501    0  0.00000000000E+00  0.00000000000E+00 -0.34574643213E+04  0.34574643213E+04  0.25500000920E-02 0.  1.
    10030    2    1    2    0    0  0.00000000000E+00  0.00000000000E+00 -0.30405491390E+04  0.38743795036E+04  0.24012241610E+04 0.  0.
        2    1    3    3  502    0  0.26045881688E+03 -0.97399181714E+03 -0.46843657970E+03  0.11117246441E+04  0.25500000920E-02 0. -1.
       -2    1    3    3    0  502 -0.26045881688E+03  0.97399181714E+03 -0.25721125593E+04  0.27626548595E+04  0.25500000920E-02 0.  1.
</event>
<event>
 5   0  0.2149417E-06  0.2396624E+04  0.7818609E-02  0.8440769E-01
        1   -1    0    0  501    0  0.00000000000E+00  0.00000000000E+00  0.15624955336E+04  0.15624955336E+04  0.50400001928E-02 0. -1.
       -1   -1    0    0    0  501  0.00000000000E+00  0.00000000000E+00 -0.91901157305E+03  0.91901157306E+03  0.50400001928E-02 0.  1.
    10030    2    1    2    0    0  0.00000000000E+00  0.00000000000E+00  0.64348396054E+03  0.24815071067E+04  0.23966238572E+04 0.  0.
        5    1    3    3  502    0  0.72721228518E+03 -0.50837341339E+03  0.11556540084E+04  0.14569967441E+04  0.46999998093E+01 0. -1.
       -5    1    3    3    0  502 -0.72721228518E+03  0.50837341339E+03 -0.51217004783E+03  0.10245103626E+04  0.46999998093E+01 0.  1.
</event>
<event>
 5   0  0.2149417E-06  0.2400359E+04  0.7818609E-02  0.8439369E-01
        1   -1    0    0  501    0  0.00000000000E+00  0.00000000000E+00  0.98567305368E+03  0.98567305369E+03  0.50400001928E-02 0.  1.
       -1   -1    0    0    0  501  0.00000000000E+00  0.00000000000E+00 -0.14613676584E+04  0.14613676584E+04  0.50400001928E-02 0. -1.
    10030    2    1    2    0    0  0.00000000000E+00  0.00000000000E+00 -0.47569460473E+03  0.24470407121E+04  0.24003589085E+04 0.  0.
        5    1    3    3  502    0  0.30816445250E+03  0.44669059477E+02  0.94376618179E+03  0.99381957645E+03  0.46999998093E+01 0.  1.
       -5    1    3    3    0  502 -0.30816445250E+03 -0.44669059477E+02 -0.14194607865E+04  0.14532211357E+04  0.46999998093E+01 0. -1.
</event>
<event>
 5   0  0.5349036E-06  0.2408025E+04  0.7818609E-02  0.8436505E-01
       -2   -1    0    0    0  501  0.00000000000E+00  0.00000000000E+00  0.11257021259E+04  0.11257021259E+04  0.25500000920E-02 0. -1.
        2   -1    0    0  501    0  0.00000000000E+00  0.00000000000E+00 -0.12877701196E+04  0.12877701196E+04  0.25500000920E-02 0.  1.
    10030    2    1    2    0    0  0.00000000000E+00  0.00000000000E+00 -0.16206799369E+03  0.24134722455E+04  0.24080245525E+04 0.  0.
        1    1    3    3  502    0 -0.61442481253E+03 -0.10204949311E+04 -0.25669546127E+03  0.12185320326E+04  0.50400001928E-02 0. -1.
       -1    1    3    3    0  502  0.61442481253E+03  0.10204949311E+04  0.94627467574E+02  0.11949402129E+04  0.50400001928E-02 0.  1.
</event>
<event>
 5   0  0.5379778E-06  0.2402939E+04  0.7818609E-02  0.8438404E-01
        2   -1    0    0  501    0  0.00000000000E+00  0.00000000000E+00  0.23264873760E+04  0.23264873760E+04  0.25500000920E-02 0.  1.
       -2   -1    0    0    0  501  0.00000000000E+00  0.00000000000E+00 -0.62047568455E+03  0.62047568456E+03  0.25500000920E-02 0. -1.
    10030    2    1    2    0    0  0.00000000000E+00  0.00000000000E+00  0.17060116915E+04  0.29469630606E+04  0.24029389066E+04 0.  0.
        5    1    3    3  502    0  0.99345203114E+03 -0.65187328284E+03  0.10710879619E+04  0.15997303608E+04  0.46999998093E+01 0.  1.
       -5    1    3    3    0  502 -0.99345203114E+03  0.65187328284E+03  0.63492372953E+03  0.13472326998E+04  0.46999998093E+01 0. -1.
</event>
<event>
 5   0  0.5379778E-06  0.2412389E+04  0.7818609E-02  0.8434880E-01
        2   -1    0    0  501    0  0.00000000000E+00  0.00000000000E+00  0.10898709265E+04  0.10898709265E+04  0.25500000920E-02 0.  1.
       -2   -1    0    0    0  501  0.00000000000E+00  0.00000000000E+00 -0.13349336983E+04  0.13349336983E+04  0.25500000920E-02 0. -1.
    10030    2    1    2    0    0  0.00000000000E+00  0.00000000000E+00 -0.24506277180E+03  0.24248046248E+04  0.24123892112E+04 0.  0.
        5    1    3    3  502    0  0.48707001924E+03  0.57803958475E+03 -0.10673244031E+04  0.13078877768E+04  0.46999998093E+01 0. -1.
       -5    1    3    3    0  502 -0.48707001924E+03 -0.57803958475E+03  0.82226163130E+03  0.11169168481E+04  0.46999998093E+01 0.  1.
</event>
<event>
 5   0  0.2149029E-06  0.2427968E+04  0.7818609E-02  0.8429106E-01
       -1   -1    0    0    0  501  0.00000000000E+00  0.00000000000E+00  0.98662843539E+03  0.98662843540E+03  0.50400001928E-02 0. -1.
        1   -1    0    0  501    0  0.00000000000E+00  0.00000000000E+00 -0.14937309054E+04  0.14937309055E+04  0.50400001928E-02 0.  1.
    10030    2    1    2    0    0  0.00000000000E+00  0.00000000000E+00 -0.50710247005E+03  0.24803593409E+04  0.24279681927E+04 0.  0.
        4    1    3    3  502    0  0.21731279055E+02  0.30626159307E+03 -0.14534109536E+04  0.14854876050E+04  0.12699999809E+01 0.  1.
       -4    1    3    3    0  502 -0.21731279055E+02 -0.30626159307E+03  0.94630848351E+03  0.99487173582E+03  0.12699999809E+01 0. -1.
</event>
<event>
 5   0  0.2149029E-06  0.2397124E+04  0.7818609E-02  0.8440581E-01
       -1   -1    0    0    0  501  0.00000000000E+00  0.00000000000E+00  0.11548658274E+04  0.11548658274E+04  0.50400001928E-02 0. -1.
        1   -1    0    0  501    0  0.00000000000E+00  0.00000000000E+00 -0.12439115814E+04  0.12439115814E+04  0.50400001928E-02 0.  1.
    10030    2    1    2    0    0  0.00000000000E+00  0.00000000000E+00 -0.89045754022E+02  0.23987774088E+04  0.23971240917E+04 0.  0.
        4    1    3    3  502    0 -0.42477101522E+03 -0.11117057074E+04  0.97805208301E+02  0.11941052998E+04  0.12699999809E+01 0. -1.
       -4    1    3    3    0  502  0.42477101522E+03  0.11117057074E+04 -0.18685096232E+03  0.12046721090E+04  0.12699999809E+01 0.  1.
</event>
<event>
 5   0  0.2254269E-06  0.2398202E+04  0.7818609E-02  0.8440177E-01
       -1   -1    0    0    0  501  0.00000000000E+00  0.00000000000E+00  0.74837611107E+03  0.74837611109E+03  0.50400001928E-02 0. -1.
        1   -1    0    0  501    0  0.00000000000E+00  0.00000000000E+00 -0.19212841116E+04  0.19212841116E+04  0.50400001928E-02 0.  1.
    10030    2    1    2    0    0  0.00000000000E+00  0.00000000000E+00 -0.11729080006E+04  0.26696602227E+04  0.23982019362E+04 0.  0.
        2    1    3    3  502    0  0.73033111798E+03  0.75956305194E+03 -0.12235303959E+04  0.16147279032E+04  0.25500000920E-02 0.  1.
       -2    1    3    3    0  502 -0.73033111798E+03 -0.75956305194E+03  0.50622395360E+02  0.10549323195E+04  0.25500000920E-02 0. -1.
</event>
<event>
 5   0  0.5349036E-06  0.2400264E+04  0.7818609E-02  0.8439405E-01
        2   -1    0    0  501    0  0.00000000000E+00  0.00000000000E+00  0.22395958858E+04  0.22395958858E+04  0.25500000920E-02 0. -1.
       -2   -1    0    0    0  501  0.00000000000E+00  0.00000000000E+00 -0.64311441969E+03  0.64311441969E+03  0.25500000920E-02 0.  1.
    10030    2    1    2    0    0  0.00000000000E+00  0.00000000000E+00  0.15964814661E+04  0.28827103055E+04  0.24002636592E+04 0.  0.
        1    1    3    3  502    0  0.17175918841E+03  0.35274766227E+03  0.21603985041E+04  0.21957353731E+04  0.50400001928E-02 0. -1.
       -1    1    3    3    0  502 -0.17175918841E+03 -0.35274766227E+03 -0.56391703798E+03  0.68697493243E+03  0.50400001928E-02 0.  1.
</event>
<event>
 5   0  0.5379778E-06  0.2397195E+04  0.7818609E-02  0.8440554E-01
       -2   -1    0    0    0  501  0.00000000000E+00  0.00000000000E+00  0.91856053782E+03  0.91856053782E+03  0.25500000920E-02 0. -1.
        2   -1    0    0  501    0  0.00000000000E+00  0.00000000000E+00 -0.15640083666E+04  0.15640083666E+04  0.25500000920E-02 0.  1.
    10030    2    1    2    0    0  0.00000000000E+00  0.00000000000E+00 -0.64544782883E+03  0.24825689045E+04  0.23971953332E+04 0.  0.
        5    1    3    3  502    0  0.73628596363E+03  0.86690367470E+03  0.68863168930E+02  0.11394749789E+04  0.46999998093E+01 0. -1.
       -5    1    3    3    0  502 -0.73628596363E+03 -0.86690367470E+03 -0.71431099776E+03  0.13430939256E+04  0.46999998093E+01 0.  1.
</event>
<event>
 5   0  0.5440503E-06  0.2408876E+04  0.7818609E-02  0.8436188E-01
       -2   -1    0    0    0  501  0.00000000000E+00  0.00000000000E+00  0.55446693695E+03  0.55446693696E+03  0.25500000920E-02 0. -1.
        2   -1    0    0  501    0  0.00000000000E+00  0.00000000000E+00 -0.26163340444E+04  0.26163340444E+04  0.25500000920E-02 0.  1.
    10030    2    1    2    0    0  0.00000000000E+00  0.00000000000E+00 -0.20618671075E+04  0.31708009814E+04  0.24088758570E+04 0.  0.
        3    1    3    3  502    0 -0.77990133788E+02 -0.10890177962E+04 -0.36152270136E+03  0.11501047323E+04  0.10100000352E+00 0.  1.
       -3    1    3    3    0  502  0.77990133788E+02  0.10890177962E+04 -0.17003444061E+04  0.20206962491E+04  0.10100000352E+00 0. -1.
</event>
<event>
 5   0  0.2297414E-06  0.2399235E+04  0.7818609E-02  0.8439790E-01
        1   -1    0    0  501    0  0.00000000000E+00  0.00000000000E+00  0.13244896286E+04  0.13244896287E+04  0.50400001928E-02 0.  1.
       -1   -1    0    0    0  501  0.00000000000E+00  0.00000000000E+00 -0.10865185780E+04  0.10865185780E+04  0.50400001928E-02 0. -1.
    10030    2    1    2    0    0  0.00000000000E+00  0.00000000000E+00  0.23797105066E+03  0.24110082067E+04  0.23992353681E+04 0.  0.
        1    1    3    3  502    0  0.93001874473E+03 -0.45060610094E+03 -0.49318498062E+03  0.11450817215E+04  0.50400001928E-02 0. -1.
       -1    1    3    3    0  502 -0.93001874473E+03  0.45060610094E+03  0.73115603127E+03  0.12659264852E+04  0.50400001928E-02 0.  1.
</event>
<event>
 5   0  0.5349036E-06  0.2400433E+04  0.7818609E-02  0.8439341E-01
       -2   -1    0    0    0  501  0.00000000000E+00  0.00000000000E+00  0.80837631795E+03  0.80837631796E+03  0.25500000920E-02 0. -1.
        2   -1    0    0  501    0  0.00000000000E+00  0.00000000000E+00 -0.17819918837E+04  0.17819918838E+04  0.25500000920E-02 0.  1.
    10030    2    1    2    0    0  0.00000000000E+00  0.00000000000E+00 -0.97361556580E+03  0.25903682017E+04  0.24004333256E+04 0.  0.
        1    1    3    3  502    0 -0.81570308594E+03 -0.34413662550E+03  0.38769556570E+03  0.96649334871E+03  0.50400001928E-02 0. -1.
       -1    1    3    3    0  502  0.81570308594E+03  0.34413662550E+03 -0.13613111315E+04  0.16238748530E+04  0.50400001928E-02 0.  1.
</event>
<event>
 5   0  0.2149029E-06  0.2399123E+04  0.7818609E-02  0.8439832E-01
       -1   -1    0    0    0  501  0.00000000000E+00  0.00000000000E+00  0.15730774305E+04  0.15730774306E+04  0.50400001928E-02 0. -1.
        1   -1    0    0  501    0  0.00000000000E+00  0.00000000000E+00 -0.91473415192E+03  0.91473415194E+03  0.50400001928E-02 0.  1.
    10030    2    1    2    0    0  0.00000000000E+00  0.00000000000E+00  0.65834327862E+03  0.24878115825E+04  0.23991228809E+04 0.  0.
        4    1    3    3  502    0  0.99802210443E+02  0.10310267030E+04  0.95648918539E+03  0.14099112448E+04  0.12699999809E+01 0. -1.
       -4    1    3    3    0  502 -0.99802210443E+02 -0.10310267030E+04 -0.29814590677E+03  0.10779003377E+04  0.12699999809E+01 0.  1.
</event>
<event>
 5   0  0.5440503E-06  0.2400972E+04  0.7818609E-02  0.8439140E-01
       -2   -1    0    0    0  501  0.00000000000E+00  0.00000000000E+00  0.94231302923E+03  0.94231302923E+03  0.25500000920E-02 0. -1.
        2   -1    0    0  501    0  0.00000000000E+00  0.00000000000E+00 -0.15293932061E+04  0.15293932061E+04  0.25500000920E-02 0.  1.
    10030    2    1    2    0    0  0.00000000000E+00  0.00000000000E+00 -0.58708017689E+03  0.24717062354E+04  0.24009724238E+04 0.  0.
        3    1    3    3  502    0 -0.94048859985E+03  0.20507553233E+03  0.44494434597E+03  0.10604481419E+04  0.10100000352E+00 0. -1.
       -3    1    3    3    0  502  0.94048859985E+03 -0.20507553233E+03 -0.10320245229E+04  0.14112580935E+04  0.10100000352E+00 0.  1.
</event>
<event>
 5   0  0.5371843E-06  0.2401728E+04  0.7818609E-02  0.8438857E-01
       -2   -1    0    0    0  501  0.00000000000E+00  0.00000000000E+00  0.96800816038E+03  0.96800816038E+03  0.25500000920E-02 0.  1.
        2   -1    0    0  501    0  0.00000000000E+00  0.00000000000E+00 -0.14897334566E+04  0.14897334566E+04  0.25500000920E-02 0. -1.
    10030    2    1    2    0    0  0.00000000000E+00  0.00000000000E+00 -0.52172529621E+03  0.24577416170E+04  0.24017278304E+04 0.  0.
        4    1    3    3  502    0 -0.50453385758E+03  0.80418921369E+03  0.49167789249E+03  0.10691227562E+04  0.12699999809E+01 0.  1.
       -4    1    3    3    0  502  0.50453385758E+03 -0.80418921369E+03 -0.10134031887E+04  0.13886188608E+04  0.12699999809E+01 0. -1.
</event>
<event>
 5   0  0.2297414E-06  0.2405476E+04  0.7818609E-02  0.8437456E-01
        1   -1    0    0  501    0  0.00000000000E+00  0.00000000000E+00  0.95924932020E+03  0.95924932021E+03  0.50400001928E-02 0. -1.
       -1   -1    0    0    0  501  0.00000000000E+00  0.00000000000E+00 -0.15080320485E+04  0.15080320485E+04  0.50400001928E-02 0.  1.
    10030    2    1    2    0    0  0.00000000000E+00  0.00000000000E+00 -0.54878272831E+03  0.24672813687E+04  0.24054760173E+04 0.  0.
        1    1    3    3  502    0  0.81334457712E+02 -0.11970408866E+04 -0.36055291819E+03  0.12528050867E+04  0.50400001928E-02 0.  1.
       -1    1    3    3    0  502 -0.81334457712E+02  0.11970408866E+04 -0.18822981012E+03  0.12144762821E+04  0.50400001928E-02 0. -1.
</event>
<event>
 5   0  0.5440503E-06  0.2402373E+04  0.7818609E-02  0.8438616E-01
        2   -1    0    0  501    0  0.00000000000E+00  0.00000000000E+00  0.17385485697E+04  0.17385485697E+04  0.25500000920E-02 0.  1.
       -2   -1    0    0    0  501  0.00000000000E+00  0.00000000000E+00 -0.82991561356E+03  0.82991561357E+03  0.25500000920E-02 0. -1.
    10030    2    1    2    0    0  0.00000000000E+00  0.00000000000E+00  0.90863295613E+03  0.25684641833E+04  0.24023726630E+04 0.  0.
        3    1    3    3  502    0 -0.26801307280E+03 -0.37308993957E+03  0.16409237992E+04  0.17040123342E+04  0.10100000352E+00 0.  1.
       -3    1    3    3    0  502  0.26801307280E+03  0.37308993957E+03 -0.73229084309E+03  0.86445184902E+03  0.10100000352E+00 0. -1.
</event>
<event>
 5   0  0.2149417E-06  0.2401285E+04  0.7818609E-02  0.8439023E-01
       -1   -1    0    0    0  501  0.00000000000E+00  0.00000000000E+00  0.87542200908E+03  0.87542200909E+03  0.50400001928E-02 0. -1.
        1   -1    0    0  501    0  0.00000000000E+00  0.00000000000E+00 -0.16466825517E+04  0.16466825517E+04  0.50400001928E-02 0.  1.
    10030    2    1    2    0    0  0.00000000000E+00  0.00000000000E+00 -0.77126054263E+03  0.25221045608E+04  0.24012847792E+04 0.  0.
        5    1    3    3  502    0  0.46988496659E+03  0.27133295748E+03 -0.15105494189E+04  0.16050529875E+04  0.46999998093E+01 0.  1.
       -5    1    3    3    0  502 -0.46988496659E+03 -0.27133295748E+03  0.73928887626E+03  0.91705157336E+03  0.46999998093E+01 0. -1.
</event>
<event>
 5   0  0.2149417E-06  0.2387568E+04  0.7818609E-02  0.8444172E-01
        1   -1    0    0  501    0  0.00000000000E+00  0.00000000000E+00  0.10253558752E+04  0.10253558752E+04  0.50400001928E-02 0.  1.
       -1   -1    0    0    0  501  0.00000000000E+00  0.00000000000E+00 -0.13898791302E+04  0.13898791302E+04  0.50400001928E-02 0. -1.
    10030    2    1    2    0    0  0.00000000000E+00  0.00000000000E+00 -0.36452325508E+03  0.24152350054E+04  0.23875684132E+04 0.  0.
        5    1    3    3  502    0 -0.83804267389E+03 -0.83045786795E+03 -0.36636740084E+03  0.12354039647E+04  0.46999998093E+01 0.  1.
       -5    1    3    3    0  502  0.83804267389E+03  0.83045786795E+03  0.18441457631E+01  0.11798310407E+04  0.46999998093E+01 0. -1.
</event>
<event>
 5   0  0.2297414E-06  0.2399242E+04  0.7818609E-02  0.8439788E-01
        1   -1    0    0  501    0  0.00000000000E+00  0.00000000000E+00  0.96876276326E+03  0.96876276327E+03  0.50400001928E-02 0.  1.
       -1   -1    0    0    0  501  0.00000000000E+00  0.00000000000E+00 -0.14854927831E+04  0.14854927831E+04  0.50400001928E-02 0. -1.
    10030    2    1    2    0    0  0.00000000000E+00  0.00000000000E+00 -0.51673001983E+03  0.24542555464E+04  0.23992416247E+04 0.  0.
        1    1    3    3  502    0 -0.28926454661E+03  0.11425458416E+04 -0.29619272469E+02  0.11789666151E+04  0.50400001928E-02 0.  1.
       -1    1    3    3    0  502  0.28926454661E+03 -0.11425458416E+04 -0.48711074736E+03  0.12752889313E+04  0.50400001928E-02 0. -1.
</event>
<event>
 5   0  0.2215700E-06  0.2398666E+04  0.7818609E-02  0.8440003E-01
       -1   -1    0    0    0  501  0.00000000000E+00  0.00000000000E+00  0.14558322305E+04  0.14558322305E+04  0.50400001928E-02 0. -1.
        1   -1    0    0  501    0  0.00000000000E+00  0.00000000000E+00 -0.98802583018E+03  0.98802583019E+03  0.50400001928E-02 0.  1.
    10030    2    1    2    0    0  0.00000000000E+00  0.00000000000E+00  0.46780640033E+03  0.24438580607E+04  0.23986661695E+04 0.  0.
        3    1    3    3  502    0 -0.14898958807E+03 -0.11442596745E+03  0.14407490958E+04  0.14529449978E+04  0.10100000352E+00 0. -1.
       -3    1    3    3    0  502  0.14898958807E+03  0.11442596745E+03 -0.97294269547E+03  0.99091306291E+03  0.10100000352E+00 0.  1.
</event>
<event>
 5   0  0.2215700E-06  0.2399790E+04  0.7818609E-02  0.8439582E-01
        1   -1    0    0  501    0  0.00000000000E+00  0.00000000000E+00  0.14693910777E+04  0.14693910777E+04  0.50400001928E-02 0. -1.
       -1   -1    0    0    0  501  0.00000000000E+00  0.00000000000E+00 -0.97982596032E+03  0.97982596033E+03  0.50400001928E-02 0.  1.
    10030    2    1    2    0    0  0.00000000000E+00  0.00000000000E+00  0.48956511736E+03  0.24492170380E+04  0.23997895939E+04 0.  0.
        3    1    3    3  502    0 -0.98906905223E+03  0.34877713051E+03 -0.35018623663E+03  0.11056823628E+04  0.10100000352E+00 0.  1.
       -3    1    3    3    0  502  0.98906905223E+03 -0.34877713051E+03  0.83975135400E+03  0.13435346752E+04  0.10100000352E+00 0. -1.
</event>
<event>
 5   0  0.2149029E-06  0.2402703E+04  0.7818609E-02  0.8438492E-01
        1   -1    0    0  501    0  0.00000000000E+00  0.00000000000E+00  0.23905890518E+04  0.23905890518E+04  0.50400001928E-02 0.  1.
       -1   -1    0    0    0  501  0.00000000000E+00  0.00000000000E+00 -0.60371977617E+03  0.60371977619E+03  0.50400001928E-02 0. -1.
    10030    2    1    2    0    0  0.00000000000E+00  0.00000000000E+00  0.17868692756E+04  0.29943088279E+04  0.24027033835E+04 0.  0.
        4    1    3    3  502    0  0.99337495366E+03  0.23667848069E+03  0.10482554522E+03  0.10265478604E+04  0.12699999809E+01 0. -1.
       -4    1    3    3    0  502 -0.99337495366E+03 -0.23667848069E+03  0.16820437304E+04  0.19677609676E+04  0.12699999809E+01 0.  1.
</event>
<event>
 5   0  0.2215700E-06  0.2402901E+04  0.7818609E-02  0.8438418E-01
        1   -1    0    0  501    0  0.00000000000E+00  0.00000000000E+00  0.17264182299E+04  0.17264182299E+04  0.50400001928E-02 0.  1.
       -1   -1    0    0    0  501  0.00000000000E+00  0.00000000000E+00 -0.83611468619E+03  0.83611468621E+03  0.50400001928E-02 0. -1.
    10030    2    1    2    0    0  0.00000000000E+00  0.00000000000E+00  0.89030354368E+03  0.25625329161E+04  0.24029012768E+04 0.  0.
        3    1    3    3  502    0  0.20337613549E+03 -0.63897903496E+03 -0.61798476543E+03  0.91189979719E+03  0.10100000352E+00 0. -1.
       -3    1    3    3    0  502 -0.20337613549E+03  0.63897903496E+03  0.15082883091E+04  0.16506331189E+04  0.10100000352E+00 0.  1.
</event>
<event>
 5   0  0.2297414E-06  0.2394169E+04  0.7818609E-02  0.8441690E-01
       -1   -1    0    0    0  501  0.00000000000E+00  0.00000000000E+00  0.18938165082E+04  0.18938165082E+04  0.50400001928E-02 0.  1.
        1   -1    0    0  501    0  0.00000000000E+00  0.00000000000E+00 -0.75667935240E+03  0.75667935242E+03  0.50400001928E-02 0. -1.
    10030    2    1    2    0    0  0.00000000000E+00  0.00000000000E+00  0.11371371558E+04  0.26504958606E+04  0.23941694585E+04 0.  0.
        1    1    3    3  502    0  0.40735101297E+03 -0.17617447925E+02  0.18145757741E+04  0.18598200080E+04  0.50400001928E-02 0.  1.
       -1    1    3    3    0  502 -0.40735101297E+03  0.17617447925E+02 -0.67743861833E+03  0.79067585259E+03  0.50400001928E-02 0. -1.
</event>
<event>
 5   0  0.2149417E-06  0.2400178E+04  0.7818609E-02  0.8439437E-01
        1   -1    0    0  501    0  0.00000000000E+00  0.00000000000E+00  0.61656131613E+03  0.61656131616E+03  0.50400001928E-02 0.  1.
       -1   -1    0    0    0  501  0.00000000000E+00  0.00000000000E+00 -0.23358814894E+04  0.23358814894E+04  0.50400001928E-02 0. -1.
    10030    2    1    2    0    0  0.00000000000E+00  0.00000000000E+00 -0.17193201733E+04  0.29524428056E+04  0.24001784646E+04 0.  0.
        5    1    3    3  502    0  0.17796701302E+03  0.25907460265E+03  0.56501928709E+03  0.64657620760E+03  0.46999998093E+01 0.  1.
       -5    1    3    3    0  502 -0.17796701302E+03 -0.25907460265E+03 -0.22843394604E+04  0.23058665980E+04  0.46999998093E+01 0. -1.
</event>
<event>
 5   0  0.5440503E-06  0.2400213E+04  0.7818609E-02  0.8439424E-01
        2   -1    0    0  501    0  0.00000000000E+00  0.00000000000E+00  0.17623903901E+04  0.17623903901E+04  0.25500000920E-02 0.  1.
       -2   -1    0    0    0  501  0.00000000000E+00  0.00000000000E+00 -0.81721731130E+03  0.81721731130E+03  0.25500000920E-02 0. -1.
    10030    2    1    2    0    0  0.00000000000E+00  0.00000000000E+00  0.94517307879E+03  0.25796077014E+04  0.24002132706E+04 0.  0.
        3    1    3    3  502    0 -0.63420206487E+03 -0.68169008591E+03  0.12863736783E+04  0.15879769780E+04  0.10100000352E+00 0.  1.
       -3    1    3    3    0  502  0.63420206487E+03  0.68169008591E+03 -0.34120059947E+03  0.99163072340E+03  0.10100000352E+00 0. -1.
</event>
<event>
 5   0  0.5268358E-06  0.2400701E+04  0.7818609E-02  0.8439241E-01
       -2   -1    0    0    0  501  0.00000000000E+00  0.00000000000E+00  0.65164263807E+03  0.65164263808E+03  0.25500000920E-02 0.  1.
        2   -1    0    0  501    0  0.00000000000E+00  0.00000000000E+00 -0.22110905012E+04  0.22110905012E+04  0.25500000920E-02 0. -1.
    10030    2    1    2    0    0  0.00000000000E+00  0.00000000000E+00 -0.15594478631E+04  0.28627331393E+04  0.24007006038E+04 0.  0.
        2    1    3    3  502    0 -0.18814559825E+03 -0.10393630377E+03 -0.21879546624E+04  0.21984874633E+04  0.25500000920E-02 0. -1.
       -2    1    3    3    0  502  0.18814559825E+03  0.10393630377E+03  0.62850679927E+03  0.66424567602E+03  0.25500000920E-02 0.  1.
</event>
<event>
 5   0  0.2149417E-06  0.2396868E+04  0.7818609E-02  0.8440677E-01
        1   -1    0    0  501    0  0.00000000000E+00  0.00000000000E+00  0.89192945205E+03  0.89192945206E+03  0.50400001928E-02 0. -1.
       -1   -1    0    0    0  501  0.00000000000E+00  0.00000000000E+00 -0.16102665202E+04  0.16102665202E+04  0.50400001928E-02 0.  1.
    10030    2    1    2    0    0  0.00000000000E+00  0.00000000000E+00 -0.71833706815E+03  0.25021959723E+04  0.23968680690E+04 0.  0.
        5    1    3    3  502    0 -0.44053675745E+03  0.51044616202E+03 -0.13934605360E+04  0.15480252822E+04  0.46999998093E+01 0.  1.
       -5    1    3    3    0  502  0.44053675745E+03 -0.51044616202E+03  0.67512346783E+03  0.95417069007E+03  0.46999998093E+01 0. -1.
</event>
<event>
 5   0  0.5440503E-06  0.2410789E+04  0.7818609E-02  0.8435476E-01
        2   -1    0    0  501    0  0.00000000000E+00  0.00000000000E+00  0.17064805335E+04  0.17064805335E+04  0.25500000920E-02 0.  1.
       -2   -1    0    0    0  501  0.00000000000E+00  0.00000000000E+00 -0.85144563455E+03  0.85144563455E+03  0.25500000920E-02 0. -1.
    10030    2    1    2    0    0  0.00000000000E+00  0.00000000000E+00  0.85503489894E+03  0.25579261680E+04  0.24107885852E+04 0.  0.
        3    1    3    3  502    0 -0.96029553764E+03 -0.16218313433E+03  0.11811530425E+04  0.15308799459E+04  0.10100000352E+00 0.  1.
       -3    1    3    3    0  502  0.96029553764E+03  0.16218313433E+03 -0.32611814357E+03  0.10270462222E+04  0.10100000352E+00 0. -1.
</event>
<event>
 5   0  0.5349036E-06  0.2403982E+04  0.7818609E-02  0.8438014E-01
        2   -1    0    0  501    0  0.00000000000E+00  0.00000000000E+00  0.12719560062E+04  0.12719560062E+04  0.25500000920E-02 0. -1.
       -2   -1    0    0    0  501  0.00000000000E+00  0.00000000000E+00 -0.11358745974E+04  0.11358745974E+04  0.25500000920E-02 0.  1.
    10030    2    1    2    0    0  0.00000000000E+00  0.00000000000E+00  0.13608140881E+03  0.24078306036E+04  0.24039821268E+04 0.  0.
        1    1    3    3  502    0  0.11519251371E+04  0.21671946517E+03  0.33470679112E+03  0.12189862527E+04  0.50400001928E-02 0.  1.
       -1    1    3    3    0  502 -0.11519251371E+04 -0.21671946517E+03 -0.19862538231E+03  0.11888443509E+04  0.50400001928E-02 0. -1.
</event>
<event>
 5   0  0.5371843E-06  0.2396734E+04  0.7818609E-02  0.8440727E-01
        2   -1    0    0  501    0  0.00000000000E+00  0.00000000000E+00  0.77771157280E+03  0.77771157280E+03  0.25500000920E-02 0.  1.
       -2   -1    0    0    0  501  0.00000000000E+00  0.00000000000E+00 -0.18465502433E+04  0.18465502433E+04  0.25500000920E-02 0. -1.
    10030    2    1    2    0    0  0.00000000000E+00  0.00000000000E+00 -0.10688386705E+04  0.26242618161E+04  0.23967340228E+04 0.  0.
        4    1    3    3  502    0 -0.88357650891E+03  0.71052797938E+03 -0.10961317284E+03  0.11391111083E+04  0.12699999809E+01 0.  1.
       -4    1    3    3    0  502  0.88357650891E+03 -0.71052797938E+03 -0.95922549770E+03  0.14851507078E+04  0.12699999809E+01 0. -1.
</event>
<event>
 5   0  0.5268358E-06  0.2366253E+04  0.7818609E-02  0.8452247E-01
       -2   -1    0    0    0  501  0.00000000000E+00  0.00000000000E+00  0.12148311124E+04  0.12148311124E+04  0.25500000920E-02 0. -1.
        2   -1    0    0  501    0  0.00000000000E+00  0.00000000000E+00 -0.11522491875E+04  0.11522491875E+04  0.25500000920E-02 0.  1.
    10030    2    1    2    0    0  0.00000000000E+00  0.00000000000E+00  0.62581924921E+02  0.23670803000E+04  0.23662528709E+04 0.  0.
        2    1    3    3  502    0  0.10588356527E+04  0.41428181530E+03  0.35855333863E+03  0.11921924587E+04  0.25500000920E-02 0. -1.
       -2    1    3    3    0  502 -0.10588356527E+04 -0.41428181530E+03 -0.29597141370E+03  0.11748878413E+04  0.25500000920E-02 0.  1.
</event>
<event>
 5   0  0.2149417E-06  0.2398846E+04  0.7818609E-02  0.8439936E-01
        1   -1    0    0  501    0  0.00000000000E+00  0.00000000000E+00  0.16084802979E+04  0.16084802979E+04  0.50400001928E-02 0.  1.
       -1   -1    0    0    0  501  0.00000000000E+00  0.00000000000E+00 -0.89439437508E+03  0.89439437509E+03  0.50400001928E-02 0. -1.
    10030    2    1    2    0    0  0.00000000000E+00  0.00000000000E+00  0.71408592279E+03  0.25028746730E+04  0.23988461650E+04 0.  0.
        5    1    3    3  502    0  0.75462360705E+03 -0.92146408967E+03  0.20933834838E+03  0.12092962792E+04  0.46999998093E+01 0. -1.
       -5    1    3    3    0  502 -0.75462360705E+03  0.92146408967E+03  0.50474757441E+03  0.12935783937E+04  0.46999998093E+01 0.  1.
</event>
<event>
 5   0  0.5268358E-06  0.2426125E+04  0.7818609E-02  0.8429787E-01
        2   -1    0    0  501    0  0.00000000000E+00  0.00000000000E+00  0.19072927717E+04  0.19072927717E+04  0.25500000920E-02 0. -1.
       -2   -1    0    0    0  501  0.00000000000E+00  0.00000000000E+00 -0.77152349265E+03  0.77152349265E+03  0.25500000920E-02 0.  1.
    10030    2    1    2    0    0  0.00000000000E+00  0.00000000000E+00  0.11357692791E+04  0.26788162644E+04  0.24261254549E+04 0.  0.
        2    1    3    3  502    0  0.78444559203E+03 -0.89475881006E+03  0.82817702264E+03  0.14497673592E+04  0.25500000920E-02 0. -1.
       -2    1    3    3    0  502 -0.78444559203E+03  0.89475881006E+03  0.30759225645E+03  0.12290489052E+04  0.25500000920E-02 0.  1.
</event>
<event>
 5   0  0.2149417E-06  0.2400668E+04  0.7818609E-02  0.8439254E-01
       -1   -1    0    0    0  501  0.00000000000E+00  0.00000000000E+00  0.13226628375E+04  0.13226628375E+04  0.50400001928E-02 0.  1.
        1   -1    0    0  501    0  0.00000000000E+00  0.00000000000E+00 -0.10893185504E+04  0.10893185504E+04  0.50400001928E-02 0. -1.
    10030    2    1    2    0    0  0.00000000000E+00  0.00000000000E+00  0.23334428708E+03  0.24119813879E+04  0.24006675445E+04 0.  0.
        5    1    3    3  502    0 -0.50202301587E+03 -0.13281888268E+03 -0.97060681075E+03  0.11008031773E+04  0.46999998093E+01 0. -1.
       -5    1    3    3    0  502  0.50202301587E+03  0.13281888268E+03  0.12039510978E+04  0.13111782106E+04  0.46999998093E+01 0.  1.
</event>
<event>
 5   0  0.2149029E-06  0.2402145E+04  0.7818609E-02  0.8438701E-01
       -1   -1    0    0    0  501  0.00000000000E+00  0.00000000000E+00  0.62967551328E+03  0.62967551330E+03  0.50400001928E-02 0.  1.
        1   -1    0    0  501    0  0.00000000000E+00  0.00000000000E+00 -0.22909820406E+04  0.22909820406E+04  0.50400001928E-02 0. -1.
    10030    2    1    2    0    0  0.00000000000E+00  0.00000000000E+00 -0.16613065273E+04  0.29206575539E+04  0.24021451183E+04 0.  0.
        4    1    3    3  502    0 -0.23696886381E+02 -0.30064581970E+03 -0.22441974300E+04  0.22643703692E+04  0.12699999809E+01 0. -1.
       -4    1    3    3    0  502  0.23696886381E+02  0.30064581970E+03  0.58289090272E+03  0.65628718463E+03  0.12699999809E+01 0.  1.
</event>
<event>
 5   0  0.2254269E-06  0.2398293E+04  0.7818609E-02  0.8440143E-01
       -1   -1    0    0    0  501  0.00000000000E+00  0.00000000000E+00  0.17014554086E+04  0.17014554086E+04  0.50400001928E-02 0.  1.
        1   -1    0    0  501    0  0.00000000000E+00  0.00000000000E+00 -0.84513102004E+03  0.84513102005E+03  0.50400001928E-02 0. -1.
    10030    2    1    2    0    0  0.00000000000E+00  0.00000000000E+00  0.85632438856E+03  0.25465864287E+04  0.23982933474E+04 0.  0.
        2    1    3    3  502    0  0.58919885716E+03  0.51953622486E+03  0.13902081964E+04  0.15967942922E+04  0.25500000920E-02 0.  1.
       -2    1    3    3    0  502 -0.58919885716E+03 -0.51953622486E+03 -0.53388380784E+03  0.94979213647E+03  0.25500000920E-02 0. -1.
</event>
<event>
 5   0  0.2149029E-06  0.2403007E+04  0.7818609E-02  0.8438379E-01
        1   -1    0    0  501    0  0.00000000000E+00  0.00000000000E+00  0.22414068240E+04  0.22414068240E+04  0.50400001928E-02 0. -1.
       -1   -1    0    0    0  501  0.00000000000E+00  0.00000000000E+00 -0.64406431107E+03  0.64406431109E+03  0.50400001928E-02 0.  1.
    10030    2    1    2    0    0  0.00000000000E+00  0.00000000000E+00  0.15973425130E+04  0.28854711351E+04  0.24030065684E+04 0.  0.
        4    1    3    3  502    0  0.69723838836E+03  0.65050471793E+02 -0.37369119890E+03  0.79373777730E+03  0.12699999809E+01 0.  1.
       -4    1    3    3    0  502 -0.69723838836E+03 -0.65050471793E+02  0.19710337119E+04  0.20917333578E+04  0.12699999809E+01 0. -1.
</event>
<event>
 5   0  0.5349036E-06  0.2386500E+04  0.7818609E-02  0.8444575E-01
       -2   -1    0    0    0  501  0.00000000000E+00  0.00000000000E+00  0.14170305971E+04  0.14170305971E+04  0.25500000920E-02 0.  1.
        2   -1    0    0  501    0  0.00000000000E+00  0.00000000000E+00 -0.10048093898E+04  0.10048093898E+04  0.25500000920E-02 0. -1.
    10030    2    1    2    0    0  0.00000000000E+00  0.00000000000E+00  0.41222120729E+03  0.24218399869E+04  0.23865000730E+04 0.  0.
        1    1    3    3  502    0  0.69958411258E+03  0.32657835095E+03 -0.71718328898E+03  0.10537662074E+04  0.50400001928E-02 0. -1.
       -1    1    3    3    0  502 -0.69958411258E+03 -0.32657835095E+03  0.11294044963E+04  0.13680737795E+04  0.50400001928E-02 0.  1.
</event>
<event>
 5   0  0.5371843E-06  0.2397866E+04  0.7818609E-02  0.8440303E-01
       -2   -1    0    0    0  501  0.00000000000E+00  0.00000000000E+00  0.15038963995E+04  0.15038963995E+04  0.25500000920E-02 0. -1.
        2   -1    0    0  501    0  0.00000000000E+00  0.00000000000E+00 -0.95581081677E+03  0.95581081677E+03  0.25500000920E-02 0.  1.
    10030    2    1    2    0    0  0.00000000000E+00  0.00000000000E+00  0.54808558274E+03  0.24597072163E+04  0.23978660896E+04 0.  0.
        4    1    3    3  502    0 -0.61740934116E+03 -0.10249930040E+04  0.19704783232E+03  0.12126971650E+04  0.12699999809E+01 0.  1.
       -4    1    3    3    0  502  0.61740934116E+03  0.10249930040E+04  0.35103775043E+03  0.12470100513E+04  0.12699999809E+01 0. -1.
</event>
<event>
 5   0  0.2215700E-06  0.2397116E+04  0.7818609E-02  0.8440584E-01
       -1   -1    0    0    0  501  0.00000000000E+00  0.00000000000E+00  0.67653928960E+03  0.67653928962E+03  0.50400001928E-02 0. -1.
        1   -1    0    0  501    0  0.00000000000E+00  0.00000000000E+00 -0.21233662413E+04  0.21233662413E+04  0.50400001928E-02 0.  1.
    10030    2    1    2    0    0  0.00000000000E+00  0.00000000000E+00 -0.14468269517E+04  0.27999055309E+04  0.23971155070E+04 0.  0.
        3    1    3    3  502    0 -0.30407384273E+03 -0.51240185306E+03 -0.19381232367E+04  0.20276435218E+04  0.10100000352E+00 0.  1.
       -3    1    3    3    0  502  0.30407384273E+03  0.51240185306E+03  0.49129628499E+03  0.77226200910E+03  0.10100000352E+00 0. -1.
</event>
<event>
 5   0  0.5440503E-06  0.2398321E+04  0.7818609E-02  0.8440132E-01
       -2   -1    0    0    0  501  0.00000000000E+00  0.00000000000E+00  0.56554801284E+03  0.56554801284E+03  0.25500000920E-02 0.  1.
        2   -1    0    0  501    0  0.00000000000E+00  0.00000000000E+00 -0.25426413562E+04  0.25426413562E+04  0.25500000920E-02 0. -1.
    10030    2    1    2    0    0  0.00000000000E+00  0.00000000000E+00 -0.19770933434E+04  0.31081893691E+04  0.23983208846E+04 0.  0.
        3    1    3    3  502    0 -0.55091239924E+02  0.32236469459E+03  0.50663644095E+03  0.60302117255E+03  0.10100000352E+00 0.  1.
       -3    1    3    3    0  502  0.55091239924E+02 -0.32236469459E+03 -0.24837297844E+04  0.25051681965E+04  0.10100000352E+00 0. -1.
</event>
<event>
 5   0  0.2215700E-06  0.2398737E+04  0.7818609E-02  0.8439976E-01
       -1   -1    0    0    0  501  0.00000000000E+00  0.00000000000E+00  0.12378913744E+04  0.12378913744E+04  0.50400001928E-02 0.  1.
        1   -1    0    0  501    0  0.00000000000E+00  0.00000000000E+00 -0.11620447785E+04  0.11620447785E+04  0.50400001928E-02 0. -1.
    10030    2    1    2    0    0  0.00000000000E+00  0.00000000000E+00  0.75846595860E+02  0.23999361530E+04  0.23987373412E+04 0.  0.
        3    1    3    3  502    0 -0.10838854307E+04  0.21330282638E+03  0.50525359631E+03  0.12147373912E+04  0.10100000352E+00 0.  1.
       -3    1    3    3    0  502  0.10838854307E+04 -0.21330282638E+03 -0.42940700045E+03  0.11851987618E+04  0.10100000352E+00 0. -1.
</event>
<event>
 5   0  0.2254269E-06  0.2396369E+04  0.7818609E-02  0.8440864E-01
        1   -1    0    0  501    0  0.00000000000E+00  0.00000000000E+00  0.13158851264E+04  0.13158851264E+04  0.50400001928E-02 0.  1.
       -1   -1    0    0    0  501  0.00000000000E+00  0.00000000000E+00 -0.10910114858E+04  0.10910114858E+04  0.50400001928E-02 0. -1.
    10030    2    1    2    0    0  0.00000000000E+00  0.00000000000E+00  0.22487364057E+03  0.24068966122E+04  0.23963687420E+04 0.  0.
        2    1    3    3  502    0  0.26028141173E+03  0.10980989844E+04  0.51679461197E+03  0.12412269993E+04  0.25500000920E-02 0.  1.
       -2    1    3    3    0  502 -0.26028141173E+03 -0.10980989844E+04 -0.29192097139E+03  0.11656696129E+04  0.25500000920E-02 0. -1.
</event>
<event>
 5   0  0.5268358E-06  0.2395856E+04  0.7818609E-02  0.8441056E-01
       -2   -1    0    0    0  501  0.00000000000E+00  0.00000000000E+00  0.10273184828E+04  0.10273184828E+04  0.25500000920E-02 0.  1.
        2   -1    0    0  501    0  0.00000000000E+00  0.00000000000E+00 -0.13968715897E+04  0.13968715897E+04  0.25500000920E-02 0. -1.
    10030    2    1    2    0    0  0.00000000000E+00  0.00000000000E+00 -0.36955310685E+03  0.24241900725E+04  0.23958564249E+04 0.  0.
        2    1    3    3  502    0  0.19159442997E+03 -0.11656392128E+03 -0.13754411443E+04  0.13936046480E+04  0.25500000920E-02 0. -1.
       -2    1    3    3    0  502 -0.19159442997E+03  0.11656392128E+03  0.10058880375E+04  0.10305854245E+04  0.25500000920E-02 0.  1.
</event>
<event>
 5   0  0.1796750E-06  0.2406733E+04  0.7818609E-02  0.8436987E-01
        3   -1    0    0  501    0  0.00000000000E+00  0.00000000000E+00  0.13785845841E+04  0.13785845878E+04  0.10100000352E+00 0. -1.
       -3   -1    0    0    0  501  0.00000000000E+00  0.00000000000E+00 -0.10504183096E+04  0.10504183144E+04  0.10100000352E+00 0.  1.
    10030    2    1    2    0    0  0.00000000000E+00  0.00000000000E+00  0.32816627455E+03  0.24290029022E+04  0.24067326389E+04 0.  0.
        4    1    3    3  502    0 -0.97869150234E+03 -0.66249776227E+03  0.39278213081E+03  0.12453994367E+04  0.12699999809E+01 0.  1.
       -4    1    3    3    0  502  0.97869150234E+03  0.66249776227E+03 -0.64615856263E+02  0.11836034655E+04  0.12699999809E+01 0. -1.
</event>
<event>
 5   0  0.2297414E-06  0.2409986E+04  0.7818609E-02  0.8435774E-01
       -1   -1    0    0    0  501  0.00000000000E+00  0.00000000000E+00  0.13034730238E+04  0.13034730239E+04  0.50400001928E-02 0. -1.
        1   -1    0    0  501    0  0.00000000000E+00  0.00000000000E+00 -0.11139533245E+04  0.11139533245E+04  0.50400001928E-02 0.  1.
    10030    2    1    2    0    0  0.00000000000E+00  0.00000000000E+00  0.18951969933E+03  0.24174263484E+04  0.24099859820E+04 0.  0.
        1    1    3    3  502    0 -0.82853725056E+03 -0.74680521685E+03 -0.36251606903E+03  0.11728639767E+04  0.50400001928E-02 0.  1.
       -1    1    3    3    0  502  0.82853725056E+03  0.74680521685E+03  0.55203576835E+03  0.12445623717E+04  0.50400001928E-02 0. -1.
</event>
<event>
 5   0  0.5371843E-06  0.2402608E+04  0.7818609E-02  0.8438528E-01
       -2   -1    0    0    0  501  0.00000000000E+00  0.00000000000E+00  0.11054881160E+04  0.11054881160E+04  0.25500000920E-02 0. -1.
        2   -1    0    0  501    0  0.00000000000E+00  0.00000000000E+00 -0.13054250296E+04  0.13054250296E+04  0.25500000920E-02 0.  1.
    10030    2    1    2    0    0  0.00000000000E+00  0.00000000000E+00 -0.19993691356E+03  0.24109131456E+04  0.24026084630E+04 0.  0.
        4    1    3    3  502    0  0.96795412915E+03  0.64234242770E+03 -0.40695277694E+03  0.12309147680E+04  0.12699999809E+01 0.  1.
       -4    1    3    3    0  502 -0.96795412915E+03 -0.64234242770E+03  0.20701586338E+03  0.11799983776E+04  0.12699999809E+01 0. -1.
</event>
<event>
 5   0  0.2297414E-06  0.2399330E+04  0.7818609E-02  0.8439755E-01
        1   -1    0    0  501    0  0.00000000000E+00  0.00000000000E+00  0.14514495578E+04  0.14514495578E+04  0.50400001928E-02 0. -1.
       -1   -1    0    0    0  501  0.00000000000E+00  0.00000000000E+00 -0.99155739645E+03  0.99155739646E+03  0.50400001928E-02 0.  1.
    10030    2    1    2    0    0  0.00000000000E+00  0.00000000000E+00  0.45989216132E+03  0.24430069542E+04  0.23993295268E+04 0.  0.
        1    1    3    3  502    0 -0.46148897891E+03 -0.52936748256E+03 -0.76038153324E+03  0.10350758839E+04  0.50400001928E-02 0.  1.
       -1    1    3    3    0  502  0.46148897891E+03  0.52936748256E+03  0.12202736946E+04  0.14079310704E+04  0.50400001928E-02 0. -1.
</event>
<event>
 5   0  0.5371843E-06  0.2404209E+04  0.7818609E-02  0.8437930E-01
       -2   -1    0    0    0  501  0.00000000000E+00  0.00000000000E+00  0.10934040945E+04  0.10934040945E+04  0.25500000920E-02 0. -1.
        2   -1    0    0  501    0  0.00000000000E+00  0.00000000000E+00 -0.13216109522E+04  0.13216109522E+04  0.25500000920E-02 0.  1.
    10030    2    1    2    0    0  0.00000000000E+00  0.00000000000E+00 -0.22820685776E+03  0.24150150467E+04  0.24042086652E+04 0.  0.
        4    1    3    3  502    0  0.11413057411E+04  0.32609434295E+03  0.76848091263E+02  0.11894635586E+04  0.12699999809E+01 0. -1.
       -4    1    3    3    0  502 -0.11413057411E+04 -0.32609434295E+03 -0.30505494902E+03  0.12255514881E+04  0.12699999809E+01 0.  1.
</event>
<event>
 5   0  0.5379778E-06  0.2395930E+04  0.7818609E-02  0.8441029E-01
        2   -1    0    0  501    0  0.00000000000E+00  0.00000000000E+00  0.19596038326E+04  0.19596038326E+04  0.25500000920E-02 0. -1.
       -2   -1    0    0    0  501  0.00000000000E+00  0.00000000000E+00 -0.73235218642E+03  0.73235218642E+03  0.25500000920E-02 0.  1.
    10030    2    1    2    0    0  0.00000000000E+00  0.00000000000E+00  0.12272516462E+04  0.26919560190E+04  0.23959300084E+04 0.  0.
        5    1    3    3  502    0  0.31421400652E+03  0.11543310801E+04  0.68367808489E+03  0.13779145467E+04  0.46999998093E+01 0.  1.
       -5    1    3    3    0  502 -0.31421400652E+03 -0.11543310801E+04  0.54357356130E+03  0.13140414723E+04  0.46999998093E+01 0. -1.
</event>
<event>
 5   0  0.2149029E-06  0.2399727E+04  0.7818609E-02  0.8439606E-01
        1   -1    0    0  501    0  0.00000000000E+00  0.00000000000E+00  0.15598970339E+04  0.15598970339E+04  0.50400001928E-02 0. -1.
       -1   -1    0    0    0  501  0.00000000000E+00  0.00000000000E+00 -0.92292751591E+03  0.92292751593E+03  0.50400001928E-02 0.  1.
    10030    2    1    2    0    0  0.00000000000E+00  0.00000000000E+00  0.63696951801E+03  0.24828245499E+04  0.23997265633E+04 0.  0.
        4    1    3    3  502    0 -0.46871445488E+03  0.90477811333E+03 -0.33697775200E+03  0.10732531355E+04  0.12699999809E+01 0.  1.
       -4    1    3    3    0  502  0.46871445488E+03 -0.90477811333E+03  0.97394727001E+03  0.14095714144E+04  0.12699999809E+01 0. -1.
</event>
<event>
 5   0  0.5379778E-06  0.2398770E+04  0.7818609E-02  0.8439964E-01
       -2   -1    0    0    0  501  0.00000000000E+00  0.00000000000E+00  0.84765508177E+03  0.84765508177E+03  0.25500000920E-02 0. -1.
        2   -1    0    0  501    0  0.00000000000E+00  0.00000000000E+00 -0.16970636210E+04  0.16970636210E+04  0.25500000920E-02 0.  1.
    10030    2    1    2    0    0  0.00000000000E+00  0.00000000000E+00 -0.84940853926E+03  0.25447187028E+04  0.23987701870E+04 0.  0.
        5    1    3    3  502    0 -0.18312752753E+03 -0.33198426978E+03 -0.16318081519E+04  0.16752818215E+04  0.46999998093E+01 0.  1.
       -5    1    3    3    0  502  0.18312752753E+03  0.33198426978E+03  0.78239961266E+03  0.86943688132E+03  0.46999998093E+01 0. -1.
</event>
<event>
 5   0  0.2254269E-06  0.2383144E+04  0.7818609E-02  0.8445841E-01
       -1   -1    0    0    0  501  0.00000000000E+00  0.00000000000E+00  0.97007955035E+03  0.97007955036E+03  0.50400001928E-02 0. -1.
        1   -1    0    0  501    0  0.00000000000E+00  0.00000000000E+00 -0.14636364079E+04  0.14636364079E+04  0.50400001928E-02 0.  1.
    10030    2    1    2    0    0  0.00000000000E+00  0.00000000000E+00 -0.49355685756E+03  0.24337159583E+04  0.23831439306E+04 0.  0.
        2    1    3    3  502    0 -0.10798376228E+04  0.49324890432E+03 -0.14213456811E+03  0.11956362360E+04  0.25500000920E-02 0.  1.
       -2    1    3    3    0  502  0.10798376228E+04 -0.49324890432E+03 -0.35142228945E+03  0.12380797223E+04  0.25500000920E-02 0. -1.
</event>
<event>
 5   0  0.5268358E-06  0.2342949E+04  0.7818609E-02  0.8461177E-01
        2   -1    0    0  501    0  0.00000000000E+00  0.00000000000E+00  0.21527401049E+04  0.21527401049E+04  0.25500000920E-02 0. -1.
       -2   -1    0    0    0  501  0.00000000000E+00  0.00000000000E+00 -0.63749080850E+03  0.63749080851E+03  0.25500000920E-02 0.  1.
    10030    2    1    2    0    0  0.00000000000E+00  0.00000000000E+00  0.15152492964E+04  0.27902309134E+04  0.23429485952E+04 0.  0.
        2    1    3    3  502    0 -0.88490629568E+03 -0.53919910158E+03  0.14083401685E+04  0.17484898780E+04  0.25500000920E-02 0. -1.
       -2    1    3    3    0  502  0.88490629568E+03  0.53919910158E+03  0.10690912795E+03  0.10417410354E+04  0.25500000920E-02 0.  1.
</event>
<event>
 5   0  0.2149417E-06  0.2402728E+04  0.7818609E-02  0.8438483E-01
       -1   -1    0    0    0  501  0.00000000000E+00  0.00000000000E+00  0.83472556670E+03  0.83472556672E+03  0.50400001928E-02 0.  1.
        1   -1    0    0  501    0  0.00000000000E+00  0.00000000000E+00 -0.17290416580E+04  0.17290416580E+04  0.50400001928E-02 0. -1.
    10030    2    1    2    0    0  0.00000000000E+00  0.00000000000E+00 -0.89431609127E+03  0.25637672247E+04  0.24027278480E+04 0.  0.
        5    1    3    3  502    0 -0.86836451462E+03 -0.77923215905E+02  0.43475111577E+03  0.97424821297E+03  0.46999998093E+01 0.  1.
       -5    1    3    3    0  502  0.86836451462E+03  0.77923215905E+02 -0.13290672070E+04  0.15895190117E+04  0.46999998093E+01 0. -1.
</event>
</LesHouchesEvents>
